Generated by trjconv : CNT in water t= 522.00000
33518
    1C        C    1   2.848   2.770   4.749
    1C        C    2   2.904   2.724   4.870
    1C        C    3   2.849   2.778   4.987
    1C        C    4   2.856   2.776   4.263
    1C        C    5   2.907   2.727   4.385
    1C        C    6   2.852   2.773   4.507
    1C        C    7   3.015   2.637   4.629
    1C        C    8   2.899   2.718   4.628
    1C        C    9   3.080   2.605   4.750
    1C        C   10   3.016   2.638   4.871
    1C        C   11   3.180   2.491   4.977
    1C        C   12   3.056   2.554   4.977
    1C        C   13   2.854   2.773   3.776
    1C        C   14   2.904   2.719   3.896
    1C        C   15   2.852   2.769   4.018
    1C        C   16   3.020   2.641   4.138
    1C        C   17   2.905   2.724   4.141
    1C        C   18   3.080   2.610   4.262
    1C        C   19   3.023   2.647   4.386
    1C        C   20   3.212   2.554   4.505
    1C        C   21   3.081   2.606   4.508
    1C        C   22   3.279   2.531   4.627
    1C        C   23   3.210   2.547   4.749
    1C        C   24   3.414   2.480   4.870
    1C        C   25   3.273   2.505   4.869
    1C        C   26   3.493   2.476   4.986
    1C        C   27   2.855   2.768   3.282
    1C        C   28   2.906   2.724   3.406
    1C        C   29   2.858   2.772   3.530
    1C        C   30   3.017   2.637   3.651
    1C        C   31   2.907   2.725   3.654
    1C        C   32   3.078   2.598   3.772
    1C        C   33   3.017   2.635   3.894
    1C        C   34   3.207   2.542   4.020
    1C        C   35   3.078   2.600   4.016
    1C        C   36   3.277   2.523   4.142
    1C        C   37   3.210   2.553   4.262
    1C        C   38   3.418   2.503   4.383
    1C        C   39   3.279   2.530   4.383
    1C        C   40   3.488   2.500   4.506
    1C        C   41   3.417   2.501   4.627
    1C        C   42   3.629   2.484   4.744
    1C        C   43   3.487   2.478   4.748
    1C        C   44   3.708   2.489   4.861
    1C        C   45   3.632   2.474   4.978
    1C        C   46   2.836   2.751   2.791
    1C        C   47   2.895   2.710   2.913
    1C        C   48   2.851   2.765   3.035
    1C        C   49   3.018   2.637   3.161
    1C        C   50   2.904   2.721   3.158
    1C        C   51   3.077   2.603   3.285
    1C        C   52   3.018   2.639   3.408
    1C        C   53   3.205   2.538   3.527
    1C        C   54   3.076   2.596   3.529
    1C        C   55   3.274   2.518   3.649
    1C        C   56   3.208   2.541   3.772
    1C        C   57   3.412   2.499   3.895
    1C        C   58   3.273   2.526   3.896
    1C        C   59   3.485   2.491   4.015
    1C        C   60   3.416   2.498   4.138
    1C        C   61   3.627   2.497   4.261
    1C        C   62   3.486   2.488   4.260
    1C        C   63   3.700   2.511   4.381
    1C        C   64   3.629   2.503   4.503
    1C        C   65   3.835   2.550   4.622
    1C        C   66   3.701   2.506   4.625
    1C        C   67   3.906   2.565   4.743
    1C        C   68   3.842   2.534   4.865
    1C        C   69   4.053   2.588   4.979
    1C        C   70   3.922   2.538   4.980
    1C        C   71   2.824   2.733   2.308
    1C        C   72   2.886   2.694   2.429
    1C        C   73   2.832   2.746   2.548
    1C        C   74   3.005   2.620   2.672
    1C        C   75   2.887   2.698   2.670
    1C        C   76   3.070   2.591   2.795
    1C        C   77   3.011   2.630   2.917
    1C        C   78   3.205   2.542   3.036
    1C        C   79   3.075   2.595   3.039
    1C        C   80   3.272   2.523   3.159
    1C        C   81   3.207   2.547   3.282
    1C        C   82   3.413   2.498   3.403
    1C        C   83   3.273   2.522   3.405
    1C        C   84   3.482   2.489   3.525
    1C        C   85   3.413   2.496   3.648
    1C        C   86   3.623   2.498   3.770
    1C        C   87   3.482   2.497   3.772
    1C        C   88   3.695   2.508   3.891
    1C        C   89   3.626   2.502   4.015
    1C        C   90   3.830   2.553   4.137
    1C        C   91   3.694   2.515   4.138
    1C        C   92   3.902   2.576   4.256
    1C        C   93   3.836   2.551   4.378
    1C        C   94   4.031   2.633   4.500
    1C        C   95   3.902   2.575   4.500
    1C        C   96   4.092   2.672   4.621
    1C        C   97   4.033   2.630   4.742
    1C        C   98   4.194   2.767   4.863
    1C        C   99   4.100   2.659   4.864
    1C        C  100   4.215   2.844   4.978
    1C        C  101   2.822   2.729   2.070
    1C        C  102   2.990   2.590   2.188
    1C        C  103   2.875   2.676   2.188
    1C        C  104   3.061   2.570   2.310
    1C        C  105   3.002   2.613   2.431
    1C        C  106   3.201   2.535   2.551
    1C        C  107   3.070   2.589   2.552
    1C        C  108   3.271   2.515   2.672
    1C        C  109   3.201   2.539   2.792
    1C        C  110   3.410   2.494   2.916
    1C        C  111   3.271   2.518   2.913
    1C        C  112   3.483   2.495   3.037
    1C        C  113   3.411   2.498   3.158
    1C        C  114   3.623   2.499   3.280
    1C        C  115   3.482   2.492   3.280
    1C        C  116   3.692   2.512   3.403
    1C        C  117   3.623   2.499   3.526
    1C        C  118   3.830   2.547   3.646
    1C        C  119   3.694   2.509   3.648
    1C        C  120   3.897   2.569   3.768
    1C        C  121   3.831   2.546   3.891
    1C        C  122   4.019   2.644   4.012
    1C        C  123   3.894   2.578   4.013
    1C        C  124   4.085   2.677   4.132
    1C        C  125   4.027   2.642   4.256
    1C        C  126   4.200   2.763   4.377
    1C        C  127   4.089   2.676   4.378
    1C        C  128   4.248   2.816   4.498
    1C        C  129   4.198   2.765   4.620
    1C        C  130   4.329   2.933   4.741
    1C        C  131   4.249   2.816   4.741
    1C        C  132   4.355   3.004   4.860
    1C        C  133   4.288   2.962   4.976
    1C        C  134   3.170   2.462   2.082
    1C        C  135   3.037   2.507   2.082
    1C        C  136   3.258   2.475   2.190
    1C        C  137   3.193   2.518   2.308
    1C        C  138   3.404   2.479   2.429
    1C        C  139   3.265   2.504   2.429
    1C        C  140   3.479   2.479   2.548
    1C        C  141   3.410   2.487   2.671
    1C        C  142   3.621   2.496   2.790
    1C        C  143   3.480   2.488   2.794
    1C        C  144   3.693   2.506   2.911
    1C        C  145   3.625   2.497   3.035
    1C        C  146   3.830   2.538   3.156
    1C        C  147   3.694   2.501   3.158
    1C        C  148   3.894   2.568   3.278
    1C        C  149   3.829   2.547   3.402
    1C        C  150   4.024   2.632   3.524
    1C        C  151   3.895   2.573   3.523
    1C        C  152   4.083   2.669   3.646
    1C        C  153   4.021   2.636   3.769
    1C        C  154   4.187   2.771   3.888
    1C        C  155   4.080   2.679   3.890
    1C        C  156   4.243   2.816   4.011
    1C        C  157   4.197   2.764   4.134
    1C        C  158   4.342   2.921   4.253
    1C        C  159   4.250   2.814   4.255
    1C        C  160   4.379   2.984   4.374
    1C        C  161   4.334   2.929   4.496
    1C        C  162   4.434   3.116   4.618
    1C        C  163   4.366   2.992   4.618
    1C        C  164   4.466   3.184   4.737
    1C        C  165   4.435   3.120   4.860
    1C        C  166   4.510   3.320   4.974
    1C        C  167   4.485   3.184   4.974
    1C        C  168   3.471   2.434   2.073
    1C        C  169   3.398   2.459   2.190
    1C        C  170   3.618   2.467   2.308
    1C        C  171   3.476   2.465   2.308
    1C        C  172   3.693   2.491   2.425
    1C        C  173   3.620   2.488   2.546
    1C        C  174   3.827   2.543   2.666
    1C        C  175   3.690   2.507   2.668
    1C        C  176   3.894   2.564   2.788
    1C        C  177   3.830   2.542   2.912
    1C        C  178   4.021   2.633   3.033
    1C        C  179   3.896   2.568   3.034
    1C        C  180   4.082   2.668   3.156
    1C        C  181   4.020   2.633   3.278
    1C        C  182   4.192   2.757   3.399
    1C        C  183   4.080   2.670   3.400
    1C        C  184   4.245   2.805   3.521
    1C        C  185   4.193   2.758   3.643
    1C        C  186   4.336   2.918   3.765
    1C        C  187   4.241   2.813   3.764
    1C        C  188   4.376   2.979   3.886
    1C        C  189   4.333   2.925   4.009
    1C        C  190   4.445   3.106   4.128
    1C        C  191   4.378   2.982   4.130
    1C        C  192   4.469   3.173   4.250
    1C        C  193   4.443   3.110   4.374
    1C        C  194   4.507   3.313   4.493
    1C        C  195   4.469   3.177   4.495
    1C        C  196   4.517   3.389   4.612
    1C        C  197   4.508   3.320   4.735
    1C        C  198   4.553   3.533   4.851
    1C        C  199   4.530   3.392   4.855
    1C        C  200   4.576   3.616   4.965
    1C        C  201   3.610   2.422   2.075
    1C        C  202   3.826   2.509   2.185
    1C        C  203   3.692   2.459   2.186
    1C        C  204   3.900   2.541   2.303
    1C        C  205   3.830   2.522   2.424
    1C        C  206   4.021   2.624   2.543
    1C        C  207   3.896   2.557   2.544
    1C        C  208   4.081   2.661   2.665
    1C        C  209   4.020   2.628   2.788
    1C        C  210   4.193   2.753   2.907
    1C        C  211   4.079   2.670   2.910
    1C        C  212   4.245   2.801   3.029
    1C        C  213   4.193   2.756   3.153
    1C        C  214   4.337   2.909   3.274
    1C        C  215   4.245   2.801   3.276
    1C        C  216   4.371   2.973   3.395
    1C        C  217   4.335   2.914   3.519
    1C        C  218   4.432   3.102   3.638
    1C        C  219   4.374   2.974   3.641
    1C        C  220   4.460   3.168   3.760
    1C        C  221   4.438   3.106   3.885
    1C        C  222   4.503   3.309   4.004
    1C        C  223   4.469   3.172   4.006
    1C        C  224   4.520   3.379   4.125
    1C        C  225   4.505   3.310   4.248
    1C        C  226   4.519   3.522   4.367
    1C        C  227   4.514   3.381   4.369
    1C        C  228   4.520   3.599   4.486
    1C        C  229   4.527   3.530   4.609
    1C        C  230   4.502   3.743   4.728
    1C        C  231   4.534   3.604   4.729
    1C        C  232   4.500   3.821   4.845
    1C        C  233   4.542   3.752   4.959
    1C        C  234   4.018   2.604   2.067
    1C        C  235   3.895   2.540   2.067
    1C        C  236   4.090   2.644   2.181
    1C        C  237   4.026   2.607   2.302
    1C        C  238   4.201   2.736   2.424
    1C        C  239   4.086   2.653   2.421
    1C        C  240   4.256   2.786   2.544
    1C        C  241   4.199   2.739   2.664
    1C        C  242   4.342   2.900   2.784
    1C        C  243   4.252   2.790   2.784
    1C        C  244   4.379   2.961   2.906
    1C        C  245   4.336   2.909   3.031
    1C        C  246   4.439   3.094   3.148
    1C        C  247   4.380   2.966   3.152
    1C        C  248   4.459   3.162   3.271
    1C        C  249   4.432   3.101   3.396
    1C        C  250   4.500   3.304   3.514
    1C        C  251   4.460   3.169   3.516
    1C        C  252   4.512   3.371   3.638
    1C        C  253   4.501   3.303   3.761
    1C        C  254   4.523   3.518   3.877
    1C        C  255   4.515   3.377   3.881
    1C        C  256   4.517   3.588   4.000
    1C        C  257   4.523   3.520   4.124
    1C        C  258   4.492   3.732   4.240
    1C        C  259   4.516   3.592   4.245
    1C        C  260   4.478   3.802   4.362
    1C        C  261   4.490   3.737   4.486
    1C        C  262   4.426   3.942   4.601
    1C        C  263   4.477   3.810   4.606
    1C        C  264   4.401   4.011   4.722
    1C        C  265   4.441   3.949   4.843
    1C        C  266   4.320   4.130   4.954
    1C        C  267   4.401   4.017   4.958
    1C        C  268   4.267   2.770   2.063
    1C        C  269   4.204   2.727   2.181
    1C        C  270   4.351   2.885   2.302
    1C        C  271   4.256   2.779   2.301
    1C        C  272   4.393   2.951   2.420
    1C        C  273   4.347   2.894   2.541
    1C        C  274   4.448   3.083   2.660
    1C        C  275   4.378   2.961   2.662
    1C        C  276   4.470   3.152   2.782
    1C        C  277   4.442   3.087   2.904
    1C        C  278   4.504   3.292   3.025
    1C        C  279   4.469   3.155   3.025
    1C        C  280   4.513   3.365   3.146
    1C        C  281   4.499   3.297   3.269
    1C        C  282   4.526   3.510   3.389
    1C        C  283   4.515   3.369   3.389
    1C        C  284   4.518   3.582   3.511
    1C        C  285   4.519   3.512   3.634
    1C        C  286   4.488   3.725   3.754
    1C        C  287   4.519   3.587   3.754
    1C        C  288   4.475   3.796   3.875
    1C        C  289   4.488   3.727   3.997
    1C        C  290   4.428   3.933   4.115
    1C        C  291   4.474   3.799   4.117
    1C        C  292   4.399   4.000   4.236
    1C        C  293   4.429   3.935   4.357
    1C        C  294   4.324   4.124   4.477
    1C        C  295   4.390   3.999   4.477
    1C        C  296   4.287   4.190   4.596
    1C        C  297   4.330   4.134   4.718
    1C        C  298   4.200   4.313   4.837
    1C        C  299   4.282   4.196   4.836
    1C        C  300   4.168   4.399   4.947
    1C        C  301   4.356   2.877   2.066
    1C        C  302   4.472   3.065   2.178
    1C        C  303   4.402   2.940   2.182
    1C        C  304   4.484   3.145   2.296
    1C        C  305   4.453   3.078   2.417
    1C        C  306   4.513   3.284   2.540
    1C        C  307   4.480   3.147   2.538
    1C        C  308   4.519   3.358   2.660
    1C        C  309   4.505   3.289   2.782
    1C        C  310   4.529   3.502   2.901
    1C        C  311   4.523   3.360   2.902
    1C        C  312   4.524   3.576   3.021
    1C        C  313   4.522   3.506   3.143
    1C        C  314   4.490   3.715   3.265
    1C        C  315   4.518   3.577   3.265
    1C        C  316   4.475   3.788   3.386
    1C        C  317   4.492   3.720   3.509
    1C        C  318   4.425   3.924   3.628
    1C        C  319   4.468   3.790   3.630
    1C        C  320   4.397   3.991   3.749
    1C        C  321   4.430   3.930   3.872
    1C        C  322   4.316   4.113   3.990
    1C        C  323   4.396   3.996   3.992
    1C        C  324   4.278   4.172   4.113
    1C        C  325   4.322   4.118   4.236
    1C        C  326   4.193   4.291   4.353
    1C        C  327   4.286   4.184   4.355
    1C        C  328   4.139   4.341   4.473
    1C        C  329   4.193   4.296   4.595
    1C        C  330   4.030   4.442   4.715
    1C        C  331   4.142   4.353   4.714
    1C        C  332   3.973   4.495   4.832
    1C        C  333   4.051   4.477   4.947
    1C        C  334   4.548   3.265   2.065
    1C        C  335   4.538   3.125   2.066
    1C        C  336   4.536   3.351   2.174
    1C        C  337   4.514   3.284   2.297
    1C        C  338   4.526   3.497   2.415
    1C        C  339   4.518   3.356   2.418
    1C        C  340   4.527   3.570   2.536
    1C        C  341   4.527   3.499   2.658
    1C        C  342   4.499   3.711   2.778
    1C        C  343   4.524   3.572   2.779
    1C        C  344   4.485   3.785   2.898
    1C        C  345   4.502   3.716   3.020
    1C        C  346   4.420   3.913   3.139
    1C        C  347   4.475   3.783   3.142
    1C        C  348   4.392   3.980   3.260
    1C        C  349   4.426   3.920   3.384
    1C        C  350   4.318   4.105   3.501
    1C        C  351   4.395   3.986   3.505
    1C        C  352   4.276   4.166   3.622
    1C        C  353   4.317   4.108   3.744
    1C        C  354   4.177   4.268   3.867
    1C        C  355   4.270   4.161   3.866
    1C        C  356   4.119   4.314   3.987
    1C        C  357   4.178   4.271   4.108
    1C        C  358   4.016   4.406   4.230
    1C        C  359   4.132   4.326   4.230
    1C        C  360   3.956   4.447   4.352
    1C        C  361   4.019   4.417   4.474
    1C        C  362   3.831   4.519   4.594
    1C        C  363   3.961   4.464   4.594
    1C        C  364   3.763   4.548   4.714
    1C        C  365   3.841   4.546   4.832
    1C        C  366   3.629   4.592   4.949
    1C        C  367   3.767   4.575   4.947
    1C        C  368   4.505   3.563   2.053
    1C        C  369   4.525   3.492   2.172
    1C        C  370   4.502   3.706   2.288
    1C        C  371   4.522   3.566   2.292
    1C        C  372   4.486   3.776   2.410
    1C        C  373   4.504   3.709   2.534
    1C        C  374   4.419   3.905   2.651
    1C        C  375   4.480   3.778   2.655
    1C        C  376   4.395   3.974   2.772
    1C        C  377   4.433   3.916   2.894
    1C        C  378   4.312   4.093   3.013
    1C        C  379   4.395   3.978   3.016
    1C        C  380   4.266   4.149   3.134
    1C        C  381   4.313   4.096   3.256
    1C        C  382   4.177   4.260   3.378
    1C        C  383   4.275   4.158   3.378
    1C        C  384   4.122   4.308   3.499
    1C        C  385   4.174   4.264   3.623
    1C        C  386   4.008   4.394   3.742
    1C        C  387   4.127   4.317   3.745
    1C        C  388   3.948   4.434   3.863
    1C        C  389   4.006   4.399   3.987
    1C        C  390   3.820   4.496   4.109
    1C        C  391   3.951   4.442   4.110
    1C        C  392   3.753   4.522   4.231
    1C        C  393   3.827   4.503   4.350
    1C        C  394   3.620   4.553   4.475
    1C        C  395   3.760   4.529   4.472
    1C        C  396   3.548   4.564   4.596
    1C        C  397   3.623   4.565   4.715
    1C        C  398   3.411   4.547   4.840
    1C        C  399   3.549   4.573   4.835
    1C        C  400   3.344   4.513   4.958
    1C        C  401   4.508   3.702   2.052
    1C        C  402   4.454   3.915   2.168
    1C        C  403   4.490   3.778   2.168
    1C        C  404   4.409   3.974   2.288
    1C        C  405   4.435   3.907   2.410
    1C        C  406   4.327   4.097   2.526
    1C        C  407   4.395   3.973   2.529
    1C        C  408   4.281   4.153   2.647
    1C        C  409   4.315   4.091   2.769
    1C        C  410   4.172   4.250   2.889
    1C        C  411   4.272   4.150   2.890
    1C        C  412   4.123   4.302   3.010
    1C        C  413   4.173   4.255   3.134
    1C        C  414   4.003   4.380   3.252
    1C        C  415   4.123   4.306   3.256
    1C        C  416   3.942   4.417   3.374
    1C        C  417   4.004   4.385   3.497
    1C        C  418   3.815   4.480   3.620
    1C        C  419   3.946   4.427   3.619
    1C        C  420   3.749   4.507   3.742
    1C        C  421   3.819   4.492   3.863
    1C        C  422   3.615   4.538   3.986
    1C        C  423   3.754   4.518   3.986
    1C        C  424   3.544   4.542   4.109
    1C        C  425   3.613   4.541   4.232
    1C        C  426   3.404   4.544   4.356
    1C        C  427   3.545   4.553   4.355
    1C        C  428   3.334   4.540   4.479
    1C        C  429   3.407   4.552   4.598
    1C        C  430   3.196   4.517   4.725
    1C        C  431   3.336   4.542   4.720
    1C        C  432   3.124   4.492   4.845
    1C        C  433   3.205   4.502   4.959
    1C        C  434   4.387   4.126   2.055
    1C        C  435   4.450   4.002   2.058
    1C        C  436   4.305   4.165   2.166
    1C        C  437   4.334   4.095   2.286
    1C        C  438   4.181   4.250   2.402
    1C        C  439   4.283   4.152   2.404
    1C        C  440   4.127   4.299   2.523
    1C        C  441   4.182   4.254   2.645
    1C        C  442   4.009   4.381   2.765
    1C        C  443   4.127   4.303   2.766
    1C        C  444   3.942   4.412   2.885
    1C        C  445   4.006   4.381   3.007
    1C        C  446   3.814   4.472   3.128
    1C        C  447   3.943   4.416   3.129
    1C        C  448   3.748   4.492   3.252
    1C        C  449   3.814   4.476   3.375
    1C        C  450   3.609   4.526   3.497
    1C        C  451   3.748   4.501   3.498
    1C        C  452   3.540   4.535   3.621
    1C        C  453   3.611   4.538   3.743
    1C        C  454   3.401   4.541   3.866
    1C        C  455   3.542   4.547   3.866
    1C        C  456   3.332   4.534   3.989
    1C        C  457   3.403   4.540   4.111
    1C        C  458   3.198   4.495   4.237
    1C        C  459   3.335   4.531   4.234
    1C        C  460   3.130   4.480   4.360
    1C        C  461   3.196   4.510   4.481
    1C        C  462   2.998   4.435   4.604
    1C        C  463   3.129   4.487   4.604
    1C        C  464   2.930   4.403   4.724
    1C        C  465   2.990   4.442   4.847
    1C        C  466   2.800   4.340   4.960
    1C        C  467   2.907   4.430   4.963
    1C        C  468   4.122   4.285   2.041
    1C        C  469   4.189   4.249   2.159
    1C        C  470   4.007   4.371   2.280
    1C        C  471   4.128   4.295   2.279
    1C        C  472   3.944   4.406   2.401
    1C        C  473   4.008   4.374   2.523
    1C        C  474   3.814   4.467   2.644
    1C        C  475   3.945   4.415   2.643
    1C        C  476   3.744   4.488   2.764
    1C        C  477   3.812   4.469   2.886
    1C        C  478   3.606   4.524   3.009
    1C        C  479   3.744   4.494   3.007
    1C        C  480   3.538   4.535   3.132
    1C        C  481   3.610   4.521   3.253
    1C        C  482   3.397   4.531   3.377
    1C        C  483   3.539   4.533   3.375
    1C        C  484   3.327   4.529   3.500
    1C        C  485   3.399   4.538   3.621
    1C        C  486   3.193   4.498   3.746
    1C        C  487   3.329   4.535   3.744
    1C        C  488   3.131   4.474   3.870
    1C        C  489   3.196   4.498   3.993
    1C        C  490   3.004   4.410   4.117
    1C        C  491   3.129   4.476   4.116
    1C        C  492   2.944   4.379   4.241
    1C        C  493   3.002   4.419   4.363
    1C        C  494   2.826   4.303   4.485
    1C        C  495   2.937   4.390   4.485
    1C        C  496   2.769   4.259   4.607
    1C        C  497   2.818   4.315   4.727
    1C        C  498   2.663   4.166   4.845
    1C        C  499   2.751   4.277   4.845
    1C        C  500   2.596   4.118   4.958
    1C        C  501   4.008   4.364   2.043
    1C        C  502   3.814   4.465   2.155
    1C        C  503   3.942   4.406   2.159
    1C        C  504   3.746   4.480   2.278
    1C        C  505   3.814   4.460   2.401
    1C        C  506   3.606   4.511   2.521
    1C        C  507   3.745   4.484   2.522
    1C        C  508   3.533   4.518   2.642
    1C        C  509   3.605   4.517   2.763
    1C        C  510   3.395   4.528   2.888
    1C        C  511   3.536   4.530   2.886
    1C        C  512   3.325   4.522   3.011
    1C        C  513   3.397   4.531   3.132
    1C        C  514   3.189   4.493   3.256
    1C        C  515   3.328   4.521   3.255
    1C        C  516   3.124   4.470   3.379
    1C        C  517   3.191   4.492   3.501
    1C        C  518   2.999   4.408   3.627
    1C        C  519   3.125   4.473   3.624
    1C        C  520   2.946   4.365   3.750
    1C        C  521   3.009   4.402   3.871
    1C        C  522   2.837   4.281   3.997
    1C        C  523   2.948   4.369   3.994
    1C        C  524   2.788   4.235   4.122
    1C        C  525   2.834   4.291   4.243
    1C        C  526   2.690   4.136   4.367
    1C        C  527   2.778   4.247   4.365
    1C        C  528   2.653   4.075   4.489
    1C        C  529   2.687   4.144   4.607
    1C        C  530   2.581   3.961   4.733
    1C        C  531   2.637   4.092   4.729
    1C        C  532   2.539   3.903   4.856
    1C        C  533   2.525   3.997   4.963
    1C        C  534   3.617   4.558   2.041
    1C        C  535   3.750   4.515   2.041
    1C        C  536   3.536   4.531   2.156
    1C        C  537   3.608   4.511   2.277
    1C        C  538   3.396   4.512   2.400
    1C        C  539   3.536   4.522   2.398
    1C        C  540   3.323   4.510   2.521
    1C        C  541   3.392   4.518   2.644
    1C        C  542   3.186   4.481   2.767
    1C        C  543   3.323   4.516   2.767
    1C        C  544   3.121   4.461   2.891
    1C        C  545   3.188   4.487   3.012
    1C        C  546   3.000   4.395   3.136
    1C        C  547   3.122   4.466   3.135
    1C        C  548   2.940   4.364   3.260
    1C        C  549   2.997   4.407   3.382
    1C        C  550   2.833   4.276   3.506
    1C        C  551   2.939   4.369   3.505
    1C        C  552   2.785   4.226   3.629
    1C        C  553   2.836   4.277   3.751
    1C        C  554   2.699   4.121   3.879
    1C        C  555   2.785   4.233   3.875
    1C        C  556   2.661   4.063   4.002
    1C        C  557   2.699   4.126   4.123
    1C        C  558   2.599   3.943   4.247
    1C        C  559   2.655   4.073   4.246
    1C        C  560   2.566   3.880   4.370
    1C        C  561   2.586   3.950   4.490
    1C        C  562   2.526   3.751   4.619
    1C        C  563   2.562   3.887   4.614
    1C        C  564   2.516   3.681   4.742
    1C        C  565   2.519   3.761   4.859
    1C        C  566   2.532   3.550   4.982
    1C        C  567   2.527   3.689   4.979
    1C        C  568   3.327   4.477   2.037
    1C        C  569   3.395   4.508   2.155
    1C        C  570   3.185   4.475   2.281
    1C        C  571   3.324   4.506   2.278
    1C        C  572   3.115   4.457   2.402
    1C        C  573   3.184   4.485   2.523
    1C        C  574   2.990   4.400   2.648
    1C        C  575   3.119   4.458   2.645
    1C        C  576   2.929   4.365   2.770
    1C        C  577   2.996   4.396   2.891
    1C        C  578   2.829   4.268   3.015
    1C        C  579   2.940   4.355   3.014
    1C        C  580   2.782   4.221   3.140
    1C        C  581   2.832   4.273   3.262
    1C        C  582   2.692   4.116   3.388
    1C        C  583   2.783   4.223   3.385
    1C        C  584   2.653   4.058   3.511
    1C        C  585   2.697   4.115   3.632
    1C        C  586   2.591   3.938   3.756
    1C        C  587   2.660   4.061   3.757
    1C        C  588   2.567   3.875   3.880
    1C        C  589   2.599   3.936   4.004
    1C        C  590   2.538   3.736   4.128
    1C        C  591   2.575   3.872   4.127
    1C        C  592   2.522   3.670   4.252
    1C        C  593   2.530   3.743   4.373
    1C        C  594   2.513   3.538   4.500
    1C        C  595   2.517   3.679   4.498
    1C        C  596   2.518   3.467   4.622
    1C        C  597   2.517   3.539   4.743
    1C        C  598   2.534   3.331   4.862
    1C        C  599   2.526   3.472   4.866
    1C        C  600   2.538   3.254   4.979
    1C        C  601   3.193   4.446   2.043
    1C        C  602   2.984   4.388   2.161
    1C        C  603   3.118   4.439   2.161
    1C        C  604   2.924   4.356   2.286
    1C        C  605   2.990   4.393   2.406
    1C        C  606   2.817   4.272   2.529
    1C        C  607   2.927   4.360   2.528
    1C        C  608   2.770   4.218   2.651
    1C        C  609   2.826   4.268   2.772
    1C        C  610   2.685   4.111   2.898
    1C        C  611   2.773   4.221   2.894
    1C        C  612   2.653   4.051   3.022
    1C        C  613   2.691   4.113   3.143
    1C        C  614   2.586   3.931   3.268
    1C        C  615   2.652   4.056   3.266
    1C        C  616   2.554   3.870   3.392
    1C        C  617   2.585   3.934   3.514
    1C        C  618   2.523   3.732   3.637
    1C        C  619   2.562   3.868   3.637
    1C        C  620   2.518   3.665   3.762
    1C        C  621   2.531   3.738   3.882
    1C        C  622   2.511   3.529   4.010
    1C        C  623   2.520   3.669   4.005
    1C        C  624   2.514   3.458   4.133
    1C        C  625   2.510   3.530   4.255
    1C        C  626   2.541   3.324   4.381
    1C        C  627   2.517   3.463   4.380
    1C        C  628   2.558   3.255   4.503
    1C        C  629   2.543   3.327   4.623
    1C        C  630   2.604   3.123   4.746
    1C        C  631   2.552   3.256   4.744
    1C        C  632   2.622   3.051   4.868
    1C        C  633   2.566   3.117   4.982
    1C        C  634   2.779   4.308   2.059
    1C        C  635   2.890   4.393   2.053
    1C        C  636   2.744   4.233   2.171
    1C        C  637   2.810   4.272   2.290
    1C        C  638   2.671   4.110   2.413
    1C        C  639   2.758   4.221   2.411
    1C        C  640   2.633   4.050   2.535
    1C        C  641   2.682   4.108   2.654
    1C        C  642   2.582   3.923   2.779
    1C        C  643   2.644   4.050   2.777
    1C        C  644   2.558   3.860   2.903
    1C        C  645   2.587   3.926   3.025
    1C        C  646   2.522   3.726   3.148
    1C        C  647   2.560   3.862   3.148
    1C        C  648   2.507   3.659   3.272
    1C        C  649   2.520   3.733   3.392
    1C        C  650   2.509   3.523   3.520
    1C        C  651   2.511   3.664   3.514
    1C        C  652   2.515   3.454   3.644
    1C        C  653   2.509   3.524   3.766
    1C        C  654   2.543   3.317   3.888
    1C        C  655   2.513   3.455   3.890
    1C        C  656   2.562   3.254   4.013
    1C        C  657   2.542   3.320   4.136
    1C        C  658   2.621   3.126   4.261
    1C        C  659   2.562   3.254   4.260
    1C        C  660   2.647   3.061   4.383
    1C        C  661   2.613   3.125   4.504
    1C        C  662   2.718   2.941   4.626
    1C        C  663   2.641   3.059   4.626
    1C        C  664   2.754   2.877   4.747
    1C        C  665   2.705   2.935   4.868
    1C        C  666   2.751   2.876   4.986
    1C        C  667   2.677   4.029   2.053
    1C        C  668   2.679   4.107   2.169
    1C        C  669   2.583   3.916   2.294
    1C        C  670   2.638   4.047   2.290
    1C        C  671   2.545   3.854   2.414
    1C        C  672   2.572   3.923   2.535
    1C        C  673   2.507   3.723   2.658
    1C        C  674   2.551   3.857   2.658
    1C        C  675   2.500   3.656   2.782
    1C        C  676   2.522   3.724   2.904
    1C        C  677   2.504   3.514   3.031
    1C        C  678   2.508   3.655   3.027
    1C        C  679   2.507   3.445   3.155
    1C        C  680   2.504   3.518   3.275
    1C        C  681   2.539   3.311   3.400
    1C        C  682   2.512   3.450   3.399
    1C        C  683   2.556   3.245   3.523
    1C        C  684   2.539   3.315   3.645
    1C        C  685   2.610   3.115   3.773
    1C        C  686   2.558   3.246   3.767
    1C        C  687   2.645   3.058   3.897
    1C        C  688   2.612   3.122   4.018
    1C        C  689   2.727   2.941   4.138
    1C        C  690   2.653   3.061   4.139
    1C        C  691   2.764   2.883   4.261
    1C        C  692   2.720   2.940   4.383
    1C        C  693   2.761   2.882   4.505
    1C        C  694   2.626   3.899   2.057
    1C        C  695   2.526   3.709   2.176
    1C        C  696   2.575   3.841   2.174
    1C        C  697   2.505   3.641   2.298
    1C        C  698   2.513   3.716   2.417
    1C        C  699   2.485   3.507   2.545
    1C        C  700   2.495   3.648   2.539
    1C        C  701   2.498   3.438   2.668
    1C        C  702   2.495   3.515   2.787
    1C        C  703   2.528   3.305   2.913
    1C        C  704   2.503   3.444   2.909
    1C        C  705   2.548   3.236   3.034
    1C        C  706   2.533   3.306   3.156
    1C        C  707   2.604   3.107   3.280
    1C        C  708   2.554   3.240   3.279
    1C        C  709   2.641   3.050   3.403
    1C        C  710   2.611   3.115   3.525
    1C        C  711   2.723   2.938   3.649
    1C        C  712   2.642   3.054   3.649
    1C        C  713   2.766   2.884   3.772
    1C        C  714   2.725   2.942   3.895
    1C        C  715   2.769   2.883   4.016
    1C        C  716   2.453   3.502   2.065
    1C        C  717   2.492   3.636   2.061
    1C        C  718   2.470   3.425   2.184
    1C        C  719   2.485   3.500   2.304
    1C        C  720   2.519   3.293   2.426
    1C        C  721   2.484   3.430   2.426
    1C        C  722   2.543   3.228   2.549
    1C        C  723   2.529   3.301   2.670
    1C        C  724   2.603   3.103   2.791
    1C        C  725   2.548   3.233   2.792
    1C        C  726   2.634   3.042   2.915
    1C        C  727   2.601   3.105   3.037
    1C        C  728   2.714   2.924   3.160
    1C        C  729   2.636   3.042   3.158
    1C        C  730   2.763   2.876   3.284
    1C        C  731   2.721   2.933   3.406
    1C        C  732   2.766   2.880   3.528
    1C        C  733   2.494   3.198   2.076
    1C        C  734   2.487   3.283   2.187
    1C        C  735   2.588   3.089   2.306
    1C        C  736   2.530   3.219   2.307
    1C        C  737   2.616   3.025   2.429
    1C        C  738   2.592   3.095   2.548
    1C        C  739   2.707   2.916   2.671
    1C        C  740   2.632   3.036   2.670
    1C        C  741   2.748   2.861   2.794
    1C        C  742   2.708   2.922   2.915
    1C        C  743   2.757   2.871   3.037
    1C        C  744   2.550   3.070   2.074
    1C        C  745   2.686   2.896   2.186
    1C        C  746   2.610   3.015   2.188
    1C        C  747   2.731   2.840   2.307
    1C        C  748   2.693   2.906   2.426
    1C        C  749   2.743   2.855   2.548
    1C        C  750   2.744   2.844   2.069
    1C        C  751   3.656   2.329   1.969
    1C        O  752   3.667   2.205   1.989
    1C        O  753   3.659   2.374   1.837
    1C        C  754   4.619   3.055   1.964
    1C        O  755   4.581   3.025   1.847
    1C        O  756   4.754   3.040   1.995
    1C        C  757   4.458   4.222   1.967
    1C        O  758   4.475   4.344   1.997
    1C        O  759   4.474   4.199   1.830
    1C        C  760   3.595   4.666   1.943
    1C        O  761   3.627   4.786   1.961
    1C        O  762   3.547   4.628   1.816
    1C        C  763   2.886   4.507   1.958
    1C        O  764   2.887   4.493   1.833
    1C        O  765   2.861   4.638   2.001
    1C        C  766   2.344   3.472   1.969
    1C        O  767   2.371   3.490   1.848
    1C        O  768   2.212   3.511   1.996
    1C        C  769   4.666   3.575   5.075
    1C        O  770   4.630   3.591   5.195
    1C        O  771   4.804   3.589   5.058
    1C        C  772   4.261   4.424   5.060
    1C        O  773   4.236   4.392   5.179
    1C        O  774   4.357   4.524   5.043
    1C        C  775   4.142   2.515   5.072
    1C        O  776   4.153   2.390   5.078
    1C        O  777   4.169   2.570   5.199
    1C        C  778   2.886   4.547   5.051
    1C        O  779   2.837   4.653   5.003
    1C        O  780   2.914   4.563   5.187
    1C        C  781   2.487   3.054   5.090
    1C        O  782   2.386   2.985   5.060
    1C        O  783   2.545   3.030   5.214
    1C        C  784   2.422   3.993   5.069
    1C        O  785   2.299   4.008   5.046
    1C        O  786   2.471   4.013   5.199
    1C        C  787   2.941   2.421   2.010
    1C        O  788   2.965   2.384   1.892
    1C        O  789   2.889   2.316   2.086
    1C        C  790   3.183   2.390   5.085
    1C        O  791   3.124   2.280   5.065
    1C        O  792   3.212   2.422   5.218
    1C        H  793   4.276   3.027   5.061
    1C        H  794   4.215   2.790   5.071
    1C        H  795   4.541   3.117   5.037
    1C        H  796   4.447   3.376   5.040
    1C        H  797   4.575   3.808   5.044
    1C        H  798   4.425   3.980   5.056
    1C        H  799   4.245   4.131   5.031
    1C        H  800   4.049   4.559   5.015
    1C        H  801   3.819   4.597   5.038
    1C        H  802   3.592   4.654   5.028
    1C        H  803   3.385   4.544   5.052
    1C        H  804   3.155   4.546   5.042
    1C        H  805   3.870   2.573   5.067
    1C        H  806   3.680   2.413   5.051
    1C        H  807   2.978   2.519   5.042
    1C        H  808   3.442   2.471   5.080
    1C        H  809   2.852   2.722   5.078
    1C        H  810   2.673   2.861   5.059
    1C        H  811   2.497   3.299   5.067
    1C        H  812   2.540   3.501   5.077
    1C        H  813   2.481   3.730   5.067
    1C        H  814   2.617   4.163   5.053
    1C        H  815   2.768   4.304   5.056
    1C        H  816   2.727   2.889   1.973
    1C        H  817   2.840   2.684   1.975
    1C        H  818   3.197   2.396   2.002
    1C        H  819   3.426   2.452   1.977
    1C        H  820   3.835   2.544   1.978
    1C        H  821   4.048   2.642   1.971
    1C        H  822   4.260   2.712   1.974
    1C        H  823   4.365   2.931   1.974
    1C        H  824   4.578   3.314   1.974
    1C        H  825   4.503   3.511   1.959
    1C        H  826   4.571   3.742   1.975
    1C        H  827   3.802   4.514   1.947
    1C        H  828   4.011   4.440   1.967
    1C        H  829   4.144   4.229   1.953
    1C        H  830   4.512   3.975   1.975
    1C        H  831   2.651   3.835   1.975
    1C        H  832   2.678   4.080   1.958
    1C        H  833   2.719   4.301   1.971
    1C        H  834   3.380   4.454   1.947
    1C        H  835   3.156   4.389   1.961
    1C        H  836   2.508   3.003   2.003
    1C        H  837   2.477   3.245   1.981
    1C        H  838   2.488   3.680   1.963
    2V3OU   H29  839   2.800   3.555   5.710
    2V3OU   C27  840   2.781   3.505   5.809
    2V3OU   H27  841   2.725   3.574   5.877
    2V3OU   H28  842   2.738   3.402   5.797
    2V3OU   O11  843   2.908   3.479   5.869
    2V3OU   C15  844   2.920   3.395   5.978
    2V3OU   C13  845   3.049   3.378   6.031
    2V3OU   C14  846   3.077   3.275   6.122
    2V3OU   C16  847   2.972   3.192   6.160
    2V3OU    H6  848   2.993   3.108   6.228
    2V3OU   C12  849   3.213   3.237   6.167
    2V3OU    O2  850   3.241   3.134   6.231
    2V3OU   C10  851   3.326   3.310   6.107
    2V3OU    C8  852   3.458   3.270   6.124
    2V3OU   O10  853   3.488   3.154   6.187
    2V3OU   H26  854   3.399   3.120   6.206
    2V3OU    C6  855   3.563   3.346   6.064
    2V3OU    C5  856   3.537   3.466   5.997
    2V3OU    C4  857   3.702   3.293   6.069
    2V3OU    H4  858   3.722   3.228   6.159
    2V3OU    H5  859   3.711   3.223   5.980
    2V3OU    C2  860   3.813   3.398   6.064
    2V3OU    O6  861   3.802   3.479   6.181
    2V3OU   H21  862   3.760   3.555   6.137
    2V3OU    C3  863   3.785   3.496   5.950
    2V3OU    H2  864   3.866   3.574   5.950
    2V3OU    H3  865   3.793   3.437   5.856
    2V3OU   C25  866   3.949   3.329   6.050
    2V3OU    O7  867   3.995   3.294   5.942
    2V3OU   C26  868   4.027   3.292   6.175
    2V3OU   H22  869   4.061   3.388   6.221
    2V3OU   H23  870   4.118   3.233   6.146
    2V3OU    O8  871   3.959   3.205   6.263
    2V3OU   H24  872   3.921   3.268   6.326
    2V3OU    C1  873   3.648   3.561   5.964
    2V3OU    H1  874   3.624   3.613   5.866
    2V3OU    O3  875   3.657   3.658   6.069
    2V3OU   C19  876   3.616   3.793   6.051
    2V3OU    H9  877   3.522   3.802   5.989
    2V3OU    O4  878   3.717   3.847   5.969
    2V3OU   C20  879   3.846   3.875   6.026
    2V3OU   H10  880   3.899   3.777   6.043
    2V3OU   C24  881   3.608   3.854   6.191
    2V3OU   H16  882   3.536   3.793   6.251
    2V3OU   H17  883   3.561   3.955   6.174
    2V3OU   C23  884   3.745   3.876   6.255
    2V3OU   H15  885   3.795   3.776   6.277
    2V3OU    N1  886   3.732   3.956   6.376
    2V3OU   H19  887   3.811   3.927   6.430
    2V3OU   H20  888   3.649   3.938   6.429
    2V3OU   C21  889   3.845   3.949   6.160
    2V3OU   H11  890   3.947   3.921   6.197
    2V3OU    O5  891   3.829   4.089   6.179
    2V3OU   H18  892   3.778   4.091   6.262
    2V3OU   C22  893   3.918   3.953   5.917
    2V3OU   H12  894   3.870   4.054   5.908
    2V3OU   H13  895   3.913   3.897   5.821
    2V3OU   H14  896   4.028   3.956   5.938
    2V3OU   C11  897   3.159   3.473   6.009
    2V3OU    O1  898   3.139   3.591   5.973
    2V3OU    C9  899   3.298   3.430   6.037
    2V3OU    C7  900   3.401   3.507   5.984
    2V3OU    O9  901   3.389   3.620   5.905
    2V3OU   H25  902   3.293   3.638   5.902
    2V3OU   C17  903   2.815   3.315   6.026
    2V3OU    H7  904   2.713   3.345   6.002
    2V3OU   C18  905   2.843   3.209   6.113
    2V3OU    H8  906   2.754   3.148   6.135
    3SOL     OW  907   3.328   3.350   4.035
    3SOL    HW1  908   3.244   3.300   4.015
    3SOL    HW2  909   3.389   3.292   4.089
    4SOL     OW  910   6.640   6.375   1.152
    4SOL    HW1  911   6.645   6.277   1.173
    4SOL    HW2  912   6.727   6.405   1.112
    5SOL     OW  913   4.643   2.649   0.411
    5SOL    HW1  914   4.562   2.674   0.464
    5SOL    HW2  915   4.688   2.571   0.454
    6SOL     OW  916   4.558   1.458   2.002
    6SOL    HW1  917   4.515   1.548   1.992
    6SOL    HW2  918   4.653   1.462   1.970
    7SOL     OW  919   2.097   3.305   4.342
    7SOL    HW1  920   2.109   3.323   4.439
    7SOL    HW2  921   2.162   3.235   4.312
    8SOL     OW  922   1.137   2.024   5.139
    8SOL    HW1  923   1.206   2.019   5.211
    8SOL    HW2  924   1.119   2.119   5.116
    9SOL     OW  925   0.270   1.749   5.819
    9SOL    HW1  926   0.234   1.779   5.907
    9SOL    HW2  927   0.197   1.705   5.767
   10SOL     OW  928   5.398   4.775   1.717
   10SOL    HW1  929   5.468   4.785   1.787
   10SOL    HW2  930   5.319   4.832   1.740
   11SOL     OW  931   2.545   2.448   1.019
   11SOL    HW1  932   2.500   2.359   1.010
   11SOL    HW2  933   2.630   2.447   0.967
   12SOL     OW  934   4.771   4.884   2.139
   12SOL    HW1  935   4.762   4.936   2.224
   12SOL    HW2  936   4.842   4.814   2.149
   13SOL     OW  937   5.646   6.456   1.521
   13SOL    HW1  938   5.697   6.484   1.603
   13SOL    HW2  939   5.671   6.363   1.496
   14SOL     OW  940   4.681   6.519   6.910
   14SOL    HW1  941   4.668   6.489   6.815
   14SOL    HW2  942   4.723   6.610   6.910
   15SOL     OW  943   0.687   6.131   6.311
   15SOL    HW1  944   0.776   6.172   6.290
   15SOL    HW2  945   0.695   6.032   6.314
   16SOL     OW  946   2.401   5.458   5.043
   16SOL    HW1  947   2.422   5.502   4.955
   16SOL    HW2  948   2.303   5.437   5.047
   17SOL     OW  949   6.909   0.903   4.798
   17SOL    HW1  950   6.814   0.890   4.769
   17SOL    HW2  951   6.911   0.959   4.881
   18SOL     OW  952   2.680   1.284   5.652
   18SOL    HW1  953   2.707   1.373   5.691
   18SOL    HW2  954   2.751   1.254   5.587
   19SOL     OW  955   3.031   6.314   2.537
   19SOL    HW1  956   3.033   6.379   2.461
   19SOL    HW2  957   3.015   6.221   2.502
   20SOL     OW  958   6.911   1.856   5.742
   20SOL    HW1  959   6.996   1.905   5.726
   20SOL    HW2  960   6.917   1.765   5.700
   21SOL     OW  961   2.184   3.859   2.334
   21SOL    HW1  962   2.187   3.772   2.284
   21SOL    HW2  963   2.200   3.934   2.269
   22SOL     OW  964   0.860   1.554   0.270
   22SOL    HW1  965   0.796   1.480   0.293
   22SOL    HW2  966   0.812   1.642   0.273
   23SOL     OW  967   6.558   4.985   0.501
   23SOL    HW1  968   6.608   5.049   0.559
   23SOL    HW2  969   6.622   4.932   0.446
   24SOL     OW  970   5.334   1.404   6.972
   24SOL    HW1  971   5.267   1.454   6.917
   24SOL    HW2  972   5.398   1.468   7.014
   25SOL     OW  973   1.763   0.697   3.936
   25SOL    HW1  974   1.700   0.725   3.864
   25SOL    HW2  975   1.852   0.741   3.922
   26SOL     OW  976   1.495   1.738   5.984
   26SOL    HW1  977   1.522   1.684   5.904
   26SOL    HW2  978   1.421   1.801   5.959
   27SOL     OW  979   0.732   0.161   2.707
   27SOL    HW1  980   0.761   0.077   2.752
   27SOL    HW2  981   0.632   0.164   2.705
   28SOL     OW  982   1.421   0.401   6.133
   28SOL    HW1  983   1.382   0.439   6.216
   28SOL    HW2  984   1.475   0.471   6.086
   29SOL     OW  985   5.566   0.332   1.120
   29SOL    HW1  986   5.540   0.378   1.205
   29SOL    HW2  987   5.513   0.248   1.110
   30SOL     OW  988   4.950   0.261   5.234
   30SOL    HW1  989   4.953   0.304   5.324
   30SOL    HW2  990   5.000   0.174   5.237
   31SOL     OW  991   6.756   4.756   4.089
   31SOL    HW1  992   6.760   4.656   4.085
   31SOL    HW2  993   6.746   4.792   3.996
   32SOL     OW  994   2.809   0.783   0.912
   32SOL    HW1  995   2.738   0.741   0.968
   32SOL    HW2  996   2.834   0.872   0.950
   33SOL     OW  997   2.088   5.147   5.632
   33SOL    HW1  998   2.012   5.098   5.589
   33SOL    HW2  999   2.132   5.205   5.564
   34SOL     OW 1000   2.402   5.920   5.422
   34SOL    HW1 1001   2.313   5.922   5.376
   34SOL    HW2 1002   2.395   5.868   5.507
   35SOL     OW 1003   1.133   3.451   5.625
   35SOL    HW1 1004   1.049   3.397   5.633
   35SOL    HW2 1005   1.209   3.400   5.664
   36SOL     OW 1006   6.319   0.862   3.546
   36SOL    HW1 1007   6.244   0.926   3.564
   36SOL    HW2 1008   6.366   0.889   3.462
   37SOL     OW 1009   2.506   6.067   4.549
   37SOL    HW1 1010   2.577   6.041   4.484
   37SOL    HW2 1011   2.417   6.035   4.516
   38SOL     OW 1012   1.499   4.116   2.607
   38SOL    HW1 1013   1.429   4.186   2.592
   38SOL    HW2 1014   1.567   4.150   2.673
   39SOL     OW 1015   6.751   4.713   1.168
   39SOL    HW1 1016   6.792   4.727   1.078
   39SOL    HW2 1017   6.790   4.632   1.211
   40SOL     OW 1018   3.913   1.341   0.079
   40SOL    HW1 1019   3.952   1.274   0.016
   40SOL    HW2 1020   3.984   1.408   0.103
   41SOL     OW 1021   5.011   3.657   1.878
   41SOL    HW1 1022   5.030   3.716   1.800
   41SOL    HW2 1023   4.914   3.633   1.879
   42SOL     OW 1024   2.660   4.496   6.617
   42SOL    HW1 1025   2.585   4.444   6.577
   42SOL    HW2 1026   2.730   4.511   6.547
   43SOL     OW 1027   5.455   0.016   4.725
   43SOL    HW1 1028   5.529   0.075   4.694
   43SOL    HW2 1029   5.381   0.017   4.657
   44SOL     OW 1030   6.558   1.232   6.268
   44SOL    HW1 1031   6.530   1.145   6.308
   44SOL    HW2 1032   6.636   1.269   6.319
   45SOL     OW 1033   2.405   4.591   6.251
   45SOL    HW1 1034   2.486   4.624   6.300
   45SOL    HW2 1035   2.409   4.491   6.244
   46SOL     OW 1036   1.473   4.412   4.904
   46SOL    HW1 1037   1.430   4.400   4.994
   46SOL    HW2 1038   1.472   4.509   4.880
   47SOL     OW 1039   5.745   3.611   0.348
   47SOL    HW1 1040   5.826   3.624   0.405
   47SOL    HW2 1041   5.727   3.695   0.297
   48SOL     OW 1042   6.413   3.979   1.096
   48SOL    HW1 1043   6.354   3.956   1.019
   48SOL    HW2 1044   6.475   4.053   1.070
   49SOL     OW 1045   3.150   2.674   6.394
   49SOL    HW1 1046   3.228   2.615   6.411
   49SOL    HW2 1047   3.169   2.733   6.316
   50SOL     OW 1048   5.139   2.147   6.792
   50SOL    HW1 1049   5.172   2.119   6.882
   50SOL    HW2 1050   5.216   2.153   6.729
   51SOL     OW 1051   1.112   6.259   2.024
   51SOL    HW1 1052   1.071   6.351   2.029
   51SOL    HW2 1053   1.194   6.262   1.968
   52SOL     OW 1054   5.757   2.176   2.046
   52SOL    HW1 1055   5.706   2.188   2.130
   52SOL    HW2 1056   5.696   2.143   1.974
   53SOL     OW 1057   3.818   1.042   0.773
   53SOL    HW1 1058   3.903   0.998   0.802
   53SOL    HW2 1059   3.740   0.989   0.806
   54SOL     OW 1060   6.473   0.558   6.340
   54SOL    HW1 1061   6.503   0.515   6.254
   54SOL    HW2 1062   6.443   0.651   6.321
   55SOL     OW 1063   1.608   3.857   6.579
   55SOL    HW1 1064   1.678   3.928   6.587
   55SOL    HW2 1065   1.651   3.772   6.548
   56SOL     OW 1066   0.784   2.302   6.610
   56SOL    HW1 1067   0.865   2.320   6.666
   56SOL    HW2 1068   0.715   2.372   6.628
   57SOL     OW 1069   4.342   6.147   0.745
   57SOL    HW1 1070   4.390   6.074   0.696
   57SOL    HW2 1071   4.407   6.194   0.806
   58SOL     OW 1072   1.423   1.033   6.684
   58SOL    HW1 1073   1.330   1.007   6.710
   58SOL    HW2 1074   1.434   1.025   6.585
   59SOL     OW 1075   4.222   2.757   6.230
   59SOL    HW1 1076   4.144   2.807   6.269
   59SOL    HW2 1077   4.247   2.682   6.291
   60SOL     OW 1078   6.645   3.114   2.667
   60SOL    HW1 1079   6.618   3.178   2.739
   60SOL    HW2 1080   6.682   3.030   2.709
   61SOL     OW 1081   1.139   5.833   3.152
   61SOL    HW1 1082   1.173   5.926   3.133
   61SOL    HW2 1083   1.205   5.766   3.118
   62SOL     OW 1084   6.219   2.420   3.336
   62SOL    HW1 1085   6.142   2.463   3.384
   62SOL    HW2 1086   6.213   2.320   3.347
   63SOL     OW 1087   3.906   6.633   5.802
   63SOL    HW1 1088   3.950   6.561   5.748
   63SOL    HW2 1089   3.808   6.614   5.808
   64SOL     OW 1090   1.130   1.921   5.986
   64SOL    HW1 1091   1.052   1.937   5.927
   64SOL    HW2 1092   1.121   1.976   6.069
   65SOL     OW 1093   1.098   5.118   4.895
   65SOL    HW1 1094   1.045   5.165   4.966
   65SOL    HW2 1095   1.153   5.046   4.937
   66SOL     OW 1096   4.482   1.769   1.336
   66SOL    HW1 1097   4.505   1.672   1.342
   66SOL    HW2 1098   4.468   1.806   1.428
   67SOL     OW 1099   6.817   3.697   1.503
   67SOL    HW1 1100   6.741   3.651   1.456
   67SOL    HW2 1101   6.888   3.631   1.525
   68SOL     OW 1102   0.316   1.119   0.028
   68SOL    HW1 1103   0.341   1.189   0.095
   68SOL    HW2 1104   0.383   1.118   6.979
   69SOL     OW 1105   1.556   5.769   6.931
   69SOL    HW1 1106   1.630   5.710   6.963
   69SOL    HW2 1107   1.468   5.725   6.949
   70SOL     OW 1108   4.450   4.847   3.646
   70SOL    HW1 1109   4.460   4.902   3.563
   70SOL    HW2 1110   4.401   4.762   3.624
   71SOL     OW 1111   4.908   1.434   5.402
   71SOL    HW1 1112   4.851   1.356   5.376
   71SOL    HW2 1113   5.004   1.409   5.389
   72SOL     OW 1114   6.914   0.702   2.656
   72SOL    HW1 1115   6.824   0.659   2.658
   72SOL    HW2 1116   6.918   0.776   2.723
   73SOL     OW 1117   2.597   0.903   1.402
   73SOL    HW1 1118   2.645   0.923   1.488
   73SOL    HW2 1119   2.534   0.978   1.381
   74SOL     OW 1120   2.930   1.890   0.086
   74SOL    HW1 1121   2.884   1.881   0.174
   74SOL    HW2 1122   2.922   1.805   0.035
   75SOL     OW 1123   2.030   2.767   0.422
   75SOL    HW1 1124   1.958   2.723   0.369
   75SOL    HW2 1125   1.990   2.821   0.496
   76SOL     OW 1126   4.105   4.595   5.888
   76SOL    HW1 1127   4.197   4.607   5.851
   76SOL    HW2 1128   4.081   4.674   5.945
   77SOL     OW 1129   0.920   5.722   4.767
   77SOL    HW1 1130   0.979   5.763   4.697
   77SOL    HW2 1131   0.826   5.752   4.752
   78SOL     OW 1132   5.311   1.815   1.458
   78SOL    HW1 1133   5.254   1.772   1.528
   78SOL    HW2 1134   5.375   1.878   1.502
   79SOL     OW 1135   1.513   4.012   3.900
   79SOL    HW1 1136   1.487   3.928   3.947
   79SOL    HW2 1137   1.552   4.077   3.965
   80SOL     OW 1138   3.472   2.066   5.227
   80SOL    HW1 1139   3.383   2.047   5.186
   80SOL    HW2 1140   3.544   2.050   5.159
   81SOL     OW 1141   3.336   5.241   2.381
   81SOL    HW1 1142   3.423   5.222   2.426
   81SOL    HW2 1143   3.327   5.340   2.366
   82SOL     OW 1144   2.922   0.345   2.269
   82SOL    HW1 1145   2.920   0.249   2.294
   82SOL    HW2 1146   3.004   0.388   2.306
   83SOL     OW 1147   5.564   1.121   4.477
   83SOL    HW1 1148   5.488   1.130   4.413
   83SOL    HW2 1149   5.530   1.088   4.564
   84SOL     OW 1150   5.857   3.055   2.936
   84SOL    HW1 1151   5.956   3.054   2.923
   84SOL    HW2 1152   5.837   3.045   3.034
   85SOL     OW 1153   2.400   5.882   3.408
   85SOL    HW1 1154   2.377   5.978   3.397
   85SOL    HW2 1155   2.373   5.831   3.326
   86SOL     OW 1156   4.966   0.557   0.934
   86SOL    HW1 1157   4.901   0.632   0.936
   86SOL    HW2 1158   5.014   0.552   1.022
   87SOL     OW 1159   2.756   3.291   6.461
   87SOL    HW1 1160   2.680   3.227   6.466
   87SOL    HW2 1161   2.726   3.381   6.495
   88SOL     OW 1162   2.035   2.848   1.649
   88SOL    HW1 1163   2.083   2.825   1.564
   88SOL    HW2 1164   1.956   2.789   1.660
   89SOL     OW 1165   3.272   3.574   4.984
   89SOL    HW1 1166   3.344   3.516   4.945
   89SOL    HW2 1167   3.306   3.667   4.994
   90SOL     OW 1168   6.239   4.499   2.416
   90SOL    HW1 1169   6.336   4.479   2.404
   90SOL    HW2 1170   6.209   4.463   2.505
   91SOL     OW 1171   4.427   5.953   0.571
   91SOL    HW1 1172   4.364   5.947   0.494
   91SOL    HW2 1173   4.483   5.870   0.574
   92SOL     OW 1174   6.062   4.920   7.011
   92SOL    HW1 1175   6.003   4.880   6.940
   92SOL    HW2 1176   6.057   4.863   0.068
   93SOL     OW 1177   3.044   3.920   1.626
   93SOL    HW1 1178   2.976   3.869   1.680
   93SOL    HW2 1179   3.103   3.856   1.577
   94SOL     OW 1180   3.210   1.697   4.167
   94SOL    HW1 1181   3.241   1.737   4.080
   94SOL    HW2 1182   3.144   1.758   4.210
   95SOL     OW 1183   0.741   6.979   4.213
   95SOL    HW1 1184   0.759   0.008   4.131
   95SOL    HW2 1185   0.815   6.993   4.279
   96SOL     OW 1186   0.170   5.400   6.836
   96SOL    HW1 1187   0.101   5.452   6.786
   96SOL    HW2 1188   0.167   5.424   6.933
   97SOL     OW 1189   3.151   4.405   5.509
   97SOL    HW1 1190   3.123   4.375   5.418
   97SOL    HW2 1191   3.113   4.343   5.578
   98SOL     OW 1192   0.331   2.038   4.874
   98SOL    HW1 1193   0.426   2.008   4.873
   98SOL    HW2 1194   0.274   1.969   4.831
   99SOL     OW 1195   4.018   4.305   5.310
   99SOL    HW1 1196   4.106   4.314   5.263
   99SOL    HW2 1197   4.033   4.290   5.408
  100SOL     OW 1198   1.182   0.863   5.333
  100SOL    HW1 1199   1.164   0.830   5.240
  100SOL    HW2 1200   1.096   0.890   5.375
  101SOL     OW 1201   5.169   3.244   2.733
  101SOL    HW1 1202   5.097   3.276   2.796
  101SOL    HW2 1203   5.199   3.319   2.675
  102SOL     OW 1204   3.692   0.367   6.904
  102SOL    HW1 1205   3.650   0.435   6.845
  102SOL    HW2 1206   3.652   0.373   6.996
  103SOL     OW 1207   1.269   1.156   1.817
  103SOL    HW1 1208   1.197   1.179   1.882
  103SOL    HW2 1209   1.329   1.087   1.856
  104SOL     OW 1210   6.026   4.438   2.226
  104SOL    HW1 1211   6.033   4.354   2.173
  104SOL    HW2 1212   6.097   4.439   2.296
  105SOL     OW 1213   0.414   0.264   4.933
  105SOL    HW1 1214   0.362   0.349   4.921
  105SOL    HW2 1215   0.451   0.235   4.845
  106SOL     OW 1216   4.401   3.165   1.683
  106SOL    HW1 1217   4.424   3.142   1.588
  106SOL    HW2 1218   4.461   3.114   1.745
  107SOL     OW 1219   4.968   6.998   1.304
  107SOL    HW1 1220   5.014   6.997   1.392
  107SOL    HW2 1221   4.959   0.067   1.272
  108SOL     OW 1222   3.575   1.813   4.797
  108SOL    HW1 1223   3.500   1.812   4.862
  108SOL    HW2 1224   3.638   1.738   4.818
  109SOL     OW 1225   1.933   1.121   5.539
  109SOL    HW1 1226   1.897   1.111   5.632
  109SOL    HW2 1227   1.974   1.035   5.509
  110SOL     OW 1228   4.049   4.298   5.581
  110SOL    HW1 1229   3.959   4.337   5.602
  110SOL    HW2 1230   4.082   4.245   5.659
  111SOL     OW 1231   5.648   3.169   1.019
  111SOL    HW1 1232   5.684   3.108   1.090
  111SOL    HW2 1233   5.658   3.264   1.049
  112SOL     OW 1234   4.707   6.859   5.171
  112SOL    HW1 1235   4.675   6.853   5.266
  112SOL    HW2 1236   4.713   6.767   5.132
  113SOL     OW 1237   0.493   4.582   2.904
  113SOL    HW1 1238   0.591   4.573   2.888
  113SOL    HW2 1239   0.467   4.527   2.984
  114SOL     OW 1240   0.330   2.197   1.869
  114SOL    HW1 1241   0.303   2.171   1.776
  114SOL    HW2 1242   0.372   2.119   1.915
  115SOL     OW 1243   4.273   0.665   2.592
  115SOL    HW1 1244   4.211   0.729   2.546
  115SOL    HW2 1245   4.225   0.617   2.665
  116SOL     OW 1246   6.560   5.319   1.230
  116SOL    HW1 1247   6.640   5.271   1.268
  116SOL    HW2 1248   6.543   5.284   1.138
  117SOL     OW 1249   3.199   2.328   0.147
  117SOL    HW1 1250   3.157   2.241   0.121
  117SOL    HW2 1251   3.131   2.385   0.192
  118SOL     OW 1252   0.223   1.922   2.229
  118SOL    HW1 1253   0.184   1.841   2.271
  118SOL    HW2 1254   0.160   1.999   2.240
  119SOL     OW 1255   6.373   6.656   5.195
  119SOL    HW1 1256   6.352   6.560   5.180
  119SOL    HW2 1257   6.296   6.712   5.165
  120SOL     OW 1258   4.471   1.434   4.485
  120SOL    HW1 1259   4.510   1.343   4.472
  120SOL    HW2 1260   4.434   1.441   4.578
  121SOL     OW 1261   0.124   5.670   6.691
  121SOL    HW1 1262   0.184   5.619   6.629
  121SOL    HW2 1263   0.179   5.710   6.764
  122SOL     OW 1264   6.519   4.980   6.162
  122SOL    HW1 1265   6.453   4.998   6.089
  122SOL    HW2 1266   6.596   4.928   6.124
  123SOL     OW 1267   0.535   2.639   1.561
  123SOL    HW1 1268   0.500   2.622   1.653
  123SOL    HW2 1269   0.591   2.722   1.561
  124SOL     OW 1270   1.512   3.666   0.393
  124SOL    HW1 1271   1.568   3.706   0.321
  124SOL    HW2 1272   1.415   3.681   0.372
  125SOL     OW 1273   4.429   2.332   0.784
  125SOL    HW1 1274   4.470   2.258   0.731
  125SOL    HW2 1275   4.487   2.413   0.780
  126SOL     OW 1276   3.750   2.900   4.315
  126SOL    HW1 1277   3.701   2.865   4.235
  126SOL    HW2 1278   3.797   2.985   4.291
  127SOL     OW 1279   0.150   4.830   5.795
  127SOL    HW1 1280   0.210   4.749   5.798
  127SOL    HW2 1281   0.136   4.858   5.700
  128SOL     OW 1282   4.362   3.871   5.919
  128SOL    HW1 1283   4.305   3.910   5.992
  128SOL    HW2 1284   4.435   3.816   5.959
  129SOL     OW 1285   0.681   5.146   2.492
  129SOL    HW1 1286   0.663   5.205   2.571
  129SOL    HW2 1287   0.620   5.171   2.417
  130SOL     OW 1288   6.279   3.555   4.643
  130SOL    HW1 1289   6.285   3.611   4.725
  130SOL    HW2 1290   6.182   3.541   4.620
  131SOL     OW 1291   0.605   3.163   3.368
  131SOL    HW1 1292   0.673   3.135   3.435
  131SOL    HW2 1293   0.529   3.208   3.415
  132SOL     OW 1294   4.718   2.540   1.192
  132SOL    HW1 1295   4.770   2.481   1.253
  132SOL    HW2 1296   4.742   2.636   1.210
  133SOL     OW 1297   4.614   4.994   6.230
  133SOL    HW1 1298   4.516   4.993   6.209
  133SOL    HW2 1299   4.666   4.977   6.147
  134SOL     OW 1300   5.747   1.897   0.815
  134SOL    HW1 1301   5.811   1.971   0.836
  134SOL    HW2 1302   5.724   1.900   0.718
  135SOL     OW 1303   4.698   4.819   3.933
  135SOL    HW1 1304   4.769   4.877   3.892
  135SOL    HW2 1305   4.738   4.730   3.956
  136SOL     OW 1306   3.862   6.823   5.999
  136SOL    HW1 1307   3.884   6.905   5.947
  136SOL    HW2 1308   3.912   6.745   5.961
  137SOL     OW 1309   2.247   4.096   6.138
  137SOL    HW1 1310   2.211   4.014   6.182
  137SOL    HW2 1311   2.187   4.174   6.160
  138SOL     OW 1312   0.782   5.238   6.585
  138SOL    HW1 1313   0.736   5.154   6.554
  138SOL    HW2 1314   0.846   5.268   6.515
  139SOL     OW 1315   0.464   0.151   1.304
  139SOL    HW1 1316   0.427   0.214   1.371
  139SOL    HW2 1317   0.400   0.076   1.289
  140SOL     OW 1318   3.878   1.064   1.576
  140SOL    HW1 1319   3.969   1.029   1.599
  140SOL    HW2 1320   3.870   1.159   1.607
  141SOL     OW 1321   0.285   1.690   0.256
  141SOL    HW1 1322   0.284   1.689   0.356
  141SOL    HW2 1323   0.366   1.738   0.223
  142SOL     OW 1324   1.925   4.097   0.618
  142SOL    HW1 1325   2.013   4.109   0.664
  142SOL    HW2 1326   1.868   4.177   0.634
  143SOL     OW 1327   5.037   5.908   1.437
  143SOL    HW1 1328   5.038   5.810   1.456
  143SOL    HW2 1329   4.945   5.936   1.411
  144SOL     OW 1330   3.560   5.206   2.759
  144SOL    HW1 1331   3.565   5.108   2.773
  144SOL    HW2 1332   3.648   5.248   2.781
  145SOL     OW 1333   0.105   5.346   3.920
  145SOL    HW1 1334   0.067   5.286   3.849
  145SOL    HW2 1335   0.189   5.305   3.956
  146SOL     OW 1336   6.551   0.591   6.079
  146SOL    HW1 1337   6.649   0.610   6.084
  146SOL    HW2 1338   6.522   0.590   5.983
  147SOL     OW 1339   6.259   1.346   5.519
  147SOL    HW1 1340   6.177   1.378   5.471
  147SOL    HW2 1341   6.335   1.340   5.454
  148SOL     OW 1342   2.119   6.464   1.824
  148SOL    HW1 1343   2.022   6.445   1.806
  148SOL    HW2 1344   2.173   6.382   1.807
  149SOL     OW 1345   1.454   3.171   4.922
  149SOL    HW1 1346   1.398   3.141   4.845
  149SOL    HW2 1347   1.420   3.128   5.006
  150SOL     OW 1348   4.124   1.674   5.704
  150SOL    HW1 1349   4.152   1.628   5.789
  150SOL    HW2 1350   4.096   1.767   5.725
  151SOL     OW 1351   6.405   2.830   1.373
  151SOL    HW1 1352   6.423   2.742   1.329
  151SOL    HW2 1353   6.476   2.848   1.441
  152SOL     OW 1354   6.962   2.954   1.191
  152SOL    HW1 1355   7.005   3.043   1.181
  152SOL    HW2 1356   0.001   2.891   1.236
  153SOL     OW 1357   2.006   1.779   3.740
  153SOL    HW1 1358   2.015   1.876   3.762
  153SOL    HW2 1359   2.072   1.753   3.670
  154SOL     OW 1360   6.898   1.563   3.165
  154SOL    HW1 1361   6.996   1.582   3.172
  154SOL    HW2 1362   6.858   1.558   3.256
  155SOL     OW 1363   6.130   4.430   4.047
  155SOL    HW1 1364   6.095   4.512   4.091
  155SOL    HW2 1365   6.218   4.450   4.003
  156SOL     OW 1366   4.925   1.681   0.859
  156SOL    HW1 1367   4.877   1.715   0.777
  156SOL    HW2 1368   4.858   1.645   0.924
  157SOL     OW 1369   5.110   0.477   1.155
  157SOL    HW1 1370   5.178   0.404   1.158
  157SOL    HW2 1371   5.123   0.538   1.233
  158SOL     OW 1372   0.496   2.860   4.693
  158SOL    HW1 1373   0.420   2.887   4.752
  158SOL    HW2 1374   0.582   2.868   4.744
  159SOL     OW 1375   6.166   5.363   0.129
  159SOL    HW1 1376   6.191   5.427   0.056
  159SOL    HW2 1377   6.248   5.315   0.160
  160SOL     OW 1378   4.742   0.989   0.783
  160SOL    HW1 1379   4.771   1.012   0.690
  160SOL    HW2 1380   4.690   1.065   0.821
  161SOL     OW 1381   6.819   6.387   0.707
  161SOL    HW1 1382   6.760   6.307   0.691
  161SOL    HW2 1383   6.835   6.397   0.805
  162SOL     OW 1384   4.490   6.791   5.661
  162SOL    HW1 1385   4.511   6.738   5.743
  162SOL    HW2 1386   4.509   6.887   5.678
  163SOL     OW 1387   0.615   3.290   3.036
  163SOL    HW1 1388   0.641   3.194   3.050
  163SOL    HW2 1389   0.677   3.331   2.969
  164SOL     OW 1390   2.034   2.316   2.695
  164SOL    HW1 1391   2.119   2.369   2.700
  164SOL    HW2 1392   1.959   2.368   2.736
  165SOL     OW 1393   0.475   6.936   3.786
  165SOL    HW1 1394   0.399   6.873   3.768
  165SOL    HW2 1395   0.441   0.005   3.785
  166SOL     OW 1396   0.067   4.568   4.264
  166SOL    HW1 1397   0.082   4.666   4.254
  166SOL    HW2 1398   6.995   4.550   4.280
  167SOL     OW 1399   1.725   1.419   4.543
  167SOL    HW1 1400   1.674   1.346   4.587
  167SOL    HW2 1401   1.671   1.458   4.469
  168SOL     OW 1402   3.333   3.823   2.685
  168SOL    HW1 1403   3.266   3.887   2.649
  168SOL    HW2 1404   3.425   3.851   2.658
  169SOL     OW 1405   5.255   2.530   0.401
  169SOL    HW1 1406   5.159   2.541   0.377
  169SOL    HW2 1407   5.269   2.441   0.445
  170SOL     OW 1408   6.450   5.456   1.460
  170SOL    HW1 1409   6.496   5.389   1.404
  170SOL    HW2 1410   6.517   5.517   1.502
  171SOL     OW 1411   3.375   3.169   1.340
  171SOL    HW1 1412   3.345   3.075   1.351
  171SOL    HW2 1413   3.297   3.230   1.352
  172SOL     OW 1414   1.164   0.904   6.762
  172SOL    HW1 1415   1.128   0.821   6.803
  172SOL    HW2 1416   1.116   0.923   6.676
  173SOL     OW 1417   5.649   1.380   4.495
  173SOL    HW1 1418   5.619   1.288   4.473
  173SOL    HW2 1419   5.574   1.445   4.480
  174SOL     OW 1420   5.688   4.276   4.545
  174SOL    HW1 1421   5.766   4.288   4.484
  174SOL    HW2 1422   5.607   4.317   4.503
  175SOL     OW 1423   0.722   6.691   2.424
  175SOL    HW1 1424   0.755   6.775   2.382
  175SOL    HW2 1425   0.722   6.702   2.524
  176SOL     OW 1426   6.587   4.120   1.495
  176SOL    HW1 1427   6.592   4.201   1.436
  176SOL    HW2 1428   6.574   4.038   1.439
  177SOL     OW 1429   6.477   1.974   3.947
  177SOL    HW1 1430   6.488   1.943   4.042
  177SOL    HW2 1431   6.517   2.065   3.937
  178SOL     OW 1432   2.412   5.368   4.070
  178SOL    HW1 1433   2.486   5.311   4.106
  178SOL    HW2 1434   2.346   5.311   4.021
  179SOL     OW 1435   3.548   3.962   1.582
  179SOL    HW1 1436   3.503   3.907   1.652
  179SOL    HW2 1437   3.488   4.037   1.555
  180SOL     OW 1438   4.547   1.172   6.243
  180SOL    HW1 1439   4.508   1.104   6.305
  180SOL    HW2 1440   4.500   1.259   6.255
  181SOL     OW 1441   3.262   1.082   6.066
  181SOL    HW1 1442   3.226   1.159   6.119
  181SOL    HW2 1443   3.232   0.996   6.109
  182SOL     OW 1444   2.708   3.093   5.645
  182SOL    HW1 1445   2.647   3.171   5.661
  182SOL    HW2 1446   2.721   3.082   5.546
  183SOL     OW 1447   3.208   0.713   3.067
  183SOL    HW1 1448   3.127   0.758   3.030
  183SOL    HW2 1449   3.283   0.720   3.001
  184SOL     OW 1450   5.487   5.582   3.451
  184SOL    HW1 1451   5.527   5.667   3.485
  184SOL    HW2 1452   5.535   5.554   3.368
  185SOL     OW 1453   0.408   6.837   5.008
  185SOL    HW1 1454   0.481   6.779   4.971
  185SOL    HW2 1455   0.395   6.816   5.105
  186SOL     OW 1456   3.127   6.070   5.530
  186SOL    HW1 1457   3.179   6.155   5.528
  186SOL    HW2 1458   3.058   6.075   5.603
  187SOL     OW 1459   4.521   5.842   0.984
  187SOL    HW1 1460   4.617   5.833   0.959
  187SOL    HW2 1461   4.465   5.784   0.924
  188SOL     OW 1462   1.292   3.387   3.183
  188SOL    HW1 1463   1.355   3.410   3.108
  188SOL    HW2 1464   1.289   3.462   3.248
  189SOL     OW 1465   5.826   4.441   5.605
  189SOL    HW1 1466   5.900   4.447   5.538
  189SOL    HW2 1467   5.790   4.348   5.607
  190SOL     OW 1468   6.483   6.464   0.507
  190SOL    HW1 1469   6.432   6.546   0.483
  190SOL    HW2 1470   6.481   6.451   0.606
  191SOL     OW 1471   1.816   2.490   4.954
  191SOL    HW1 1472   1.733   2.546   4.956
  191SOL    HW2 1473   1.811   2.426   4.877
  192SOL     OW 1474   6.855   6.004   1.572
  192SOL    HW1 1475   6.830   5.928   1.512
  192SOL    HW2 1476   6.949   5.993   1.604
  193SOL     OW 1477   2.326   0.097   1.852
  193SOL    HW1 1478   2.360   0.177   1.902
  193SOL    HW2 1479   2.397   0.026   1.850
  194SOL     OW 1480   4.060   6.097   2.886
  194SOL    HW1 1481   4.002   6.134   2.958
  194SOL    HW2 1482   4.011   6.097   2.799
  195SOL     OW 1483   3.279   0.120   0.949
  195SOL    HW1 1484   3.308   0.196   0.891
  195SOL    HW2 1485   3.334   0.119   1.033
  196SOL     OW 1486   3.968   2.733   0.861
  196SOL    HW1 1487   3.941   2.772   0.773
  196SOL    HW2 1488   3.889   2.729   0.922
  197SOL     OW 1489   2.122   6.015   6.896
  197SOL    HW1 1490   2.065   6.081   6.946
  197SOL    HW2 1491   2.219   6.035   6.914
  198SOL     OW 1492   4.371   6.874   6.626
  198SOL    HW1 1493   4.419   6.953   6.589
  198SOL    HW2 1494   4.396   6.793   6.574
  199SOL     OW 1495   1.260   0.529   2.655
  199SOL    HW1 1496   1.292   0.499   2.565
  199SOL    HW2 1497   1.226   0.450   2.706
  200SOL     OW 1498   1.208   3.475   3.835
  200SOL    HW1 1499   1.275   3.535   3.791
  200SOL    HW2 1500   1.253   3.425   3.910
  201SOL     OW 1501   4.554   1.527   6.139
  201SOL    HW1 1502   4.487   1.481   6.198
  201SOL    HW2 1503   4.506   1.582   6.071
  202SOL     OW 1504   3.829   0.630   2.580
  202SOL    HW1 1505   3.864   0.637   2.674
  202SOL    HW2 1506   3.729   0.627   2.582
  203SOL     OW 1507   6.097   2.647   0.209
  203SOL    HW1 1508   6.093   2.671   0.112
  203SOL    HW2 1509   6.005   2.650   0.248
  204SOL     OW 1510   2.023   6.830   1.105
  204SOL    HW1 1511   2.054   6.789   1.020
  204SOL    HW2 1512   1.924   6.843   1.102
  205SOL     OW 1513   5.873   0.340   1.246
  205SOL    HW1 1514   5.904   0.427   1.207
  205SOL    HW2 1515   5.779   0.323   1.218
  206SOL     OW 1516   0.023   6.245   1.407
  206SOL    HW1 1517   0.041   6.252   1.506
  206SOL    HW2 1518   0.011   6.149   1.383
  207SOL     OW 1519   5.556   1.679   5.739
  207SOL    HW1 1520   5.625   1.699   5.670
  207SOL    HW2 1521   5.490   1.755   5.743
  208SOL     OW 1522   4.170   4.276   6.713
  208SOL    HW1 1523   4.188   4.193   6.764
  208SOL    HW2 1524   4.168   4.354   6.776
  209SOL     OW 1525   0.044   5.662   4.270
  209SOL    HW1 1526   0.064   5.564   4.264
  209SOL    HW2 1527   0.061   5.705   4.181
  210SOL     OW 1528   4.184   1.974   0.606
  210SOL    HW1 1529   4.237   2.021   0.677
  210SOL    HW2 1530   4.093   2.014   0.600
  211SOL     OW 1531   1.199   3.113   1.620
  211SOL    HW1 1532   1.292   3.148   1.614
  211SOL    HW2 1533   1.193   3.046   1.695
  212SOL     OW 1534   0.295   5.384   4.570
  212SOL    HW1 1535   0.394   5.366   4.565
  212SOL    HW2 1536   0.260   5.401   4.478
  213SOL     OW 1537   3.468   2.046   6.600
  213SOL    HW1 1538   3.518   2.125   6.635
  213SOL    HW2 1539   3.411   2.006   6.672
  214SOL     OW 1540   1.980   6.645   3.438
  214SOL    HW1 1541   2.061   6.646   3.380
  214SOL    HW2 1542   1.980   6.726   3.496
  215SOL     OW 1543   3.630   4.108   2.705
  215SOL    HW1 1544   3.537   4.140   2.689
  215SOL    HW2 1545   3.681   4.106   2.619
  216SOL     OW 1546   1.993   6.939   5.895
  216SOL    HW1 1547   1.941   6.855   5.905
  216SOL    HW2 1548   1.960   6.990   5.816
  217SOL     OW 1549   6.874   2.666   5.005
  217SOL    HW1 1550   6.860   2.601   5.079
  217SOL    HW2 1551   6.796   2.727   4.998
  218SOL     OW 1552   2.174   3.748   5.621
  218SOL    HW1 1553   2.116   3.732   5.701
  218SOL    HW2 1554   2.125   3.721   5.539
  219SOL     OW 1555   3.444   5.588   6.819
  219SOL    HW1 1556   3.369   5.651   6.836
  219SOL    HW2 1557   3.446   5.518   6.891
  220SOL     OW 1558   1.529   4.415   0.773
  220SOL    HW1 1559   1.431   4.394   0.777
  220SOL    HW2 1560   1.548   4.467   0.691
  221SOL     OW 1561   6.032   2.859   4.111
  221SOL    HW1 1562   6.014   2.788   4.042
  221SOL    HW2 1563   5.996   2.946   4.079
  222SOL     OW 1564   1.531   6.170   4.582
  222SOL    HW1 1565   1.505   6.178   4.485
  222SOL    HW2 1566   1.571   6.079   4.598
  223SOL     OW 1567   6.250   5.020   2.548
  223SOL    HW1 1568   6.319   5.026   2.475
  223SOL    HW2 1569   6.280   4.955   2.617
  224SOL     OW 1570   3.957   2.171   2.333
  224SOL    HW1 1571   3.914   2.099   2.279
  224SOL    HW2 1572   3.943   2.259   2.287
  225SOL     OW 1573   5.745   0.060   1.328
  225SOL    HW1 1574   5.705   6.994   1.319
  225SOL    HW2 1575   5.822   0.056   1.392
  226SOL     OW 1576   0.029   5.560   2.125
  226SOL    HW1 1577   0.022   5.489   2.055
  226SOL    HW2 1578   0.120   5.556   2.166
  227SOL     OW 1579   1.030   3.317   2.836
  227SOL    HW1 1580   0.939   3.320   2.794
  227SOL    HW2 1581   1.029   3.370   2.921
  228SOL     OW 1582   4.104   6.135   2.551
  228SOL    HW1 1583   4.011   6.143   2.588
  228SOL    HW2 1584   4.103   6.073   2.473
  229SOL     OW 1585   6.329   5.122   3.159
  229SOL    HW1 1586   6.365   5.115   3.066
  229SOL    HW2 1587   6.231   5.101   3.158
  230SOL     OW 1588   0.850   4.096   6.101
  230SOL    HW1 1589   0.907   4.101   6.019
  230SOL    HW2 1590   0.820   4.188   6.127
  231SOL     OW 1591   0.715   1.959   6.615
  231SOL    HW1 1592   0.740   1.947   6.711
  231SOL    HW2 1593   0.770   2.033   6.576
  232SOL     OW 1594   1.227   4.560   6.585
  232SOL    HW1 1595   1.209   4.519   6.495
  232SOL    HW2 1596   1.243   4.658   6.574
  233SOL     OW 1597   3.226   6.913   6.603
  233SOL    HW1 1598   3.308   6.971   6.608
  233SOL    HW2 1599   3.250   6.818   6.622
  234SOL     OW 1600   3.079   5.067   5.798
  234SOL    HW1 1601   3.057   4.980   5.754
  234SOL    HW2 1602   2.996   5.123   5.804
  235SOL     OW 1603   3.371   3.361   5.677
  235SOL    HW1 1604   3.376   3.414   5.592
  235SOL    HW2 1605   3.277   3.362   5.711
  236SOL     OW 1606   6.996   2.387   6.011
  236SOL    HW1 1607   0.031   2.385   5.932
  236SOL    HW2 1608   6.917   2.328   5.994
  237SOL     OW 1609   6.764   6.470   1.614
  237SOL    HW1 1610   6.724   6.469   1.523
  237SOL    HW2 1611   6.761   6.379   1.654
  238SOL     OW 1612   6.775   1.856   2.508
  238SOL    HW1 1613   6.689   1.851   2.458
  238SOL    HW2 1614   6.788   1.948   2.545
  239SOL     OW 1615   6.909   5.002   1.158
  239SOL    HW1 1616   6.810   5.015   1.149
  239SOL    HW2 1617   6.926   4.930   1.225
  240SOL     OW 1618   6.872   2.391   5.593
  240SOL    HW1 1619   6.911   2.344   5.672
  240SOL    HW2 1620   6.910   2.353   5.509
  241SOL     OW 1621   6.042   1.952   4.170
  241SOL    HW1 1622   6.043   1.857   4.200
  241SOL    HW2 1623   5.948   1.984   4.162
  242SOL     OW 1624   3.003   2.220   4.014
  242SOL    HW1 1625   2.961   2.205   3.925
  242SOL    HW2 1626   2.938   2.269   4.073
  243SOL     OW 1627   4.434   1.417   6.354
  243SOL    HW1 1628   4.346   1.377   6.380
  243SOL    HW2 1629   4.475   1.461   6.434
  244SOL     OW 1630   0.301   1.226   6.011
  244SOL    HW1 1631   0.310   1.180   6.099
  244SOL    HW2 1632   0.392   1.252   5.977
  245SOL     OW 1633   5.105   2.402   3.731
  245SOL    HW1 1634   5.074   2.350   3.651
  245SOL    HW2 1635   5.091   2.347   3.813
  246SOL     OW 1636   4.845   3.080   3.396
  246SOL    HW1 1637   4.826   3.050   3.489
  246SOL    HW2 1638   4.851   3.180   3.394
  247SOL     OW 1639   2.739   0.545   3.236
  247SOL    HW1 1640   2.822   0.563   3.183
  247SOL    HW2 1641   2.699   0.632   3.266
  248SOL     OW 1642   6.943   1.616   1.998
  248SOL    HW1 1643   6.845   1.594   2.004
  248SOL    HW2 1644   6.995   1.531   1.996
  249SOL     OW 1645   2.066   6.160   4.879
  249SOL    HW1 1646   1.973   6.162   4.842
  249SOL    HW2 1647   2.080   6.240   4.937
  250SOL     OW 1648   5.131   2.704   6.922
  250SOL    HW1 1649   5.156   2.757   7.003
  250SOL    HW2 1650   5.057   2.640   6.946
  251SOL     OW 1651   1.816   1.960   0.358
  251SOL    HW1 1652   1.768   1.967   0.446
  251SOL    HW2 1653   1.797   1.871   0.316
  252SOL     OW 1654   0.595   1.538   0.560
  252SOL    HW1 1655   0.685   1.548   0.603
  252SOL    HW2 1656   0.528   1.591   0.611
  253SOL     OW 1657   1.377   3.987   6.107
  253SOL    HW1 1658   1.298   3.941   6.146
  253SOL    HW2 1659   1.358   4.085   6.100
  254SOL     OW 1660   4.716   3.832   6.385
  254SOL    HW1 1661   4.796   3.772   6.386
  254SOL    HW2 1662   4.671   3.828   6.474
  255SOL     OW 1663   3.687   1.713   2.533
  255SOL    HW1 1664   3.667   1.684   2.439
  255SOL    HW2 1665   3.642   1.800   2.551
  256SOL     OW 1666   6.373   5.629   1.904
  256SOL    HW1 1667   6.333   5.553   1.955
  256SOL    HW2 1668   6.304   5.699   1.890
  257SOL     OW 1669   2.689   5.921   6.621
  257SOL    HW1 1670   2.763   5.982   6.649
  257SOL    HW2 1671   2.624   5.912   6.697
  258SOL     OW 1672   4.613   4.650   4.392
  258SOL    HW1 1673   4.533   4.624   4.446
  258SOL    HW2 1674   4.596   4.630   4.295
  259SOL     OW 1675   1.042   2.173   2.408
  259SOL    HW1 1676   1.036   2.234   2.487
  259SOL    HW2 1677   1.069   2.225   2.327
  260SOL     OW 1678   6.874   6.821   5.426
  260SOL    HW1 1679   6.793   6.766   5.404
  260SOL    HW2 1680   6.951   6.760   5.446
  261SOL     OW 1681   0.587   1.009   3.634
  261SOL    HW1 1682   0.571   1.101   3.669
  261SOL    HW2 1683   0.593   0.945   3.711
  262SOL     OW 1684   1.464   4.789   2.670
  262SOL    HW1 1685   1.555   4.803   2.632
  262SOL    HW2 1686   1.420   4.877   2.686
  263SOL     OW 1687   0.229   3.567   4.697
  263SOL    HW1 1688   0.223   3.467   4.703
  263SOL    HW2 1689   0.294   3.592   4.626
  264SOL     OW 1690   3.341   4.378   6.971
  264SOL    HW1 1691   3.364   4.281   6.979
  264SOL    HW2 1692   3.374   4.426   0.027
  265SOL     OW 1693   4.668   5.353   4.313
  265SOL    HW1 1694   4.679   5.358   4.214
  265SOL    HW2 1695   4.726   5.280   4.349
  266SOL     OW 1696   3.961   2.934   6.701
  266SOL    HW1 1697   3.879   2.991   6.701
  266SOL    HW2 1698   4.026   2.970   6.768
  267SOL     OW 1699   2.271   2.347   5.675
  267SOL    HW1 1700   2.294   2.266   5.621
  267SOL    HW2 1701   2.198   2.325   5.739
  268SOL     OW 1702   2.830   4.913   4.057
  268SOL    HW1 1703   2.881   4.884   4.139
  268SOL    HW2 1704   2.869   4.868   3.976
  269SOL     OW 1705   1.870   1.826   4.737
  269SOL    HW1 1706   1.804   1.754   4.718
  269SOL    HW2 1707   1.842   1.910   4.690
  270SOL     OW 1708   5.043   6.689   4.933
  270SOL    HW1 1709   4.981   6.612   4.921
  270SOL    HW2 1710   5.112   6.688   4.860
  271SOL     OW 1711   1.779   1.693   0.240
  271SOL    HW1 1712   1.853   1.628   0.223
  271SOL    HW2 1713   1.702   1.645   0.283
  272SOL     OW 1714   4.459   5.608   0.810
  272SOL    HW1 1715   4.393   5.540   0.840
  272SOL    HW2 1716   4.546   5.563   0.789
  273SOL     OW 1717   2.005   6.460   4.116
  273SOL    HW1 1718   2.066   6.429   4.189
  273SOL    HW2 1719   1.917   6.413   4.124
  274SOL     OW 1720   5.444   2.160   1.087
  274SOL    HW1 1721   5.411   2.247   1.053
  274SOL    HW2 1722   5.485   2.172   1.178
  275SOL     OW 1723   5.535   5.875   5.885
  275SOL    HW1 1724   5.539   5.837   5.793
  275SOL    HW2 1725   5.519   5.800   5.950
  276SOL     OW 1726   0.375   7.013   4.717
  276SOL    HW1 1727   0.385   6.921   4.679
  276SOL    HW2 1728   0.370   7.007   4.817
  277SOL     OW 1729   4.326   2.772   5.602
  277SOL    HW1 1730   4.389   2.703   5.637
  277SOL    HW2 1731   4.344   2.788   5.505
  278SOL     OW 1732   5.449   4.145   3.071
  278SOL    HW1 1733   5.482   4.067   3.126
  278SOL    HW2 1734   5.494   4.228   3.102
  279SOL     OW 1735   6.850   3.748   3.451
  279SOL    HW1 1736   6.920   3.819   3.440
  279SOL    HW2 1737   6.770   3.787   3.498
  280SOL     OW 1738   4.409   1.665   3.753
  280SOL    HW1 1739   4.313   1.640   3.743
  280SOL    HW2 1740   4.446   1.689   3.664
  281SOL     OW 1741   5.301   6.668   5.139
  281SOL    HW1 1742   5.368   6.726   5.186
  281SOL    HW2 1743   5.269   6.713   5.056
  282SOL     OW 1744   0.656   2.511   0.677
  282SOL    HW1 1745   0.648   2.583   0.746
  282SOL    HW2 1746   0.753   2.495   0.657
  283SOL     OW 1747   6.329   3.840   4.030
  283SOL    HW1 1748   6.282   3.753   4.049
  283SOL    HW2 1749   6.286   3.884   3.952
  284SOL     OW 1750   4.826   6.520   2.412
  284SOL    HW1 1751   4.797   6.586   2.343
  284SOL    HW2 1752   4.796   6.551   2.502
  285SOL     OW 1753   3.881   6.452   5.576
  285SOL    HW1 1754   3.863   6.371   5.631
  285SOL    HW2 1755   3.800   6.473   5.521
  286SOL     OW 1756   2.719   4.777   5.378
  286SOL    HW1 1757   2.702   4.679   5.363
  286SOL    HW2 1758   2.773   4.813   5.302
  287SOL     OW 1759   3.666   6.256   6.765
  287SOL    HW1 1760   3.708   6.343   6.793
  287SOL    HW2 1761   3.628   6.266   6.673
  288SOL     OW 1762   4.618   1.670   0.282
  288SOL    HW1 1763   4.665   1.758   0.284
  288SOL    HW2 1764   4.543   1.670   0.347
  289SOL     OW 1765   5.779   4.508   4.656
  289SOL    HW1 1766   5.875   4.531   4.668
  289SOL    HW2 1767   5.770   4.409   4.644
  290SOL     OW 1768   3.176   0.464   5.833
  290SOL    HW1 1769   3.261   0.493   5.789
  290SOL    HW2 1770   3.196   0.428   5.924
  291SOL     OW 1771   4.166   0.548   5.329
  291SOL    HW1 1772   4.144   0.461   5.371
  291SOL    HW2 1773   4.254   0.581   5.363
  292SOL     OW 1774   3.390   0.222   3.927
  292SOL    HW1 1775   3.385   0.194   3.831
  292SOL    HW2 1776   3.298   0.215   3.968
  293SOL     OW 1777   4.809   0.010   2.674
  293SOL    HW1 1778   4.870   7.008   2.599
  293SOL    HW2 1779   4.726   6.980   2.672
  294SOL     OW 1780   6.554   1.318   6.936
  294SOL    HW1 1781   6.653   1.307   6.926
  294SOL    HW2 1782   6.535   1.408   6.975
  295SOL     OW 1783   0.581   0.724   4.696
  295SOL    HW1 1784   0.506   0.729   4.762
  295SOL    HW2 1785   0.638   0.806   4.705
  296SOL     OW 1786   0.797   2.442   1.740
  296SOL    HW1 1787   0.835   2.413   1.653
  296SOL    HW2 1788   0.700   2.416   1.745
  297SOL     OW 1789   5.575   3.093   3.343
  297SOL    HW1 1790   5.583   3.064   3.438
  297SOL    HW2 1791   5.605   3.188   3.334
  298SOL     OW 1792   4.222   1.089   6.061
  298SOL    HW1 1793   4.223   0.999   6.104
  298SOL    HW2 1794   4.160   1.087   5.982
  299SOL     OW 1795   0.564   1.179   6.543
  299SOL    HW1 1796   0.560   1.263   6.597
  299SOL    HW2 1797   0.480   1.127   6.556
  300SOL     OW 1798   4.989   6.719   3.366
  300SOL    HW1 1799   5.080   6.743   3.400
  300SOL    HW2 1800   4.991   6.626   3.329
  301SOL     OW 1801   6.674   5.508   5.902
  301SOL    HW1 1802   6.649   5.434   5.839
  301SOL    HW2 1803   6.736   5.473   5.972
  302SOL     OW 1804   0.508   6.829   2.918
  302SOL    HW1 1805   0.542   6.849   3.010
  302SOL    HW2 1806   0.575   6.771   2.870
  303SOL     OW 1807   5.753   6.310   2.770
  303SOL    HW1 1808   5.752   6.224   2.718
  303SOL    HW2 1809   5.660   6.345   2.778
  304SOL     OW 1810   1.929   6.848   4.835
  304SOL    HW1 1811   1.922   6.762   4.886
  304SOL    HW2 1812   1.873   6.842   4.753
  305SOL     OW 1813   0.633   2.013   1.403
  305SOL    HW1 1814   0.675   2.096   1.365
  305SOL    HW2 1815   0.549   1.992   1.352
  306SOL     OW 1816   0.699   6.691   2.779
  306SOL    HW1 1817   0.793   6.680   2.810
  306SOL    HW2 1818   0.657   6.601   2.766
  307SOL     OW 1819   3.691   3.875   3.498
  307SOL    HW1 1820   3.682   3.946   3.429
  307SOL    HW2 1821   3.601   3.851   3.534
  308SOL     OW 1822   6.558   1.649   2.383
  308SOL    HW1 1823   6.480   1.688   2.431
  308SOL    HW2 1824   6.627   1.619   2.449
  309SOL     OW 1825   1.771   5.180   6.938
  309SOL    HW1 1826   1.701   5.241   6.975
  309SOL    HW2 1827   1.824   5.140   7.012
  310SOL     OW 1828   5.635   6.479   5.027
  310SOL    HW1 1829   5.593   6.544   5.090
  310SOL    HW2 1830   5.730   6.504   5.012
  311SOL     OW 1831   1.345   6.022   1.758
  311SOL    HW1 1832   1.414   5.951   1.746
  311SOL    HW2 1833   1.284   5.997   1.833
  312SOL     OW 1834   3.451   0.666   4.081
  312SOL    HW1 1835   3.365   0.684   4.034
  312SOL    HW2 1836   3.448   0.704   4.173
  313SOL     OW 1837   3.099   3.076   2.851
  313SOL    HW1 1838   3.003   3.101   2.865
  313SOL    HW2 1839   3.104   3.003   2.783
  314SOL     OW 1840   2.572   5.550   6.370
  314SOL    HW1 1841   2.554   5.479   6.303
  314SOL    HW2 1842   2.663   5.536   6.409
  315SOL     OW 1843   5.235   0.385   4.699
  315SOL    HW1 1844   5.182   0.318   4.647
  315SOL    HW2 1845   5.202   0.477   4.677
  316SOL     OW 1846   3.436   0.914   6.829
  316SOL    HW1 1847   3.518   0.857   6.839
  316SOL    HW2 1848   3.462   1.010   6.824
  317SOL     OW 1849   0.093   2.460   1.211
  317SOL    HW1 1850   0.024   2.392   1.234
  317SOL    HW2 1851   0.048   2.542   1.176
  318SOL     OW 1852   1.187   0.302   4.311
  318SOL    HW1 1853   1.217   0.388   4.269
  318SOL    HW2 1854   1.124   0.255   4.250
  319SOL     OW 1855   0.354   0.696   3.533
  319SOL    HW1 1856   0.454   0.705   3.525
  319SOL    HW2 1857   0.313   0.786   3.541
  320SOL     OW 1858   5.186   1.922   0.178
  320SOL    HW1 1859   5.188   1.839   0.233
  320SOL    HW2 1860   5.144   1.996   0.231
  321SOL     OW 1861   4.278   3.089   0.961
  321SOL    HW1 1862   4.291   2.996   0.995
  321SOL    HW2 1863   4.240   3.086   0.868
  322SOL     OW 1864   3.457   2.644   6.596
  322SOL    HW1 1865   3.384   2.704   6.628
  322SOL    HW2 1866   3.483   2.581   6.670
  323SOL     OW 1867   1.288   3.696   2.166
  323SOL    HW1 1868   1.378   3.739   2.168
  323SOL    HW2 1869   1.297   3.598   2.182
  324SOL     OW 1870   0.878   7.000   3.268
  324SOL    HW1 1871   0.811   0.020   3.209
  324SOL    HW2 1872   0.970   0.008   3.247
  325SOL     OW 1873   6.830   3.935   0.649
  325SOL    HW1 1874   6.836   3.888   0.737
  325SOL    HW2 1875   6.896   3.895   0.585
  326SOL     OW 1876   0.267   6.005   0.198
  326SOL    HW1 1877   0.187   5.951   0.226
  326SOL    HW2 1878   0.284   6.077   0.266
  327SOL     OW 1879   4.023   5.591   5.620
  327SOL    HW1 1880   4.090   5.590   5.547
  327SOL    HW2 1881   4.061   5.638   5.700
  328SOL     OW 1882   1.430   4.675   3.323
  328SOL    HW1 1883   1.417   4.602   3.257
  328SOL    HW2 1884   1.503   4.650   3.387
  329SOL     OW 1885   3.374   3.271   2.027
  329SOL    HW1 1886   3.389   3.318   1.940
  329SOL    HW2 1887   3.461   3.233   2.060
  330SOL     OW 1888   3.255   3.832   0.366
  330SOL    HW1 1889   3.216   3.740   0.362
  330SOL    HW2 1890   3.251   3.874   0.276
  331SOL     OW 1891   5.525   5.407   4.969
  331SOL    HW1 1892   5.619   5.441   4.977
  331SOL    HW2 1893   5.511   5.332   5.033
  332SOL     OW 1894   5.444   2.019   2.884
  332SOL    HW1 1895   5.503   2.036   2.805
  332SOL    HW2 1896   5.408   2.106   2.918
  333SOL     OW 1897   3.308   0.070   4.289
  333SOL    HW1 1898   3.260   7.022   4.337
  333SOL    HW2 1899   3.402   0.041   4.269
  334SOL     OW 1900   3.704   3.640   3.377
  334SOL    HW1 1901   3.714   3.571   3.449
  334SOL    HW2 1902   3.708   3.731   3.418
  335SOL     OW 1903   3.619   1.534   1.029
  335SOL    HW1 1904   3.625   1.444   1.072
  335SOL    HW2 1905   3.691   1.593   1.065
  336SOL     OW 1906   4.170   1.927   4.668
  336SOL    HW1 1907   4.166   1.827   4.663
  336SOL    HW2 1908   4.081   1.962   4.698
  337SOL     OW 1909   0.049   0.763   5.464
  337SOL    HW1 1910   0.135   0.713   5.452
  337SOL    HW2 1911   7.013   0.710   5.522
  338SOL     OW 1912   4.342   1.532   1.507
  338SOL    HW1 1913   4.243   1.529   1.514
  338SOL    HW2 1914   4.377   1.615   1.550
  339SOL     OW 1915   3.892   5.462   5.844
  339SOL    HW1 1916   3.842   5.448   5.758
  339SOL    HW2 1917   3.989   5.440   5.830
  340SOL     OW 1918   5.764   2.786   4.668
  340SOL    HW1 1919   5.671   2.800   4.702
  340SOL    HW2 1920   5.761   2.735   4.582
  341SOL     OW 1921   0.273   6.973   2.987
  341SOL    HW1 1922   0.360   6.929   2.969
  341SOL    HW2 1923   0.288   0.046   3.002
  342SOL     OW 1924   4.705   2.119   2.379
  342SOL    HW1 1925   4.638   2.148   2.310
  342SOL    HW2 1926   4.683   2.161   2.467
  343SOL     OW 1927   6.167   6.946   1.508
  343SOL    HW1 1928   6.116   6.863   1.487
  343SOL    HW2 1929   6.114   0.001   1.480
  344SOL     OW 1930   6.981   3.054   1.778
  344SOL    HW1 1931   0.044   3.008   1.789
  344SOL    HW2 1932   6.950   3.046   1.684
  345SOL     OW 1933   6.622   2.550   4.890
  345SOL    HW1 1934   6.523   2.542   4.874
  345SOL    HW2 1935   6.646   2.646   4.901
  346SOL     OW 1936   2.417   6.137   3.343
  346SOL    HW1 1937   2.517   6.147   3.336
  346SOL    HW2 1938   2.373   6.192   3.272
  347SOL     OW 1939   2.366   4.649   0.896
  347SOL    HW1 1940   2.267   4.658   0.884
  347SOL    HW2 1941   2.393   4.694   0.982
  348SOL     OW 1942   3.830   5.209   1.926
  348SOL    HW1 1943   3.921   5.225   1.886
  348SOL    HW2 1944   3.837   5.212   2.026
  349SOL     OW 1945   5.222   4.126   0.355
  349SOL    HW1 1946   5.215   4.226   0.364
  349SOL    HW2 1947   5.148   4.093   0.297
  350SOL     OW 1948   2.741   1.923   6.869
  350SOL    HW1 1949   2.652   1.957   6.901
  350SOL    HW2 1950   2.812   1.989   6.892
  351SOL     OW 1951   3.375   4.276   0.960
  351SOL    HW1 1952   3.332   4.328   1.034
  351SOL    HW2 1953   3.305   4.244   0.896
  352SOL     OW 1954   4.341   0.288   2.071
  352SOL    HW1 1955   4.395   0.285   2.155
  352SOL    HW2 1956   4.262   0.228   2.079
  353SOL     OW 1957   1.397   6.878   0.832
  353SOL    HW1 1958   1.494   6.855   0.826
  353SOL    HW2 1959   1.352   6.860   0.745
  354SOL     OW 1960   0.859   2.757   0.389
  354SOL    HW1 1961   0.830   2.720   0.301
  354SOL    HW2 1962   0.953   2.729   0.409
  355SOL     OW 1963   0.894   2.766   3.091
  355SOL    HW1 1964   0.977   2.737   3.043
  355SOL    HW2 1965   0.913   2.848   3.145
  356SOL     OW 1966   2.785   0.302   5.551
  356SOL    HW1 1967   2.745   0.320   5.462
  356SOL    HW2 1968   2.760   0.376   5.614
  357SOL     OW 1969   6.578   6.956   4.349
  357SOL    HW1 1970   6.560   0.003   4.416
  357SOL    HW2 1971   6.676   6.933   4.350
  358SOL     OW 1972   3.107   6.340   6.348
  358SOL    HW1 1973   3.141   6.372   6.260
  358SOL    HW2 1974   3.119   6.241   6.355
  359SOL     OW 1975   1.287   1.854   2.078
  359SOL    HW1 1976   1.342   1.845   2.161
  359SOL    HW2 1977   1.203   1.903   2.100
  360SOL     OW 1978   2.018   4.420   3.621
  360SOL    HW1 1979   2.037   4.333   3.576
  360SOL    HW2 1980   1.937   4.412   3.678
  361SOL     OW 1981   0.204   1.675   2.392
  361SOL    HW1 1982   0.107   1.680   2.370
  361SOL    HW2 1983   0.220   1.712   2.484
  362SOL     OW 1984   3.561   3.503   1.619
  362SOL    HW1 1985   3.660   3.511   1.619
  362SOL    HW2 1986   3.533   3.418   1.574
  363SOL     OW 1987   4.889   5.611   1.800
  363SOL    HW1 1988   4.909   5.650   1.890
  363SOL    HW2 1989   4.795   5.575   1.799
  364SOL     OW 1990   0.958   6.689   0.194
  364SOL    HW1 1991   0.918   6.757   0.133
  364SOL    HW2 1992   0.897   6.673   0.272
  365SOL     OW 1993   5.372   1.293   4.088
  365SOL    HW1 1994   5.368   1.360   4.162
  365SOL    HW2 1995   5.314   1.323   4.012
  366SOL     OW 1996   5.786   1.746   6.835
  366SOL    HW1 1997   5.853   1.676   6.812
  366SOL    HW2 1998   5.746   1.782   6.751
  367SOL     OW 1999   5.653   1.449   6.989
  367SOL    HW1 2000   5.692   1.370   6.940
  367SOL    HW2 2001   5.653   1.529   6.928
  368SOL     OW 2002   0.703   1.628   5.593
  368SOL    HW1 2003   0.679   1.555   5.530
  368SOL    HW2 2004   0.622   1.683   5.613
  369SOL     OW 2005   6.238   3.967   0.887
  369SOL    HW1 2006   6.259   4.056   0.846
  369SOL    HW2 2007   6.140   3.963   0.909
  370SOL     OW 2008   2.272   2.744   3.524
  370SOL    HW1 2009   2.188   2.715   3.570
  370SOL    HW2 2010   2.270   2.843   3.510
  371SOL     OW 2011   1.026   5.555   6.795
  371SOL    HW1 2012   1.085   5.498   6.852
  371SOL    HW2 2013   0.932   5.522   6.801
  372SOL     OW 2014   2.686   5.894   5.687
  372SOL    HW1 2015   2.612   5.830   5.709
  372SOL    HW2 2016   2.720   5.874   5.595
  373SOL     OW 2017   6.522   4.595   3.221
  373SOL    HW1 2018   6.497   4.664   3.289
  373SOL    HW2 2019   6.440   4.550   3.187
  374SOL     OW 2020   2.881   1.769   2.347
  374SOL    HW1 2021   2.828   1.684   2.343
  374SOL    HW2 2022   2.954   1.759   2.416
  375SOL     OW 2023   1.137   5.791   4.595
  375SOL    HW1 2024   1.181   5.879   4.576
  375SOL    HW2 2025   1.203   5.717   4.580
  376SOL     OW 2026   4.006   0.478   3.725
  376SOL    HW1 2027   4.061   0.400   3.695
  376SOL    HW2 2028   4.050   0.521   3.804
  377SOL     OW 2029   1.892   1.817   6.756
  377SOL    HW1 2030   1.834   1.851   6.830
  377SOL    HW2 2031   1.988   1.827   6.781
  378SOL     OW 2032   3.875   1.471   2.785
  378SOL    HW1 2033   3.782   1.472   2.823
  378SOL    HW2 2034   3.888   1.550   2.726
  379SOL     OW 2035   4.335   1.929   5.877
  379SOL    HW1 2036   4.350   2.007   5.937
  379SOL    HW2 2037   4.368   1.950   5.785
  380SOL     OW 2038   4.273   2.484   0.529
  380SOL    HW1 2039   4.343   2.542   0.571
  380SOL    HW2 2040   4.303   2.388   0.531
  381SOL     OW 2041   2.070   3.651   2.724
  381SOL    HW1 2042   2.074   3.614   2.631
  381SOL    HW2 2043   1.988   3.618   2.769
  382SOL     OW 2044   6.069   0.750   6.468
  382SOL    HW1 2045   6.168   0.734   6.462
  382SOL    HW2 2046   6.036   0.787   6.381
  383SOL     OW 2047   4.903   2.840   0.343
  383SOL    HW1 2048   4.918   2.902   0.420
  383SOL    HW2 2049   4.810   2.852   0.307
  384SOL     OW 2050   6.693   3.809   5.068
  384SOL    HW1 2051   6.747   3.840   4.990
  384SOL    HW2 2052   6.701   3.710   5.077
  385SOL     OW 2053   4.685   3.409   0.473
  385SOL    HW1 2054   4.676   3.359   0.387
  385SOL    HW2 2055   4.619   3.485   0.474
  386SOL     OW 2056   4.390   6.517   4.445
  386SOL    HW1 2057   4.389   6.446   4.375
  386SOL    HW2 2058   4.438   6.483   4.526
  387SOL     OW 2059   2.670   5.932   4.356
  387SOL    HW1 2060   2.668   5.919   4.257
  387SOL    HW2 2061   2.621   5.857   4.401
  388SOL     OW 2062   0.755   4.630   6.795
  388SOL    HW1 2063   0.722   4.551   6.848
  388SOL    HW2 2064   0.812   4.688   6.854
  389SOL     OW 2065   3.131   3.018   1.730
  389SOL    HW1 2066   3.148   2.940   1.791
  389SOL    HW2 2067   3.217   3.066   1.713
  390SOL     OW 2068   2.346   1.116   4.525
  390SOL    HW1 2069   2.300   1.172   4.593
  390SOL    HW2 2070   2.432   1.082   4.562
  391SOL     OW 2071   1.496   2.548   6.875
  391SOL    HW1 2072   1.414   2.603   6.893
  391SOL    HW2 2073   1.510   2.542   6.776
  392SOL     OW 2074   3.239   5.679   3.740
  392SOL    HW1 2075   3.218   5.582   3.732
  392SOL    HW2 2076   3.333   5.696   3.709
  393SOL     OW 2077   6.273   3.756   4.845
  393SOL    HW1 2078   6.203   3.762   4.916
  393SOL    HW2 2079   6.241   3.802   4.762
  394SOL     OW 2080   1.800   1.034   6.507
  394SOL    HW1 2081   1.748   0.951   6.483
  394SOL    HW2 2082   1.771   1.109   6.447
  395SOL     OW 2083   6.276   3.257   1.386
  395SOL    HW1 2084   6.214   3.331   1.413
  395SOL    HW2 2085   6.249   3.172   1.431
  396SOL     OW 2086   3.441   3.075   5.353
  396SOL    HW1 2087   3.505   3.094   5.428
  396SOL    HW2 2088   3.484   3.013   5.287
  397SOL     OW 2089   3.955   1.843   6.881
  397SOL    HW1 2090   4.048   1.829   6.846
  397SOL    HW2 2091   3.906   1.903   6.819
  398SOL     OW 2092   1.244   4.616   2.737
  398SOL    HW1 2093   1.171   4.682   2.723
  398SOL    HW2 2094   1.332   4.660   2.722
  399SOL     OW 2095   5.317   4.837   2.889
  399SOL    HW1 2096   5.333   4.757   2.830
  399SOL    HW2 2097   5.331   4.811   2.985
  400SOL     OW 2098   1.883   4.611   4.398
  400SOL    HW1 2099   1.890   4.701   4.441
  400SOL    HW2 2100   1.950   4.604   4.324
  401SOL     OW 2101   5.554   1.372   0.215
  401SOL    HW1 2102   5.579   1.387   0.119
  401SOL    HW2 2103   5.497   1.290   0.222
  402SOL     OW 2104   6.475   4.596   1.548
  402SOL    HW1 2105   6.470   4.657   1.469
  402SOL    HW2 2106   6.467   4.649   1.632
  403SOL     OW 2107   5.367   3.880   0.323
  403SOL    HW1 2108   5.417   3.894   0.237
  403SOL    HW2 2109   5.282   3.932   0.320
  404SOL     OW 2110   0.181   6.735   4.889
  404SOL    HW1 2111   0.259   6.778   4.933
  404SOL    HW2 2112   0.109   6.803   4.875
  405SOL     OW 2113   0.662   2.730   0.860
  405SOL    HW1 2114   0.712   2.806   0.817
  405SOL    HW2 2115   0.653   2.747   0.958
  406SOL     OW 2116   1.287   2.987   2.569
  406SOL    HW1 2117   1.266   2.889   2.571
  406SOL    HW2 2118   1.238   3.033   2.643
  407SOL     OW 2119   2.775   1.505   3.551
  407SOL    HW1 2120   2.713   1.469   3.621
  407SOL    HW2 2121   2.844   1.563   3.594
  408SOL     OW 2122   2.117   0.772   3.305
  408SOL    HW1 2123   2.158   0.836   3.240
  408SOL    HW2 2124   2.109   0.816   3.394
  409SOL     OW 2125   5.929   3.229   3.921
  409SOL    HW1 2126   5.942   3.248   4.018
  409SOL    HW2 2127   5.981   3.296   3.867
  410SOL     OW 2128   2.961   0.540   6.473
  410SOL    HW1 2129   3.013   0.560   6.555
  410SOL    HW2 2130   2.942   0.625   6.423
  411SOL     OW 2131   0.149   3.568   5.155
  411SOL    HW1 2132   0.094   3.550   5.236
  411SOL    HW2 2133   0.187   3.482   5.121
  412SOL     OW 2134   4.339   0.538   1.958
  412SOL    HW1 2135   4.409   0.498   1.898
  412SOL    HW2 2136   4.317   0.474   2.031
  413SOL     OW 2137   2.673   0.752   2.436
  413SOL    HW1 2138   2.750   0.814   2.425
  413SOL    HW2 2139   2.702   0.672   2.489
  414SOL     OW 2140   4.445   3.842   6.982
  414SOL    HW1 2141   4.443   3.884   0.048
  414SOL    HW2 2142   4.361   3.789   6.969
  415SOL     OW 2143   3.655   6.413   2.229
  415SOL    HW1 2144   3.749   6.395   2.256
  415SOL    HW2 2145   3.635   6.364   2.144
  416SOL     OW 2146   3.541   5.866   5.969
  416SOL    HW1 2147   3.510   5.816   6.049
  416SOL    HW2 2148   3.568   5.801   5.897
  417SOL     OW 2149   4.458   5.021   0.845
  417SOL    HW1 2150   4.370   4.980   0.867
  417SOL    HW2 2151   4.502   5.052   0.929
  418SOL     OW 2152   5.622   4.507   0.452
  418SOL    HW1 2153   5.696   4.573   0.439
  418SOL    HW2 2154   5.534   4.553   0.441
  419SOL     OW 2155   6.015   6.615   1.256
  419SOL    HW1 2156   5.958   6.635   1.176
  419SOL    HW2 2157   5.998   6.521   1.286
  420SOL     OW 2158   4.441   4.190   0.043
  420SOL    HW1 2159   4.383   4.109   0.039
  420SOL    HW2 2160   4.486   4.194   0.132
  421SOL     OW 2161   1.076   5.855   6.520
  421SOL    HW1 2162   1.086   5.824   6.425
  421SOL    HW2 2163   1.140   5.804   6.578
  422SOL     OW 2164   5.762   3.103   6.461
  422SOL    HW1 2165   5.802   3.098   6.370
  422SOL    HW2 2166   5.791   3.024   6.515
  423SOL     OW 2167   0.617   3.125   5.627
  423SOL    HW1 2168   0.648   3.211   5.667
  423SOL    HW2 2169   0.553   3.080   5.690
  424SOL     OW 2170   2.166   3.913   0.170
  424SOL    HW1 2171   2.110   3.971   0.229
  424SOL    HW2 2172   2.258   3.906   0.209
  425SOL     OW 2173   3.516   0.436   1.102
  425SOL    HW1 2174   3.418   0.453   1.111
  425SOL    HW2 2175   3.532   0.340   1.077
  426SOL     OW 2176   5.860   4.010   5.011
  426SOL    HW1 2177   5.855   4.065   5.094
  426SOL    HW2 2178   5.778   4.026   4.956
  427SOL     OW 2179   4.478   3.545   1.064
  427SOL    HW1 2180   4.479   3.448   1.039
  427SOL    HW2 2181   4.414   3.559   1.139
  428SOL     OW 2182   3.477   1.130   5.520
  428SOL    HW1 2183   3.562   1.094   5.482
  428SOL    HW2 2184   3.456   1.082   5.606
  429SOL     OW 2185   2.649   5.148   0.116
  429SOL    HW1 2186   2.689   5.090   0.187
  429SOL    HW2 2187   2.666   5.244   0.139
  430SOL     OW 2188   1.754   0.039   4.953
  430SOL    HW1 2189   1.826   7.004   4.920
  430SOL    HW2 2190   1.691   7.013   5.010
  431SOL     OW 2191   3.196   1.526   6.622
  431SOL    HW1 2192   3.219   1.614   6.664
  431SOL    HW2 2193   3.101   1.503   6.645
  432SOL     OW 2194   0.233   1.565   1.377
  432SOL    HW1 2195   0.209   1.565   1.280
  432SOL    HW2 2196   0.247   1.659   1.408
  433SOL     OW 2197   2.984   5.768   4.570
  433SOL    HW1 2198   2.945   5.816   4.649
  433SOL    HW2 2199   2.921   5.695   4.541
  434SOL     OW 2200   6.719   3.372   1.495
  434SOL    HW1 2201   6.668   3.287   1.499
  434SOL    HW2 2202   6.656   3.449   1.482
  435SOL     OW 2203   3.744   3.986   0.381
  435SOL    HW1 2204   3.663   3.928   0.390
  435SOL    HW2 2205   3.825   3.935   0.409
  436SOL     OW 2206   2.454   0.923   0.340
  436SOL    HW1 2207   2.428   0.827   0.353
  436SOL    HW2 2208   2.419   0.977   0.417
  437SOL     OW 2209   6.665   6.578   6.259
  437SOL    HW1 2210   6.699   6.671   6.244
  437SOL    HW2 2211   6.567   6.576   6.240
  438SOL     OW 2212   2.161   2.999   1.930
  438SOL    HW1 2213   2.209   2.924   1.975
  438SOL    HW2 2214   2.097   2.961   1.862
  439SOL     OW 2215   6.020   4.880   2.511
  439SOL    HW1 2216   5.931   4.925   2.498
  439SOL    HW2 2217   6.091   4.949   2.519
  440SOL     OW 2218   0.868   2.908   3.684
  440SOL    HW1 2219   0.917   2.924   3.770
  440SOL    HW2 2220   0.786   2.855   3.702
  441SOL     OW 2221   1.278   0.470   3.605
  441SOL    HW1 2222   1.377   0.480   3.615
  441SOL    HW2 2223   1.231   0.512   3.683
  442SOL     OW 2224   0.260   4.710   0.205
  442SOL    HW1 2225   0.343   4.764   0.195
  442SOL    HW2 2226   0.226   4.684   0.115
  443SOL     OW 2227   0.816   4.374   6.080
  443SOL    HW1 2228   0.809   4.402   5.984
  443SOL    HW2 2229   0.741   4.415   6.132
  444SOL     OW 2230   4.532   3.045   6.312
  444SOL    HW1 2231   4.605   2.983   6.283
  444SOL    HW2 2232   4.470   3.062   6.236
  445SOL     OW 2233   1.665   4.287   3.213
  445SOL    HW1 2234   1.726   4.224   3.165
  445SOL    HW2 2235   1.678   4.277   3.312
  446SOL     OW 2236   4.218   5.253   4.094
  446SOL    HW1 2237   4.143   5.191   4.070
  446SOL    HW2 2238   4.305   5.209   4.070
  447SOL     OW 2239   0.283   5.868   0.519
  447SOL    HW1 2240   0.375   5.861   0.480
  447SOL    HW2 2241   0.241   5.777   0.521
  448SOL     OW 2242   4.274   0.674   5.629
  448SOL    HW1 2243   4.350   0.679   5.563
  448SOL    HW2 2244   4.241   0.580   5.634
  449SOL     OW 2245   6.186   0.611   4.470
  449SOL    HW1 2246   6.104   0.652   4.510
  449SOL    HW2 2247   6.243   0.574   4.543
  450SOL     OW 2248   6.992   6.201   3.360
  450SOL    HW1 2249   6.940   6.182   3.277
  450SOL    HW2 2250   0.028   6.278   3.343
  451SOL     OW 2251   6.807   2.249   3.696
  451SOL    HW1 2252   6.714   2.257   3.730
  451SOL    HW2 2253   6.832   2.331   3.645
  452SOL     OW 2254   6.944   4.550   6.587
  452SOL    HW1 2255   6.868   4.595   6.539
  452SOL    HW2 2256   0.005   4.575   6.544
  453SOL     OW 2257   2.626   0.998   5.684
  453SOL    HW1 2258   2.661   0.970   5.773
  453SOL    HW2 2259   2.649   1.094   5.667
  454SOL     OW 2260   1.187   6.245   0.139
  454SOL    HW1 2261   1.283   6.268   0.120
  454SOL    HW2 2262   1.140   6.222   0.054
  455SOL     OW 2263   5.343   1.230   5.736
  455SOL    HW1 2264   5.346   1.326   5.710
  455SOL    HW2 2265   5.333   1.173   5.654
  456SOL     OW 2266   4.705   5.736   6.760
  456SOL    HW1 2267   4.783   5.742   6.698
  456SOL    HW2 2268   4.737   5.742   6.854
  457SOL     OW 2269   1.204   5.217   2.217
  457SOL    HW1 2270   1.120   5.169   2.195
  457SOL    HW2 2271   1.184   5.293   2.278
  458SOL     OW 2272   6.433   6.421   5.982
  458SOL    HW1 2273   6.515   6.370   6.008
  458SOL    HW2 2274   6.449   6.519   5.996
  459SOL     OW 2275   2.167   0.438   2.648
  459SOL    HW1 2276   2.068   0.444   2.635
  459SOL    HW2 2277   2.189   0.463   2.742
  460SOL     OW 2278   6.814   1.593   3.431
  460SOL    HW1 2279   6.870   1.549   3.502
  460SOL    HW2 2280   6.718   1.576   3.449
  461SOL     OW 2281   4.797   6.201   5.739
  461SOL    HW1 2282   4.827   6.151   5.820
  461SOL    HW2 2283   4.702   6.229   5.750
  462SOL     OW 2284   3.114   3.303   6.859
  462SOL    HW1 2285   3.038   3.239   6.861
  462SOL    HW2 2286   3.155   3.304   6.767
  463SOL     OW 2287   6.682   5.671   1.612
  463SOL    HW1 2288   6.622   5.744   1.646
  463SOL    HW2 2289   6.751   5.710   1.551
  464SOL     OW 2290   1.579   1.157   5.881
  464SOL    HW1 2291   1.540   1.246   5.906
  464SOL    HW2 2292   1.591   1.153   5.781
  465SOL     OW 2293   6.488   3.019   5.026
  465SOL    HW1 2294   6.476   3.077   5.106
  465SOL    HW2 2295   6.402   3.013   4.975
  466SOL     OW 2296   1.873   0.303   3.424
  466SOL    HW1 2297   1.854   0.398   3.449
  466SOL    HW2 2298   1.957   0.273   3.469
  467SOL     OW 2299   2.045   0.976   4.770
  467SOL    HW1 2300   2.099   1.037   4.829
  467SOL    HW2 2301   2.105   0.908   4.729
  468SOL     OW 2302   3.262   4.425   1.206
  468SOL    HW1 2303   3.242   4.343   1.259
  468SOL    HW2 2304   3.178   4.457   1.161
  469SOL     OW 2305   2.273   4.974   7.010
  469SOL    HW1 2306   2.340   4.936   6.946
  469SOL    HW2 2307   2.186   4.987   6.962
  470SOL     OW 2308   3.465   1.198   2.724
  470SOL    HW1 2309   3.523   1.189   2.804
  470SOL    HW2 2310   3.520   1.224   2.645
  471SOL     OW 2311   2.827   2.086   4.798
  471SOL    HW1 2312   2.923   2.077   4.825
  471SOL    HW2 2313   2.794   1.999   4.762
  472SOL     OW 2314   3.892   4.079   5.487
  472SOL    HW1 2315   3.804   4.088   5.533
  472SOL    HW2 2316   3.893   4.138   5.406
  473SOL     OW 2317   1.154   4.023   2.715
  473SOL    HW1 2318   1.214   4.011   2.637
  473SOL    HW2 2319   1.177   4.109   2.762
  474SOL     OW 2320   4.175   5.208   4.874
  474SOL    HW1 2321   4.268   5.244   4.866
  474SOL    HW2 2322   4.179   5.109   4.887
  475SOL     OW 2323   0.562   6.540   5.785
  475SOL    HW1 2324   0.594   6.469   5.722
  475SOL    HW2 2325   0.595   6.519   5.877
  476SOL     OW 2326   0.014   4.818   2.329
  476SOL    HW1 2327   0.068   4.891   2.287
  476SOL    HW2 2328   7.022   4.747   2.261
  477SOL     OW 2329   1.435   5.170   4.560
  477SOL    HW1 2330   1.485   5.112   4.624
  477SOL    HW2 2331   1.337   5.167   4.581
  478SOL     OW 2332   1.857   4.933   3.129
  478SOL    HW1 2333   1.801   4.896   3.054
  478SOL    HW2 2334   1.865   5.032   3.119
  479SOL     OW 2335   3.660   2.028   1.239
  479SOL    HW1 2336   3.561   2.040   1.241
  479SOL    HW2 2337   3.684   1.938   1.274
  480SOL     OW 2338   1.691   7.024   2.966
  480SOL    HW1 2339   1.595   7.002   2.988
  480SOL    HW2 2340   1.744   6.939   2.965
  481SOL     OW 2341   3.559   6.767   1.629
  481SOL    HW1 2342   3.583   6.757   1.532
  481SOL    HW2 2343   3.505   6.850   1.642
  482SOL     OW 2344   5.713   4.511   1.826
  482SOL    HW1 2345   5.771   4.501   1.907
  482SOL    HW2 2346   5.678   4.422   1.798
  483SOL     OW 2347   5.653   1.691   1.222
  483SOL    HW1 2348   5.557   1.719   1.215
  483SOL    HW2 2349   5.687   1.667   1.131
  484SOL     OW 2350   6.582   2.219   5.256
  484SOL    HW1 2351   6.652   2.242   5.189
  484SOL    HW2 2352   6.547   2.302   5.299
  485SOL     OW 2353   3.682   5.369   2.219
  485SOL    HW1 2354   3.608   5.354   2.153
  485SOL    HW2 2355   3.657   5.328   2.307
  486SOL     OW 2356   0.347   0.515   0.575
  486SOL    HW1 2357   0.406   0.553   0.504
  486SOL    HW2 2358   0.401   0.500   0.658
  487SOL     OW 2359   6.308   2.630   6.388
  487SOL    HW1 2360   6.321   2.723   6.355
  487SOL    HW2 2361   6.331   2.625   6.485
  488SOL     OW 2362   0.518   2.489   2.836
  488SOL    HW1 2363   0.558   2.581   2.834
  488SOL    HW2 2364   0.436   2.487   2.779
  489SOL     OW 2365   3.477   6.044   6.308
  489SOL    HW1 2366   3.538   5.987   6.363
  489SOL    HW2 2367   3.531   6.100   6.246
  490SOL     OW 2368   5.057   6.298   4.515
  490SOL    HW1 2369   5.105   6.274   4.599
  490SOL    HW2 2370   5.051   6.218   4.455
  491SOL     OW 2371   6.903   2.784   3.249
  491SOL    HW1 2372   6.915   2.831   3.336
  491SOL    HW2 2373   6.927   2.687   3.259
  492SOL     OW 2374   1.853   0.956   5.228
  492SOL    HW1 2375   1.848   0.981   5.131
  492SOL    HW2 2376   1.828   1.036   5.283
  493SOL     OW 2377   6.465   4.149   4.061
  493SOL    HW1 2378   6.412   4.127   3.979
  493SOL    HW2 2379   6.542   4.086   4.069
  494SOL     OW 2380   6.416   0.712   0.499
  494SOL    HW1 2381   6.364   0.707   0.414
  494SOL    HW2 2382   6.514   0.714   0.479
  495SOL     OW 2383   4.457   4.720   1.493
  495SOL    HW1 2384   4.550   4.685   1.483
  495SOL    HW2 2385   4.395   4.643   1.511
  496SOL     OW 2386   5.692   3.117   3.845
  496SOL    HW1 2387   5.687   3.038   3.907
  496SOL    HW2 2388   5.776   3.169   3.865
  497SOL     OW 2389   4.445   0.746   4.206
  497SOL    HW1 2390   4.459   0.803   4.126
  497SOL    HW2 2391   4.379   0.674   4.185
  498SOL     OW 2392   1.667   3.258   2.524
  498SOL    HW1 2393   1.635   3.165   2.506
  498SOL    HW2 2394   1.633   3.319   2.453
  499SOL     OW 2395   3.193   1.652   4.795
  499SOL    HW1 2396   3.245   1.707   4.860
  499SOL    HW2 2397   3.237   1.563   4.785
  500SOL     OW 2398   0.923   4.050   2.566
  500SOL    HW1 2399   0.876   3.965   2.546
  500SOL    HW2 2400   1.008   4.031   2.614
  501SOL     OW 2401   0.333   4.418   5.835
  501SOL    HW1 2402   0.358   4.339   5.779
  501SOL    HW2 2403   0.246   4.400   5.881
  502SOL     OW 2404   3.118   5.486   6.601
  502SOL    HW1 2405   3.088   5.511   6.693
  502SOL    HW2 2406   3.114   5.566   6.542
  503SOL     OW 2407   5.322   5.380   4.804
  503SOL    HW1 2408   5.400   5.378   4.866
  503SOL    HW2 2409   5.320   5.296   4.750
  504SOL     OW 2410   2.367   5.923   4.339
  504SOL    HW1 2411   2.304   5.854   4.302
  504SOL    HW2 2412   2.431   5.951   4.268
  505SOL     OW 2413   4.645   6.782   5.448
  505SOL    HW1 2414   4.715   6.851   5.466
  505SOL    HW2 2415   4.586   6.771   5.528
  506SOL     OW 2416   2.251   3.991   6.569
  506SOL    HW1 2417   2.197   3.923   6.618
  506SOL    HW2 2418   2.223   4.083   6.597
  507SOL     OW 2419   3.312   1.412   4.159
  507SOL    HW1 2420   3.326   1.507   4.187
  507SOL    HW2 2421   3.325   1.404   4.060
  508SOL     OW 2422   6.159   4.156   3.531
  508SOL    HW1 2423   6.121   4.241   3.565
  508SOL    HW2 2424   6.120   4.079   3.581
  509SOL     OW 2425   4.413   2.495   1.848
  509SOL    HW1 2426   4.488   2.559   1.866
  509SOL    HW2 2427   4.442   2.403   1.874
  510SOL     OW 2428   0.648   3.839   4.336
  510SOL    HW1 2429   0.595   3.915   4.374
  510SOL    HW2 2430   0.745   3.864   4.336
  511SOL     OW 2431   0.372   6.511   0.484
  511SOL    HW1 2432   0.375   6.493   0.583
  511SOL    HW2 2433   0.463   6.498   0.446
  512SOL     OW 2434   0.521   3.849   6.750
  512SOL    HW1 2435   0.569   3.933   6.726
  512SOL    HW2 2436   0.538   3.828   6.847
  513SOL     OW 2437   6.542   5.918   4.326
  513SOL    HW1 2438   6.605   5.912   4.403
  513SOL    HW2 2439   6.503   6.009   4.320
  514SOL     OW 2440   5.669   1.838   3.647
  514SOL    HW1 2441   5.602   1.889   3.592
  514SOL    HW2 2442   5.737   1.797   3.587
  515SOL     OW 2443   1.943   6.146   0.034
  515SOL    HW1 2444   1.945   6.216   0.105
  515SOL    HW2 2445   1.859   6.157   7.005
  516SOL     OW 2446   1.922   4.944   2.108
  516SOL    HW1 2447   1.826   4.921   2.093
  516SOL    HW2 2448   1.948   4.920   2.201
  517SOL     OW 2449   5.209   0.993   0.446
  517SOL    HW1 2450   5.306   1.016   0.435
  517SOL    HW2 2451   5.184   0.999   0.543
  518SOL     OW 2452   2.573   2.286   0.459
  518SOL    HW1 2453   2.539   2.196   0.434
  518SOL    HW2 2454   2.566   2.299   0.558
  519SOL     OW 2455   0.656   6.364   0.879
  519SOL    HW1 2456   0.644   6.265   0.873
  519SOL    HW2 2457   0.752   6.385   0.899
  520SOL     OW 2458   5.571   4.546   5.119
  520SOL    HW1 2459   5.502   4.479   5.093
  520SOL    HW2 2460   5.625   4.572   5.039
  521SOL     OW 2461   6.448   1.174   0.827
  521SOL    HW1 2462   6.449   1.091   0.771
  521SOL    HW2 2463   6.437   1.148   0.923
  522SOL     OW 2464   3.931   3.420   4.689
  522SOL    HW1 2465   3.853   3.478   4.663
  522SOL    HW2 2466   4.013   3.451   4.641
  523SOL     OW 2467   6.666   6.642   5.335
  523SOL    HW1 2468   6.612   6.590   5.402
  523SOL    HW2 2469   6.605   6.682   5.267
  524SOL     OW 2470   3.059   1.005   5.554
  524SOL    HW1 2471   3.054   0.934   5.484
  524SOL    HW2 2472   3.148   1.001   5.600
  525SOL     OW 2473   2.316   3.419   6.693
  525SOL    HW1 2474   2.347   3.408   6.599
  525SOL    HW2 2475   2.395   3.419   6.755
  526SOL     OW 2476   3.814   5.857   4.888
  526SOL    HW1 2477   3.876   5.930   4.858
  526SOL    HW2 2478   3.745   5.841   4.816
  527SOL     OW 2479   0.909   2.112   6.066
  527SOL    HW1 2480   0.946   2.186   6.122
  527SOL    HW2 2481   0.826   2.076   6.109
  528SOL     OW 2482   2.468   0.475   5.337
  528SOL    HW1 2483   2.556   0.429   5.326
  528SOL    HW2 2484   2.478   0.572   5.315
  529SOL     OW 2485   0.029   4.854   4.272
  529SOL    HW1 2486   0.039   4.860   4.371
  529SOL    HW2 2487   0.073   4.933   4.230
  530SOL     OW 2488   1.745   2.844   5.774
  530SOL    HW1 2489   1.691   2.815   5.853
  530SOL    HW2 2490   1.842   2.836   5.796
  531SOL     OW 2491   7.024   0.212   0.887
  531SOL    HW1 2492   0.091   0.248   0.903
  531SOL    HW2 2493   0.006   0.122   0.844
  532SOL     OW 2494   1.744   0.779   5.554
  532SOL    HW1 2495   1.841   0.798   5.560
  532SOL    HW2 2496   1.715   0.783   5.458
  533SOL     OW 2497   5.268   6.624   4.085
  533SOL    HW1 2498   5.248   6.689   4.159
  533SOL    HW2 2499   5.206   6.546   4.092
  534SOL     OW 2500   3.817   5.963   1.724
  534SOL    HW1 2501   3.870   5.939   1.643
  534SOL    HW2 2502   3.822   5.889   1.791
  535SOL     OW 2503   0.157   3.520   3.126
  535SOL    HW1 2504   0.198   3.503   3.216
  535SOL    HW2 2505   0.157   3.436   3.073
  536SOL     OW 2506   0.843   5.461   0.731
  536SOL    HW1 2507   0.743   5.457   0.733
  536SOL    HW2 2508   0.873   5.556   0.724
  537SOL     OW 2509   2.493   0.473   2.433
  537SOL    HW1 2510   2.580   0.450   2.475
  537SOL    HW2 2511   2.440   0.389   2.420
  538SOL     OW 2512   1.119   5.240   3.707
  538SOL    HW1 2513   1.169   5.160   3.674
  538SOL    HW2 2514   1.021   5.222   3.704
  539SOL     OW 2515   1.695   4.557   1.567
  539SOL    HW1 2516   1.706   4.572   1.469
  539SOL    HW2 2517   1.599   4.568   1.592
  540SOL     OW 2518   1.488   2.236   1.913
  540SOL    HW1 2519   1.468   2.321   1.960
  540SOL    HW2 2520   1.402   2.189   1.892
  541SOL     OW 2521   3.273   5.318   5.082
  541SOL    HW1 2522   3.251   5.415   5.079
  541SOL    HW2 2523   3.300   5.287   4.991
  542SOL     OW 2524   6.330   5.509   6.986
  542SOL    HW1 2525   6.400   5.577   7.005
  542SOL    HW2 2526   6.330   5.487   6.889
  543SOL     OW 2527   6.906   6.043   0.024
  543SOL    HW1 2528   6.958   6.056   6.965
  543SOL    HW2 2529   6.808   6.057   0.005
  544SOL     OW 2530   0.776   5.314   0.314
  544SOL    HW1 2531   0.732   5.386   0.261
  544SOL    HW2 2532   0.707   5.268   0.371
  545SOL     OW 2533   3.581   2.019   3.720
  545SOL    HW1 2534   3.632   1.961   3.784
  545SOL    HW2 2535   3.532   2.090   3.771
  546SOL     OW 2536   0.913   3.895   0.393
  546SOL    HW1 2537   0.950   3.858   0.479
  546SOL    HW2 2538   0.848   3.830   0.354
  547SOL     OW 2539   2.817   3.109   0.147
  547SOL    HW1 2540   2.832   3.034   0.212
  547SOL    HW2 2541   2.887   3.107   0.076
  548SOL     OW 2542   3.576   3.242   4.502
  548SOL    HW1 2543   3.584   3.161   4.560
  548SOL    HW2 2544   3.488   3.287   4.520
  549SOL     OW 2545   6.850   3.309   1.772
  549SOL    HW1 2546   6.821   3.307   1.676
  549SOL    HW2 2547   6.885   3.219   1.798
  550SOL     OW 2548   6.663   3.912   1.846
  550SOL    HW1 2549   6.611   3.947   1.768
  550SOL    HW2 2550   6.636   3.961   1.929
  551SOL     OW 2551   6.676   1.729   6.720
  551SOL    HW1 2552   6.657   1.643   6.674
  551SOL    HW2 2553   6.740   1.713   6.796
  552SOL     OW 2554   5.038   5.649   0.831
  552SOL    HW1 2555   4.973   5.643   0.756
  552SOL    HW2 2556   5.129   5.668   0.794
  553SOL     OW 2557   1.459   1.694   1.716
  553SOL    HW1 2558   1.441   1.742   1.801
  553SOL    HW2 2559   1.426   1.600   1.723
  554SOL     OW 2560   5.424   5.914   5.286
  554SOL    HW1 2561   5.488   5.895   5.212
  554SOL    HW2 2562   5.371   5.831   5.306
  555SOL     OW 2563   1.974   4.355   4.375
  555SOL    HW1 2564   1.905   4.428   4.378
  555SOL    HW2 2565   1.972   4.304   4.461
  556SOL     OW 2566   5.462   3.581   3.064
  556SOL    HW1 2567   5.425   3.660   3.014
  556SOL    HW2 2568   5.541   3.545   3.014
  557SOL     OW 2569   0.167   5.770   6.349
  557SOL    HW1 2570   0.107   5.749   6.271
  557SOL    HW2 2571   0.142   5.859   6.387
  558SOL     OW 2572   4.358   3.923   5.305
  558SOL    HW1 2573   4.268   3.903   5.343
  558SOL    HW2 2574   4.412   3.840   5.301
  559SOL     OW 2575   6.462   6.137   6.257
  559SOL    HW1 2576   6.512   6.134   6.170
  559SOL    HW2 2577   6.376   6.187   6.245
  560SOL     OW 2578   4.083   6.619   6.859
  560SOL    HW1 2579   4.026   6.698   6.881
  560SOL    HW2 2580   4.125   6.585   6.943
  561SOL     OW 2581   5.534   6.607   1.010
  561SOL    HW1 2582   5.451   6.663   1.008
  561SOL    HW2 2583   5.536   6.554   1.095
  562SOL     OW 2584   6.735   1.090   6.004
  562SOL    HW1 2585   6.778   1.147   6.074
  562SOL    HW2 2586   6.733   1.140   5.917
  563SOL     OW 2587   3.390   6.253   4.913
  563SOL    HW1 2588   3.308   6.298   4.948
  563SOL    HW2 2589   3.363   6.173   4.860
  564SOL     OW 2590   0.366   1.770   6.848
  564SOL    HW1 2591   0.391   1.826   6.769
  564SOL    HW2 2592   0.423   1.796   6.926
  565SOL     OW 2593   4.797   4.187   5.142
  565SOL    HW1 2594   4.889   4.206   5.109
  565SOL    HW2 2595   4.740   4.268   5.130
  566SOL     OW 2596   5.570   5.233   2.535
  566SOL    HW1 2597   5.647   5.228   2.599
  566SOL    HW2 2598   5.543   5.140   2.508
  567SOL     OW 2599   4.119   3.723   4.823
  567SOL    HW1 2600   4.149   3.684   4.736
  567SOL    HW2 2601   4.177   3.689   4.897
  568SOL     OW 2602   2.145   1.581   6.272
  568SOL    HW1 2603   2.071   1.604   6.209
  568SOL    HW2 2604   2.136   1.485   6.299
  569SOL     OW 2605   2.552   3.709   0.105
  569SOL    HW1 2606   2.635   3.719   0.161
  569SOL    HW2 2607   2.568   3.640   0.035
  570SOL     OW 2608   0.377   5.994   1.077
  570SOL    HW1 2609   0.474   5.970   1.078
  570SOL    HW2 2610   0.344   5.993   0.983
  571SOL     OW 2611   4.218   5.571   2.900
  571SOL    HW1 2612   4.222   5.593   2.998
  571SOL    HW2 2613   4.299   5.518   2.875
  572SOL     OW 2614   1.941   4.324   4.858
  572SOL    HW1 2615   1.866   4.364   4.806
  572SOL    HW2 2616   1.904   4.271   4.934
  573SOL     OW 2617   3.892   2.440   6.110
  573SOL    HW1 2618   3.968   2.420   6.171
  573SOL    HW2 2619   3.826   2.499   6.156
  574SOL     OW 2620   2.508   1.622   4.433
  574SOL    HW1 2621   2.524   1.554   4.362
  574SOL    HW2 2622   2.525   1.713   4.395
  575SOL     OW 2623   5.023   2.370   6.658
  575SOL    HW1 2624   5.054   2.275   6.662
  575SOL    HW2 2625   5.084   2.423   6.598
  576SOL     OW 2626   0.638   2.197   2.485
  576SOL    HW1 2627   0.663   2.104   2.458
  576SOL    HW2 2628   0.540   2.211   2.472
  577SOL     OW 2629   3.412   2.158   3.863
  577SOL    HW1 2630   3.336   2.161   3.798
  577SOL    HW2 2631   3.384   2.202   3.949
  578SOL     OW 2632   0.604   3.229   4.351
  578SOL    HW1 2633   0.630   3.147   4.299
  578SOL    HW2 2634   0.676   3.298   4.342
  579SOL     OW 2635   3.789   3.097   0.254
  579SOL    HW1 2636   3.867   3.112   0.194
  579SOL    HW2 2637   3.770   3.181   0.306
  580SOL     OW 2638   0.015   5.867   0.223
  580SOL    HW1 2639   7.003   5.935   0.285
  580SOL    HW2 2640   7.012   5.888   0.129
  581SOL     OW 2641   3.993   3.956   2.830
  581SOL    HW1 2642   3.965   4.051   2.821
  581SOL    HW2 2643   3.990   3.929   2.926
  582SOL     OW 2644   6.086   3.667   2.835
  582SOL    HW1 2645   6.048   3.734   2.771
  582SOL    HW2 2646   6.134   3.716   2.908
  583SOL     OW 2647   2.569   5.333   6.734
  583SOL    HW1 2648   2.536   5.426   6.719
  583SOL    HW2 2649   2.506   5.284   6.794
  584SOL     OW 2650   1.169   5.189   4.644
  584SOL    HW1 2651   1.144   5.147   4.731
  584SOL    HW2 2652   1.095   5.177   4.579
  585SOL     OW 2653   0.025   1.585   6.013
  585SOL    HW1 2654   6.972   1.592   6.074
  585SOL    HW2 2655   0.026   1.494   5.970
  586SOL     OW 2656   2.080   5.846   0.647
  586SOL    HW1 2657   2.049   5.819   0.556
  586SOL    HW2 2658   2.070   5.768   0.710
  587SOL     OW 2659   1.197   3.646   5.830
  587SOL    HW1 2660   1.230   3.575   5.768
  587SOL    HW2 2661   1.270   3.713   5.846
  588SOL     OW 2662   2.502   0.079   1.385
  588SOL    HW1 2663   2.548   0.046   1.303
  588SOL    HW2 2664   2.571   0.115   1.449
  589SOL     OW 2665   4.504   5.244   2.530
  589SOL    HW1 2666   4.467   5.234   2.622
  589SOL    HW2 2667   4.534   5.338   2.516
  590SOL     OW 2668   6.675   2.210   1.634
  590SOL    HW1 2669   6.606   2.280   1.649
  590SOL    HW2 2670   6.752   2.225   1.696
  591SOL     OW 2671   3.462   6.709   3.124
  591SOL    HW1 2672   3.504   6.708   3.033
  591SOL    HW2 2673   3.406   6.627   3.136
  592SOL     OW 2674   5.485   0.946   0.040
  592SOL    HW1 2675   5.462   1.023   0.100
  592SOL    HW2 2676   5.407   0.884   0.034
  593SOL     OW 2677   6.010   1.674   3.906
  593SOL    HW1 2678   5.914   1.696   3.888
  593SOL    HW2 2679   6.067   1.715   3.834
  594SOL     OW 2680   5.062   3.129   1.463
  594SOL    HW1 2681   5.032   3.171   1.549
  594SOL    HW2 2682   5.121   3.051   1.483
  595SOL     OW 2683   3.561   0.001   4.190
  595SOL    HW1 2684   3.642   7.006   4.244
  595SOL    HW2 2685   3.580   0.080   4.131
  596SOL     OW 2686   1.091   4.287   2.421
  596SOL    HW1 2687   1.018   4.317   2.482
  596SOL    HW2 2688   1.077   4.192   2.395
  597SOL     OW 2689   4.000   1.932   5.764
  597SOL    HW1 2690   3.976   1.997   5.836
  597SOL    HW2 2691   4.037   1.981   5.685
  598SOL     OW 2692   3.165   3.983   0.812
  598SOL    HW1 2693   3.189   3.897   0.768
  598SOL    HW2 2694   3.071   4.006   0.791
  599SOL     OW 2695   0.012   6.551   2.898
  599SOL    HW1 2696   0.101   6.506   2.885
  599SOL    HW2 2697   0.018   6.615   2.975
  600SOL     OW 2698   2.385   0.737   0.802
  600SOL    HW1 2699   2.422   0.830   0.807
  600SOL    HW2 2700   2.447   0.680   0.747
  601SOL     OW 2701   3.123   5.002   3.906
  601SOL    HW1 2702   3.076   5.089   3.920
  601SOL    HW2 2703   3.092   4.960   3.821
  602SOL     OW 2704   0.690   0.471   1.192
  602SOL    HW1 2705   0.615   0.536   1.207
  602SOL    HW2 2706   0.774   0.521   1.172
  603SOL     OW 2707   4.068   2.247   2.888
  603SOL    HW1 2708   4.111   2.255   2.798
  603SOL    HW2 2709   3.968   2.243   2.877
  604SOL     OW 2710   0.520   4.031   5.481
  604SOL    HW1 2711   0.442   4.007   5.423
  604SOL    HW2 2712   0.599   3.975   5.456
  605SOL     OW 2713   5.829   0.041   4.544
  605SOL    HW1 2714   5.850   0.105   4.619
  605SOL    HW2 2715   5.737   0.060   4.509
  606SOL     OW 2716   3.546   0.094   3.021
  606SOL    HW1 2717   3.548   0.086   2.922
  606SOL    HW2 2718   3.638   0.082   3.058
  607SOL     OW 2719   4.745   0.955   3.589
  607SOL    HW1 2720   4.826   0.955   3.530
  607SOL    HW2 2721   4.691   1.037   3.571
  608SOL     OW 2722   4.501   1.865   1.607
  608SOL    HW1 2723   4.592   1.894   1.580
  608SOL    HW2 2724   4.457   1.938   1.659
  609SOL     OW 2725   2.918   3.480   3.911
  609SOL    HW1 2726   2.924   3.579   3.903
  609SOL    HW2 2727   2.898   3.455   4.005
  610SOL     OW 2728   5.364   1.492   4.332
  610SOL    HW1 2729   5.371   1.511   4.430
  610SOL    HW2 2730   5.284   1.434   4.315
  611SOL     OW 2731   6.203   0.241   0.694
  611SOL    HW1 2732   6.227   0.198   0.607
  611SOL    HW2 2733   6.104   0.246   0.703
  612SOL     OW 2734   2.972   5.330   5.777
  612SOL    HW1 2735   3.042   5.308   5.709
  612SOL    HW2 2736   3.016   5.369   5.859
  613SOL     OW 2737   3.305   2.393   6.919
  613SOL    HW1 2738   3.250   2.371   7.000
  613SOL    HW2 2739   3.386   2.444   6.947
  614SOL     OW 2740   5.201   3.652   1.069
  614SOL    HW1 2741   5.101   3.659   1.067
  614SOL    HW2 2742   5.234   3.671   1.162
  615SOL     OW 2743   5.822   6.796   1.730
  615SOL    HW1 2744   5.808   6.886   1.771
  615SOL    HW2 2745   5.899   6.799   1.667
  616SOL     OW 2746   5.848   0.743   5.027
  616SOL    HW1 2747   5.917   0.799   4.980
  616SOL    HW2 2748   5.838   0.656   4.978
  617SOL     OW 2749   6.950   5.584   5.694
  617SOL    HW1 2750   0.003   5.635   5.727
  617SOL    HW2 2751   6.933   5.606   5.598
  618SOL     OW 2752   5.881   4.075   0.185
  618SOL    HW1 2753   5.808   4.127   0.230
  618SOL    HW2 2754   5.940   4.034   0.255
  619SOL     OW 2755   2.340   0.020   6.287
  619SOL    HW1 2756   2.348   0.090   6.216
  619SOL    HW2 2757   2.416   6.981   6.280
  620SOL     OW 2758   5.501   1.750   2.108
  620SOL    HW1 2759   5.468   1.843   2.124
  620SOL    HW2 2760   5.438   1.684   2.148
  621SOL     OW 2761   2.995   0.308   6.820
  621SOL    HW1 2762   2.997   0.405   6.795
  621SOL    HW2 2763   2.956   0.256   6.744
  622SOL     OW 2764   0.751   2.561   5.513
  622SOL    HW1 2765   0.832   2.620   5.505
  622SOL    HW2 2766   0.669   2.614   5.489
  623SOL     OW 2767   5.958   0.273   3.642
  623SOL    HW1 2768   5.928   0.334   3.569
  623SOL    HW2 2769   6.035   0.315   3.691
  624SOL     OW 2770   6.902   0.429   6.467
  624SOL    HW1 2771   6.854   0.495   6.408
  624SOL    HW2 2772   6.904   0.340   6.422
  625SOL     OW 2773   3.322   1.490   0.948
  625SOL    HW1 2774   3.332   1.570   0.890
  625SOL    HW2 2775   3.409   1.472   0.996
  626SOL     OW 2776   6.749   6.246   3.761
  626SOL    HW1 2777   6.792   6.185   3.695
  626SOL    HW2 2778   6.780   6.222   3.853
  627SOL     OW 2779   6.491   6.913   0.135
  627SOL    HW1 2780   6.491   6.834   0.074
  627SOL    HW2 2781   6.427   6.982   0.102
  628SOL     OW 2782   4.315   4.416   6.212
  628SOL    HW1 2783   4.220   4.444   6.224
  628SOL    HW2 2784   4.323   4.363   6.127
  629SOL     OW 2785   1.381   6.952   0.186
  629SOL    HW1 2786   1.316   0.001   0.167
  629SOL    HW2 2787   1.447   6.946   0.111
  630SOL     OW 2788   6.070   1.391   0.981
  630SOL    HW1 2789   5.975   1.360   0.983
  630SOL    HW2 2790   6.073   1.490   0.966
  631SOL     OW 2791   1.476   2.297   4.161
  631SOL    HW1 2792   1.429   2.231   4.102
  631SOL    HW2 2793   1.575   2.289   4.147
  632SOL     OW 2794   3.040   4.175   0.511
  632SOL    HW1 2795   2.982   4.133   0.582
  632SOL    HW2 2796   3.037   4.118   0.429
  633SOL     OW 2797   1.241   5.479   0.863
  633SOL    HW1 2798   1.153   5.488   0.816
  633SOL    HW2 2799   1.246   5.388   0.906
  634SOL     OW 2800   3.190   3.297   4.355
  634SOL    HW1 2801   3.102   3.307   4.402
  634SOL    HW2 2802   3.238   3.217   4.392
  635SOL     OW 2803   5.921   0.160   6.535
  635SOL    HW1 2804   6.014   0.192   6.552
  635SOL    HW2 2805   5.890   0.105   6.613
  636SOL     OW 2806   2.683   0.778   5.519
  636SOL    HW1 2807   2.653   0.851   5.579
  636SOL    HW2 2808   2.770   0.803   5.476
  637SOL     OW 2809   0.145   1.009   2.664
  637SOL    HW1 2810   0.234   1.052   2.655
  637SOL    HW2 2811   0.122   0.962   2.579
  638SOL     OW 2812   6.973   3.022   5.188
  638SOL    HW1 2813   6.890   2.969   5.205
  638SOL    HW2 2814   6.974   3.102   5.247
  639SOL     OW 2815   5.557   4.318   2.064
  639SOL    HW1 2816   5.612   4.270   2.132
  639SOL    HW2 2817   5.549   4.414   2.089
  640SOL     OW 2818   0.188   2.807   2.439
  640SOL    HW1 2819   0.256   2.880   2.447
  640SOL    HW2 2820   0.151   2.785   2.530
  641SOL     OW 2821   2.166   4.901   4.053
  641SOL    HW1 2822   2.247   4.844   4.038
  641SOL    HW2 2823   2.195   4.994   4.074
  642SOL     OW 2824   0.972   4.711   4.788
  642SOL    HW1 2825   1.045   4.706   4.856
  642SOL    HW2 2826   0.940   4.619   4.767
  643SOL     OW 2827   3.784   4.973   0.646
  643SOL    HW1 2828   3.740   5.043   0.589
  643SOL    HW2 2829   3.883   4.988   0.645
  644SOL     OW 2830   0.175   6.743   5.305
  644SOL    HW1 2831   0.122   6.817   5.263
  644SOL    HW2 2832   0.272   6.768   5.306
  645SOL     OW 2833   4.232   5.459   2.599
  645SOL    HW1 2834   4.207   5.510   2.681
  645SOL    HW2 2835   4.267   5.522   2.529
  646SOL     OW 2836   3.928   2.012   4.384
  646SOL    HW1 2837   3.844   2.007   4.437
  646SOL    HW2 2838   3.982   2.091   4.414
  647SOL     OW 2839   3.525   2.305   6.156
  647SOL    HW1 2840   3.472   2.329   6.075
  647SOL    HW2 2841   3.599   2.371   6.168
  648SOL     OW 2842   5.898   1.280   3.101
  648SOL    HW1 2843   5.951   1.204   3.063
  648SOL    HW2 2844   5.923   1.293   3.197
  649SOL     OW 2845   2.373   4.922   0.233
  649SOL    HW1 2846   2.451   4.866   0.206
  649SOL    HW2 2847   2.322   4.951   0.151
  650SOL     OW 2848   0.187   3.617   0.961
  650SOL    HW1 2849   0.156   3.576   1.047
  650SOL    HW2 2850   0.230   3.546   0.904
  651SOL     OW 2851   1.067   0.588   4.183
  651SOL    HW1 2852   1.054   0.503   4.133
  651SOL    HW2 2853   1.035   0.578   4.277
  652SOL     OW 2854   4.146   5.955   1.247
  652SOL    HW1 2855   4.201   6.024   1.293
  652SOL    HW2 2856   4.076   6.000   1.191
  653SOL     OW 2857   1.958   6.735   2.489
  653SOL    HW1 2858   1.987   6.652   2.441
  653SOL    HW2 2859   2.001   6.740   2.579
  654SOL     OW 2860   0.981   6.926   5.948
  654SOL    HW1 2861   1.033   6.966   6.024
  654SOL    HW2 2862   0.952   6.833   5.972
  655SOL     OW 2863   0.537   3.841   1.516
  655SOL    HW1 2864   0.497   3.813   1.603
  655SOL    HW2 2865   0.495   3.927   1.486
  656SOL     OW 2866   3.091   6.077   0.106
  656SOL    HW1 2867   3.049   6.160   0.067
  656SOL    HW2 2868   3.032   5.998   0.087
  657SOL     OW 2869   4.105   3.697   3.694
  657SOL    HW1 2870   4.153   3.779   3.728
  657SOL    HW2 2871   4.094   3.632   3.770
  658SOL     OW 2872   1.171   1.361   4.296
  658SOL    HW1 2873   1.199   1.442   4.348
  658SOL    HW2 2874   1.149   1.287   4.360
  659SOL     OW 2875   1.958   5.422   6.421
  659SOL    HW1 2876   1.961   5.444   6.324
  659SOL    HW2 2877   1.914   5.497   6.471
  660SOL     OW 2878   4.730   4.919   3.195
  660SOL    HW1 2879   4.781   4.845   3.238
  660SOL    HW2 2880   4.794   4.982   3.150
  661SOL     OW 2881   4.480   5.123   4.009
  661SOL    HW1 2882   4.509   5.131   3.914
  661SOL    HW2 2883   4.556   5.089   4.065
  662SOL     OW 2884   4.678   3.643   0.013
  662SOL    HW1 2885   4.767   3.627   0.056
  662SOL    HW2 2886   4.659   3.741   0.011
  663SOL     OW 2887   6.775   4.392   0.183
  663SOL    HW1 2888   6.763   4.481   0.226
  663SOL    HW2 2889   6.754   4.399   0.085
  664SOL     OW 2890   1.756   0.141   6.349
  664SOL    HW1 2891   1.715   0.050   6.351
  664SOL    HW2 2892   1.692   0.207   6.387
  665SOL     OW 2893   3.470   4.917   2.521
  665SOL    HW1 2894   3.478   4.916   2.421
  665SOL    HW2 2895   3.391   4.971   2.548
  666SOL     OW 2896   3.215   0.880   6.986
  666SOL    HW1 2897   3.216   0.909   0.057
  666SOL    HW2 2898   3.305   0.894   6.946
  667SOL     OW 2899   1.145   3.726   2.447
  667SOL    HW1 2900   1.193   3.702   2.363
  667SOL    HW2 2901   1.188   3.679   2.525
  668SOL     OW 2902   5.318   6.713   0.091
  668SOL    HW1 2903   5.247   6.750   0.032
  668SOL    HW2 2904   5.340   6.779   0.163
  669SOL     OW 2905   1.324   5.619   2.462
  669SOL    HW1 2906   1.307   5.702   2.515
  669SOL    HW2 2907   1.404   5.572   2.499
  670SOL     OW 2908   3.304   3.490   3.231
  670SOL    HW1 2909   3.206   3.471   3.239
  670SOL    HW2 2910   3.356   3.411   3.265
  671SOL     OW 2911   1.930   0.527   6.712
  671SOL    HW1 2912   2.006   0.500   6.653
  671SOL    HW2 2913   1.914   0.625   6.703
  672SOL     OW 2914   1.263   2.128   2.963
  672SOL    HW1 2915   1.175   2.169   2.938
  672SOL    HW2 2916   1.328   2.201   2.984
  673SOL     OW 2917   4.839   0.327   0.267
  673SOL    HW1 2918   4.799   0.240   0.297
  673SOL    HW2 2919   4.919   0.348   0.322
  674SOL     OW 2920   6.937   1.779   4.560
  674SOL    HW1 2921   7.000   1.726   4.503
  674SOL    HW2 2922   6.986   1.857   4.600
  675SOL     OW 2923   5.819   0.205   4.203
  675SOL    HW1 2924   5.873   0.254   4.135
  675SOL    HW2 2925   5.724   0.199   4.173
  676SOL     OW 2926   2.156   4.573   3.941
  676SOL    HW1 2927   2.192   4.557   4.033
  676SOL    HW2 2928   2.218   4.634   3.891
  677SOL     OW 2929   5.281   0.488   0.855
  677SOL    HW1 2930   5.247   0.569   0.904
  677SOL    HW2 2931   5.255   0.405   0.904
  678SOL     OW 2932   2.594   1.300   5.914
  678SOL    HW1 2933   2.643   1.257   5.839
  678SOL    HW2 2934   2.652   1.302   5.995
  679SOL     OW 2935   6.737   0.837   2.111
  679SOL    HW1 2936   6.706   0.911   2.170
  679SOL    HW2 2937   6.814   0.790   2.154
  680SOL     OW 2938   5.515   4.327   4.850
  680SOL    HW1 2939   5.454   4.347   4.927
  680SOL    HW2 2940   5.505   4.399   4.781
  681SOL     OW 2941   1.603   6.901   2.137
  681SOL    HW1 2942   1.580   6.983   2.086
  681SOL    HW2 2943   1.700   6.879   2.122
  682SOL     OW 2944   0.494   6.759   6.482
  682SOL    HW1 2945   0.428   6.760   6.558
  682SOL    HW2 2946   0.471   6.832   6.418
  683SOL     OW 2947   5.512   1.834   6.958
  683SOL    HW1 2948   5.548   1.752   6.913
  683SOL    HW2 2949   5.557   1.915   6.919
  684SOL     OW 2950   0.276   6.147   6.505
  684SOL    HW1 2951   0.376   6.152   6.516
  684SOL    HW2 2952   0.248   6.200   6.425
  685SOL     OW 2953   6.133   1.115   6.526
  685SOL    HW1 2954   6.176   1.122   6.436
  685SOL    HW2 2955   6.177   1.179   6.589
  686SOL     OW 2956   5.449   4.642   3.420
  686SOL    HW1 2957   5.536   4.663   3.463
  686SOL    HW2 2958   5.428   4.545   3.431
  687SOL     OW 2959   6.208   2.332   5.187
  687SOL    HW1 2960   6.225   2.234   5.173
  687SOL    HW2 2961   6.110   2.349   5.187
  688SOL     OW 2962   0.434   3.104   4.552
  688SOL    HW1 2963   0.454   3.010   4.577
  688SOL    HW2 2964   0.496   3.134   4.480
  689SOL     OW 2965   5.859   4.286   4.880
  689SOL    HW1 2966   5.761   4.268   4.868
  689SOL    HW2 2967   5.884   4.275   4.976
  690SOL     OW 2968   0.597   2.965   3.918
  690SOL    HW1 2969   0.623   2.894   3.852
  690SOL    HW2 2970   0.500   2.955   3.941
  691SOL     OW 2971   6.800   2.950   6.930
  691SOL    HW1 2972   6.853   2.919   6.850
  691SOL    HW2 2973   6.826   3.044   6.952
  692SOL     OW 2974   2.572   7.016   3.131
  692SOL    HW1 2975   2.644   6.947   3.132
  692SOL    HW2 2976   2.541   0.007   3.225
  693SOL     OW 2977   6.541   1.662   2.813
  693SOL    HW1 2978   6.570   1.598   2.884
  693SOL    HW2 2979   6.610   1.664   2.741
  694SOL     OW 2980   1.601   0.241   2.295
  694SOL    HW1 2981   1.548   0.182   2.234
  694SOL    HW2 2982   1.540   0.282   2.363
  695SOL     OW 2983   4.326   5.439   6.566
  695SOL    HW1 2984   4.415   5.482   6.580
  695SOL    HW2 2985   4.256   5.509   6.551
  696SOL     OW 2986   4.705   6.072   2.710
  696SOL    HW1 2987   4.794   6.111   2.685
  696SOL    HW2 2988   4.661   6.033   2.629
  697SOL     OW 2989   1.459   4.164   3.478
  697SOL    HW1 2990   1.425   4.193   3.389
  697SOL    HW2 2991   1.511   4.238   3.520
  698SOL     OW 2992   4.613   6.142   3.950
  698SOL    HW1 2993   4.619   6.135   3.850
  698SOL    HW2 2994   4.631   6.236   3.978
  699SOL     OW 2995   1.040   4.506   6.801
  699SOL    HW1 2996   0.953   4.461   6.780
  699SOL    HW2 2997   1.098   4.507   6.719
  700SOL     OW 2998   2.252   1.519   4.187
  700SOL    HW1 2999   2.211   1.435   4.220
  700SOL    HW2 3000   2.348   1.523   4.216
  701SOL     OW 3001   0.940   4.796   6.228
  701SOL    HW1 3002   0.954   4.811   6.130
  701SOL    HW2 3003   0.925   4.699   6.245
  702SOL     OW 3004   5.383   5.791   4.745
  702SOL    HW1 3005   5.310   5.730   4.715
  702SOL    HW2 3006   5.348   5.852   4.817
  703SOL     OW 3007   4.224   4.041   6.864
  703SOL    HW1 3008   4.310   4.011   6.822
  703SOL    HW2 3009   4.191   3.970   6.926
  704SOL     OW 3010   2.628   0.488   1.413
  704SOL    HW1 3011   2.574   0.491   1.496
  704SOL    HW2 3012   2.694   0.412   1.419
  705SOL     OW 3013   6.538   2.119   3.581
  705SOL    HW1 3014   6.596   2.154   3.507
  705SOL    HW2 3015   6.535   2.186   3.655
  706SOL     OW 3016   4.755   2.066   3.787
  706SOL    HW1 3017   4.747   1.981   3.736
  706SOL    HW2 3018   4.669   2.083   3.837
  707SOL     OW 3019   4.519   2.248   1.857
  707SOL    HW1 3020   4.598   2.220   1.913
  707SOL    HW2 3021   4.465   2.167   1.834
  708SOL     OW 3022   4.152   0.353   1.837
  708SOL    HW1 3023   4.165   0.288   1.912
  708SOL    HW2 3024   4.240   0.393   1.811
  709SOL     OW 3025   0.498   5.217   0.028
  709SOL    HW1 3026   0.519   5.309   0.062
  709SOL    HW2 3027   0.415   5.183   0.071
  710SOL     OW 3028   3.223   3.395   2.390
  710SOL    HW1 3029   3.146   3.425   2.332
  710SOL    HW2 3030   3.251   3.471   2.449
  711SOL     OW 3031   1.774   0.403   4.326
  711SOL    HW1 3032   1.710   0.357   4.263
  711SOL    HW2 3033   1.723   0.459   4.390
  712SOL     OW 3034   1.116   4.099   1.618
  712SOL    HW1 3035   1.144   4.188   1.582
  712SOL    HW2 3036   1.197   4.045   1.640
  713SOL     OW 3037   3.989   3.929   3.379
  713SOL    HW1 3038   3.945   3.952   3.466
  713SOL    HW2 3039   4.031   3.839   3.385
  714SOL     OW 3040   4.892   4.771   5.605
  714SOL    HW1 3041   4.931   4.685   5.639
  714SOL    HW2 3042   4.948   4.805   5.530
  715SOL     OW 3043   4.417   1.003   6.416
  715SOL    HW1 3044   4.461   0.945   6.485
  715SOL    HW2 3045   4.318   1.006   6.433
  716SOL     OW 3046   6.967   5.088   2.007
  716SOL    HW1 3047   6.907   5.076   2.086
  716SOL    HW2 3048   6.943   5.173   1.960
  717SOL     OW 3049   5.479   3.116   0.136
  717SOL    HW1 3050   5.478   3.212   0.163
  717SOL    HW2 3051   5.466   3.058   0.216
  718SOL     OW 3052   3.059   3.579   6.830
  718SOL    HW1 3053   3.022   3.593   6.739
  718SOL    HW2 3054   3.088   3.483   6.841
  719SOL     OW 3055   5.502   5.080   0.367
  719SOL    HW1 3056   5.491   5.141   0.445
  719SOL    HW2 3057   5.595   5.088   0.331
  720SOL     OW 3058   2.211   0.802   6.710
  720SOL    HW1 3059   2.119   0.838   6.695
  720SOL    HW2 3060   2.245   0.763   6.624
  721SOL     OW 3061   1.350   6.253   5.777
  721SOL    HW1 3062   1.424   6.314   5.749
  721SOL    HW2 3063   1.263   6.286   5.741
  722SOL     OW 3064   4.467   6.552   6.010
  722SOL    HW1 3065   4.412   6.568   5.929
  722SOL    HW2 3066   4.451   6.459   6.044
  723SOL     OW 3067   1.946   3.368   1.721
  723SOL    HW1 3068   1.855   3.396   1.688
  723SOL    HW2 3069   1.991   3.313   1.651
  724SOL     OW 3070   6.703   0.633   4.437
  724SOL    HW1 3071   6.675   0.729   4.439
  724SOL    HW2 3072   6.801   0.627   4.456
  725SOL     OW 3073   2.809   4.653   1.017
  725SOL    HW1 3074   2.771   4.710   0.943
  725SOL    HW2 3075   2.751   4.573   1.030
  726SOL     OW 3076   4.335   6.840   6.164
  726SOL    HW1 3077   4.309   6.788   6.245
  726SOL    HW2 3078   4.299   6.795   6.082
  727SOL     OW 3079   2.506   4.532   3.957
  727SOL    HW1 3080   2.448   4.452   3.937
  727SOL    HW2 3081   2.449   4.608   3.987
  728SOL     OW 3082   0.184   2.732   5.353
  728SOL    HW1 3083   0.258   2.799   5.352
  728SOL    HW2 3084   0.134   2.735   5.266
  729SOL     OW 3085   3.057   0.664   0.737
  729SOL    HW1 3086   2.986   0.629   0.675
  729SOL    HW2 3087   3.013   0.700   0.820
  730SOL     OW 3088   6.121   0.486   5.113
  730SOL    HW1 3089   6.165   0.567   5.074
  730SOL    HW2 3090   6.024   0.484   5.087
  731SOL     OW 3091   6.336   3.099   4.010
  731SOL    HW1 3092   6.311   3.036   4.083
  731SOL    HW2 3093   6.308   3.192   4.034
  732SOL     OW 3094   6.663   2.950   2.442
  732SOL    HW1 3095   6.763   2.942   2.435
  732SOL    HW2 3096   6.639   3.039   2.481
  733SOL     OW 3097   4.172   4.702   3.864
  733SOL    HW1 3098   4.261   4.711   3.909
  733SOL    HW2 3099   4.099   4.713   3.932
  734SOL     OW 3100   0.189   4.773   0.503
  734SOL    HW1 3101   0.238   4.733   0.581
  734SOL    HW2 3102   0.129   4.703   0.463
  735SOL     OW 3103   2.134   4.647   6.317
  735SOL    HW1 3104   2.173   4.730   6.355
  735SOL    HW2 3105   2.207   4.584   6.289
  736SOL     OW 3106   6.007   1.039   2.979
  736SOL    HW1 3107   5.972   0.959   3.027
  736SOL    HW2 3108   5.982   1.034   2.882
  737SOL     OW 3109   5.742   4.230   0.495
  737SOL    HW1 3110   5.695   4.297   0.437
  737SOL    HW2 3111   5.687   4.147   0.501
  738SOL     OW 3112   1.138   4.330   2.828
  738SOL    HW1 3113   1.152   4.428   2.815
  738SOL    HW2 3114   1.042   4.312   2.850
  739SOL     OW 3115   4.521   6.048   6.756
  739SOL    HW1 3116   4.591   6.046   6.684
  739SOL    HW2 3117   4.527   6.134   6.806
  740SOL     OW 3118   5.505   0.064   1.028
  740SOL    HW1 3119   5.471   6.996   1.018
  740SOL    HW2 3120   5.605   0.062   1.035
  741SOL     OW 3121   2.631   0.684   3.711
  741SOL    HW1 3122   2.585   0.771   3.728
  741SOL    HW2 3123   2.660   0.643   3.797
  742SOL     OW 3124   1.809   0.155   2.737
  742SOL    HW1 3125   1.757   0.108   2.666
  742SOL    HW2 3126   1.761   0.149   2.824
  743SOL     OW 3127   2.013   3.671   4.099
  743SOL    HW1 3128   2.028   3.572   4.089
  743SOL    HW2 3129   2.071   3.706   4.172
  744SOL     OW 3130   0.276   6.248   1.288
  744SOL    HW1 3131   0.184   6.271   1.319
  744SOL    HW2 3132   0.271   6.189   1.207
  745SOL     OW 3133   1.634   6.343   3.166
  745SOL    HW1 3134   1.724   6.330   3.209
  745SOL    HW2 3135   1.620   6.441   3.150
  746SOL     OW 3136   3.090   0.691   4.663
  746SOL    HW1 3137   3.121   0.685   4.568
  746SOL    HW2 3138   3.115   0.781   4.700
  747SOL     OW 3139   5.880   4.827   2.046
  747SOL    HW1 3140   5.907   4.915   2.007
  747SOL    HW2 3141   5.899   4.825   2.144
  748SOL     OW 3142   3.904   3.008   2.444
  748SOL    HW1 3143   3.942   3.094   2.478
  748SOL    HW2 3144   3.967   2.933   2.465
  749SOL     OW 3145   6.926   1.441   5.236
  749SOL    HW1 3146   6.829   1.460   5.249
  749SOL    HW2 3147   6.947   1.437   5.138
  750SOL     OW 3148   2.659   4.192   0.723
  750SOL    HW1 3149   2.573   4.145   0.742
  750SOL    HW2 3150   2.642   4.289   0.710
  751SOL     OW 3151   4.654   1.422   0.428
  751SOL    HW1 3152   4.669   1.354   0.356
  751SOL    HW2 3153   4.648   1.513   0.387
  752SOL     OW 3154   4.966   1.288   1.422
  752SOL    HW1 3155   5.012   1.364   1.467
  752SOL    HW2 3156   5.032   1.216   1.400
  753SOL     OW 3157   2.325   1.699   2.750
  753SOL    HW1 3158   2.327   1.752   2.665
  753SOL    HW2 3159   2.377   1.614   2.737
  754SOL     OW 3160   4.901   5.471   0.063
  754SOL    HW1 3161   4.859   5.405   0.126
  754SOL    HW2 3162   4.964   5.423   0.003
  755SOL     OW 3163   0.473   6.480   2.749
  755SOL    HW1 3164   0.398   6.475   2.683
  755SOL    HW2 3165   0.437   6.501   2.839
  756SOL     OW 3166   3.670   6.937   3.491
  756SOL    HW1 3167   3.678   7.015   3.554
  756SOL    HW2 3168   3.762   6.909   3.463
  757SOL     OW 3169   6.935   0.855   4.492
  757SOL    HW1 3170   0.007   0.866   4.471
  757SOL    HW2 3171   6.921   0.864   4.591
  758SOL     OW 3172   4.203   2.539   1.683
  758SOL    HW1 3173   4.265   2.598   1.632
  758SOL    HW2 3174   4.248   2.507   1.766
  759SOL     OW 3175   1.626   1.117   0.146
  759SOL    HW1 3176   1.687   1.196   0.148
  759SOL    HW2 3177   1.551   1.135   0.082
  760SOL     OW 3178   4.161   1.377   6.072
  760SOL    HW1 3179   4.201   1.289   6.046
  760SOL    HW2 3180   4.228   1.431   6.121
  761SOL     OW 3181   5.983   2.620   6.716
  761SOL    HW1 3182   6.000   2.541   6.657
  761SOL    HW2 3183   5.978   2.703   6.660
  762SOL     OW 3184   1.977   5.386   3.836
  762SOL    HW1 3185   1.942   5.307   3.886
  762SOL    HW2 3186   1.953   5.469   3.887
  763SOL     OW 3187   5.642   4.974   6.375
  763SOL    HW1 3188   5.589   4.923   6.443
  763SOL    HW2 3189   5.738   4.947   6.381
  764SOL     OW 3190   4.372   1.249   2.681
  764SOL    HW1 3191   4.401   1.260   2.586
  764SOL    HW2 3192   4.362   1.152   2.702
  765SOL     OW 3193   0.353   0.081   3.516
  765SOL    HW1 3194   0.284   0.009   3.518
  765SOL    HW2 3195   0.395   0.084   3.426
  766SOL     OW 3196   0.313   6.203   0.377
  766SOL    HW1 3197   0.231   6.240   0.421
  766SOL    HW2 3198   0.388   6.199   0.443
  767SOL     OW 3199   6.284   6.818   1.783
  767SOL    HW1 3200   6.216   6.891   1.790
  767SOL    HW2 3201   6.352   6.829   1.856
  768SOL     OW 3202   3.524   6.505   3.482
  768SOL    HW1 3203   3.569   6.552   3.406
  768SOL    HW2 3204   3.589   6.495   3.558
  769SOL     OW 3205   3.263   0.780   6.666
  769SOL    HW1 3206   3.320   0.719   6.611
  769SOL    HW2 3207   3.320   0.840   6.721
  770SOL     OW 3208   3.775   4.942   3.601
  770SOL    HW1 3209   3.868   4.951   3.637
  770SOL    HW2 3210   3.713   4.917   3.675
  771SOL     OW 3211   0.478   5.819   3.571
  771SOL    HW1 3212   0.492   5.720   3.578
  771SOL    HW2 3213   0.565   5.863   3.554
  772SOL     OW 3214   6.567   4.513   4.646
  772SOL    HW1 3215   6.614   4.576   4.585
  772SOL    HW2 3216   6.552   4.426   4.600
  773SOL     OW 3217   0.143   3.979   1.906
  773SOL    HW1 3218   0.138   4.045   1.830
  773SOL    HW2 3219   0.051   3.954   1.934
  774SOL     OW 3220   1.590   0.726   1.493
  774SOL    HW1 3221   1.574   0.779   1.410
  774SOL    HW2 3222   1.678   0.680   1.487
  775SOL     OW 3223   1.347   1.971   4.153
  775SOL    HW1 3224   1.419   1.984   4.221
  775SOL    HW2 3225   1.260   1.951   4.200
  776SOL     OW 3226   2.237   0.644   5.966
  776SOL    HW1 3227   2.265   0.566   6.022
  776SOL    HW2 3228   2.144   0.629   5.932
  777SOL     OW 3229   4.566   0.495   0.327
  777SOL    HW1 3230   4.633   0.547   0.381
  777SOL    HW2 3231   4.611   0.458   0.245
  778SOL     OW 3232   4.509   6.465   3.628
  778SOL    HW1 3233   4.525   6.460   3.727
  778SOL    HW2 3234   4.433   6.528   3.610
  779SOL     OW 3235   0.864   0.971   2.205
  779SOL    HW1 3236   0.811   0.889   2.225
  779SOL    HW2 3237   0.952   0.966   2.251
  780SOL     OW 3238   5.078   3.390   5.237
  780SOL    HW1 3239   5.139   3.380   5.158
  780SOL    HW2 3240   4.993   3.341   5.220
  781SOL     OW 3241   0.835   1.779   6.129
  781SOL    HW1 3242   0.843   1.845   6.204
  781SOL    HW2 3243   0.916   1.720   6.128
  782SOL     OW 3244   0.426   4.112   0.772
  782SOL    HW1 3245   0.328   4.094   0.778
  782SOL    HW2 3246   0.471   4.035   0.728
  783SOL     OW 3247   2.607   4.006   0.454
  783SOL    HW1 3248   2.649   4.094   0.473
  783SOL    HW2 3249   2.675   3.933   0.462
  784SOL     OW 3250   5.400   6.784   3.900
  784SOL    HW1 3251   5.347   6.723   3.958
  784SOL    HW2 3252   5.495   6.787   3.933
  785SOL     OW 3253   6.716   2.282   4.183
  785SOL    HW1 3254   6.630   2.270   4.234
  785SOL    HW2 3255   6.744   2.195   4.143
  786SOL     OW 3256   6.253   0.075   0.159
  786SOL    HW1 3257   6.336   0.127   0.177
  786SOL    HW2 3258   6.174   0.124   0.196
  787SOL     OW 3259   3.644   1.442   6.757
  787SOL    HW1 3260   3.575   1.432   6.685
  787SOL    HW2 3261   3.682   1.534   6.754
  788SOL     OW 3262   0.867   4.329   3.846
  788SOL    HW1 3263   0.858   4.400   3.915
  788SOL    HW2 3264   0.935   4.262   3.876
  789SOL     OW 3265   5.870   3.663   0.831
  789SOL    HW1 3266   5.894   3.566   0.838
  789SOL    HW2 3267   5.773   3.671   0.808
  790SOL     OW 3268   3.357   1.160   4.277
  790SOL    HW1 3269   3.438   1.206   4.242
  790SOL    HW2 3270   3.275   1.212   4.252
  791SOL     OW 3271   4.129   1.902   4.202
  791SOL    HW1 3272   4.214   1.930   4.248
  791SOL    HW2 3273   4.051   1.942   4.250
  792SOL     OW 3274   5.940   0.616   2.967
  792SOL    HW1 3275   5.967   0.576   2.879
  792SOL    HW2 3276   5.899   0.546   3.024
  793SOL     OW 3277   6.568   0.155   6.195
  793SOL    HW1 3278   6.538   0.178   6.287
  793SOL    HW2 3279   6.649   0.096   6.200
  794SOL     OW 3280   2.676   5.099   5.047
  794SOL    HW1 3281   2.758   5.144   5.083
  794SOL    HW2 3282   2.685   5.000   5.059
  795SOL     OW 3283   4.938   4.526   6.281
  795SOL    HW1 3284   4.871   4.557   6.215
  795SOL    HW2 3285   4.975   4.605   6.331
  796SOL     OW 3286   1.090   2.235   5.884
  796SOL    HW1 3287   1.025   2.183   5.939
  796SOL    HW2 3288   1.128   2.309   5.939
  797SOL     OW 3289   6.160   2.401   4.871
  797SOL    HW1 3290   6.246   2.440   4.905
  797SOL    HW2 3291   6.098   2.385   4.948
  798SOL     OW 3292   6.137   0.653   5.643
  798SOL    HW1 3293   6.045   0.651   5.605
  798SOL    HW2 3294   6.203   0.665   5.568
  799SOL     OW 3295   6.667   3.305   3.222
  799SOL    HW1 3296   6.725   3.226   3.242
  799SOL    HW2 3297   6.722   3.388   3.222
  800SOL     OW 3298   0.156   1.776   1.989
  800SOL    HW1 3299   0.152   1.863   2.039
  800SOL    HW2 3300   0.074   1.723   2.007
  801SOL     OW 3301   7.006   2.445   4.079
  801SOL    HW1 3302   6.962   2.446   4.169
  801SOL    HW2 3303   6.937   2.428   4.009
  802SOL     OW 3304   5.927   1.151   0.823
  802SOL    HW1 3305   5.890   1.117   0.737
  802SOL    HW2 3306   6.007   1.096   0.849
  803SOL     OW 3307   1.334   6.725   4.893
  803SOL    HW1 3308   1.254   6.785   4.903
  803SOL    HW2 3309   1.411   6.778   4.858
  804SOL     OW 3310   6.565   0.259   0.475
  804SOL    HW1 3311   6.632   0.264   0.549
  804SOL    HW2 3312   6.510   0.176   0.485
  805SOL     OW 3313   1.090   3.203   6.196
  805SOL    HW1 3314   1.093   3.295   6.156
  805SOL    HW2 3315   1.157   3.145   6.151
  806SOL     OW 3316   5.341   0.953   0.852
  806SOL    HW1 3317   5.441   0.962   0.860
  806SOL    HW2 3318   5.307   1.019   0.786
  807SOL     OW 3319   1.769   0.473   2.891
  807SOL    HW1 3320   1.858   0.439   2.921
  807SOL    HW2 3321   1.704   0.468   2.966
  808SOL     OW 3322   5.734   3.359   5.008
  808SOL    HW1 3323   5.641   3.380   4.976
  808SOL    HW2 3324   5.798   3.372   4.932
  809SOL     OW 3325   0.667   4.758   6.414
  809SOL    HW1 3326   0.756   4.722   6.441
  809SOL    HW2 3327   0.599   4.736   6.484
  810SOL     OW 3328   6.307   4.536   6.528
  810SOL    HW1 3329   6.259   4.591   6.459
  810SOL    HW2 3330   6.335   4.595   6.604
  811SOL     OW 3331   4.913   5.265   3.559
  811SOL    HW1 3332   4.862   5.212   3.491
  811SOL    HW2 3333   4.965   5.337   3.512
  812SOL     OW 3334   1.023   0.389   2.382
  812SOL    HW1 3335   1.034   0.332   2.464
  812SOL    HW2 3336   0.974   0.336   2.312
  813SOL     OW 3337   5.992   5.612   2.150
  813SOL    HW1 3338   6.010   5.515   2.134
  813SOL    HW2 3339   5.929   5.622   2.227
  814SOL     OW 3340   5.530   5.642   1.441
  814SOL    HW1 3341   5.506   5.727   1.394
  814SOL    HW2 3342   5.609   5.657   1.499
  815SOL     OW 3343   0.376   2.349   0.267
  815SOL    HW1 3344   0.407   2.420   0.331
  815SOL    HW2 3345   0.362   2.263   0.316
  816SOL     OW 3346   6.506   0.712   1.293
  816SOL    HW1 3347   6.529   0.671   1.204
  816SOL    HW2 3348   6.408   0.702   1.309
  817SOL     OW 3349   1.455   2.016   2.415
  817SOL    HW1 3350   1.370   1.971   2.441
  817SOL    HW2 3351   1.436   2.091   2.353
  818SOL     OW 3352   7.021   1.771   1.608
  818SOL    HW1 3353   6.999   1.790   1.512
  818SOL    HW2 3354   6.954   1.706   1.645
  819SOL     OW 3355   0.303   4.550   3.369
  819SOL    HW1 3356   0.300   4.649   3.360
  819SOL    HW2 3357   0.266   4.524   3.458
  820SOL     OW 3358   1.208   3.523   5.165
  820SOL    HW1 3359   1.218   3.622   5.169
  820SOL    HW2 3360   1.219   3.485   5.257
  821SOL     OW 3361   1.140   3.555   0.427
  821SOL    HW1 3362   1.187   3.641   0.444
  821SOL    HW2 3363   1.190   3.480   0.472
  822SOL     OW 3364   1.843   3.606   4.574
  822SOL    HW1 3365   1.848   3.525   4.516
  822SOL    HW2 3366   1.758   3.604   4.627
  823SOL     OW 3367   2.982   3.260   1.070
  823SOL    HW1 3368   3.009   3.167   1.045
  823SOL    HW2 3369   2.912   3.293   1.007
  824SOL     OW 3370   6.055   2.045   5.914
  824SOL    HW1 3371   6.006   2.122   5.956
  824SOL    HW2 3372   6.000   2.007   5.840
  825SOL     OW 3373   1.259   4.143   1.911
  825SOL    HW1 3374   1.333   4.185   1.964
  825SOL    HW2 3375   1.182   4.124   1.972
  826SOL     OW 3376   0.272   4.162   5.974
  826SOL    HW1 3377   0.234   4.192   6.062
  826SOL    HW2 3378   0.360   4.206   5.959
  827SOL     OW 3379   4.302   5.958   0.312
  827SOL    HW1 3380   4.307   5.861   0.291
  827SOL    HW2 3381   4.377   6.006   0.266
  828SOL     OW 3382   5.938   0.032   6.277
  828SOL    HW1 3383   5.919   6.960   6.262
  828SOL    HW2 3384   5.883   0.065   6.354
  829SOL     OW 3385   3.753   2.979   4.833
  829SOL    HW1 3386   3.813   3.051   4.869
  829SOL    HW2 3387   3.800   2.891   4.838
  830SOL     OW 3388   4.721   3.981   5.550
  830SOL    HW1 3389   4.662   4.057   5.578
  830SOL    HW2 3390   4.684   3.895   5.586
  831SOL     OW 3391   6.321   0.071   5.012
  831SOL    HW1 3392   6.374   0.052   4.929
  831SOL    HW2 3393   6.374   0.132   5.070
  832SOL     OW 3394   2.169   1.556   5.807
  832SOL    HW1 3395   2.128   1.465   5.811
  832SOL    HW2 3396   2.268   1.547   5.808
  833SOL     OW 3397   1.030   0.123   5.758
  833SOL    HW1 3398   1.021   0.058   5.833
  833SOL    HW2 3399   1.122   0.118   5.719
  834SOL     OW 3400   3.625   4.251   5.784
  834SOL    HW1 3401   3.572   4.326   5.745
  834SOL    HW2 3402   3.590   4.229   5.875
  835SOL     OW 3403   4.314   0.768   3.236
  835SOL    HW1 3404   4.376   0.729   3.169
  835SOL    HW2 3405   4.363   0.836   3.292
  836SOL     OW 3406   2.370   0.672   0.370
  836SOL    HW1 3407   2.286   0.642   0.326
  836SOL    HW2 3408   2.437   0.598   0.367
  837SOL     OW 3409   3.882   0.137   5.510
  837SOL    HW1 3410   3.817   0.088   5.569
  837SOL    HW2 3411   3.854   0.233   5.503
  838SOL     OW 3412   1.776   4.461   2.498
  838SOL    HW1 3413   1.844   4.526   2.532
  838SOL    HW2 3414   1.707   4.445   2.569
  839SOL     OW 3415   3.399   0.962   1.577
  839SOL    HW1 3416   3.466   0.927   1.511
  839SOL    HW2 3417   3.428   1.053   1.608
  840SOL     OW 3418   0.856   1.960   6.339
  840SOL    HW1 3419   0.917   2.025   6.384
  840SOL    HW2 3420   0.800   1.914   6.408
  841SOL     OW 3421   6.992   3.794   0.462
  841SOL    HW1 3422   0.061   3.797   0.495
  841SOL    HW2 3423   6.976   3.708   0.414
  842SOL     OW 3424   3.688   5.162   3.956
  842SOL    HW1 3425   3.724   5.078   3.915
  842SOL    HW2 3426   3.673   5.147   4.054
  843SOL     OW 3427   6.706   3.544   2.554
  843SOL    HW1 3428   6.775   3.607   2.519
  843SOL    HW2 3429   6.691   3.561   2.652
  844SOL     OW 3430   5.314   5.755   0.886
  844SOL    HW1 3431   5.375   5.764   0.807
  844SOL    HW2 3432   5.325   5.664   0.926
  845SOL     OW 3433   1.431   5.168   4.963
  845SOL    HW1 3434   1.476   5.125   4.885
  845SOL    HW2 3435   1.496   5.226   5.011
  846SOL     OW 3436   5.512   2.470   0.115
  846SOL    HW1 3437   5.432   2.530   0.117
  846SOL    HW2 3438   5.511   2.416   0.031
  847SOL     OW 3439   5.452   3.576   2.321
  847SOL    HW1 3440   5.530   3.639   2.322
  847SOL    HW2 3441   5.457   3.518   2.240
  848SOL     OW 3442   6.530   0.093   5.414
  848SOL    HW1 3443   6.463   0.020   5.396
  848SOL    HW2 3444   6.487   0.164   5.470
  849SOL     OW 3445   1.012   5.491   4.462
  849SOL    HW1 3446   0.952   5.419   4.427
  849SOL    HW2 3447   0.973   5.529   4.546
  850SOL     OW 3448   3.731   0.615   3.066
  850SOL    HW1 3449   3.772   0.608   2.975
  850SOL    HW2 3450   3.689   0.705   3.077
  851SOL     OW 3451   0.884   0.397   5.341
  851SOL    HW1 3452   0.842   0.464   5.280
  851SOL    HW2 3453   0.936   0.444   5.412
  852SOL     OW 3454   2.716   4.336   6.237
  852SOL    HW1 3455   2.625   4.295   6.245
  852SOL    HW2 3456   2.772   4.281   6.174
  853SOL     OW 3457   1.203   3.329   1.112
  853SOL    HW1 3458   1.211   3.425   1.140
  853SOL    HW2 3459   1.279   3.305   1.051
  854SOL     OW 3460   5.939   5.085   2.080
  854SOL    HW1 3461   5.852   5.070   2.125
  854SOL    HW2 3462   5.969   5.179   2.094
  855SOL     OW 3463   5.507   0.507   1.332
  855SOL    HW1 3464   5.471   0.586   1.282
  855SOL    HW2 3465   5.565   0.538   1.407
  856SOL     OW 3466   2.063   0.530   4.727
  856SOL    HW1 3467   1.996   0.564   4.661
  856SOL    HW2 3468   2.088   0.436   4.705
  857SOL     OW 3469   6.576   3.659   1.787
  857SOL    HW1 3470   6.552   3.652   1.690
  857SOL    HW2 3471   6.634   3.740   1.801
  858SOL     OW 3472   3.193   4.206   1.326
  858SOL    HW1 3473   3.095   4.224   1.333
  858SOL    HW2 3474   3.210   4.107   1.324
  859SOL     OW 3475   0.382   5.035   0.677
  859SOL    HW1 3476   0.402   4.940   0.699
  859SOL    HW2 3477   0.339   5.080   0.756
  860SOL     OW 3478   1.912   5.126   1.019
  860SOL    HW1 3479   1.864   5.077   0.946
  860SOL    HW2 3480   1.853   5.134   1.099
  861SOL     OW 3481   3.947   5.086   6.263
  861SOL    HW1 3482   3.862   5.059   6.219
  861SOL    HW2 3483   3.930   5.111   6.358
  862SOL     OW 3484   4.709   4.260   4.130
  862SOL    HW1 3485   4.792   4.314   4.142
  862SOL    HW2 3486   4.630   4.321   4.122
  863SOL     OW 3487   5.601   1.044   0.828
  863SOL    HW1 3488   5.692   1.011   0.802
  863SOL    HW2 3489   5.610   1.116   0.897
  864SOL     OW 3490   6.282   4.470   2.701
  864SOL    HW1 3491   6.302   4.514   2.789
  864SOL    HW2 3492   6.368   4.444   2.657
  865SOL     OW 3493   1.603   0.488   3.941
  865SOL    HW1 3494   1.633   0.579   3.972
  865SOL    HW2 3495   1.681   0.426   3.941
  866SOL     OW 3496   3.905   1.206   1.352
  866SOL    HW1 3497   3.880   1.153   1.270
  866SOL    HW2 3498   3.899   1.147   1.432
  867SOL     OW 3499   1.741   1.832   6.322
  867SOL    HW1 3500   1.672   1.760   6.333
  867SOL    HW2 3501   1.787   1.847   6.410
  868SOL     OW 3502   6.011   2.932   3.401
  868SOL    HW1 3503   5.990   2.876   3.481
  868SOL    HW2 3504   6.030   2.873   3.323
  869SOL     OW 3505   6.570   4.073   2.428
  869SOL    HW1 3506   6.608   4.105   2.515
  869SOL    HW2 3507   6.612   4.124   2.353
  870SOL     OW 3508   0.058   3.108   0.416
  870SOL    HW1 3509   7.025   3.027   0.426
  870SOL    HW2 3510   0.139   3.084   0.362
  871SOL     OW 3511   5.758   4.081   0.876
  871SOL    HW1 3512   5.776   4.168   0.829
  871SOL    HW2 3513   5.678   4.038   0.835
  872SOL     OW 3514   5.785   2.394   2.568
  872SOL    HW1 3515   5.869   2.443   2.546
  872SOL    HW2 3516   5.715   2.460   2.597
  873SOL     OW 3517   4.896   6.908   5.498
  873SOL    HW1 3518   4.866   6.919   5.593
  873SOL    HW2 3519   4.939   6.819   5.487
  874SOL     OW 3520   0.344   3.638   6.423
  874SOL    HW1 3521   0.405   3.601   6.352
  874SOL    HW2 3522   0.265   3.577   6.434
  875SOL     OW 3523   6.169   4.730   6.410
  875SOL    HW1 3524   6.259   4.767   6.434
  875SOL    HW2 3525   6.098   4.781   6.459
  876SOL     OW 3526   0.945   2.361   1.504
  876SOL    HW1 3527   0.976   2.450   1.472
  876SOL    HW2 3528   1.019   2.295   1.498
  877SOL     OW 3529   5.900   5.982   0.702
  877SOL    HW1 3530   5.877   5.902   0.758
  877SOL    HW2 3531   5.980   6.028   0.741
  878SOL     OW 3532   3.367   2.602   0.343
  878SOL    HW1 3533   3.464   2.586   0.361
  878SOL    HW2 3534   3.356   2.687   0.292
  879SOL     OW 3535   3.761   2.157   2.556
  879SOL    HW1 3536   3.771   2.141   2.458
  879SOL    HW2 3537   3.846   2.195   2.592
  880SOL     OW 3538   3.995   5.545   1.281
  880SOL    HW1 3539   4.044   5.494   1.351
  880SOL    HW2 3540   4.058   5.571   1.208
  881SOL     OW 3541   4.251   5.439   4.304
  881SOL    HW1 3542   4.291   5.376   4.370
  881SOL    HW2 3543   4.249   5.396   4.213
  882SOL     OW 3544   0.897   1.705   4.246
  882SOL    HW1 3545   0.867   1.741   4.157
  882SOL    HW2 3546   0.940   1.616   4.232
  883SOL     OW 3547   3.412   4.551   0.309
  883SOL    HW1 3548   3.482   4.511   0.249
  883SOL    HW2 3549   3.367   4.479   0.361
  884SOL     OW 3550   4.417   3.754   1.594
  884SOL    HW1 3551   4.369   3.818   1.533
  884SOL    HW2 3552   4.351   3.714   1.658
  885SOL     OW 3553   4.475   6.355   6.748
  885SOL    HW1 3554   4.390   6.407   6.756
  885SOL    HW2 3555   4.498   6.316   6.838
  886SOL     OW 3556   4.021   1.496   6.285
  886SOL    HW1 3557   4.007   1.433   6.362
  886SOL    HW2 3558   4.040   1.443   6.203
  887SOL     OW 3559   5.646   6.945   6.245
  887SOL    HW1 3560   5.602   7.022   6.291
  887SOL    HW2 3561   5.702   6.979   6.170
  888SOL     OW 3562   7.005   6.414   3.660
  888SOL    HW1 3563   6.983   6.486   3.594
  888SOL    HW2 3564   6.924   6.359   3.678
  889SOL     OW 3565   1.504   6.904   4.751
  889SOL    HW1 3566   1.505   6.932   4.655
  889SOL    HW2 3567   1.452   6.971   4.805
  890SOL     OW 3568   2.012   4.675   2.567
  890SOL    HW1 3569   1.973   4.707   2.481
  890SOL    HW2 3570   1.941   4.678   2.638
  891SOL     OW 3571   5.824   3.549   6.199
  891SOL    HW1 3572   5.787   3.641   6.190
  891SOL    HW2 3573   5.850   3.515   6.108
  892SOL     OW 3574   2.560   5.483   1.620
  892SOL    HW1 3575   2.580   5.453   1.527
  892SOL    HW2 3576   2.532   5.579   1.619
  893SOL     OW 3577   1.769   6.541   0.805
  893SOL    HW1 3578   1.858   6.515   0.842
  893SOL    HW2 3579   1.781   6.577   0.712
  894SOL     OW 3580   1.040   4.972   3.570
  894SOL    HW1 3581   1.138   4.988   3.556
  894SOL    HW2 3582   1.027   4.909   3.646
  895SOL     OW 3583   2.217   0.754   4.646
  895SOL    HW1 3584   2.266   0.737   4.560
  895SOL    HW2 3585   2.145   0.685   4.657
  896SOL     OW 3586   5.605   6.715   3.355
  896SOL    HW1 3587   5.566   6.769   3.430
  896SOL    HW2 3588   5.682   6.661   3.390
  897SOL     OW 3589   5.038   1.602   6.104
  897SOL    HW1 3590   5.083   1.610   6.015
  897SOL    HW2 3591   4.953   1.550   6.094
  898SOL     OW 3592   5.959   5.646   3.641
  898SOL    HW1 3593   5.865   5.678   3.655
  898SOL    HW2 3594   5.987   5.591   3.720
  899SOL     OW 3595   1.279   4.282   6.915
  899SOL    HW1 3596   1.314   4.374   6.932
  899SOL    HW2 3597   1.312   4.250   6.826
  900SOL     OW 3598   0.394   5.622   4.040
  900SOL    HW1 3599   0.336   5.608   3.959
  900SOL    HW2 3600   0.372   5.711   4.081
  901SOL     OW 3601   5.946   2.119   3.248
  901SOL    HW1 3602   5.915   2.213   3.231
  901SOL    HW2 3603   6.041   2.121   3.279
  902SOL     OW 3604   0.751   6.187   0.484
  902SOL    HW1 3605   0.830   6.244   0.508
  902SOL    HW2 3606   0.783   6.097   0.456
  903SOL     OW 3607   0.343   5.061   6.839
  903SOL    HW1 3608   0.304   5.104   6.920
  903SOL    HW2 3609   0.360   5.131   6.769
  904SOL     OW 3610   1.787   1.035   3.650
  904SOL    HW1 3611   1.751   1.119   3.609
  904SOL    HW2 3612   1.815   1.054   3.744
  905SOL     OW 3613   6.480   1.943   5.730
  905SOL    HW1 3614   6.413   1.872   5.753
  905SOL    HW2 3615   6.546   1.906   5.664
  906SOL     OW 3616   6.646   3.615   5.420
  906SOL    HW1 3617   6.570   3.614   5.484
  906SOL    HW2 3618   6.645   3.700   5.367
  907SOL     OW 3619   0.249   3.337   1.723
  907SOL    HW1 3620   0.193   3.328   1.805
  907SOL    HW2 3621   0.276   3.432   1.711
  908SOL     OW 3622   2.217   0.875   3.063
  908SOL    HW1 3623   2.169   0.903   2.980
  908SOL    HW2 3624   2.310   0.846   3.040
  909SOL     OW 3625   4.310   0.296   1.096
  909SOL    HW1 3626   4.276   0.275   1.004
  909SOL    HW2 3627   4.406   0.267   1.103
  910SOL     OW 3628   1.750   1.520   1.707
  910SOL    HW1 3629   1.773   1.515   1.804
  910SOL    HW2 3630   1.732   1.615   1.682
  911SOL     OW 3631   0.302   3.843   1.219
  911SOL    HW1 3632   0.242   3.901   1.164
  911SOL    HW2 3633   0.369   3.899   1.267
  912SOL     OW 3634   0.793   0.422   6.150
  912SOL    HW1 3635   0.847   0.384   6.225
  912SOL    HW2 3636   0.828   0.513   6.126
  913SOL     OW 3637   1.833   1.082   1.675
  913SOL    HW1 3638   1.839   1.170   1.628
  913SOL    HW2 3639   1.816   1.097   1.772
  914SOL     OW 3640   2.403   5.654   2.737
  914SOL    HW1 3641   2.374   5.559   2.740
  914SOL    HW2 3642   2.357   5.705   2.810
  915SOL     OW 3643   1.297   2.950   0.357
  915SOL    HW1 3644   1.227   2.992   0.299
  915SOL    HW2 3645   1.254   2.885   0.419
  916SOL     OW 3646   1.261   3.287   2.413
  916SOL    HW1 3647   1.266   3.195   2.453
  916SOL    HW2 3648   1.270   3.355   2.485
  917SOL     OW 3649   3.330   1.979   6.823
  917SOL    HW1 3650   3.315   1.954   6.918
  917SOL    HW2 3651   3.261   2.045   6.794
  918SOL     OW 3652   0.982   0.839   5.656
  918SOL    HW1 3653   0.920   0.808   5.728
  918SOL    HW2 3654   0.955   0.930   5.625
  919SOL     OW 3655   1.414   0.164   0.804
  919SOL    HW1 3656   1.370   0.106   0.873
  919SOL    HW2 3657   1.469   0.233   0.850
  920SOL     OW 3658   2.104   0.948   3.513
  920SOL    HW1 3659   2.125   1.031   3.565
  920SOL    HW2 3660   2.031   0.898   3.559
  921SOL     OW 3661   4.476   4.474   0.025
  921SOL    HW1 3662   4.575   4.470   0.038
  921SOL    HW2 3663   4.440   4.381   0.026
  922SOL     OW 3664   1.811   4.401   6.460
  922SOL    HW1 3665   1.819   4.494   6.421
  922SOL    HW2 3666   1.777   4.339   6.389
  923SOL     OW 3667   3.452   1.451   6.561
  923SOL    HW1 3668   3.358   1.483   6.563
  923SOL    HW2 3669   3.494   1.474   6.473
  924SOL     OW 3670   6.617   4.705   2.971
  924SOL    HW1 3671   6.640   4.674   3.063
  924SOL    HW2 3672   6.678   4.780   2.945
  925SOL     OW 3673   6.826   2.069   3.152
  925SOL    HW1 3674   6.877   1.985   3.130
  925SOL    HW2 3675   6.790   2.108   3.067
  926SOL     OW 3676   5.570   6.416   0.580
  926SOL    HW1 3677   5.514   6.447   0.656
  926SOL    HW2 3678   5.601   6.322   0.597
  927SOL     OW 3679   4.947   5.111   4.986
  927SOL    HW1 3680   4.875   5.162   5.033
  927SOL    HW2 3681   5.024   5.172   4.966
  928SOL     OW 3682   0.512   1.156   1.326
  928SOL    HW1 3683   0.548   1.192   1.240
  928SOL    HW2 3684   0.575   1.087   1.363
  929SOL     OW 3685   0.448   2.593   2.507
  929SOL    HW1 3686   0.392   2.537   2.568
  929SOL    HW2 3687   0.399   2.608   2.422
  930SOL     OW 3688   5.373   5.360   2.412
  930SOL    HW1 3689   5.292   5.388   2.464
  930SOL    HW2 3690   5.438   5.317   2.474
  931SOL     OW 3691   1.805   3.063   2.175
  931SOL    HW1 3692   1.901   3.041   2.154
  931SOL    HW2 3693   1.783   3.027   2.266
  932SOL     OW 3694   4.595   6.617   1.200
  932SOL    HW1 3695   4.569   6.657   1.112
  932SOL    HW2 3696   4.648   6.684   1.253
  933SOL     OW 3697   1.386   5.693   4.226
  933SOL    HW1 3698   1.435   5.776   4.253
  933SOL    HW2 3699   1.344   5.652   4.307
  934SOL     OW 3700   2.983   0.682   5.795
  934SOL    HW1 3701   3.058   0.616   5.806
  934SOL    HW2 3702   2.981   0.715   5.701
  935SOL     OW 3703   1.907   3.486   5.855
  935SOL    HW1 3704   1.890   3.419   5.927
  935SOL    HW2 3705   1.885   3.445   5.766
  936SOL     OW 3706   0.413   1.984   2.032
  936SOL    HW1 3707   0.463   1.908   1.992
  936SOL    HW2 3708   0.329   1.950   2.074
  937SOL     OW 3709   5.034   2.248   3.534
  937SOL    HW1 3710   5.114   2.187   3.531
  937SOL    HW2 3711   4.956   2.202   3.492
  938SOL     OW 3712   6.352   1.611   0.235
  938SOL    HW1 3713   6.376   1.649   0.146
  938SOL    HW2 3714   6.434   1.605   0.292
  939SOL     OW 3715   6.322   0.597   5.462
  939SOL    HW1 3716   6.342   0.680   5.410
  939SOL    HW2 3717   6.407   0.556   5.494
  940SOL     OW 3718   0.658   0.598   4.157
  940SOL    HW1 3719   0.594   0.598   4.234
  940SOL    HW2 3720   0.607   0.615   4.072
  941SOL     OW 3721   5.855   2.996   5.371
  941SOL    HW1 3722   5.839   2.934   5.448
  941SOL    HW2 3723   5.905   2.948   5.299
  942SOL     OW 3724   4.427   0.626   5.416
  942SOL    HW1 3725   4.473   0.538   5.431
  942SOL    HW2 3726   4.473   0.675   5.341
  943SOL     OW 3727   5.603   2.064   6.831
  943SOL    HW1 3728   5.601   2.050   6.732
  943SOL    HW2 3729   5.697   2.056   6.864
  944SOL     OW 3730   5.418   3.735   4.894
  944SOL    HW1 3731   5.385   3.828   4.913
  944SOL    HW2 3732   5.441   3.728   4.797
  945SOL     OW 3733   5.715   3.513   5.249
  945SOL    HW1 3734   5.649   3.563   5.193
  945SOL    HW2 3735   5.757   3.440   5.194
  946SOL     OW 3736   5.530   3.284   6.174
  946SOL    HW1 3737   5.534   3.353   6.102
  946SOL    HW2 3738   5.602   3.300   6.241
  947SOL     OW 3739   1.316   2.501   5.291
  947SOL    HW1 3740   1.293   2.473   5.198
  947SOL    HW2 3741   1.415   2.516   5.298
  948SOL     OW 3742   4.108   1.628   0.729
  948SOL    HW1 3743   4.011   1.603   0.726
  948SOL    HW2 3744   4.130   1.665   0.819
  949SOL     OW 3745   5.686   5.893   6.790
  949SOL    HW1 3746   5.780   5.860   6.794
  949SOL    HW2 3747   5.657   5.897   6.694
  950SOL     OW 3748   3.585   5.369   0.646
  950SOL    HW1 3749   3.644   5.294   0.615
  950SOL    HW2 3750   3.639   5.433   0.700
  951SOL     OW 3751   0.271   2.574   3.887
  951SOL    HW1 3752   0.313   2.564   3.977
  951SOL    HW2 3753   0.261   2.484   3.844
  952SOL     OW 3754   5.171   0.995   1.549
  952SOL    HW1 3755   5.246   1.003   1.484
  952SOL    HW2 3756   5.101   0.934   1.510
  953SOL     OW 3757   3.438   6.597   6.065
  953SOL    HW1 3758   3.504   6.668   6.092
  953SOL    HW2 3759   3.373   6.636   6.000
  954SOL     OW 3760   0.073   6.933   1.499
  954SOL    HW1 3761   0.147   6.869   1.516
  954SOL    HW2 3762   0.080   6.969   1.406
  955SOL     OW 3763   0.070   6.992   2.541
  955SOL    HW1 3764   0.069   6.913   2.479
  955SOL    HW2 3765   0.086   6.961   2.635
  956SOL     OW 3766   1.279   2.574   0.357
  956SOL    HW1 3767   1.235   2.485   0.363
  956SOL    HW2 3768   1.260   2.615   0.267
  957SOL     OW 3769   2.344   6.565   5.128
  957SOL    HW1 3770   2.326   6.476   5.086
  957SOL    HW2 3771   2.358   6.633   5.056
  958SOL     OW 3772   4.759   2.429   0.525
  958SOL    HW1 3773   4.734   2.339   0.491
  958SOL    HW2 3774   4.783   2.423   0.622
  959SOL     OW 3775   1.790   3.696   1.721
  959SOL    HW1 3776   1.865   3.687   1.656
  959SOL    HW2 3777   1.706   3.660   1.681
  960SOL     OW 3778   1.692   5.523   5.562
  960SOL    HW1 3779   1.597   5.553   5.570
  960SOL    HW2 3780   1.703   5.435   5.609
  961SOL     OW 3781   3.651   6.702   0.811
  961SOL    HW1 3782   3.598   6.647   0.876
  961SOL    HW2 3783   3.592   6.728   0.735
  962SOL     OW 3784   1.049   6.045   3.971
  962SOL    HW1 3785   1.071   5.969   3.911
  962SOL    HW2 3786   0.954   6.040   3.999
  963SOL     OW 3787   5.953   6.877   2.397
  963SOL    HW1 3788   5.964   6.784   2.361
  963SOL    HW2 3789   5.972   6.877   2.495
  964SOL     OW 3790   5.353   3.376   0.929
  964SOL    HW1 3791   5.378   3.280   0.913
  964SOL    HW2 3792   5.311   3.413   0.846
  965SOL     OW 3793   1.339   1.991   0.326
  965SOL    HW1 3794   1.421   1.934   0.322
  965SOL    HW2 3795   1.273   1.959   0.258
  966SOL     OW 3796   6.870   2.405   1.739
  966SOL    HW1 3797   6.926   2.471   1.789
  966SOL    HW2 3798   6.879   2.315   1.782
  967SOL     OW 3799   0.933   6.373   2.340
  967SOL    HW1 3800   1.032   6.384   2.343
  967SOL    HW2 3801   0.891   6.416   2.420
  968SOL     OW 3802   6.938   4.167   1.763
  968SOL    HW1 3803   6.860   4.230   1.765
  968SOL    HW2 3804   6.905   4.073   1.754
  969SOL     OW 3805   3.912   6.119   6.672
  969SOL    HW1 3806   3.966   6.068   6.739
  969SOL    HW2 3807   3.833   6.159   6.718
  970SOL     OW 3808   4.390   2.264   5.217
  970SOL    HW1 3809   4.396   2.182   5.274
  970SOL    HW2 3810   4.416   2.241   5.123
  971SOL     OW 3811   0.370   2.942   0.531
  971SOL    HW1 3812   0.294   2.942   0.465
  971SOL    HW2 3813   0.452   2.904   0.487
  972SOL     OW 3814   6.005   5.924   1.012
  972SOL    HW1 3815   6.000   6.002   0.951
  972SOL    HW2 3816   5.913   5.892   1.034
  973SOL     OW 3817   5.628   3.694   5.071
  973SOL    HW1 3818   5.698   3.668   5.005
  973SOL    HW2 3819   5.542   3.713   5.024
  974SOL     OW 3820   2.795   1.490   4.531
  974SOL    HW1 3821   2.699   1.504   4.505
  974SOL    HW2 3822   2.841   1.579   4.537
  975SOL     OW 3823   3.243   6.336   5.546
  975SOL    HW1 3824   3.323   6.385   5.511
  975SOL    HW2 3825   3.219   6.371   5.636
  976SOL     OW 3826   6.901   6.073   3.584
  976SOL    HW1 3827   6.964   5.997   3.601
  976SOL    HW2 3828   6.928   6.121   3.501
  977SOL     OW 3829   1.715   2.560   2.111
  977SOL    HW1 3830   1.718   2.505   2.194
  977SOL    HW2 3831   1.686   2.653   2.134
  978SOL     OW 3832   5.534   3.418   4.618
  978SOL    HW1 3833   5.472   3.349   4.582
  978SOL    HW2 3834   5.618   3.420   4.564
  979SOL     OW 3835   5.991   1.644   3.502
  979SOL    HW1 3836   5.948   1.732   3.478
  979SOL    HW2 3837   6.083   1.641   3.465
  980SOL     OW 3838   6.742   0.447   4.251
  980SOL    HW1 3839   6.748   0.374   4.320
  980SOL    HW2 3840   6.719   0.533   4.296
  981SOL     OW 3841   6.732   3.379   5.306
  981SOL    HW1 3842   6.819   3.341   5.337
  981SOL    HW2 3843   6.708   3.458   5.363
  982SOL     OW 3844   1.688   2.755   1.383
  982SOL    HW1 3845   1.716   2.850   1.398
  982SOL    HW2 3846   1.731   2.720   1.300
  983SOL     OW 3847   5.923   1.973   2.950
  983SOL    HW1 3848   6.016   1.938   2.946
  983SOL    HW2 3849   5.873   1.943   2.868
  984SOL     OW 3850   4.909   1.822   4.954
  984SOL    HW1 3851   4.944   1.774   4.874
  984SOL    HW2 3852   4.849   1.761   5.006
  985SOL     OW 3853   2.940   5.071   1.165
  985SOL    HW1 3854   2.962   4.976   1.187
  985SOL    HW2 3855   2.844   5.089   1.185
  986SOL     OW 3856   3.805   4.625   6.855
  986SOL    HW1 3857   3.709   4.639   6.829
  986SOL    HW2 3858   3.817   4.649   6.951
  987SOL     OW 3859   3.586   6.955   2.351
  987SOL    HW1 3860   3.596   6.988   2.257
  987SOL    HW2 3861   3.538   7.024   2.405
  988SOL     OW 3862   3.392   3.649   1.999
  988SOL    HW1 3863   3.415   3.694   2.085
  988SOL    HW2 3864   3.297   3.617   2.001
  989SOL     OW 3865   0.681   6.906   4.757
  989SOL    HW1 3866   0.651   6.897   4.662
  989SOL    HW2 3867   0.640   6.834   4.812
  990SOL     OW 3868   4.970   6.174   2.667
  990SOL    HW1 3869   5.039   6.244   2.685
  990SOL    HW2 3870   4.931   6.189   2.576
  991SOL     OW 3871   6.447   1.057   5.083
  991SOL    HW1 3872   6.473   1.067   4.987
  991SOL    HW2 3873   6.349   1.069   5.093
  992SOL     OW 3874   0.135   3.168   1.528
  992SOL    HW1 3875   0.181   3.232   1.590
  992SOL    HW2 3876   0.152   3.074   1.558
  993SOL     OW 3877   3.624   5.637   4.267
  993SOL    HW1 3878   3.568   5.685   4.334
  993SOL    HW2 3879   3.682   5.569   4.314
  994SOL     OW 3880   2.980   3.757   1.957
  994SOL    HW1 3881   2.927   3.744   1.873
  994SOL    HW2 3882   3.029   3.673   1.979
  995SOL     OW 3883   0.325   1.080   4.942
  995SOL    HW1 3884   0.394   1.130   4.891
  995SOL    HW2 3885   0.234   1.100   4.906
  996SOL     OW 3886   1.207   3.763   1.031
  996SOL    HW1 3887   1.129   3.778   1.092
  996SOL    HW2 3888   1.279   3.715   1.081
  997SOL     OW 3889   0.501   0.894   1.081
  997SOL    HW1 3890   0.477   0.890   1.178
  997SOL    HW2 3891   0.423   0.862   1.026
  998SOL     OW 3892   4.856   0.218   3.417
  998SOL    HW1 3893   4.868   0.141   3.354
  998SOL    HW2 3894   4.932   0.282   3.406
  999SOL     OW 3895   6.879   5.555   1.797
  999SOL    HW1 3896   6.819   5.586   1.723
  999SOL    HW2 3897   6.974   5.564   1.768
 1000SOL     OW 3898   4.236   2.373   4.346
 1000SOL    HW1 3899   4.217   2.470   4.330
 1000SOL    HW2 3900   4.168   2.317   4.298
 1001SOL     OW 3901   3.851   0.700   5.791
 1001SOL    HW1 3902   3.939   0.717   5.835
 1001SOL    HW2 3903   3.782   0.681   5.860
 1002SOL     OW 3904   0.006   1.380   0.560
 1002SOL    HW1 3905   6.945   1.331   0.570
 1002SOL    HW2 3906   0.080   1.327   0.601
 1003SOL     OW 3907   4.906   4.547   3.120
 1003SOL    HW1 3908   4.839   4.473   3.127
 1003SOL    HW2 3909   4.903   4.586   3.028
 1004SOL     OW 3910   5.689   5.745   0.467
 1004SOL    HW1 3911   5.636   5.759   0.550
 1004SOL    HW2 3912   5.786   5.736   0.490
 1005SOL     OW 3913   6.660   5.855   3.864
 1005SOL    HW1 3914   6.589   5.893   3.923
 1005SOL    HW2 3915   6.646   5.888   3.770
 1006SOL     OW 3916   2.490   4.538   0.697
 1006SOL    HW1 3917   2.589   4.551   0.697
 1006SOL    HW2 3918   2.453   4.562   0.787
 1007SOL     OW 3919   1.462   0.529   3.310
 1007SOL    HW1 3920   1.445   0.515   3.407
 1007SOL    HW2 3921   1.440   0.624   3.286
 1008SOL     OW 3922   2.770   2.312   4.126
 1008SOL    HW1 3923   2.769   2.278   4.220
 1008SOL    HW2 3924   2.748   2.409   4.125
 1009SOL     OW 3925   2.313   5.691   5.233
 1009SOL    HW1 3926   2.387   5.676   5.167
 1009SOL    HW2 3927   2.326   5.633   5.313
 1010SOL     OW 3928   3.909   0.858   6.721
 1010SOL    HW1 3929   3.862   0.786   6.669
 1010SOL    HW2 3930   3.986   0.892   6.668
 1011SOL     OW 3931   3.398   5.811   4.043
 1011SOL    HW1 3932   3.319   5.785   4.098
 1011SOL    HW2 3933   3.417   5.738   3.977
 1012SOL     OW 3934   3.972   5.749   6.849
 1012SOL    HW1 3935   4.013   5.840   6.842
 1012SOL    HW2 3936   3.918   5.743   6.933
 1013SOL     OW 3937   7.015   1.281   1.170
 1013SOL    HW1 3938   6.934   1.235   1.131
 1013SOL    HW2 3939   0.047   1.214   1.216
 1014SOL     OW 3940   4.825   0.589   6.576
 1014SOL    HW1 3941   4.800   0.562   6.483
 1014SOL    HW2 3942   4.910   0.543   6.603
 1015SOL     OW 3943   3.384   6.463   4.565
 1015SOL    HW1 3944   3.466   6.461   4.622
 1015SOL    HW2 3945   3.408   6.437   4.471
 1016SOL     OW 3946   4.825   2.567   1.798
 1016SOL    HW1 3947   4.864   2.658   1.812
 1016SOL    HW2 3948   4.766   2.569   1.717
 1017SOL     OW 3949   4.886   1.621   6.911
 1017SOL    HW1 3950   4.802   1.566   6.905
 1017SOL    HW2 3951   4.863   1.718   6.903
 1018SOL     OW 3952   1.633   2.958   1.696
 1018SOL    HW1 3953   1.694   2.879   1.691
 1018SOL    HW2 3954   1.655   3.013   1.776
 1019SOL     OW 3955   6.044   0.681   0.380
 1019SOL    HW1 3956   6.040   0.586   0.350
 1019SOL    HW2 3957   6.109   0.732   0.323
 1020SOL     OW 3958   3.555   2.354   1.455
 1020SOL    HW1 3959   3.613   2.273   1.457
 1020SOL    HW2 3960   3.544   2.389   1.548
 1021SOL     OW 3961   6.468   1.790   0.963
 1021SOL    HW1 3962   6.518   1.713   0.922
 1021SOL    HW2 3963   6.445   1.857   0.893
 1022SOL     OW 3964   3.534   2.532   6.968
 1022SOL    HW1 3965   3.585   2.521   0.028
 1022SOL    HW2 3966   3.597   2.553   6.894
 1023SOL     OW 3967   5.867   0.954   4.214
 1023SOL    HW1 3968   5.893   1.047   4.187
 1023SOL    HW2 3969   5.787   0.959   4.274
 1024SOL     OW 3970   6.218   1.616   3.346
 1024SOL    HW1 3971   6.165   1.687   3.300
 1024SOL    HW2 3972   6.312   1.647   3.358
 1025SOL     OW 3973   2.991   4.452   1.072
 1025SOL    HW1 3974   2.921   4.504   1.121
 1025SOL    HW2 3975   2.962   4.357   1.062
 1026SOL     OW 3976   0.721   3.172   6.548
 1026SOL    HW1 3977   0.670   3.259   6.551
 1026SOL    HW2 3978   0.740   3.141   6.641
 1027SOL     OW 3979   2.510   5.358   2.406
 1027SOL    HW1 3980   2.504   5.394   2.313
 1027SOL    HW2 3981   2.425   5.312   2.430
 1028SOL     OW 3982   1.259   6.137   0.881
 1028SOL    HW1 3983   1.210   6.180   0.805
 1028SOL    HW2 3984   1.338   6.087   0.846
 1029SOL     OW 3985   3.324   0.243   5.170
 1029SOL    HW1 3986   3.357   0.312   5.106
 1029SOL    HW2 3987   3.329   0.280   5.263
 1030SOL     OW 3988   3.371   4.181   5.240
 1030SOL    HW1 3989   3.306   4.113   5.275
 1030SOL    HW2 3990   3.378   4.173   5.141
 1031SOL     OW 3991   1.932   5.369   1.265
 1031SOL    HW1 3992   1.948   5.383   1.167
 1031SOL    HW2 3993   1.966   5.279   1.291
 1032SOL     OW 3994   1.630   1.123   4.533
 1032SOL    HW1 3995   1.536   1.138   4.564
 1032SOL    HW2 3996   1.636   1.139   4.435
 1033SOL     OW 3997   2.428   5.764   3.648
 1033SOL    HW1 3998   2.418   5.803   3.556
 1033SOL    HW2 3999   2.511   5.801   3.691
 1034SOL     OW 4000   1.704   6.596   2.554
 1034SOL    HW1 4001   1.747   6.681   2.525
 1034SOL    HW2 4002   1.768   6.520   2.540
 1035SOL     OW 4003   2.891   0.709   3.898
 1035SOL    HW1 4004   2.827   0.632   3.893
 1035SOL    HW2 4005   2.884   0.752   3.988
 1036SOL     OW 4006   3.998   6.852   6.226
 1036SOL    HW1 4007   4.067   6.793   6.185
 1036SOL    HW2 4008   3.922   6.864   6.164
 1037SOL     OW 4009   2.806   1.759   6.311
 1037SOL    HW1 4010   2.716   1.715   6.308
 1037SOL    HW2 4011   2.834   1.772   6.406
 1038SOL     OW 4012   2.954   1.432   5.172
 1038SOL    HW1 4013   2.890   1.454   5.097
 1038SOL    HW2 4014   2.909   1.448   5.259
 1039SOL     OW 4015   4.151   1.548   3.641
 1039SOL    HW1 4016   4.095   1.628   3.663
 1039SOL    HW2 4017   4.114   1.503   3.560
 1040SOL     OW 4018   5.902   3.475   4.209
 1040SOL    HW1 4019   5.946   3.539   4.146
 1040SOL    HW2 4020   5.957   3.391   4.214
 1041SOL     OW 4021   1.680   6.899   4.325
 1041SOL    HW1 4022   1.739   6.819   4.313
 1041SOL    HW2 4023   1.736   6.979   4.346
 1042SOL     OW 4024   4.638   3.795   1.083
 1042SOL    HW1 4025   4.586   3.715   1.113
 1042SOL    HW2 4026   4.700   3.824   1.156
 1043SOL     OW 4027   3.476   7.025   6.533
 1043SOL    HW1 4028   3.500   6.966   6.456
 1043SOL    HW2 4029   3.560   0.029   6.579
 1044SOL     OW 4030   3.666   4.188   1.980
 1044SOL    HW1 4031   3.744   4.144   1.935
 1044SOL    HW2 4032   3.633   4.264   1.924
 1045SOL     OW 4033   3.938   1.504   3.365
 1045SOL    HW1 4034   3.931   1.599   3.397
 1045SOL    HW2 4035   3.932   1.502   3.266
 1046SOL     OW 4036   3.964   1.199   2.203
 1046SOL    HW1 4037   4.062   1.194   2.181
 1046SOL    HW2 4038   3.953   1.233   2.296
 1047SOL     OW 4039   0.330   5.273   1.893
 1047SOL    HW1 4040   0.362   5.361   1.858
 1047SOL    HW2 4041   0.252   5.243   1.838
 1048SOL     OW 4042   6.422   5.048   5.178
 1048SOL    HW1 4043   6.343   5.075   5.232
 1048SOL    HW2 4044   6.486   4.998   5.237
 1049SOL     OW 4045   0.494   3.366   4.939
 1049SOL    HW1 4046   0.534   3.279   4.967
 1049SOL    HW2 4047   0.534   3.440   4.993
 1050SOL     OW 4048   3.281   0.513   7.024
 1050SOL    HW1 4049   3.223   0.571   6.968
 1050SOL    HW2 4050   3.313   0.564   0.079
 1051SOL     OW 4051   4.741   5.091   2.410
 1051SOL    HW1 4052   4.659   5.135   2.449
 1051SOL    HW2 4053   4.748   4.998   2.445
 1052SOL     OW 4054   3.611   6.884   4.471
 1052SOL    HW1 4055   3.702   6.923   4.482
 1052SOL    HW2 4056   3.548   6.928   4.536
 1053SOL     OW 4057   3.867   4.842   3.353
 1053SOL    HW1 4058   3.844   4.874   3.445
 1053SOL    HW2 4059   3.785   4.811   3.306
 1054SOL     OW 4060   3.843   6.119   4.214
 1054SOL    HW1 4061   3.769   6.153   4.272
 1054SOL    HW2 4062   3.809   6.044   4.158
 1055SOL     OW 4063   4.723   5.425   4.029
 1055SOL    HW1 4064   4.663   5.504   4.014
 1055SOL    HW2 4065   4.731   5.372   3.945
 1056SOL     OW 4066   1.812   5.763   5.604
 1056SOL    HW1 4067   1.770   5.673   5.590
 1056SOL    HW2 4068   1.811   5.814   5.518
 1057SOL     OW 4069   3.702   4.071   1.128
 1057SOL    HW1 4070   3.680   4.007   1.201
 1057SOL    HW2 4071   3.801   4.072   1.113
 1058SOL     OW 4072   3.353   0.214   1.582
 1058SOL    HW1 4073   3.380   0.137   1.640
 1058SOL    HW2 4074   3.409   0.294   1.604
 1059SOL     OW 4075   3.358   1.006   0.912
 1059SOL    HW1 4076   3.309   1.077   0.862
 1059SOL    HW2 4077   3.292   0.942   0.952
 1060SOL     OW 4078   2.285   2.079   4.290
 1060SOL    HW1 4079   2.265   1.981   4.299
 1060SOL    HW2 4080   2.314   2.115   4.379
 1061SOL     OW 4081   3.053   6.262   1.316
 1061SOL    HW1 4082   3.063   6.320   1.397
 1061SOL    HW2 4083   2.973   6.291   1.264
 1062SOL     OW 4084   4.871   4.394   5.384
 1062SOL    HW1 4085   4.771   4.387   5.385
 1062SOL    HW2 4086   4.901   4.433   5.297
 1063SOL     OW 4087   1.780   3.348   5.628
 1063SOL    HW1 4088   1.687   3.311   5.631
 1063SOL    HW2 4089   1.833   3.299   5.560
 1064SOL     OW 4090   0.403   3.555   1.940
 1064SOL    HW1 4091   0.350   3.614   2.002
 1064SOL    HW2 4092   0.448   3.612   1.871
 1065SOL     OW 4093   4.626   4.960   5.483
 1065SOL    HW1 4094   4.702   5.010   5.443
 1065SOL    HW2 4095   4.552   5.023   5.507
 1066SOL     OW 4096   4.298   0.173   3.473
 1066SOL    HW1 4097   4.199   0.187   3.468
 1066SOL    HW2 4098   4.344   0.246   3.423
 1067SOL     OW 4099   2.380   3.646   0.774
 1067SOL    HW1 4100   2.356   3.593   0.855
 1067SOL    HW2 4101   2.364   3.590   0.692
 1068SOL     OW 4102   0.661   4.253   0.796
 1068SOL    HW1 4103   0.573   4.218   0.764
 1068SOL    HW2 4104   0.713   4.179   0.838
 1069SOL     OW 4105   3.793   3.787   1.680
 1069SOL    HW1 4106   3.703   3.791   1.725
 1069SOL    HW2 4107   3.795   3.852   1.604
 1070SOL     OW 4108   2.306   0.154   0.584
 1070SOL    HW1 4109   2.271   0.089   0.517
 1070SOL    HW2 4110   2.255   0.144   0.669
 1071SOL     OW 4111   4.246   6.137   3.627
 1071SOL    HW1 4112   4.340   6.107   3.611
 1071SOL    HW2 4113   4.216   6.103   3.717
 1072SOL     OW 4114   3.627   5.493   2.916
 1072SOL    HW1 4115   3.709   5.444   2.887
 1072SOL    HW2 4116   3.579   5.528   2.835
 1073SOL     OW 4117   3.032   5.251   3.247
 1073SOL    HW1 4118   3.101   5.299   3.302
 1073SOL    HW2 4119   3.004   5.309   3.171
 1074SOL     OW 4120   1.599   5.143   2.107
 1074SOL    HW1 4121   1.613   5.047   2.084
 1074SOL    HW2 4122   1.521   5.179   2.056
 1075SOL     OW 4123   0.435   3.839   2.856
 1075SOL    HW1 4124   0.420   3.754   2.804
 1075SOL    HW2 4125   0.531   3.866   2.848
 1076SOL     OW 4126   0.104   4.342   2.683
 1076SOL    HW1 4127   0.134   4.250   2.709
 1076SOL    HW2 4128   0.017   4.363   2.727
 1077SOL     OW 4129   5.150   1.327   1.116
 1077SOL    HW1 4130   5.080   1.291   1.054
 1077SOL    HW2 4131   5.226   1.363   1.063
 1078SOL     OW 4132   1.003   3.525   1.227
 1078SOL    HW1 4133   1.048   3.446   1.270
 1078SOL    HW2 4134   1.004   3.602   1.290
 1079SOL     OW 4135   2.530   5.548   3.243
 1079SOL    HW1 4136   2.534   5.448   3.241
 1079SOL    HW2 4137   2.435   5.577   3.254
 1080SOL     OW 4138   1.544   5.910   4.244
 1080SOL    HW1 4139   1.487   5.982   4.283
 1080SOL    HW2 4140   1.589   5.945   4.161
 1081SOL     OW 4141   1.322   1.623   0.646
 1081SOL    HW1 4142   1.339   1.672   0.732
 1081SOL    HW2 4143   1.281   1.686   0.580
 1082SOL     OW 4144   2.160   6.635   0.331
 1082SOL    HW1 4145   2.124   6.690   0.406
 1082SOL    HW2 4146   2.086   6.615   0.266
 1083SOL     OW 4147   3.853   2.385   1.680
 1083SOL    HW1 4148   3.771   2.377   1.737
 1083SOL    HW2 4149   3.831   2.434   1.596
 1084SOL     OW 4150   6.534   3.679   0.542
 1084SOL    HW1 4151   6.581   3.590   0.540
 1084SOL    HW2 4152   6.515   3.704   0.637
 1085SOL     OW 4153   1.398   4.344   2.938
 1085SOL    HW1 4154   1.300   4.360   2.930
 1085SOL    HW2 4155   1.418   4.248   2.921
 1086SOL     OW 4156   4.271   4.935   2.217
 1086SOL    HW1 4157   4.172   4.947   2.221
 1086SOL    HW2 4158   4.308   4.989   2.141
 1087SOL     OW 4159   3.773   3.633   5.100
 1087SOL    HW1 4160   3.684   3.670   5.127
 1087SOL    HW2 4161   3.788   3.545   5.143
 1088SOL     OW 4162   5.770   4.716   3.007
 1088SOL    HW1 4163   5.823   4.631   2.998
 1088SOL    HW2 4164   5.696   4.717   2.939
 1089SOL     OW 4165   6.249   6.766   3.120
 1089SOL    HW1 4166   6.150   6.777   3.131
 1089SOL    HW2 4167   6.294   6.850   3.151
 1090SOL     OW 4168   1.302   1.871   5.802
 1090SOL    HW1 4169   1.227   1.877   5.868
 1090SOL    HW2 4170   1.266   1.877   5.709
 1091SOL     OW 4171   1.078   2.485   5.682
 1091SOL    HW1 4172   1.137   2.456   5.606
 1091SOL    HW2 4173   1.012   2.413   5.702
 1092SOL     OW 4174   2.072   4.612   1.249
 1092SOL    HW1 4175   2.044   4.549   1.177
 1092SOL    HW2 4176   1.995   4.670   1.275
 1093SOL     OW 4177   0.367   2.239   2.492
 1093SOL    HW1 4178   0.280   2.212   2.532
 1093SOL    HW2 4179   0.352   2.298   2.413
 1094SOL     OW 4180   0.734   6.533   2.136
 1094SOL    HW1 4181   0.637   6.558   2.146
 1094SOL    HW2 4182   0.773   6.513   2.225
 1095SOL     OW 4183   6.164   3.251   5.782
 1095SOL    HW1 4184   6.210   3.340   5.784
 1095SOL    HW2 4185   6.225   3.184   5.739
 1096SOL     OW 4186   3.596   3.815   1.851
 1096SOL    HW1 4187   3.517   3.780   1.901
 1096SOL    HW2 4188   3.624   3.903   1.892
 1097SOL     OW 4189   1.841   4.597   5.148
 1097SOL    HW1 4190   1.931   4.600   5.106
 1097SOL    HW2 4191   1.774   4.639   5.088
 1098SOL     OW 4192   4.165   1.078   3.212
 1098SOL    HW1 4193   4.164   0.983   3.243
 1098SOL    HW2 4194   4.257   1.102   3.181
 1099SOL     OW 4195   3.713   1.180   2.864
 1099SOL    HW1 4196   3.768   1.150   2.786
 1099SOL    HW2 4197   3.757   1.153   2.949
 1100SOL     OW 4198   0.091   0.729   0.280
 1100SOL    HW1 4199   0.151   0.649   0.283
 1100SOL    HW2 4200   0.117   0.788   0.203
 1101SOL     OW 4201   5.859   2.968   0.892
 1101SOL    HW1 4202   5.804   2.908   0.834
 1101SOL    HW2 4203   5.801   3.041   0.929
 1102SOL     OW 4204   0.154   4.278   3.883
 1102SOL    HW1 4205   0.208   4.362   3.872
 1102SOL    HW2 4206   0.101   4.262   3.799
 1103SOL     OW 4207   0.590   3.284   1.025
 1103SOL    HW1 4208   0.491   3.293   1.039
 1103SOL    HW2 4209   0.606   3.241   0.936
 1104SOL     OW 4210   2.611   5.180   5.866
 1104SOL    HW1 4211   2.592   5.277   5.880
 1104SOL    HW2 4212   2.527   5.127   5.882
 1105SOL     OW 4213   4.013   5.365   0.629
 1105SOL    HW1 4214   3.949   5.381   0.554
 1105SOL    HW2 4215   4.047   5.453   0.662
 1106SOL     OW 4216   1.354   0.705   5.904
 1106SOL    HW1 4217   1.280   0.679   5.966
 1106SOL    HW2 4218   1.434   0.646   5.920
 1107SOL     OW 4219   0.529   6.800   1.239
 1107SOL    HW1 4220   0.574   6.860   1.305
 1107SOL    HW2 4221   0.441   6.770   1.276
 1108SOL     OW 4222   0.786   0.885   6.606
 1108SOL    HW1 4223   0.847   0.942   6.551
 1108SOL    HW2 4224   0.804   0.901   6.703
 1109SOL     OW 4225   4.967   0.994   3.759
 1109SOL    HW1 4226   4.873   0.989   3.725
 1109SOL    HW2 4227   4.980   1.081   3.808
 1110SOL     OW 4228   3.173   2.788   1.872
 1110SOL    HW1 4229   3.125   2.720   1.818
 1110SOL    HW2 4230   3.259   2.750   1.906
 1111SOL     OW 4231   5.260   7.016   6.512
 1111SOL    HW1 4232   5.299   7.018   6.420
 1111SOL    HW2 4233   5.255   0.084   6.548
 1112SOL     OW 4234   0.929   1.483   2.978
 1112SOL    HW1 4235   0.948   1.531   2.892
 1112SOL    HW2 4236   0.975   1.395   2.978
 1113SOL     OW 4237   5.812   4.085   2.103
 1113SOL    HW1 4238   5.789   3.993   2.071
 1113SOL    HW2 4239   5.758   4.106   2.185
 1114SOL     OW 4240   6.198   1.509   5.731
 1114SOL    HW1 4241   6.104   1.542   5.728
 1114SOL    HW2 4242   6.208   1.431   5.669
 1115SOL     OW 4243   3.364   4.030   0.587
 1115SOL    HW1 4244   3.299   4.042   0.662
 1115SOL    HW2 4245   3.334   3.954   0.529
 1116SOL     OW 4246   3.640   6.161   6.112
 1116SOL    HW1 4247   3.732   6.126   6.090
 1116SOL    HW2 4248   3.578   6.144   6.036
 1117SOL     OW 4249   2.314   2.943   0.590
 1117SOL    HW1 4250   2.246   2.872   0.608
 1117SOL    HW2 4251   2.396   2.901   0.552
 1118SOL     OW 4252   1.553   3.339   2.767
 1118SOL    HW1 4253   1.600   3.270   2.823
 1118SOL    HW2 4254   1.596   3.343   2.677
 1119SOL     OW 4255   2.861   3.500   2.416
 1119SOL    HW1 4256   2.762   3.507   2.424
 1119SOL    HW2 4257   2.884   3.420   2.360
 1120SOL     OW 4258   5.103   0.907   4.734
 1120SOL    HW1 4259   5.156   0.869   4.810
 1120SOL    HW2 4260   5.153   0.893   4.648
 1121SOL     OW 4261   5.165   3.317   2.279
 1121SOL    HW1 4262   5.076   3.362   2.280
 1121SOL    HW2 4263   5.219   3.353   2.203
 1122SOL     OW 4264   4.508   5.223   0.619
 1122SOL    HW1 4265   4.479   5.140   0.668
 1122SOL    HW2 4266   4.437   5.249   0.554
 1123SOL     OW 4267   3.789   0.677   2.036
 1123SOL    HW1 4268   3.794   0.608   1.964
 1123SOL    HW2 4269   3.812   0.767   1.998
 1124SOL     OW 4270   0.755   4.871   4.648
 1124SOL    HW1 4271   0.750   4.819   4.562
 1124SOL    HW2 4272   0.838   4.844   4.697
 1125SOL     OW 4273   3.522   3.455   4.866
 1125SOL    HW1 4274   3.487   3.411   4.783
 1125SOL    HW2 4275   3.570   3.388   4.922
 1126SOL     OW 4276   6.345   0.158   2.492
 1126SOL    HW1 4277   6.422   0.214   2.521
 1126SOL    HW2 4278   6.361   0.063   2.515
 1127SOL     OW 4279   1.403   5.334   6.380
 1127SOL    HW1 4280   1.304   5.328   6.392
 1127SOL    HW2 4281   1.449   5.284   6.454
 1128SOL     OW 4282   2.487   1.798   4.037
 1128SOL    HW1 4283   2.540   1.712   4.035
 1128SOL    HW2 4284   2.513   1.851   4.118
 1129SOL     OW 4285   4.934   0.138   6.360
 1129SOL    HW1 4286   4.883   0.181   6.434
 1129SOL    HW2 4287   4.961   0.045   6.387
 1130SOL     OW 4288   0.184   5.126   6.200
 1130SOL    HW1 4289   0.223   5.119   6.292
 1130SOL    HW2 4290   0.110   5.194   6.200
 1131SOL     OW 4291   0.610   5.276   5.701
 1131SOL    HW1 4292   0.561   5.240   5.621
 1131SOL    HW2 4293   0.582   5.225   5.783
 1132SOL     OW 4294   5.056   0.468   5.090
 1132SOL    HW1 4295   5.003   0.398   5.138
 1132SOL    HW2 4296   5.037   0.462   4.992
 1133SOL     OW 4297   6.839   2.671   0.505
 1133SOL    HW1 4298   6.744   2.664   0.537
 1133SOL    HW2 4299   6.861   2.767   0.488
 1134SOL     OW 4300   6.634   2.095   6.167
 1134SOL    HW1 4301   6.552   2.038   6.159
 1134SOL    HW2 4302   6.641   2.131   6.261
 1135SOL     OW 4303   5.740   1.632   3.790
 1135SOL    HW1 4304   5.722   1.720   3.746
 1135SOL    HW2 4305   5.674   1.617   3.863
 1136SOL     OW 4306   3.801   5.477   4.382
 1136SOL    HW1 4307   3.820   5.470   4.480
 1136SOL    HW2 4308   3.821   5.390   4.337
 1137SOL     OW 4309   1.578   0.913   6.020
 1137SOL    HW1 4310   1.590   0.996   5.965
 1137SOL    HW2 4311   1.512   0.852   5.974
 1138SOL     OW 4312   0.473   4.258   5.646
 1138SOL    HW1 4313   0.503   4.168   5.614
 1138SOL    HW2 4314   0.551   4.321   5.646
 1139SOL     OW 4315   0.981   6.327   1.327
 1139SOL    HW1 4316   0.993   6.426   1.324
 1139SOL    HW2 4317   1.003   6.288   1.238
 1140SOL     OW 4318   3.606   1.325   3.658
 1140SOL    HW1 4319   3.685   1.335   3.719
 1140SOL    HW2 4320   3.548   1.406   3.666
 1141SOL     OW 4321   6.457   5.794   5.697
 1141SOL    HW1 4322   6.471   5.802   5.598
 1141SOL    HW2 4323   6.542   5.767   5.741
 1142SOL     OW 4324   5.881   0.716   4.080
 1142SOL    HW1 4325   5.854   0.730   3.984
 1142SOL    HW2 4326   5.882   0.804   4.127
 1143SOL     OW 4327   4.029   1.801   2.422
 1143SOL    HW1 4328   3.992   1.767   2.509
 1143SOL    HW2 4329   3.957   1.805   2.354
 1144SOL     OW 4330   1.596   0.005   5.665
 1144SOL    HW1 4331   1.620   0.045   5.754
 1144SOL    HW2 4332   1.653   6.949   5.649
 1145SOL     OW 4333   1.855   4.915   4.957
 1145SOL    HW1 4334   1.779   4.872   5.005
 1145SOL    HW2 4335   1.941   4.881   4.995
 1146SOL     OW 4336   6.281   2.115   0.861
 1146SOL    HW1 4337   6.307   2.044   0.796
 1146SOL    HW2 4338   6.362   2.149   0.909
 1147SOL     OW 4339   6.638   2.792   1.942
 1147SOL    HW1 4340   6.642   2.708   1.888
 1147SOL    HW2 4341   6.592   2.774   2.029
 1148SOL     OW 4342   4.518   0.962   6.970
 1148SOL    HW1 4343   4.592   1.024   6.943
 1148SOL    HW2 4344   4.546   0.912   0.027
 1149SOL     OW 4345   6.712   2.880   3.061
 1149SOL    HW1 4346   6.796   2.849   3.106
 1149SOL    HW2 4347   6.734   2.922   2.973
 1150SOL     OW 4348   0.963   4.860   5.970
 1150SOL    HW1 4349   1.061   4.854   5.990
 1150SOL    HW2 4350   0.947   4.834   5.875
 1151SOL     OW 4351   4.160   5.565   6.984
 1151SOL    HW1 4352   4.250   5.589   6.949
 1151SOL    HW2 4353   4.089   5.610   6.928
 1152SOL     OW 4354   0.143   1.257   4.403
 1152SOL    HW1 4355   0.239   1.266   4.376
 1152SOL    HW2 4356   0.129   1.302   4.491
 1153SOL     OW 4357   2.643   4.976   2.653
 1153SOL    HW1 4358   2.738   5.004   2.636
 1153SOL    HW2 4359   2.640   4.876   2.660
 1154SOL     OW 4360   1.813   4.271   1.495
 1154SOL    HW1 4361   1.815   4.353   1.438
 1154SOL    HW2 4362   1.737   4.212   1.467
 1155SOL     OW 4363   3.902   6.287   2.169
 1155SOL    HW1 4364   3.997   6.280   2.199
 1155SOL    HW2 4365   3.873   6.201   2.127
 1156SOL     OW 4366   1.692   1.332   4.205
 1156SOL    HW1 4367   1.769   1.304   4.148
 1156SOL    HW2 4368   1.652   1.415   4.168
 1157SOL     OW 4369   0.721   2.863   4.469
 1157SOL    HW1 4370   0.680   2.894   4.384
 1157SOL    HW2 4371   0.656   2.877   4.544
 1158SOL     OW 4372   4.495   5.786   6.570
 1158SOL    HW1 4373   4.561   5.812   6.640
 1158SOL    HW2 4374   4.465   5.692   6.586
 1159SOL     OW 4375   5.232   5.337   2.822
 1159SOL    HW1 4376   5.174   5.378   2.893
 1159SOL    HW2 4377   5.241   5.402   2.746
 1160SOL     OW 4378   2.250   2.647   0.694
 1160SOL    HW1 4379   2.339   2.669   0.734
 1160SOL    HW2 4380   2.243   2.548   0.682
 1161SOL     OW 4381   3.889   0.568   4.602
 1161SOL    HW1 4382   3.820   0.609   4.542
 1161SOL    HW2 4383   3.847   0.494   4.654
 1162SOL     OW 4384   3.965   4.677   1.796
 1162SOL    HW1 4385   3.995   4.583   1.779
 1162SOL    HW2 4386   4.028   4.720   1.861
 1163SOL     OW 4387   4.668   1.804   2.259
 1163SOL    HW1 4388   4.634   1.755   2.340
 1163SOL    HW2 4389   4.703   1.894   2.287
 1164SOL     OW 4390   5.635   3.570   4.258
 1164SOL    HW1 4391   5.667   3.660   4.289
 1164SOL    HW2 4392   5.706   3.526   4.204
 1165SOL     OW 4393   1.432   4.491   2.135
 1165SOL    HW1 4394   1.402   4.416   2.195
 1165SOL    HW2 4395   1.532   4.497   2.137
 1166SOL     OW 4396   3.717   2.615   6.763
 1166SOL    HW1 4397   3.774   2.558   6.704
 1166SOL    HW2 4398   3.769   2.694   6.794
 1167SOL     OW 4399   4.193   1.948   4.987
 1167SOL    HW1 4400   4.148   1.949   5.077
 1167SOL    HW2 4401   4.266   1.879   4.987
 1168SOL     OW 4402   6.333   6.510   3.939
 1168SOL    HW1 4403   6.429   6.535   3.953
 1168SOL    HW2 4404   6.276   6.555   4.008
 1169SOL     OW 4405   1.077   4.239   1.173
 1169SOL    HW1 4406   1.091   4.250   1.272
 1169SOL    HW2 4407   1.018   4.160   1.157
 1170SOL     OW 4408   2.891   1.002   1.018
 1170SOL    HW1 4409   2.964   1.066   1.040
 1170SOL    HW2 4410   2.813   1.018   1.079
 1171SOL     OW 4411   2.814   0.227   0.441
 1171SOL    HW1 4412   2.805   0.136   0.482
 1171SOL    HW2 4413   2.779   0.224   0.347
 1172SOL     OW 4414   2.974   3.251   4.634
 1172SOL    HW1 4415   3.045   3.182   4.649
 1172SOL    HW2 4416   2.965   3.308   4.716
 1173SOL     OW 4417   5.260   0.738   6.555
 1173SOL    HW1 4418   5.192   0.759   6.486
 1173SOL    HW2 4419   5.344   0.790   6.536
 1174SOL     OW 4420   3.303   6.401   0.721
 1174SOL    HW1 4421   3.352   6.478   0.761
 1174SOL    HW2 4422   3.227   6.376   0.780
 1175SOL     OW 4423   6.969   5.123   4.780
 1175SOL    HW1 4424   6.875   5.127   4.811
 1175SOL    HW2 4425   7.019   5.053   4.831
 1176SOL     OW 4426   6.240   3.631   0.881
 1176SOL    HW1 4427   6.246   3.728   0.860
 1176SOL    HW2 4428   6.185   3.619   0.964
 1177SOL     OW 4429   6.274   3.071   0.063
 1177SOL    HW1 4430   6.339   3.146   0.077
 1177SOL    HW2 4431   6.192   3.106   0.017
 1178SOL     OW 4432   5.283   3.920   1.707
 1178SOL    HW1 4433   5.351   3.891   1.774
 1178SOL    HW2 4434   5.220   3.985   1.749
 1179SOL     OW 4435   2.232   5.637   6.221
 1179SOL    HW1 4436   2.315   5.690   6.237
 1179SOL    HW2 4437   2.187   5.669   6.137
 1180SOL     OW 4438   2.220   1.185   3.573
 1180SOL    HW1 4439   2.170   1.264   3.538
 1180SOL    HW2 4440   2.295   1.216   3.631
 1181SOL     OW 4441   1.821   3.976   2.725
 1181SOL    HW1 4442   1.905   4.004   2.770
 1181SOL    HW2 4443   1.811   4.026   2.639
 1182SOL     OW 4444   1.188   3.644   2.961
 1182SOL    HW1 4445   1.282   3.612   2.947
 1182SOL    HW2 4446   1.141   3.582   3.024
 1183SOL     OW 4447   4.100   5.610   0.725
 1183SOL    HW1 4448   4.198   5.617   0.744
 1183SOL    HW2 4449   4.076   5.672   0.650
 1184SOL     OW 4450   2.988   3.113   5.774
 1184SOL    HW1 4451   2.968   3.209   5.794
 1184SOL    HW2 4452   3.005   3.102   5.675
 1185SOL     OW 4453   2.462   1.549   0.141
 1185SOL    HW1 4454   2.560   1.556   0.159
 1185SOL    HW2 4455   2.412   1.542   0.228
 1186SOL     OW 4456   3.511   1.396   5.334
 1186SOL    HW1 4457   3.422   1.351   5.326
 1186SOL    HW2 4458   3.531   1.414   5.431
 1187SOL     OW 4459   0.413   0.931   5.471
 1187SOL    HW1 4460   0.440   1.026   5.485
 1187SOL    HW2 4461   0.380   0.920   5.377
 1188SOL     OW 4462   1.693   0.265   4.817
 1188SOL    HW1 4463   1.719   0.182   4.867
 1188SOL    HW2 4464   1.645   0.327   4.879
 1189SOL     OW 4465   6.947   0.640   0.935
 1189SOL    HW1 4466   6.905   0.551   0.918
 1189SOL    HW2 4467   6.974   0.681   0.848
 1190SOL     OW 4468   4.333   4.892   2.755
 1190SOL    HW1 4469   4.326   4.806   2.704
 1190SOL    HW2 4470   4.273   4.960   2.712
 1191SOL     OW 4471   2.631   5.214   0.687
 1191SOL    HW1 4472   2.600   5.225   0.782
 1191SOL    HW2 4473   2.700   5.284   0.666
 1192SOL     OW 4474   4.581   5.465   2.144
 1192SOL    HW1 4475   4.543   5.546   2.100
 1192SOL    HW2 4476   4.514   5.391   2.140
 1193SOL     OW 4477   3.972   7.015   4.017
 1193SOL    HW1 4478   3.933   6.926   3.992
 1193SOL    HW2 4479   4.046   0.012   3.952
 1194SOL     OW 4480   6.521   1.001   1.214
 1194SOL    HW1 4481   6.610   1.016   1.169
 1194SOL    HW2 4482   6.524   0.915   1.264
 1195SOL     OW 4483   3.399   6.623   0.137
 1195SOL    HW1 4484   3.446   6.679   0.070
 1195SOL    HW2 4485   3.340   6.557   0.090
 1196SOL     OW 4486   0.567   5.331   3.076
 1196SOL    HW1 4487   0.608   5.259   3.020
 1196SOL    HW2 4488   0.474   5.349   3.045
 1197SOL     OW 4489   2.936   5.055   6.486
 1197SOL    HW1 4490   2.877   4.983   6.522
 1197SOL    HW2 4491   3.023   5.055   6.536
 1198SOL     OW 4492   3.490   1.529   2.664
 1198SOL    HW1 4493   3.557   1.575   2.606
 1198SOL    HW2 4494   3.400   1.533   2.621
 1199SOL     OW 4495   3.028   3.860   3.358
 1199SOL    HW1 4496   2.959   3.808   3.407
 1199SOL    HW2 4497   3.014   3.850   3.260
 1200SOL     OW 4498   3.820   3.337   0.618
 1200SOL    HW1 4499   3.802   3.385   0.704
 1200SOL    HW2 4500   3.861   3.247   0.638
 1201SOL     OW 4501   1.071   0.824   4.491
 1201SOL    HW1 4502   1.073   0.909   4.544
 1201SOL    HW2 4503   1.164   0.799   4.465
 1202SOL     OW 4504   5.665   0.497   4.905
 1202SOL    HW1 4505   5.734   0.494   4.833
 1202SOL    HW2 4506   5.705   0.466   4.991
 1203SOL     OW 4507   6.068   6.643   1.858
 1203SOL    HW1 4508   6.087   6.687   1.946
 1203SOL    HW2 4509   6.112   6.694   1.784
 1204SOL     OW 4510   1.856   6.217   6.538
 1204SOL    HW1 4511   1.807   6.235   6.453
 1204SOL    HW2 4512   1.794   6.174   6.605
 1205SOL     OW 4513   1.027   2.281   5.107
 1205SOL    HW1 4514   0.957   2.241   5.166
 1205SOL    HW2 4515   1.013   2.380   5.102
 1206SOL     OW 4516   0.513   1.602   4.499
 1206SOL    HW1 4517   0.552   1.650   4.421
 1206SOL    HW2 4518   0.500   1.505   4.476
 1207SOL     OW 4519   6.127   6.140   6.352
 1207SOL    HW1 4520   6.169   6.213   6.298
 1207SOL    HW2 4521   6.130   6.165   6.449
 1208SOL     OW 4522   3.347   3.937   3.188
 1208SOL    HW1 4523   3.383   3.848   3.216
 1208SOL    HW2 4524   3.296   3.979   3.263
 1209SOL     OW 4525   6.736   4.203   4.784
 1209SOL    HW1 4526   6.778   4.279   4.734
 1209SOL    HW2 4527   6.750   4.118   4.734
 1210SOL     OW 4528   3.224   0.041   2.333
 1210SOL    HW1 4529   3.272   0.128   2.333
 1210SOL    HW2 4530   3.142   0.047   2.276
 1211SOL     OW 4531   1.456   3.150   3.286
 1211SOL    HW1 4532   1.384   3.215   3.260
 1211SOL    HW2 4533   1.438   3.115   3.378
 1212SOL     OW 4534   1.310   3.362   4.056
 1212SOL    HW1 4535   1.387   3.302   4.032
 1212SOL    HW2 4536   1.278   3.340   4.148
 1213SOL     OW 4537   5.689   2.334   5.303
 1213SOL    HW1 4538   5.723   2.317   5.396
 1213SOL    HW2 4539   5.597   2.298   5.294
 1214SOL     OW 4540   1.373   2.390   2.582
 1214SOL    HW1 4541   1.471   2.406   2.595
 1214SOL    HW2 4542   1.350   2.400   2.485
 1215SOL     OW 4543   0.211   4.998   2.236
 1215SOL    HW1 4544   0.296   5.036   2.272
 1215SOL    HW2 4545   0.163   5.069   2.184
 1216SOL     OW 4546   2.654   0.881   1.704
 1216SOL    HW1 4547   2.693   0.804   1.756
 1216SOL    HW2 4548   2.559   0.894   1.730
 1217SOL     OW 4549   2.130   1.367   2.661
 1217SOL    HW1 4550   2.051   1.355   2.720
 1217SOL    HW2 4551   2.214   1.351   2.713
 1218SOL     OW 4552   0.354   3.302   3.572
 1218SOL    HW1 4553   0.322   3.305   3.667
 1218SOL    HW2 4554   0.331   3.213   3.532
 1219SOL     OW 4555   2.671   5.926   3.758
 1219SOL    HW1 4556   2.638   6.020   3.749
 1219SOL    HW2 4557   2.738   5.907   3.686
 1220SOL     OW 4558   5.829   4.456   2.930
 1220SOL    HW1 4559   5.792   4.364   2.941
 1220SOL    HW2 4560   5.783   4.502   2.853
 1221SOL     OW 4561   4.856   3.662   6.135
 1221SOL    HW1 4562   4.868   3.643   6.232
 1221SOL    HW2 4563   4.921   3.732   6.106
 1222SOL     OW 4564   5.659   5.074   1.951
 1222SOL    HW1 4565   5.740   5.069   1.892
 1222SOL    HW2 4566   5.578   5.090   1.894
 1223SOL     OW 4567   6.162   4.870   5.028
 1223SOL    HW1 4568   6.237   4.935   5.017
 1223SOL    HW2 4569   6.178   4.789   4.973
 1224SOL     OW 4570   4.975   5.031   1.510
 1224SOL    HW1 4571   4.956   5.032   1.608
 1224SOL    HW2 4572   5.001   4.938   1.483
 1225SOL     OW 4573   3.877   1.422   6.553
 1225SOL    HW1 4574   3.834   1.377   6.474
 1225SOL    HW2 4575   3.830   1.395   6.637
 1226SOL     OW 4576   5.404   5.218   1.192
 1226SOL    HW1 4577   5.308   5.242   1.177
 1226SOL    HW2 4578   5.428   5.137   1.138
 1227SOL     OW 4579   4.806   4.570   6.891
 1227SOL    HW1 4580   4.726   4.591   6.834
 1227SOL    HW2 4581   4.777   4.516   6.970
 1228SOL     OW 4582   3.681   4.140   4.428
 1228SOL    HW1 4583   3.611   4.172   4.364
 1228SOL    HW2 4584   3.637   4.093   4.504
 1229SOL     OW 4585   2.611   5.984   3.015
 1229SOL    HW1 4586   2.636   5.920   2.942
 1229SOL    HW2 4587   2.563   5.935   3.088
 1230SOL     OW 4588   5.881   4.975   1.761
 1230SOL    HW1 4589   5.942   4.909   1.717
 1230SOL    HW2 4590   5.805   4.997   1.699
 1231SOL     OW 4591   2.154   1.832   6.400
 1231SOL    HW1 4592   2.164   1.817   6.498
 1231SOL    HW2 4593   2.146   1.744   6.353
 1232SOL     OW 4594   2.977   1.153   5.247
 1232SOL    HW1 4595   2.921   1.098   5.185
 1232SOL    HW2 4596   2.988   1.245   5.209
 1233SOL     OW 4597   0.190   5.804   5.051
 1233SOL    HW1 4598   0.244   5.874   5.096
 1233SOL    HW2 4599   0.231   5.782   4.962
 1234SOL     OW 4600   5.941   4.416   6.735
 1234SOL    HW1 4601   5.943   4.329   6.784
 1234SOL    HW2 4602   6.010   4.416   6.663
 1235SOL     OW 4603   6.444   4.599   1.128
 1235SOL    HW1 4604   6.469   4.680   1.180
 1235SOL    HW2 4605   6.351   4.571   1.152
 1236SOL     OW 4606   1.549   1.445   2.094
 1236SOL    HW1 4607   1.554   1.447   1.994
 1236SOL    HW2 4608   1.467   1.397   2.123
 1237SOL     OW 4609   0.928   6.943   4.457
 1237SOL    HW1 4610   0.994   6.870   4.473
 1237SOL    HW2 4611   0.876   6.960   4.541
 1238SOL     OW 4612   0.621   0.780   5.007
 1238SOL    HW1 4613   0.637   0.715   5.082
 1238SOL    HW2 4614   0.528   0.768   4.972
 1239SOL     OW 4615   5.389   5.200   3.823
 1239SOL    HW1 4616   5.320   5.154   3.767
 1239SOL    HW2 4617   5.412   5.289   3.782
 1240SOL     OW 4618   0.893   3.685   1.429
 1240SOL    HW1 4619   0.934   3.673   1.520
 1240SOL    HW2 4620   0.908   3.779   1.398
 1241SOL     OW 4621   3.881   5.192   5.678
 1241SOL    HW1 4622   3.952   5.124   5.660
 1241SOL    HW2 4623   3.837   5.218   5.592
 1242SOL     OW 4624   2.640   4.877   1.130
 1242SOL    HW1 4625   2.600   4.890   1.040
 1242SOL    HW2 4626   2.737   4.857   1.121
 1243SOL     OW 4627   0.931   3.348   3.689
 1243SOL    HW1 4628   0.842   3.392   3.677
 1243SOL    HW2 4629   0.991   3.409   3.741
 1244SOL     OW 4630   6.431   0.240   5.193
 1244SOL    HW1 4631   6.344   0.274   5.230
 1244SOL    HW2 4632   6.478   0.185   5.262
 1245SOL     OW 4633   4.753   6.506   0.986
 1245SOL    HW1 4634   4.692   6.517   1.064
 1245SOL    HW2 4635   4.819   6.433   1.004
 1246SOL     OW 4636   5.009   1.820   1.124
 1246SOL    HW1 4637   5.011   1.780   1.032
 1246SOL    HW2 4638   4.949   1.765   1.182
 1247SOL     OW 4639   6.593   6.713   3.048
 1247SOL    HW1 4640   6.542   6.667   3.120
 1247SOL    HW2 4641   6.551   6.692   2.959
 1248SOL     OW 4642   1.079   6.592   4.142
 1248SOL    HW1 4643   1.005   6.535   4.178
 1248SOL    HW2 4644   1.158   6.534   4.121
 1249SOL     OW 4645   5.840   5.579   6.531
 1249SOL    HW1 4646   5.929   5.617   6.555
 1249SOL    HW2 4647   5.852   5.500   6.471
 1250SOL     OW 4648   0.522   3.700   4.886
 1250SOL    HW1 4649   0.435   3.741   4.861
 1250SOL    HW2 4650   0.539   3.713   4.984
 1251SOL     OW 4651   3.208   0.484   2.625
 1251SOL    HW1 4652   3.127   0.460   2.678
 1251SOL    HW2 4653   3.206   0.582   2.603
 1252SOL     OW 4654   2.067   4.973   6.598
 1252SOL    HW1 4655   2.034   4.878   6.598
 1252SOL    HW2 4656   2.167   4.973   6.595
 1253SOL     OW 4657   2.904   6.900   0.030
 1253SOL    HW1 4658   2.847   6.858   6.984
 1253SOL    HW2 4659   2.859   6.890   0.119
 1254SOL     OW 4660   6.315   1.383   2.986
 1254SOL    HW1 4661   6.242   1.443   3.019
 1254SOL    HW2 4662   6.373   1.356   3.062
 1255SOL     OW 4663   5.961   1.641   5.756
 1255SOL    HW1 4664   6.013   1.724   5.736
 1255SOL    HW2 4665   5.910   1.653   5.841
 1256SOL     OW 4666   0.234   5.834   4.384
 1256SOL    HW1 4667   0.290   5.805   4.462
 1256SOL    HW2 4668   0.158   5.770   4.373
 1257SOL     OW 4669   0.432   6.328   3.352
 1257SOL    HW1 4670   0.387   6.375   3.428
 1257SOL    HW2 4671   0.375   6.336   3.270
 1258SOL     OW 4672   4.843   6.011   6.357
 1258SOL    HW1 4673   4.794   5.996   6.443
 1258SOL    HW2 4674   4.921   6.072   6.373
 1259SOL     OW 4675   5.120   0.542   5.501
 1259SOL    HW1 4676   5.020   0.549   5.495
 1259SOL    HW2 4677   5.158   0.534   5.409
 1260SOL     OW 4678   2.764   1.307   1.093
 1260SOL    HW1 4679   2.850   1.260   1.069
 1260SOL    HW2 4680   2.704   1.243   1.140
 1261SOL     OW 4681   0.044   4.680   4.795
 1261SOL    HW1 4682   0.129   4.635   4.768
 1261SOL    HW2 4683   0.024   4.753   4.730
 1262SOL     OW 4684   3.955   5.805   1.538
 1262SOL    HW1 4685   3.899   5.725   1.561
 1262SOL    HW2 4686   3.927   5.840   1.448
 1263SOL     OW 4687   6.484   2.384   0.634
 1263SOL    HW1 4688   6.563   2.325   0.650
 1263SOL    HW2 4689   6.411   2.358   0.697
 1264SOL     OW 4690   6.340   2.905   4.481
 1264SOL    HW1 4691   6.290   2.978   4.435
 1264SOL    HW2 4692   6.337   2.822   4.425
 1265SOL     OW 4693   6.401   5.812   4.961
 1265SOL    HW1 4694   6.357   5.734   5.006
 1265SOL    HW2 4695   6.379   5.896   5.010
 1266SOL     OW 4696   2.594   0.803   4.157
 1266SOL    HW1 4697   2.594   0.722   4.216
 1266SOL    HW2 4698   2.671   0.862   4.183
 1267SOL     OW 4699   0.053   4.660   2.798
 1267SOL    HW1 4700   0.100   4.664   2.709
 1267SOL    HW2 4701   7.022   4.578   2.802
 1268SOL     OW 4702   5.800   3.994   6.973
 1268SOL    HW1 4703   5.817   3.895   6.967
 1268SOL    HW2 4704   5.832   4.028   0.037
 1269SOL     OW 4705   6.687   5.151   6.326
 1269SOL    HW1 4706   6.615   5.105   6.273
 1269SOL    HW2 4707   6.648   5.229   6.375
 1270SOL     OW 4708   1.541   2.055   4.826
 1270SOL    HW1 4709   1.609   2.078   4.757
 1270SOL    HW2 4710   1.453   2.096   4.802
 1271SOL     OW 4711   4.861   2.598   3.116
 1271SOL    HW1 4712   4.898   2.691   3.124
 1271SOL    HW2 4713   4.819   2.587   3.026
 1272SOL     OW 4714   6.897   6.912   1.702
 1272SOL    HW1 4715   6.811   6.924   1.651
 1272SOL    HW2 4716   6.973   6.901   1.638
 1273SOL     OW 4717   2.683   6.428   6.484
 1273SOL    HW1 4718   2.590   6.443   6.518
 1273SOL    HW2 4719   2.699   6.329   6.474
 1274SOL     OW 4720   5.626   2.470   1.547
 1274SOL    HW1 4721   5.632   2.568   1.525
 1274SOL    HW2 4722   5.624   2.417   1.463
 1275SOL     OW 4723   3.821   1.471   4.041
 1275SOL    HW1 4724   3.868   1.418   3.970
 1275SOL    HW2 4725   3.833   1.426   4.129
 1276SOL     OW 4726   6.179   0.064   3.304
 1276SOL    HW1 4727   6.203   7.009   3.358
 1276SOL    HW2 4728   6.233   0.065   3.219
 1277SOL     OW 4729   0.436   1.341   5.246
 1277SOL    HW1 4730   0.383   1.260   5.268
 1277SOL    HW2 4731   0.384   1.423   5.269
 1278SOL     OW 4732   2.748   1.861   5.331
 1278SOL    HW1 4733   2.760   1.845   5.429
 1278SOL    HW2 4734   2.679   1.798   5.295
 1279SOL     OW 4735   2.475   4.950   0.482
 1279SOL    HW1 4736   2.424   4.922   0.401
 1279SOL    HW2 4737   2.502   5.046   0.473
 1280SOL     OW 4738   1.662   5.829   3.200
 1280SOL    HW1 4739   1.632   5.860   3.289
 1280SOL    HW2 4740   1.641   5.731   3.189
 1281SOL     OW 4741   0.838   7.005   3.915
 1281SOL    HW1 4742   0.936   7.020   3.908
 1281SOL    HW2 4743   0.818   6.907   3.906
 1282SOL     OW 4744   1.172   0.233   2.053
 1282SOL    HW1 4745   1.166   0.226   1.953
 1282SOL    HW2 4746   1.156   0.143   2.093
 1283SOL     OW 4747   5.108   4.776   4.827
 1283SOL    HW1 4748   5.113   4.677   4.838
 1283SOL    HW2 4749   5.029   4.800   4.770
 1284SOL     OW 4750   2.472   1.945   2.818
 1284SOL    HW1 4751   2.390   1.891   2.836
 1284SOL    HW2 4752   2.455   2.040   2.845
 1285SOL     OW 4753   5.607   2.528   5.636
 1285SOL    HW1 4754   5.687   2.535   5.696
 1285SOL    HW2 4755   5.568   2.619   5.623
 1286SOL     OW 4756   6.019   6.427   1.624
 1286SOL    HW1 4757   6.016   6.514   1.673
 1286SOL    HW2 4758   6.101   6.424   1.567
 1287SOL     OW 4759   6.169   4.973   5.673
 1287SOL    HW1 4760   6.119   5.010   5.751
 1287SOL    HW2 4761   6.136   4.880   5.654
 1288SOL     OW 4762   6.712   2.620   2.929
 1288SOL    HW1 4763   6.796   2.592   2.882
 1288SOL    HW2 4764   6.721   2.716   2.957
 1289SOL     OW 4765   0.031   5.506   2.646
 1289SOL    HW1 4766   6.974   5.542   2.690
 1289SOL    HW2 4767   0.075   5.439   2.706
 1290SOL     OW 4768   0.443   6.450   1.419
 1290SOL    HW1 4769   0.372   6.388   1.383
 1290SOL    HW2 4770   0.513   6.396   1.466
 1291SOL     OW 4771   1.530   0.153   0.541
 1291SOL    HW1 4772   1.521   0.151   0.640
 1291SOL    HW2 4773   1.598   0.085   0.513
 1292SOL     OW 4774   1.168   6.223   6.697
 1292SOL    HW1 4775   1.217   6.137   6.708
 1292SOL    HW2 4776   1.229   6.291   6.657
 1293SOL     OW 4777   6.442   2.736   6.050
 1293SOL    HW1 4778   6.400   2.767   6.136
 1293SOL    HW2 4779   6.540   2.757   6.051
 1294SOL     OW 4780   7.008   1.873   3.075
 1294SOL    HW1 4781   0.055   1.940   3.061
 1294SOL    HW2 4782   0.018   1.798   3.131
 1295SOL     OW 4783   5.155   3.424   1.896
 1295SOL    HW1 4784   5.198   3.432   1.986
 1295SOL    HW2 4785   5.109   3.510   1.873
 1296SOL     OW 4786   3.745   2.316   6.514
 1296SOL    HW1 4787   3.742   2.259   6.432
 1296SOL    HW2 4788   3.657   2.310   6.561
 1297SOL     OW 4789   6.541   1.365   6.659
 1297SOL    HW1 4790   6.616   1.350   6.723
 1297SOL    HW2 4791   6.567   1.331   6.568
 1298SOL     OW 4792   5.977   2.791   3.625
 1298SOL    HW1 4793   6.064   2.775   3.673
 1298SOL    HW2 4794   5.901   2.781   3.689
 1299SOL     OW 4795   1.214   4.024   4.438
 1299SOL    HW1 4796   1.267   3.955   4.487
 1299SOL    HW2 4797   1.196   3.991   4.345
 1300SOL     OW 4798   2.700   3.144   1.237
 1300SOL    HW1 4799   2.797   3.167   1.236
 1300SOL    HW2 4800   2.684   3.066   1.177
 1301SOL     OW 4801   0.974   0.436   2.943
 1301SOL    HW1 4802   1.062   0.397   2.916
 1301SOL    HW2 4803   0.983   0.479   3.033
 1302SOL     OW 4804   2.574   5.923   5.185
 1302SOL    HW1 4805   2.519   5.913   5.267
 1302SOL    HW2 4806   2.630   5.841   5.172
 1303SOL     OW 4807   3.901   0.722   1.339
 1303SOL    HW1 4808   3.934   0.709   1.246
 1303SOL    HW2 4809   3.979   0.734   1.401
 1304SOL     OW 4810   3.299   0.285   6.009
 1304SOL    HW1 4811   3.385   0.330   6.035
 1304SOL    HW2 4812   3.228   0.311   6.074
 1305SOL     OW 4813   5.287   6.744   4.782
 1305SOL    HW1 4814   5.341   6.768   4.702
 1305SOL    HW2 4815   5.255   6.827   4.827
 1306SOL     OW 4816   0.783   4.588   4.021
 1306SOL    HW1 4817   0.687   4.588   4.049
 1306SOL    HW2 4818   0.796   4.653   3.945
 1307SOL     OW 4819   2.149   1.836   4.557
 1307SOL    HW1 4820   2.241   1.856   4.592
 1307SOL    HW2 4821   2.083   1.899   4.600
 1308SOL     OW 4822   4.919   5.875   2.770
 1308SOL    HW1 4823   4.965   5.886   2.682
 1308SOL    HW2 4824   4.841   5.937   2.775
 1309SOL     OW 4825   6.084   2.547   4.638
 1309SOL    HW1 4826   6.115   2.480   4.705
 1309SOL    HW2 4827   5.996   2.585   4.668
 1310SOL     OW 4828   4.843   3.670   5.437
 1310SOL    HW1 4829   4.820   3.664   5.534
 1310SOL    HW2 4830   4.941   3.656   5.425
 1311SOL     OW 4831   5.424   5.452   5.346
 1311SOL    HW1 4832   5.466   5.397   5.274
 1311SOL    HW2 4833   5.360   5.396   5.399
 1312SOL     OW 4834   6.918   6.764   2.191
 1312SOL    HW1 4835   6.850   6.824   2.234
 1312SOL    HW2 4836   6.912   6.773   2.091
 1313SOL     OW 4837   3.580   4.800   5.255
 1313SOL    HW1 4838   3.612   4.839   5.342
 1313SOL    HW2 4839   3.518   4.724   5.274
 1314SOL     OW 4840   5.768   1.407   5.022
 1314SOL    HW1 4841   5.821   1.372   5.099
 1314SOL    HW2 4842   5.820   1.397   4.938
 1315SOL     OW 4843   2.164   0.643   2.872
 1315SOL    HW1 4844   2.139   0.606   2.961
 1315SOL    HW2 4845   2.081   0.660   2.819
 1316SOL     OW 4846   3.420   6.394   2.413
 1316SOL    HW1 4847   3.371   6.481   2.416
 1316SOL    HW2 4848   3.496   6.402   2.349
 1317SOL     OW 4849   0.150   5.067   4.173
 1317SOL    HW1 4850   0.195   5.102   4.091
 1317SOL    HW2 4851   0.090   5.138   4.211
 1318SOL     OW 4852   0.355   5.981   1.545
 1318SOL    HW1 4853   0.379   5.970   1.448
 1318SOL    HW2 4854   0.394   5.905   1.598
 1319SOL     OW 4855   6.310   1.042   0.288
 1319SOL    HW1 4856   6.290   1.122   0.232
 1319SOL    HW2 4857   6.309   1.068   0.385
 1320SOL     OW 4858   5.205   5.825   5.633
 1320SOL    HW1 4859   5.259   5.909   5.627
 1320SOL    HW2 4860   5.252   5.759   5.691
 1321SOL     OW 4861   3.163   2.181   6.680
 1321SOL    HW1 4862   3.169   2.225   6.590
 1321SOL    HW2 4863   3.073   2.199   6.720
 1322SOL     OW 4864   5.571   1.228   4.919
 1322SOL    HW1 4865   5.639   1.294   4.952
 1322SOL    HW2 4866   5.482   1.273   4.911
 1323SOL     OW 4867   6.160   1.269   4.312
 1323SOL    HW1 4868   6.148   1.203   4.237
 1323SOL    HW2 4869   6.076   1.274   4.366
 1324SOL     OW 4870   1.045   3.867   0.839
 1324SOL    HW1 4871   1.087   3.797   0.897
 1324SOL    HW2 4872   0.972   3.912   0.890
 1325SOL     OW 4873   3.329   5.521   2.960
 1325SOL    HW1 4874   3.396   5.500   3.031
 1325SOL    HW2 4875   3.270   5.595   2.990
 1326SOL     OW 4876   4.970   4.342   4.471
 1326SOL    HW1 4877   4.962   4.250   4.433
 1326SOL    HW2 4878   4.988   4.407   4.397
 1327SOL     OW 4879   3.102   5.878   3.260
 1327SOL    HW1 4880   3.125   5.950   3.326
 1327SOL    HW2 4881   3.013   5.899   3.218
 1328SOL     OW 4882   1.794   2.151   6.633
 1328SOL    HW1 4883   1.760   2.062   6.602
 1328SOL    HW2 4884   1.771   2.163   6.730
 1329SOL     OW 4885   0.721   0.198   1.174
 1329SOL    HW1 4886   0.719   0.298   1.179
 1329SOL    HW2 4887   0.651   0.161   1.235
 1330SOL     OW 4888   5.679   6.827   0.831
 1330SOL    HW1 4889   5.589   6.819   0.876
 1330SOL    HW2 4890   5.680   6.771   0.749
 1331SOL     OW 4891   6.789   0.969   2.542
 1331SOL    HW1 4892   6.869   0.933   2.589
 1331SOL    HW2 4893   6.817   1.044   2.481
 1332SOL     OW 4894   4.194   1.681   1.232
 1332SOL    HW1 4895   4.166   1.667   1.327
 1332SOL    HW2 4896   4.200   1.779   1.214
 1333SOL     OW 4897   4.036   3.722   5.238
 1333SOL    HW1 4898   4.066   3.668   5.317
 1333SOL    HW2 4899   3.939   3.704   5.221
 1334SOL     OW 4900   0.749   3.873   3.285
 1334SOL    HW1 4901   0.698   3.787   3.280
 1334SOL    HW2 4902   0.723   3.931   3.208
 1335SOL     OW 4903   2.772   5.241   2.052
 1335SOL    HW1 4904   2.836   5.308   2.016
 1335SOL    HW2 4905   2.781   5.237   2.152
 1336SOL     OW 4906   0.741   0.121   4.863
 1336SOL    HW1 4907   0.715   0.032   4.827
 1336SOL    HW2 4908   0.676   0.190   4.833
 1337SOL     OW 4909   2.622   0.491   6.527
 1337SOL    HW1 4910   2.700   0.437   6.495
 1337SOL    HW2 4911   2.645   0.536   6.613
 1338SOL     OW 4912   3.254   5.759   0.613
 1338SOL    HW1 4913   3.320   5.833   0.622
 1338SOL    HW2 4914   3.248   5.709   0.700
 1339SOL     OW 4915   0.415   4.662   4.932
 1339SOL    HW1 4916   0.507   4.657   4.970
 1339SOL    HW2 4917   0.351   4.692   5.003
 1340SOL     OW 4918   2.200   1.184   6.537
 1340SOL    HW1 4919   2.162   1.103   6.493
 1340SOL    HW2 4920   2.232   1.160   6.629
 1341SOL     OW 4921   5.267   1.049   3.534
 1341SOL    HW1 4922   5.220   1.100   3.462
 1341SOL    HW2 4923   5.236   0.954   3.533
 1342SOL     OW 4924   0.579   6.082   1.699
 1342SOL    HW1 4925   0.567   6.090   1.798
 1342SOL    HW2 4926   0.576   6.173   1.658
 1343SOL     OW 4927   3.796   5.222   3.296
 1343SOL    HW1 4928   3.828   5.291   3.361
 1343SOL    HW2 4929   3.698   5.206   3.310
 1344SOL     OW 4930   5.811   1.210   2.050
 1344SOL    HW1 4931   5.827   1.269   2.129
 1344SOL    HW2 4932   5.779   1.265   1.973
 1345SOL     OW 4933   1.366   6.877   3.693
 1345SOL    HW1 4934   1.337   6.802   3.752
 1345SOL    HW2 4935   1.289   6.939   3.676
 1346SOL     OW 4936   0.500   0.678   3.952
 1346SOL    HW1 4937   0.467   0.634   3.868
 1346SOL    HW2 4938   0.545   0.765   3.929
 1347SOL     OW 4939   5.837   0.383   3.058
 1347SOL    HW1 4940   5.855   0.315   2.987
 1347SOL    HW2 4941   5.845   0.340   3.148
 1348SOL     OW 4942   4.036   5.894   4.532
 1348SOL    HW1 4943   3.991   5.867   4.447
 1348SOL    HW2 4944   4.029   5.820   4.599
 1349SOL     OW 4945   4.913   2.468   0.116
 1349SOL    HW1 4946   5.003   2.426   0.107
 1349SOL    HW2 4947   4.913   2.532   0.193
 1350SOL     OW 4948   3.304   6.796   5.511
 1350SOL    HW1 4949   3.241   6.799   5.589
 1350SOL    HW2 4950   3.295   6.881   5.458
 1351SOL     OW 4951   0.825   1.451   4.577
 1351SOL    HW1 4952   0.739   1.437   4.528
 1351SOL    HW2 4953   0.815   1.527   4.641
 1352SOL     OW 4954   0.608   6.589   3.962
 1352SOL    HW1 4955   0.643   6.496   3.964
 1352SOL    HW2 4956   0.681   6.652   3.937
 1353SOL     OW 4957   1.552   3.226   3.992
 1353SOL    HW1 4958   1.520   3.148   3.939
 1353SOL    HW2 4959   1.635   3.263   3.950
 1354SOL     OW 4960   0.207   6.811   0.862
 1354SOL    HW1 4961   0.264   6.807   0.780
 1354SOL    HW2 4962   0.259   6.854   0.936
 1355SOL     OW 4963   4.421   3.529   0.294
 1355SOL    HW1 4964   4.478   3.591   0.348
 1355SOL    HW2 4965   4.384   3.458   0.355
 1356SOL     OW 4966   3.174   3.427   1.617
 1356SOL    HW1 4967   3.271   3.409   1.600
 1356SOL    HW2 4968   3.133   3.469   1.536
 1357SOL     OW 4969   2.735   2.874   5.829
 1357SOL    HW1 4970   2.665   2.876   5.758
 1357SOL    HW2 4971   2.782   2.962   5.832
 1358SOL     OW 4972   2.202   3.345   6.002
 1358SOL    HW1 4973   2.233   3.399   5.923
 1358SOL    HW2 4974   2.110   3.311   5.984
 1359SOL     OW 4975   6.799   1.179   0.158
 1359SOL    HW1 4976   6.888   1.206   0.195
 1359SOL    HW2 4977   6.729   1.243   0.188
 1360SOL     OW 4978   3.108   3.178   3.975
 1360SOL    HW1 4979   3.160   3.094   3.990
 1360SOL    HW2 4980   3.106   3.199   3.877
 1361SOL     OW 4981   0.957   5.775   1.186
 1361SOL    HW1 4982   0.920   5.706   1.124
 1361SOL    HW2 4983   1.056   5.777   1.178
 1362SOL     OW 4984   2.916   2.587   6.683
 1362SOL    HW1 4985   3.005   2.545   6.699
 1362SOL    HW2 4986   2.886   2.568   6.589
 1363SOL     OW 4987   6.667   6.513   1.870
 1363SOL    HW1 4988   6.763   6.540   1.866
 1363SOL    HW2 4989   6.629   6.512   1.778
 1364SOL     OW 4990   0.603   3.890   0.609
 1364SOL    HW1 4991   0.664   3.842   0.546
 1364SOL    HW2 4992   0.641   3.885   0.702
 1365SOL     OW 4993   0.284   4.001   5.312
 1365SOL    HW1 4994   0.246   4.093   5.303
 1365SOL    HW2 4995   0.211   3.934   5.299
 1366SOL     OW 4996   4.953   0.513   0.621
 1366SOL    HW1 4997   4.885   0.560   0.564
 1366SOL    HW2 4998   4.978   0.571   0.698
 1367SOL     OW 4999   1.427   6.499   4.545
 1367SOL    HW1 5000   1.501   6.496   4.612
 1367SOL    HW2 5001   1.359   6.430   4.568
 1368SOL     OW 5002   1.219   6.442   5.552
 1368SOL    HW1 5003   1.231   6.513   5.621
 1368SOL    HW2 5004   1.142   6.466   5.493
 1369SOL     OW 5005   2.704   6.229   3.304
 1369SOL    HW1 5006   2.752   6.281   3.234
 1369SOL    HW2 5007   2.731   6.262   3.395
 1370SOL     OW 5008   6.972   2.388   2.836
 1370SOL    HW1 5009   0.032   2.339   2.850
 1370SOL    HW2 5010   6.900   2.348   2.893
 1371SOL     OW 5011   5.764   2.005   5.741
 1371SOL    HW1 5012   5.734   1.974   5.831
 1371SOL    HW2 5013   5.759   1.929   5.677
 1372SOL     OW 5014   6.372   2.832   0.729
 1372SOL    HW1 5015   6.420   2.910   0.767
 1372SOL    HW2 5016   6.295   2.807   0.788
 1373SOL     OW 5017   5.760   2.189   1.616
 1373SOL    HW1 5018   5.709   2.216   1.698
 1373SOL    HW2 5019   5.852   2.161   1.642
 1374SOL     OW 5020   4.368   4.054   1.213
 1374SOL    HW1 5021   4.298   4.044   1.143
 1374SOL    HW2 5022   4.346   4.131   1.273
 1375SOL     OW 5023   5.600   5.178   4.064
 1375SOL    HW1 5024   5.614   5.102   4.127
 1375SOL    HW2 5025   5.507   5.176   4.028
 1376SOL     OW 5026   2.894   4.841   6.038
 1376SOL    HW1 5027   2.933   4.901   6.108
 1376SOL    HW2 5028   2.840   4.769   6.081
 1377SOL     OW 5029   2.050   1.803   2.851
 1377SOL    HW1 5030   2.001   1.724   2.889
 1377SOL    HW2 5031   2.111   1.772   2.778
 1378SOL     OW 5032   5.423   2.502   3.981
 1378SOL    HW1 5033   5.358   2.575   4.002
 1378SOL    HW2 5034   5.403   2.464   3.891
 1379SOL     OW 5035   4.803   5.338   1.249
 1379SOL    HW1 5036   4.856   5.353   1.333
 1379SOL    HW2 5037   4.798   5.422   1.197
 1380SOL     OW 5038   0.247   6.235   2.327
 1380SOL    HW1 5039   0.169   6.196   2.277
 1380SOL    HW2 5040   0.223   6.327   2.359
 1381SOL     OW 5041   6.072   2.565   6.282
 1381SOL    HW1 5042   6.006   2.635   6.309
 1381SOL    HW2 5043   6.150   2.567   6.344
 1382SOL     OW 5044   4.489   3.176   0.016
 1382SOL    HW1 5045   4.569   3.157   6.985
 1382SOL    HW2 5046   4.472   3.275   0.017
 1383SOL     OW 5047   0.161   0.441   1.394
 1383SOL    HW1 5048   0.123   0.381   1.464
 1383SOL    HW2 5049   0.255   0.464   1.416
 1384SOL     OW 5050   6.487   1.598   1.657
 1384SOL    HW1 5051   6.406   1.542   1.637
 1384SOL    HW2 5052   6.484   1.627   1.753
 1385SOL     OW 5053   0.624   5.373   1.061
 1385SOL    HW1 5054   0.581   5.427   1.134
 1385SOL    HW2 5055   0.713   5.411   1.039
 1386SOL     OW 5056   2.201   5.727   4.241
 1386SOL    HW1 5057   2.133   5.657   4.263
 1386SOL    HW2 5058   2.178   5.770   4.153
 1387SOL     OW 5059   2.581   6.382   2.077
 1387SOL    HW1 5060   2.570   6.299   2.132
 1387SOL    HW2 5061   2.679   6.400   2.063
 1388SOL     OW 5062   0.054   0.790   1.814
 1388SOL    HW1 5063   0.119   0.839   1.756
 1388SOL    HW2 5064   7.025   0.728   1.758
 1389SOL     OW 5065   6.610   1.070   2.241
 1389SOL    HW1 5066   6.513   1.056   2.264
 1389SOL    HW2 5067   6.621   1.067   2.142
 1390SOL     OW 5068   1.266   1.643   5.009
 1390SOL    HW1 5069   1.300   1.569   5.066
 1390SOL    HW2 5070   1.335   1.716   5.005
 1391SOL     OW 5071   0.388   2.804   3.464
 1391SOL    HW1 5072   0.372   2.707   3.443
 1391SOL    HW2 5073   0.365   2.822   3.559
 1392SOL     OW 5074   4.866   4.728   4.694
 1392SOL    HW1 5075   4.848   4.654   4.629
 1392SOL    HW2 5076   4.824   4.707   4.782
 1393SOL     OW 5077   3.167   6.413   6.052
 1393SOL    HW1 5078   3.114   6.496   6.068
 1393SOL    HW2 5079   3.107   6.340   6.020
 1394SOL     OW 5080   1.718   6.236   6.289
 1394SOL    HW1 5081   1.640   6.279   6.334
 1394SOL    HW2 5082   1.686   6.164   6.228
 1395SOL     OW 5083   3.625   4.073   5.544
 1395SOL    HW1 5084   3.609   4.157   5.595
 1395SOL    HW2 5085   3.537   4.029   5.524
 1396SOL     OW 5086   5.889   6.240   4.092
 1396SOL    HW1 5087   5.848   6.295   4.165
 1396SOL    HW2 5088   5.974   6.200   4.125
 1397SOL     OW 5089   4.833   6.152   5.312
 1397SOL    HW1 5090   4.829   6.100   5.227
 1397SOL    HW2 5091   4.882   6.099   5.382
 1398SOL     OW 5092   2.080   1.064   4.132
 1398SOL    HW1 5093   2.166   1.013   4.133
 1398SOL    HW2 5094   2.010   1.011   4.179
 1399SOL     OW 5095   3.208   6.860   1.677
 1399SOL    HW1 5096   3.195   6.768   1.714
 1399SOL    HW2 5097   3.128   6.885   1.622
 1400SOL     OW 5098   1.877   6.808   2.114
 1400SOL    HW1 5099   1.840   6.715   2.112
 1400SOL    HW2 5100   1.959   6.812   2.056
 1401SOL     OW 5101   6.313   1.170   4.524
 1401SOL    HW1 5102   6.345   1.076   4.516
 1401SOL    HW2 5103   6.299   1.208   4.432
 1402SOL     OW 5104   6.836   3.286   0.281
 1402SOL    HW1 5105   6.784   3.210   0.321
 1402SOL    HW2 5106   6.905   3.317   0.347
 1403SOL     OW 5107   3.221   0.751   2.539
 1403SOL    HW1 5108   3.297   0.806   2.574
 1403SOL    HW2 5109   3.245   0.713   2.450
 1404SOL     OW 5110   5.494   1.063   0.466
 1404SOL    HW1 5111   5.489   1.134   0.536
 1404SOL    HW2 5112   5.562   0.995   0.492
 1405SOL     OW 5113   2.256   3.531   1.022
 1405SOL    HW1 5114   2.172   3.504   0.975
 1405SOL    HW2 5115   2.263   3.482   1.109
 1406SOL     OW 5116   1.393   3.946   1.012
 1406SOL    HW1 5117   1.315   3.885   0.996
 1406SOL    HW2 5118   1.362   4.027   1.061
 1407SOL     OW 5119   6.409   2.499   2.897
 1407SOL    HW1 5120   6.503   2.497   2.931
 1407SOL    HW2 5121   6.346   2.479   2.973
 1408SOL     OW 5122   6.384   0.178   6.862
 1408SOL    HW1 5123   6.411   0.195   6.957
 1408SOL    HW2 5124   6.438   0.236   6.802
 1409SOL     OW 5125   0.695   1.319   4.245
 1409SOL    HW1 5126   0.680   1.283   4.153
 1409SOL    HW2 5127   0.772   1.383   4.244
 1410SOL     OW 5128   0.516   2.614   0.079
 1410SOL    HW1 5129   0.565   2.589   0.162
 1410SOL    HW2 5130   0.460   2.537   0.048
 1411SOL     OW 5131   1.989   0.167   1.168
 1411SOL    HW1 5132   1.984   0.264   1.144
 1411SOL    HW2 5133   2.014   0.113   1.088
 1412SOL     OW 5134   1.085   3.134   0.277
 1412SOL    HW1 5135   1.065   3.157   0.372
 1412SOL    HW2 5136   0.999   3.130   0.226
 1413SOL     OW 5137   2.777   0.137   4.392
 1413SOL    HW1 5138   2.823   0.220   4.361
 1413SOL    HW2 5139   2.748   0.084   4.313
 1414SOL     OW 5140   2.047   1.271   1.390
 1414SOL    HW1 5141   1.960   1.313   1.415
 1414SOL    HW2 5142   2.099   1.334   1.332
 1415SOL     OW 5143   4.140   6.042   6.241
 1415SOL    HW1 5144   4.213   5.975   6.223
 1415SOL    HW2 5145   4.162   6.095   6.323
 1416SOL     OW 5146   4.254   5.683   2.393
 1416SOL    HW1 5147   4.209   5.773   2.397
 1416SOL    HW2 5148   4.344   5.689   2.435
 1417SOL     OW 5149   3.108   1.847   5.931
 1417SOL    HW1 5150   3.196   1.893   5.944
 1417SOL    HW2 5151   3.124   1.751   5.909
 1418SOL     OW 5152   3.461   4.147   2.423
 1418SOL    HW1 5153   3.366   4.132   2.393
 1418SOL    HW2 5154   3.460   4.187   2.514
 1419SOL     OW 5155   4.643   6.843   4.764
 1419SOL    HW1 5156   4.556   6.878   4.798
 1419SOL    HW2 5157   4.636   6.744   4.749
 1420SOL     OW 5158   0.828   5.959   2.363
 1420SOL    HW1 5159   0.769   6.021   2.311
 1420SOL    HW2 5160   0.913   5.943   2.313
 1421SOL     OW 5161   3.421   0.919   2.644
 1421SOL    HW1 5162   3.435   0.889   2.738
 1421SOL    HW2 5163   3.423   1.019   2.640
 1422SOL     OW 5164   2.706   6.311   0.372
 1422SOL    HW1 5165   2.701   6.225   0.423
 1422SOL    HW2 5166   2.800   6.346   0.375
 1423SOL     OW 5167   4.508   0.375   2.766
 1423SOL    HW1 5168   4.574   0.449   2.780
 1423SOL    HW2 5169   4.417   0.414   2.752
 1424SOL     OW 5170   6.618   4.921   3.882
 1424SOL    HW1 5171   6.564   4.847   3.922
 1424SOL    HW2 5172   6.557   4.992   3.846
 1425SOL     OW 5173   2.427   7.003   4.667
 1425SOL    HW1 5174   2.437   0.075   4.645
 1425SOL    HW2 5175   2.343   6.989   4.720
 1426SOL     OW 5176   0.827   1.577   5.860
 1426SOL    HW1 5177   0.792   1.575   5.766
 1426SOL    HW2 5178   0.751   1.580   5.925
 1427SOL     OW 5179   6.073   0.573   4.210
 1427SOL    HW1 5180   6.011   0.622   4.149
 1427SOL    HW2 5181   6.102   0.635   4.284
 1428SOL     OW 5182   5.195   1.192   6.910
 1428SOL    HW1 5183   5.229   1.186   6.816
 1428SOL    HW2 5184   5.246   1.264   6.959
 1429SOL     OW 5185   6.640   0.567   0.403
 1429SOL    HW1 5186   6.641   0.481   0.453
 1429SOL    HW2 5187   6.705   0.631   0.444
 1430SOL     OW 5188   2.250   5.112   3.713
 1430SOL    HW1 5189   2.265   5.207   3.686
 1430SOL    HW2 5190   2.163   5.080   3.677
 1431SOL     OW 5191   1.759   0.862   0.495
 1431SOL    HW1 5192   1.806   0.853   0.407
 1431SOL    HW2 5193   1.805   0.806   0.563
 1432SOL     OW 5194   2.078   0.792   1.969
 1432SOL    HW1 5195   2.112   0.728   2.039
 1432SOL    HW2 5196   2.137   0.872   1.965
 1433SOL     OW 5197   4.575   0.639   3.880
 1433SOL    HW1 5198   4.576   0.730   3.921
 1433SOL    HW2 5199   4.481   0.605   3.877
 1434SOL     OW 5200   1.238   0.528   5.635
 1434SOL    HW1 5201   1.234   0.565   5.728
 1434SOL    HW2 5202   1.328   0.487   5.620
 1435SOL     OW 5203   6.618   1.800   3.077
 1435SOL    HW1 5204   6.618   1.704   3.047
 1435SOL    HW2 5205   6.712   1.835   3.075
 1436SOL     OW 5206   4.129   3.462   0.922
 1436SOL    HW1 5207   4.032   3.464   0.897
 1436SOL    HW2 5208   4.146   3.385   0.984
 1437SOL     OW 5209   3.606   1.124   2.471
 1437SOL    HW1 5210   3.602   1.047   2.407
 1437SOL    HW2 5211   3.686   1.114   2.530
 1438SOL     OW 5212   2.316   0.244   1.199
 1438SOL    HW1 5213   2.383   0.310   1.232
 1438SOL    HW2 5214   2.322   0.160   1.254
 1439SOL     OW 5215   0.316   5.699   2.773
 1439SOL    HW1 5216   0.220   5.711   2.746
 1439SOL    HW2 5217   0.334   5.601   2.788
 1440SOL     OW 5218   2.589   3.547   1.655
 1440SOL    HW1 5219   2.522   3.542   1.729
 1440SOL    HW2 5220   2.607   3.455   1.621
 1441SOL     OW 5221   5.674   6.685   0.606
 1441SOL    HW1 5222   5.763   6.666   0.566
 1441SOL    HW2 5223   5.612   6.608   0.589
 1442SOL     OW 5224   5.680   5.265   1.066
 1442SOL    HW1 5225   5.647   5.339   1.123
 1442SOL    HW2 5226   5.603   5.218   1.023
 1443SOL     OW 5227   0.436   2.890   2.965
 1443SOL    HW1 5228   0.390   2.931   2.886
 1443SOL    HW2 5229   0.502   2.956   3.003
 1444SOL     OW 5230   6.404   4.695   6.754
 1444SOL    HW1 5231   6.397   4.629   6.829
 1444SOL    HW2 5232   6.499   4.722   6.742
 1445SOL     OW 5233   1.465   3.165   1.680
 1445SOL    HW1 5234   1.503   3.073   1.683
 1445SOL    HW2 5235   1.508   3.222   1.750
 1446SOL     OW 5236   6.493   6.920   0.418
 1446SOL    HW1 5237   6.503   6.926   0.319
 1446SOL    HW2 5238   6.584   6.919   0.461
 1447SOL     OW 5239   6.148   5.238   4.544
 1447SOL    HW1 5240   6.094   5.206   4.621
 1447SOL    HW2 5241   6.243   5.249   4.572
 1448SOL     OW 5242   1.236   2.699   5.765
 1448SOL    HW1 5243   1.287   2.634   5.710
 1448SOL    HW2 5244   1.143   2.666   5.779
 1449SOL     OW 5245   2.080   3.548   3.627
 1449SOL    HW1 5246   2.158   3.489   3.646
 1449SOL    HW2 5247   2.066   3.611   3.703
 1450SOL     OW 5248   2.273   2.971   3.870
 1450SOL    HW1 5249   2.349   2.917   3.908
 1450SOL    HW2 5250   2.186   2.926   3.891
 1451SOL     OW 5251   2.774   0.587   2.649
 1451SOL    HW1 5252   2.772   0.495   2.609
 1451SOL    HW2 5253   2.848   0.640   2.607
 1452SOL     OW 5254   5.140   2.577   6.102
 1452SOL    HW1 5255   5.130   2.652   6.168
 1452SOL    HW2 5256   5.219   2.595   6.044
 1453SOL     OW 5257   6.839   5.175   5.303
 1453SOL    HW1 5258   6.787   5.234   5.365
 1453SOL    HW2 5259   6.813   5.194   5.209
 1454SOL     OW 5260   4.032   1.832   3.721
 1454SOL    HW1 5261   4.119   1.877   3.702
 1454SOL    HW2 5262   4.001   1.858   3.813
 1455SOL     OW 5263   0.422   5.542   1.864
 1455SOL    HW1 5264   0.427   5.638   1.889
 1455SOL    HW2 5265   0.506   5.516   1.816
 1456SOL     OW 5266   6.530   5.173   4.699
 1456SOL    HW1 5267   6.501   5.269   4.701
 1456SOL    HW2 5268   6.564   5.150   4.608
 1457SOL     OW 5269   1.259   4.823   6.028
 1457SOL    HW1 5270   1.254   4.852   6.123
 1457SOL    HW2 5271   1.315   4.889   5.976
 1458SOL     OW 5272   5.080   5.029   5.506
 1458SOL    HW1 5273   5.140   4.971   5.560
 1458SOL    HW2 5274   5.045   4.978   5.427
 1459SOL     OW 5275   5.480   6.878   5.285
 1459SOL    HW1 5276   5.424   6.845   5.361
 1459SOL    HW2 5277   5.441   6.964   5.250
 1460SOL     OW 5278   1.233   6.187   5.432
 1460SOL    HW1 5279   1.214   6.273   5.478
 1460SOL    HW2 5280   1.259   6.118   5.499
 1461SOL     OW 5281   6.344   2.996   3.757
 1461SOL    HW1 5282   6.345   3.033   3.849
 1461SOL    HW2 5283   6.434   3.011   3.714
 1462SOL     OW 5284   0.268   0.604   2.140
 1462SOL    HW1 5285   0.347   0.542   2.137
 1462SOL    HW2 5286   0.236   0.613   2.234
 1463SOL     OW 5287   1.765   5.631   0.015
 1463SOL    HW1 5288   1.826   5.634   6.961
 1463SOL    HW2 5289   1.763   5.721   0.058
 1464SOL     OW 5290   1.114   3.975   3.615
 1464SOL    HW1 5291   1.201   4.007   3.650
 1464SOL    HW2 5292   1.047   4.049   3.616
 1465SOL     OW 5293   0.717   2.802   3.444
 1465SOL    HW1 5294   0.640   2.866   3.443
 1465SOL    HW2 5295   0.785   2.833   3.510
 1466SOL     OW 5296   5.210   2.425   2.270
 1466SOL    HW1 5297   5.301   2.457   2.298
 1466SOL    HW2 5298   5.142   2.459   2.335
 1467SOL     OW 5299   1.127   1.024   4.138
 1467SOL    HW1 5300   1.124   1.071   4.226
 1467SOL    HW2 5301   1.171   0.934   4.149
 1468SOL     OW 5302   2.371   5.395   2.815
 1468SOL    HW1 5303   2.461   5.361   2.841
 1468SOL    HW2 5304   2.301   5.329   2.843
 1469SOL     OW 5305   6.053   4.098   3.279
 1469SOL    HW1 5306   6.068   4.137   3.370
 1469SOL    HW2 5307   6.060   4.170   3.210
 1470SOL     OW 5308   6.421   1.420   1.328
 1470SOL    HW1 5309   6.436   1.514   1.298
 1470SOL    HW2 5310   6.328   1.392   1.304
 1471SOL     OW 5311   5.063   6.450   1.426
 1471SOL    HW1 5312   5.137   6.424   1.487
 1471SOL    HW2 5313   4.983   6.478   1.480
 1472SOL     OW 5314   1.810   0.211   6.078
 1472SOL    HW1 5315   1.783   0.191   6.172
 1472SOL    HW2 5316   1.850   0.302   6.074
 1473SOL     OW 5317   1.822   5.756   3.773
 1473SOL    HW1 5318   1.915   5.765   3.807
 1473SOL    HW2 5319   1.766   5.706   3.840
 1474SOL     OW 5320   2.992   5.244   1.684
 1474SOL    HW1 5321   2.951   5.335   1.685
 1474SOL    HW2 5322   3.083   5.248   1.725
 1475SOL     OW 5323   5.633   0.200   6.384
 1475SOL    HW1 5324   5.612   0.192   6.481
 1475SOL    HW2 5325   5.699   0.274   6.371
 1476SOL     OW 5326   4.809   0.786   0.954
 1476SOL    HW1 5327   4.773   0.844   0.881
 1476SOL    HW2 5328   4.895   0.824   0.988
 1477SOL     OW 5329   3.609   4.904   1.547
 1477SOL    HW1 5330   3.547   4.981   1.532
 1477SOL    HW2 5331   3.568   4.820   1.511
 1478SOL     OW 5332   5.008   5.263   6.635
 1478SOL    HW1 5333   4.912   5.236   6.638
 1478SOL    HW2 5334   5.027   5.310   6.549
 1479SOL     OW 5335   3.914   3.873   1.418
 1479SOL    HW1 5336   3.818   3.895   1.404
 1479SOL    HW2 5337   3.935   3.785   1.375
 1480SOL     OW 5338   3.062   0.409   4.923
 1480SOL    HW1 5339   2.969   0.421   4.890
 1480SOL    HW2 5340   3.099   0.322   4.890
 1481SOL     OW 5341   5.357   2.482   5.902
 1481SOL    HW1 5342   5.330   2.547   5.832
 1481SOL    HW2 5343   5.381   2.395   5.859
 1482SOL     OW 5344   4.751   1.565   1.051
 1482SOL    HW1 5345   4.772   1.498   1.122
 1482SOL    HW2 5346   4.692   1.523   0.982
 1483SOL     OW 5347   5.798   1.122   6.368
 1483SOL    HW1 5348   5.805   1.070   6.283
 1483SOL    HW2 5349   5.801   1.060   6.446
 1484SOL     OW 5350   3.449   5.780   5.161
 1484SOL    HW1 5351   3.518   5.708   5.153
 1484SOL    HW2 5352   3.445   5.811   5.256
 1485SOL     OW 5353   5.426   2.748   3.045
 1485SOL    HW1 5354   5.398   2.786   3.133
 1485SOL    HW2 5355   5.519   2.710   3.053
 1486SOL     OW 5356   4.815   6.703   3.570
 1486SOL    HW1 5357   4.873   6.712   3.488
 1486SOL    HW2 5358   4.788   6.607   3.581
 1487SOL     OW 5359   6.819   0.384   0.930
 1487SOL    HW1 5360   6.898   0.323   0.936
 1487SOL    HW2 5361   6.788   0.408   1.022
 1488SOL     OW 5362   6.368   1.797   2.513
 1488SOL    HW1 5363   6.284   1.784   2.565
 1488SOL    HW2 5364   6.369   1.889   2.474
 1489SOL     OW 5365   3.538   4.245   0.596
 1489SOL    HW1 5366   3.470   4.318   0.593
 1489SOL    HW2 5367   3.493   4.156   0.586
 1490SOL     OW 5368   6.780   2.584   2.141
 1490SOL    HW1 5369   6.797   2.567   2.238
 1490SOL    HW2 5370   6.700   2.532   2.111
 1491SOL     OW 5371   6.285   2.508   3.877
 1491SOL    HW1 5372   6.326   2.462   3.798
 1491SOL    HW2 5373   6.195   2.468   3.895
 1492SOL     OW 5374   6.396   1.266   3.200
 1492SOL    HW1 5375   6.360   1.190   3.146
 1492SOL    HW2 5376   6.350   1.269   3.288
 1493SOL     OW 5377   4.988   2.375   5.957
 1493SOL    HW1 5378   4.908   2.328   5.994
 1493SOL    HW2 5379   5.009   2.454   6.014
 1494SOL     OW 5380   6.647   4.644   5.584
 1494SOL    HW1 5381   6.609   4.556   5.555
 1494SOL    HW2 5382   6.625   4.660   5.680
 1495SOL     OW 5383   6.913   4.134   4.364
 1495SOL    HW1 5384   6.935   4.110   4.459
 1495SOL    HW2 5385   6.844   4.071   4.329
 1496SOL     OW 5386   6.395   5.569   5.964
 1496SOL    HW1 5387   6.489   5.587   5.937
 1496SOL    HW2 5388   6.355   5.653   6.003
 1497SOL     OW 5389   5.982   2.816   2.543
 1497SOL    HW1 5390   6.004   2.747   2.612
 1497SOL    HW2 5391   6.067   2.861   2.513
 1498SOL     OW 5392   3.616   3.784   0.744
 1498SOL    HW1 5393   3.533   3.752   0.788
 1498SOL    HW2 5394   3.613   3.761   0.646
 1499SOL     OW 5395   0.801   4.269   5.366
 1499SOL    HW1 5396   0.843   4.193   5.317
 1499SOL    HW2 5397   0.727   4.307   5.312
 1500SOL     OW 5398   0.926   5.831   1.927
 1500SOL    HW1 5399   0.849   5.780   1.965
 1500SOL    HW2 5400   0.902   5.928   1.919
 1501SOL     OW 5401   6.121   2.517   0.600
 1501SOL    HW1 5402   6.140   2.456   0.677
 1501SOL    HW2 5403   6.207   2.549   0.560
 1502SOL     OW 5404   6.379   0.214   5.988
 1502SOL    HW1 5405   6.450   0.186   6.053
 1502SOL    HW2 5406   6.378   0.151   5.911
 1503SOL     OW 5407   6.805   4.759   1.793
 1503SOL    HW1 5408   6.742   4.833   1.819
 1503SOL    HW2 5409   6.876   4.750   1.863
 1504SOL     OW 5410   1.929   6.962   2.349
 1504SOL    HW1 5411   1.945   6.881   2.406
 1504SOL    HW2 5412   1.913   6.934   2.254
 1505SOL     OW 5413   5.306   5.959   4.935
 1505SOL    HW1 5414   5.254   6.021   4.993
 1505SOL    HW2 5415   5.379   6.009   4.889
 1506SOL     OW 5416   0.523   1.778   1.050
 1506SOL    HW1 5417   0.527   1.877   1.033
 1506SOL    HW2 5418   0.444   1.740   1.003
 1507SOL     OW 5419   1.191   2.698   4.027
 1507SOL    HW1 5420   1.232   2.622   4.079
 1507SOL    HW2 5421   1.255   2.728   3.957
 1508SOL     OW 5422   1.331   0.498   1.054
 1508SOL    HW1 5423   1.278   0.418   1.024
 1508SOL    HW2 5424   1.270   0.563   1.099
 1509SOL     OW 5425   5.124   0.475   4.436
 1509SOL    HW1 5426   5.082   0.393   4.474
 1509SOL    HW2 5427   5.172   0.453   4.351
 1510SOL     OW 5428   3.502   5.755   4.483
 1510SOL    HW1 5429   3.419   5.702   4.502
 1510SOL    HW2 5430   3.477   5.851   4.468
 1511SOL     OW 5431   3.047   3.680   4.747
 1511SOL    HW1 5432   3.137   3.692   4.706
 1511SOL    HW2 5433   3.055   3.619   4.826
 1512SOL     OW 5434   5.795   6.418   0.868
 1512SOL    HW1 5435   5.805   6.396   0.771
 1512SOL    HW2 5436   5.747   6.505   0.877
 1513SOL     OW 5437   2.892   6.907   6.115
 1513SOL    HW1 5438   2.867   6.945   6.204
 1513SOL    HW2 5439   2.813   6.856   6.078
 1514SOL     OW 5440   3.049   2.540   6.025
 1514SOL    HW1 5441   3.010   2.620   6.071
 1514SOL    HW2 5442   3.100   2.486   6.091
 1515SOL     OW 5443   5.068   1.647   1.839
 1515SOL    HW1 5444   5.127   1.567   1.852
 1515SOL    HW2 5445   5.123   1.725   1.810
 1516SOL     OW 5446   5.808   0.118   5.596
 1516SOL    HW1 5447   5.855   0.039   5.556
 1516SOL    HW2 5448   5.866   0.199   5.588
 1517SOL     OW 5449   3.737   6.005   3.886
 1517SOL    HW1 5450   3.660   6.012   3.949
 1517SOL    HW2 5451   3.792   5.925   3.910
 1518SOL     OW 5452   0.834   3.089   0.190
 1518SOL    HW1 5453   0.832   2.991   0.168
 1518SOL    HW2 5454   0.776   3.106   0.270
 1519SOL     OW 5455   0.352   4.504   6.484
 1519SOL    HW1 5456   0.322   4.432   6.547
 1519SOL    HW2 5457   0.432   4.551   6.522
 1520SOL     OW 5458   0.536   6.077   2.594
 1520SOL    HW1 5459   0.625   6.123   2.590
 1520SOL    HW2 5460   0.463   6.145   2.600
 1521SOL     OW 5461   2.496   4.864   5.704
 1521SOL    HW1 5462   2.508   4.766   5.689
 1521SOL    HW2 5463   2.550   4.892   5.783
 1522SOL     OW 5464   5.224   5.957   3.955
 1522SOL    HW1 5465   5.292   5.886   3.968
 1522SOL    HW2 5466   5.255   6.020   3.883
 1523SOL     OW 5467   3.724   6.491   0.578
 1523SOL    HW1 5468   3.662   6.492   0.500
 1523SOL    HW2 5469   3.680   6.534   0.657
 1524SOL     OW 5470   2.385   1.700   3.079
 1524SOL    HW1 5471   2.381   1.667   2.984
 1524SOL    HW2 5472   2.327   1.781   3.088
 1525SOL     OW 5473   5.423   3.470   6.719
 1525SOL    HW1 5474   5.379   3.551   6.681
 1525SOL    HW2 5475   5.489   3.433   6.653
 1526SOL     OW 5476   1.182   1.342   0.103
 1526SOL    HW1 5477   1.165   1.262   0.045
 1526SOL    HW2 5478   1.280   1.352   0.120
 1527SOL     OW 5479   4.050   1.615   4.280
 1527SOL    HW1 5480   4.131   1.565   4.313
 1527SOL    HW2 5481   4.078   1.705   4.247
 1528SOL     OW 5482   4.047   3.802   1.804
 1528SOL    HW1 5483   4.038   3.833   1.899
 1528SOL    HW2 5484   3.956   3.783   1.767
 1529SOL     OW 5485   4.274   1.232   5.552
 1529SOL    HW1 5486   4.189   1.264   5.511
 1529SOL    HW2 5487   4.258   1.144   5.598
 1530SOL     OW 5488   3.257   6.041   1.313
 1530SOL    HW1 5489   3.188   6.026   1.243
 1530SOL    HW2 5490   3.273   6.139   1.324
 1531SOL     OW 5491   3.848   6.774   3.944
 1531SOL    HW1 5492   3.943   6.744   3.952
 1531SOL    HW2 5493   3.793   6.730   4.016
 1532SOL     OW 5494   3.103   5.721   6.438
 1532SOL    HW1 5495   3.200   5.706   6.424
 1532SOL    HW2 5496   3.081   5.817   6.422
 1533SOL     OW 5497   6.037   5.225   1.789
 1533SOL    HW1 5498   5.983   5.141   1.785
 1533SOL    HW2 5499   6.073   5.247   1.699
 1534SOL     OW 5500   3.781   5.496   6.348
 1534SOL    HW1 5501   3.729   5.436   6.288
 1534SOL    HW2 5502   3.766   5.591   6.322
 1535SOL     OW 5503   5.777   5.677   4.290
 1535SOL    HW1 5504   5.708   5.604   4.291
 1535SOL    HW2 5505   5.855   5.649   4.346
 1536SOL     OW 5506   4.835   2.991   5.976
 1536SOL    HW1 5507   4.792   3.016   5.889
 1536SOL    HW2 5508   4.843   2.892   5.983
 1537SOL     OW 5509   3.478   5.199   3.056
 1537SOL    HW1 5510   3.498   5.242   2.968
 1537SOL    HW2 5511   3.391   5.150   3.050
 1538SOL     OW 5512   2.786   1.515   0.086
 1538SOL    HW1 5513   2.735   1.543   0.005
 1538SOL    HW2 5514   2.834   1.429   0.068
 1539SOL     OW 5515   5.806   3.075   0.341
 1539SOL    HW1 5516   5.818   3.155   0.282
 1539SOL    HW2 5517   5.717   3.081   0.386
 1540SOL     OW 5518   3.295   6.871   4.534
 1540SOL    HW1 5519   3.216   6.817   4.562
 1540SOL    HW2 5520   3.370   6.810   4.510
 1541SOL     OW 5521   3.710   3.251   5.009
 1541SOL    HW1 5522   3.795   3.241   4.958
 1541SOL    HW2 5523   3.645   3.181   4.980
 1542SOL     OW 5524   0.463   0.168   2.674
 1542SOL    HW1 5525   0.495   0.130   2.587
 1542SOL    HW2 5526   0.365   0.186   2.668
 1543SOL     OW 5527   2.923   4.586   0.286
 1543SOL    HW1 5528   2.972   4.621   0.366
 1543SOL    HW2 5529   2.901   4.662   0.225
 1544SOL     OW 5530   3.732   3.410   4.368
 1544SOL    HW1 5531   3.656   3.351   4.396
 1544SOL    HW2 5532   3.778   3.446   4.450
 1545SOL     OW 5533   5.909   6.158   1.970
 1545SOL    HW1 5534   5.831   6.155   2.032
 1545SOL    HW2 5535   5.980   6.095   2.002
 1546SOL     OW 5536   5.141   6.896   5.693
 1546SOL    HW1 5537   5.110   6.989   5.670
 1546SOL    HW2 5538   5.224   6.901   5.748
 1547SOL     OW 5539   1.773   3.435   6.611
 1547SOL    HW1 5540   1.766   3.514   6.671
 1547SOL    HW2 5541   1.820   3.461   6.526
 1548SOL     OW 5542   6.284   2.152   6.599
 1548SOL    HW1 5543   6.270   2.249   6.619
 1548SOL    HW2 5544   6.201   2.101   6.620
 1549SOL     OW 5545   4.464   0.440   4.994
 1549SOL    HW1 5546   4.556   0.426   5.031
 1549SOL    HW2 5547   4.470   0.456   4.895
 1550SOL     OW 5548   3.799   2.922   3.778
 1550SOL    HW1 5549   3.705   2.889   3.771
 1550SOL    HW2 5550   3.843   2.917   3.689
 1551SOL     OW 5551   6.527   4.694   5.825
 1551SOL    HW1 5552   6.590   4.717   5.900
 1551SOL    HW2 5553   6.445   4.651   5.863
 1552SOL     OW 5554   1.507   4.107   1.627
 1552SOL    HW1 5555   1.554   4.119   1.714
 1552SOL    HW2 5556   1.421   4.058   1.641
 1553SOL     OW 5557   1.210   1.597   5.675
 1553SOL    HW1 5558   1.296   1.627   5.635
 1553SOL    HW2 5559   1.134   1.626   5.616
 1554SOL     OW 5560   2.856   1.300   4.046
 1554SOL    HW1 5561   2.917   1.355   3.990
 1554SOL    HW2 5562   2.767   1.293   4.002
 1555SOL     OW 5563   6.668   4.101   5.962
 1555SOL    HW1 5564   6.726   4.046   6.023
 1555SOL    HW2 5565   6.725   4.148   5.895
 1556SOL     OW 5566   2.210   0.888   6.243
 1556SOL    HW1 5567   2.187   0.951   6.316
 1556SOL    HW2 5568   2.246   0.803   6.282
 1557SOL     OW 5569   0.040   2.800   6.807
 1557SOL    HW1 5570   0.002   2.727   6.865
 1557SOL    HW2 5571   0.092   2.759   6.733
 1558SOL     OW 5572   0.261   0.055   5.038
 1558SOL    HW1 5573   0.332   7.010   5.040
 1558SOL    HW2 5574   0.299   0.141   5.006
 1559SOL     OW 5575   1.228   1.921   6.301
 1559SOL    HW1 5576   1.160   1.875   6.358
 1559SOL    HW2 5577   1.236   1.874   6.213
 1560SOL     OW 5578   6.422   0.235   6.448
 1560SOL    HW1 5579   6.372   0.294   6.385
 1560SOL    HW2 5580   6.363   0.210   6.525
 1561SOL     OW 5581   5.762   5.705   2.804
 1561SOL    HW1 5582   5.696   5.732   2.874
 1561SOL    HW2 5583   5.848   5.680   2.848
 1562SOL     OW 5584   5.899   1.045   3.710
 1562SOL    HW1 5585   5.826   1.100   3.669
 1562SOL    HW2 5586   5.859   0.977   3.772
 1563SOL     OW 5587   4.118   6.848   5.049
 1563SOL    HW1 5588   4.122   6.936   5.097
 1563SOL    HW2 5589   4.076   6.861   4.959
 1564SOL     OW 5590   1.516   1.772   2.804
 1564SOL    HW1 5591   1.563   1.793   2.718
 1564SOL    HW2 5592   1.436   1.831   2.813
 1565SOL     OW 5593   5.291   4.246   2.030
 1565SOL    HW1 5594   5.389   4.266   2.032
 1565SOL    HW2 5595   5.241   4.325   1.995
 1566SOL     OW 5596   5.939   4.532   3.369
 1566SOL    HW1 5597   6.002   4.534   3.447
 1566SOL    HW2 5598   5.897   4.622   3.358
 1567SOL     OW 5599   6.510   5.802   5.314
 1567SOL    HW1 5600   6.536   5.736   5.385
 1567SOL    HW2 5601   6.412   5.820   5.319
 1568SOL     OW 5602   0.342   6.815   0.603
 1568SOL    HW1 5603   0.333   6.888   0.535
 1568SOL    HW2 5604   0.407   6.747   0.569
 1569SOL     OW 5605   3.822   6.205   5.020
 1569SOL    HW1 5606   3.852   6.230   4.928
 1569SOL    HW2 5607   3.730   6.166   5.016
 1570SOL     OW 5608   3.562   2.000   1.717
 1570SOL    HW1 5609   3.568   2.098   1.696
 1570SOL    HW2 5610   3.555   1.988   1.816
 1571SOL     OW 5611   6.761   4.499   1.529
 1571SOL    HW1 5612   6.841   4.557   1.545
 1571SOL    HW2 5613   6.682   4.556   1.506
 1572SOL     OW 5614   1.611   6.255   2.049
 1572SOL    HW1 5615   1.610   6.268   2.148
 1572SOL    HW2 5616   1.517   6.249   2.015
 1573SOL     OW 5617   3.912   0.218   1.243
 1573SOL    HW1 5618   4.008   0.244   1.251
 1573SOL    HW2 5619   3.858   0.298   1.220
 1574SOL     OW 5620   6.061   2.763   2.211
 1574SOL    HW1 5621   6.000   2.764   2.131
 1574SOL    HW2 5622   6.059   2.672   2.253
 1575SOL     OW 5623   2.865   2.694   0.655
 1575SOL    HW1 5624   2.860   2.680   0.754
 1575SOL    HW2 5625   2.845   2.790   0.634
 1576SOL     OW 5626   6.850   6.178   3.999
 1576SOL    HW1 5627   6.845   6.216   4.091
 1576SOL    HW2 5628   6.884   6.084   4.004
 1577SOL     OW 5629   1.528   0.570   0.058
 1577SOL    HW1 5630   1.552   0.574   0.155
 1577SOL    HW2 5631   1.587   0.633   0.007
 1578SOL     OW 5632   5.745   5.123   4.533
 1578SOL    HW1 5633   5.783   5.132   4.441
 1578SOL    HW2 5634   5.645   5.132   4.529
 1579SOL     OW 5635   1.000   0.177   3.818
 1579SOL    HW1 5636   1.035   0.116   3.747
 1579SOL    HW2 5637   0.909   0.210   3.792
 1580SOL     OW 5638   3.068   3.972   5.778
 1580SOL    HW1 5639   3.127   3.901   5.739
 1580SOL    HW2 5640   3.000   3.929   5.838
 1581SOL     OW 5641   6.709   3.960   4.310
 1581SOL    HW1 5642   6.707   3.937   4.213
 1581SOL    HW2 5643   6.648   3.900   4.361
 1582SOL     OW 5644   6.047   5.431   4.377
 1582SOL    HW1 5645   6.071   5.360   4.443
 1582SOL    HW2 5646   6.010   5.511   4.426
 1583SOL     OW 5647   1.843   2.467   3.293
 1583SOL    HW1 5648   1.860   2.563   3.272
 1583SOL    HW2 5649   1.881   2.409   3.221
 1584SOL     OW 5650   2.280   0.792   6.968
 1584SOL    HW1 5651   2.268   0.762   6.873
 1584SOL    HW2 5652   2.332   0.724   7.019
 1585SOL     OW 5653   6.014   2.133   5.465
 1585SOL    HW1 5654   5.994   2.047   5.419
 1585SOL    HW2 5655   5.930   2.171   5.502
 1586SOL     OW 5656   3.379   4.174   2.678
 1586SOL    HW1 5657   3.361   4.239   2.752
 1586SOL    HW2 5658   3.298   4.118   2.661
 1587SOL     OW 5659   2.486   6.376   6.812
 1587SOL    HW1 5660   2.585   6.390   6.819
 1587SOL    HW2 5661   2.446   6.371   6.903
 1588SOL     OW 5662   6.131   3.812   1.632
 1588SOL    HW1 5663   6.126   3.832   1.534
 1588SOL    HW2 5664   6.116   3.896   1.684
 1589SOL     OW 5665   5.407   4.036   3.906
 1589SOL    HW1 5666   5.420   3.944   3.943
 1589SOL    HW2 5667   5.313   4.065   3.922
 1590SOL     OW 5668   1.797   0.777   6.096
 1590SOL    HW1 5669   1.738   0.799   6.019
 1590SOL    HW2 5670   1.885   0.823   6.085
 1591SOL     OW 5671   0.439   4.197   1.642
 1591SOL    HW1 5672   0.341   4.180   1.649
 1591SOL    HW2 5673   0.469   4.257   1.716
 1592SOL     OW 5674   2.933   3.324   3.091
 1592SOL    HW1 5675   2.965   3.239   3.135
 1592SOL    HW2 5676   2.910   3.305   2.996
 1593SOL     OW 5677   0.723   5.484   5.597
 1593SOL    HW1 5678   0.807   5.461   5.548
 1593SOL    HW2 5679   0.675   5.400   5.621
 1594SOL     OW 5680   0.063   4.906   3.366
 1594SOL    HW1 5681   0.160   4.902   3.342
 1594SOL    HW2 5682   0.044   4.991   3.415
 1595SOL     OW 5683   0.324   4.872   6.261
 1595SOL    HW1 5684   0.244   4.928   6.238
 1595SOL    HW2 5685   0.302   4.776   6.248
 1596SOL     OW 5686   2.853   5.347   6.710
 1596SOL    HW1 5687   2.753   5.351   6.714
 1596SOL    HW2 5688   2.887   5.291   6.785
 1597SOL     OW 5689   2.431   6.870   1.123
 1597SOL    HW1 5690   2.375   6.789   1.106
 1597SOL    HW2 5691   2.426   6.931   1.043
 1598SOL     OW 5692   6.990   5.353   1.459
 1598SOL    HW1 5693   6.956   5.287   1.526
 1598SOL    HW2 5694   0.025   5.307   1.394
 1599SOL     OW 5695   3.471   5.142   6.869
 1599SOL    HW1 5696   3.517   5.080   6.933
 1599SOL    HW2 5697   3.472   5.235   6.907
 1600SOL     OW 5698   3.667   1.578   4.972
 1600SOL    HW1 5699   3.696   1.588   5.067
 1600SOL    HW2 5700   3.653   1.481   4.952
 1601SOL     OW 5701   1.220   4.773   4.449
 1601SOL    HW1 5702   1.127   4.809   4.439
 1601SOL    HW2 5703   1.230   4.731   4.539
 1602SOL     OW 5704   0.951   4.498   3.090
 1602SOL    HW1 5705   1.040   4.545   3.083
 1602SOL    HW2 5706   0.963   4.411   3.137
 1603SOL     OW 5707   6.383   6.684   1.320
 1603SOL    HW1 5708   6.372   6.775   1.279
 1603SOL    HW2 5709   6.362   6.614   1.252
 1604SOL     OW 5710   0.477   5.880   5.435
 1604SOL    HW1 5711   0.439   5.790   5.413
 1604SOL    HW2 5712   0.576   5.873   5.446
 1605SOL     OW 5713   4.916   6.176   2.950
 1605SOL    HW1 5714   4.945   6.272   2.948
 1605SOL    HW2 5715   4.932   6.134   2.861
 1606SOL     OW 5716   5.103   6.993   5.985
 1606SOL    HW1 5717   5.044   6.913   5.976
 1606SOL    HW2 5718   5.198   6.965   5.980
 1607SOL     OW 5719   4.173   2.215   0.839
 1607SOL    HW1 5720   4.197   2.133   0.892
 1607SOL    HW2 5721   4.257   2.256   0.803
 1608SOL     OW 5722   2.583   0.161   0.658
 1608SOL    HW1 5723   2.487   0.179   0.640
 1608SOL    HW2 5724   2.635   0.247   0.655
 1609SOL     OW 5725   4.730   1.677   5.099
 1609SOL    HW1 5726   4.693   1.584   5.095
 1609SOL    HW2 5727   4.658   1.743   5.079
 1610SOL     OW 5728   5.337   5.715   4.087
 1610SOL    HW1 5729   5.409   5.763   4.138
 1610SOL    HW2 5730   5.376   5.674   4.005
 1611SOL     OW 5731   2.869   3.712   0.697
 1611SOL    HW1 5732   2.955   3.664   0.682
 1611SOL    HW2 5733   2.853   3.723   0.795
 1612SOL     OW 5734   3.551   1.140   4.665
 1612SOL    HW1 5735   3.649   1.155   4.677
 1612SOL    HW2 5736   3.507   1.224   4.633
 1613SOL     OW 5737   1.621   5.968   0.479
 1613SOL    HW1 5738   1.529   6.006   0.470
 1613SOL    HW2 5739   1.652   5.934   0.390
 1614SOL     OW 5740   0.147   2.593   6.633
 1614SOL    HW1 5741   0.074   2.525   6.636
 1614SOL    HW2 5742   0.197   2.584   6.546
 1615SOL     OW 5743   6.417   4.853   6.383
 1615SOL    HW1 5744   6.448   4.869   6.289
 1615SOL    HW2 5745   6.402   4.941   6.428
 1616SOL     OW 5746   2.545   1.675   5.314
 1616SOL    HW1 5747   2.479   1.647   5.384
 1616SOL    HW2 5748   2.502   1.672   5.224
 1617SOL     OW 5749   4.843   0.379   4.068
 1617SOL    HW1 5750   4.826   0.406   3.974
 1617SOL    HW2 5751   4.929   0.328   4.075
 1618SOL     OW 5752   5.555   2.448   0.882
 1618SOL    HW1 5753   5.609   2.424   0.962
 1618SOL    HW2 5754   5.594   2.403   0.801
 1619SOL     OW 5755   1.783   3.116   4.390
 1619SOL    HW1 5756   1.791   3.127   4.490
 1619SOL    HW2 5757   1.710   3.175   4.356
 1620SOL     OW 5758   3.795   5.260   1.455
 1620SOL    HW1 5759   3.735   5.316   1.512
 1620SOL    HW2 5760   3.890   5.269   1.487
 1621SOL     OW 5761   1.870   1.164   1.190
 1621SOL    HW1 5762   1.869   1.177   1.289
 1621SOL    HW2 5763   1.834   1.074   1.167
 1622SOL     OW 5764   2.166   2.280   4.169
 1622SOL    HW1 5765   2.235   2.325   4.112
 1622SOL    HW2 5766   2.210   2.206   4.220
 1623SOL     OW 5767   2.676   2.048   5.174
 1623SOL    HW1 5768   2.698   1.983   5.247
 1623SOL    HW2 5769   2.761   2.088   5.139
 1624SOL     OW 5770   2.592   0.574   0.640
 1624SOL    HW1 5771   2.646   0.653   0.610
 1624SOL    HW2 5772   2.573   0.516   0.561
 1625SOL     OW 5773   6.848   5.307   1.893
 1625SOL    HW1 5774   6.769   5.320   1.952
 1625SOL    HW2 5775   6.886   5.396   1.868
 1626SOL     OW 5776   1.982   2.901   5.966
 1626SOL    HW1 5777   1.957   2.883   6.061
 1626SOL    HW2 5778   1.990   3.000   5.952
 1627SOL     OW 5779   5.093   3.182   3.559
 1627SOL    HW1 5780   5.034   3.247   3.510
 1627SOL    HW2 5781   5.063   3.174   3.654
 1628SOL     OW 5782   2.815   3.427   0.359
 1628SOL    HW1 5783   2.850   3.353   0.301
 1628SOL    HW2 5784   2.794   3.391   0.450
 1629SOL     OW 5785   4.552   2.041   3.475
 1629SOL    HW1 5786   4.505   2.129   3.472
 1629SOL    HW2 5787   4.528   1.989   3.393
 1630SOL     OW 5788   0.193   5.093   4.520
 1630SOL    HW1 5789   0.216   5.188   4.541
 1630SOL    HW2 5790   0.226   5.071   4.428
 1631SOL     OW 5791   0.293   6.581   5.728
 1631SOL    HW1 5792   0.383   6.590   5.771
 1631SOL    HW2 5793   0.263   6.486   5.734
 1632SOL     OW 5794   6.027   0.139   1.372
 1632SOL    HW1 5795   5.968   0.198   1.316
 1632SOL    HW2 5796   6.121   0.146   1.340
 1633SOL     OW 5797   5.382   2.733   3.556
 1633SOL    HW1 5798   5.404   2.820   3.512
 1633SOL    HW2 5799   5.283   2.724   3.564
 1634SOL     OW 5800   3.499   0.884   0.159
 1634SOL    HW1 5801   3.566   0.814   0.133
 1634SOL    HW2 5802   3.548   0.964   0.195
 1635SOL     OW 5803   0.636   5.335   3.325
 1635SOL    HW1 5804   0.732   5.362   3.323
 1635SOL    HW2 5805   0.610   5.298   3.235
 1636SOL     OW 5806   2.361   6.342   1.860
 1636SOL    HW1 5807   2.412   6.374   1.940
 1636SOL    HW2 5808   2.411   6.366   1.777
 1637SOL     OW 5809   0.003   3.570   2.450
 1637SOL    HW1 5810   0.033   3.495   2.510
 1637SOL    HW2 5811   0.007   3.540   2.355
 1638SOL     OW 5812   1.847   3.039   5.180
 1638SOL    HW1 5813   1.823   2.942   5.185
 1638SOL    HW2 5814   1.946   3.049   5.176
 1639SOL     OW 5815   4.590   4.824   2.785
 1639SOL    HW1 5816   4.610   4.837   2.687
 1639SOL    HW2 5817   4.499   4.861   2.805
 1640SOL     OW 5818   6.223   0.304   1.162
 1640SOL    HW1 5819   6.133   0.346   1.149
 1640SOL    HW2 5820   6.270   0.349   1.238
 1641SOL     OW 5821   6.296   2.722   5.825
 1641SOL    HW1 5822   6.342   2.729   5.913
 1641SOL    HW2 5823   6.364   2.724   5.752
 1642SOL     OW 5824   0.182   2.314   1.471
 1642SOL    HW1 5825   0.104   2.317   1.409
 1642SOL    HW2 5826   0.250   2.381   1.441
 1643SOL     OW 5827   3.676   0.628   5.979
 1643SOL    HW1 5828   3.655   0.697   6.049
 1643SOL    HW2 5829   3.765   0.586   5.999
 1644SOL     OW 5830   3.653   1.316   1.390
 1644SOL    HW1 5831   3.751   1.311   1.370
 1644SOL    HW2 5832   3.603   1.257   1.327
 1645SOL     OW 5833   2.086   6.534   5.797
 1645SOL    HW1 5834   2.088   6.631   5.775
 1645SOL    HW2 5835   2.150   6.485   5.738
 1646SOL     OW 5836   0.777   3.582   0.781
 1646SOL    HW1 5837   0.806   3.560   0.875
 1646SOL    HW2 5838   0.682   3.554   0.769
 1647SOL     OW 5839   5.971   2.498   3.446
 1647SOL    HW1 5840   5.964   2.445   3.530
 1647SOL    HW2 5841   5.881   2.503   3.403
 1648SOL     OW 5842   4.598   6.803   2.387
 1648SOL    HW1 5843   4.528   6.820   2.457
 1648SOL    HW2 5844   4.638   6.890   2.357
 1649SOL     OW 5845   3.325   0.277   3.091
 1649SOL    HW1 5846   3.366   0.359   3.129
 1649SOL    HW2 5847   3.394   0.224   3.042
 1650SOL     OW 5848   3.234   6.541   3.963
 1650SOL    HW1 5849   3.269   6.584   4.045
 1650SOL    HW2 5850   3.248   6.602   3.885
 1651SOL     OW 5851   1.328   6.604   0.885
 1651SOL    HW1 5852   1.281   6.576   0.801
 1651SOL    HW2 5853   1.349   6.702   0.879
 1652SOL     OW 5854   2.705   2.901   1.477
 1652SOL    HW1 5855   2.650   2.828   1.517
 1652SOL    HW2 5856   2.647   2.959   1.420
 1653SOL     OW 5857   1.281   5.071   0.638
 1653SOL    HW1 5858   1.195   5.109   0.673
 1653SOL    HW2 5859   1.284   4.973   0.659
 1654SOL     OW 5860   0.467   2.506   3.433
 1654SOL    HW1 5861   0.478   2.480   3.529
 1654SOL    HW2 5862   0.557   2.512   3.390
 1655SOL     OW 5863   5.168   4.711   5.869
 1655SOL    HW1 5864   5.095   4.743   5.930
 1655SOL    HW2 5865   5.257   4.735   5.909
 1656SOL     OW 5866   0.723   4.118   3.455
 1656SOL    HW1 5867   0.715   4.049   3.383
 1656SOL    HW2 5868   0.676   4.201   3.427
 1657SOL     OW 5869   1.105   0.168   5.387
 1657SOL    HW1 5870   1.059   0.243   5.339
 1657SOL    HW2 5871   1.204   0.179   5.380
 1658SOL     OW 5872   6.407   6.006   2.790
 1658SOL    HW1 5873   6.326   6.056   2.818
 1658SOL    HW2 5874   6.421   6.018   2.692
 1659SOL     OW 5875   4.523   2.310   5.623
 1659SOL    HW1 5876   4.586   2.345   5.554
 1659SOL    HW2 5877   4.430   2.344   5.604
 1660SOL     OW 5878   1.682   5.573   3.350
 1660SOL    HW1 5879   1.610   5.561   3.281
 1660SOL    HW2 5880   1.653   5.642   3.417
 1661SOL     OW 5881   3.066   6.949   2.554
 1661SOL    HW1 5882   3.147   6.951   2.495
 1661SOL    HW2 5883   3.058   6.860   2.597
 1662SOL     OW 5884   0.780   0.216   3.484
 1662SOL    HW1 5885   0.769   0.215   3.583
 1662SOL    HW2 5886   0.762   0.125   3.447
 1663SOL     OW 5887   2.816   6.859   3.534
 1663SOL    HW1 5888   2.818   6.774   3.586
 1663SOL    HW2 5889   2.881   6.854   3.459
 1664SOL     OW 5890   2.571   5.706   4.460
 1664SOL    HW1 5891   2.485   5.723   4.509
 1664SOL    HW2 5892   2.551   5.652   4.377
 1665SOL     OW 5893   0.802   6.555   4.992
 1665SOL    HW1 5894   0.851   6.498   4.926
 1665SOL    HW2 5895   0.862   6.576   5.069
 1666SOL     OW 5896   5.676   3.011   6.053
 1666SOL    HW1 5897   5.609   2.937   6.053
 1666SOL    HW2 5898   5.631   3.097   6.077
 1667SOL     OW 5899   6.817   0.643   6.115
 1667SOL    HW1 5900   6.832   0.558   6.066
 1667SOL    HW2 5901   6.881   0.713   6.083
 1668SOL     OW 5902   3.280   1.223   5.343
 1668SOL    HW1 5903   3.206   1.161   5.317
 1668SOL    HW2 5904   3.334   1.181   5.416
 1669SOL     OW 5905   5.575   6.685   6.281
 1669SOL    HW1 5906   5.567   6.785   6.279
 1669SOL    HW2 5907   5.551   6.648   6.191
 1670SOL     OW 5908   5.566   3.765   5.806
 1670SOL    HW1 5909   5.479   3.810   5.789
 1670SOL    HW2 5910   5.558   3.667   5.786
 1671SOL     OW 5911   5.388   4.615   6.856
 1671SOL    HW1 5912   5.350   4.707   6.857
 1671SOL    HW2 5913   5.314   4.548   6.861
 1672SOL     OW 5914   2.182   5.186   2.900
 1672SOL    HW1 5915   2.086   5.198   2.925
 1672SOL    HW2 5916   2.192   5.105   2.842
 1673SOL     OW 5917   6.654   1.886   3.691
 1673SOL    HW1 5918   6.709   1.920   3.768
 1673SOL    HW2 5919   6.599   1.961   3.654
 1674SOL     OW 5920   1.108   5.250   6.461
 1674SOL    HW1 5921   1.114   5.171   6.400
 1674SOL    HW2 5922   1.126   5.221   6.555
 1675SOL     OW 5923   4.833   2.674   6.935
 1675SOL    HW1 5924   4.856   2.757   6.987
 1675SOL    HW2 5925   4.792   2.607   6.997
 1676SOL     OW 5926   2.517   1.161   3.444
 1676SOL    HW1 5927   2.452   1.085   3.445
 1676SOL    HW2 5928   2.500   1.218   3.363
 1677SOL     OW 5929   6.525   0.711   5.287
 1677SOL    HW1 5930   6.583   0.769   5.345
 1677SOL    HW2 5931   6.560   0.617   5.288
 1678SOL     OW 5932   5.171   6.867   0.867
 1678SOL    HW1 5933   5.104   6.810   0.914
 1678SOL    HW2 5934   5.234   6.809   0.815
 1679SOL     OW 5935   6.366   4.212   0.438
 1679SOL    HW1 5936   6.356   4.123   0.483
 1679SOL    HW2 5937   6.276   4.251   0.422
 1680SOL     OW 5938   1.050   1.995   4.823
 1680SOL    HW1 5939   1.047   1.898   4.802
 1680SOL    HW2 5940   1.144   2.028   4.814
 1681SOL     OW 5941   6.078   5.224   1.361
 1681SOL    HW1 5942   6.037   5.211   1.270
 1681SOL    HW2 5943   6.036   5.304   1.405
 1682SOL     OW 5944   6.401   3.452   5.838
 1682SOL    HW1 5945   6.446   3.516   5.775
 1682SOL    HW2 5946   6.400   3.491   5.930
 1683SOL     OW 5947   6.019   5.872   7.012
 1683SOL    HW1 5948   6.000   5.882   6.914
 1683SOL    HW2 5949   5.968   5.795   0.023
 1684SOL     OW 5950   0.577   5.678   4.536
 1684SOL    HW1 5951   0.589   5.664   4.438
 1684SOL    HW2 5952   0.576   5.776   4.556
 1685SOL     OW 5953   1.412   1.866   0.021
 1685SOL    HW1 5954   1.422   1.948   6.989
 1685SOL    HW2 5955   1.409   1.785   6.988
 1686SOL     OW 5956   1.902   5.891   6.494
 1686SOL    HW1 5957   1.885   5.946   6.576
 1686SOL    HW2 5958   1.985   5.924   6.449
 1687SOL     OW 5959   1.454   6.881   1.684
 1687SOL    HW1 5960   1.417   6.883   1.591
 1687SOL    HW2 5961   1.503   6.796   1.699
 1688SOL     OW 5962   0.430   1.705   3.573
 1688SOL    HW1 5963   0.360   1.773   3.595
 1688SOL    HW2 5964   0.453   1.712   3.476
 1689SOL     OW 5965   3.246   1.294   2.898
 1689SOL    HW1 5966   3.151   1.267   2.883
 1689SOL    HW2 5967   3.300   1.273   2.817
 1690SOL     OW 5968   0.281   2.122   1.015
 1690SOL    HW1 5969   0.189   2.089   1.036
 1690SOL    HW2 5970   0.282   2.222   1.021
 1691SOL     OW 5971   4.674   4.817   2.428
 1691SOL    HW1 5972   4.672   4.717   2.432
 1691SOL    HW2 5973   4.582   4.853   2.438
 1692SOL     OW 5974   1.539   0.532   3.679
 1692SOL    HW1 5975   1.523   0.630   3.667
 1692SOL    HW2 5976   1.549   0.512   3.776
 1693SOL     OW 5977   2.854   2.174   3.788
 1693SOL    HW1 5978   2.783   2.242   3.807
 1693SOL    HW2 5979   2.889   2.188   3.696
 1694SOL     OW 5980   4.480   6.040   6.015
 1694SOL    HW1 5981   4.461   6.138   6.028
 1694SOL    HW2 5982   4.579   6.024   6.023
 1695SOL     OW 5983   2.594   1.937   6.055
 1695SOL    HW1 5984   2.567   2.011   5.993
 1695SOL    HW2 5985   2.694   1.931   6.057
 1696SOL     OW 5986   3.332   5.687   1.299
 1696SOL    HW1 5987   3.256   5.726   1.352
 1696SOL    HW2 5988   3.375   5.758   1.244
 1697SOL     OW 5989   1.315   1.306   1.559
 1697SOL    HW1 5990   1.216   1.319   1.546
 1697SOL    HW2 5991   1.330   1.225   1.616
 1698SOL     OW 5992   5.253   2.306   0.871
 1698SOL    HW1 5993   5.344   2.334   0.839
 1698SOL    HW2 5994   5.184   2.339   0.807
 1699SOL     OW 5995   2.236   4.062   1.173
 1699SOL    HW1 5996   2.211   3.966   1.164
 1699SOL    HW2 5997   2.313   4.071   1.237
 1700SOL     OW 5998   6.326   3.155   4.602
 1700SOL    HW1 5999   6.391   3.210   4.654
 1700SOL    HW2 6000   6.364   3.064   4.587
 1701SOL     OW 6001   5.992   3.537   4.561
 1701SOL    HW1 6002   5.983   3.486   4.475
 1701SOL    HW2 6003   6.014   3.632   4.541
 1702SOL     OW 6004   4.647   2.583   1.572
 1702SOL    HW1 6005   4.696   2.622   1.494
 1702SOL    HW2 6006   4.588   2.654   1.613
 1703SOL     OW 6007   2.017   4.385   0.295
 1703SOL    HW1 6008   2.052   4.337   0.375
 1703SOL    HW2 6009   1.921   4.362   0.280
 1704SOL     OW 6010   0.983   1.071   1.958
 1704SOL    HW1 6011   0.967   1.006   1.884
 1704SOL    HW2 6012   0.936   1.040   2.041
 1705SOL     OW 6013   3.785   3.276   2.128
 1705SOL    HW1 6014   3.746   3.361   2.091
 1705SOL    HW2 6015   3.711   3.214   2.154
 1706SOL     OW 6016   2.656   0.656   6.760
 1706SOL    HW1 6017   2.681   0.714   6.837
 1706SOL    HW2 6018   2.630   0.713   6.682
 1707SOL     OW 6019   6.273   1.669   2.827
 1707SOL    HW1 6020   6.265   1.592   2.891
 1707SOL    HW2 6021   6.366   1.672   2.791
 1708SOL     OW 6022   0.359   4.776   2.311
 1708SOL    HW1 6023   0.293   4.848   2.290
 1708SOL    HW2 6024   0.452   4.811   2.297
 1709SOL     OW 6025   3.741   5.846   4.153
 1709SOL    HW1 6026   3.664   5.907   4.132
 1709SOL    HW2 6027   3.707   5.760   4.190
 1710SOL     OW 6028   0.129   5.768   4.048
 1710SOL    HW1 6029   0.077   5.839   3.999
 1710SOL    HW2 6030   0.156   5.697   3.983
 1711SOL     OW 6031   1.707   4.554   5.610
 1711SOL    HW1 6032   1.618   4.531   5.572
 1711SOL    HW2 6033   1.738   4.641   5.573
 1712SOL     OW 6034   1.396   4.596   1.024
 1712SOL    HW1 6035   1.327   4.593   0.951
 1712SOL    HW2 6036   1.421   4.692   1.041
 1713SOL     OW 6037   1.555   3.377   0.316
 1713SOL    HW1 6038   1.524   3.293   0.360
 1713SOL    HW2 6039   1.476   3.424   0.276
 1714SOL     OW 6040   3.479   1.581   0.370
 1714SOL    HW1 6041   3.491   1.644   0.293
 1714SOL    HW2 6042   3.383   1.579   0.397
 1715SOL     OW 6043   0.561   3.229   3.967
 1715SOL    HW1 6044   0.587   3.145   3.920
 1715SOL    HW2 6045   0.461   3.235   3.971
 1716SOL     OW 6046   0.101   6.497   0.442
 1716SOL    HW1 6047   0.081   6.541   0.354
 1716SOL    HW2 6048   0.198   6.509   0.464
 1717SOL     OW 6049   3.527   0.350   0.123
 1717SOL    HW1 6050   3.591   0.400   0.183
 1717SOL    HW2 6051   3.436   0.352   0.163
 1718SOL     OW 6052   1.089   4.927   5.271
 1718SOL    HW1 6053   0.997   4.963   5.285
 1718SOL    HW2 6054   1.095   4.886   5.180
 1719SOL     OW 6055   2.410   3.597   1.375
 1719SOL    HW1 6056   2.452   3.507   1.372
 1719SOL    HW2 6057   2.312   3.588   1.390
 1720SOL     OW 6058   6.726   1.581   1.511
 1720SOL    HW1 6059   6.631   1.583   1.543
 1720SOL    HW2 6060   6.783   1.533   1.578
 1721SOL     OW 6061   2.085   6.183   3.569
 1721SOL    HW1 6062   2.027   6.262   3.593
 1721SOL    HW2 6063   2.082   6.116   3.643
 1722SOL     OW 6064   5.650   6.771   2.354
 1722SOL    HW1 6065   5.553   6.789   2.339
 1722SOL    HW2 6066   5.695   6.756   2.266
 1723SOL     OW 6067   6.302   1.282   2.039
 1723SOL    HW1 6068   6.379   1.235   1.997
 1723SOL    HW2 6069   6.258   1.342   1.970
 1724SOL     OW 6070   4.905   0.234   7.021
 1724SOL    HW1 6071   4.944   0.258   0.084
 1724SOL    HW2 6072   4.978   0.232   6.952
 1725SOL     OW 6073   4.113   5.288   1.897
 1725SOL    HW1 6074   4.210   5.293   1.874
 1725SOL    HW2 6075   4.101   5.307   1.995
 1726SOL     OW 6076   0.530   4.996   4.477
 1726SOL    HW1 6077   0.509   4.924   4.543
 1726SOL    HW2 6078   0.554   5.080   4.525
 1727SOL     OW 6079   3.344   3.286   5.169
 1727SOL    HW1 6080   3.430   3.264   5.216
 1727SOL    HW2 6081   3.268   3.281   5.234
 1728SOL     OW 6082   4.750   4.210   3.603
 1728SOL    HW1 6083   4.785   4.203   3.510
 1728SOL    HW2 6084   4.710   4.122   3.630
 1729SOL     OW 6085   1.921   3.345   2.681
 1729SOL    HW1 6086   1.828   3.315   2.658
 1729SOL    HW2 6087   1.986   3.302   2.619
 1730SOL     OW 6088   5.904   2.069   4.677
 1730SOL    HW1 6089   5.870   1.988   4.723
 1730SOL    HW2 6090   5.990   2.098   4.718
 1731SOL     OW 6091   1.107   5.516   0.113
 1731SOL    HW1 6092   1.106   5.480   0.206
 1731SOL    HW2 6093   1.105   5.439   0.048
 1732SOL     OW 6094   0.462   4.854   0.078
 1732SOL    HW1 6095   0.473   4.936   0.135
 1732SOL    HW2 6096   0.549   4.805   0.072
 1733SOL     OW 6097   1.411   4.070   0.718
 1733SOL    HW1 6098   1.314   4.045   0.709
 1733SOL    HW2 6099   1.466   3.987   0.726
 1734SOL     OW 6100   4.837   3.137   0.973
 1734SOL    HW1 6101   4.933   3.112   0.963
 1734SOL    HW2 6102   4.809   3.194   0.895
 1735SOL     OW 6103   5.850   5.476   1.700
 1735SOL    HW1 6104   5.910   5.473   1.780
 1735SOL    HW2 6105   5.760   5.441   1.724
 1736SOL     OW 6106   3.223   3.726   0.624
 1736SOL    HW1 6107   3.249   3.757   0.532
 1736SOL    HW2 6108   3.165   3.645   0.616
 1737SOL     OW 6109   1.433   5.895   3.859
 1737SOL    HW1 6110   1.423   5.913   3.761
 1737SOL    HW2 6111   1.397   5.804   3.880
 1738SOL     OW 6112   1.187   2.096   1.612
 1738SOL    HW1 6113   1.266   2.083   1.551
 1738SOL    HW2 6114   1.121   2.023   1.596
 1739SOL     OW 6115   3.989   2.189   5.617
 1739SOL    HW1 6116   3.981   2.264   5.551
 1739SOL    HW2 6117   4.059   2.212   5.685
 1740SOL     OW 6118   0.999   1.053   5.932
 1740SOL    HW1 6119   0.905   1.085   5.941
 1740SOL    HW2 6120   1.031   1.070   5.838
 1741SOL     OW 6121   1.784   0.575   2.317
 1741SOL    HW1 6122   1.686   0.569   2.338
 1741SOL    HW2 6123   1.797   0.621   2.230
 1742SOL     OW 6124   6.010   0.063   4.338
 1742SOL    HW1 6125   5.952   0.048   4.418
 1742SOL    HW2 6126   5.953   0.092   4.261
 1743SOL     OW 6127   4.854   1.014   0.529
 1743SOL    HW1 6128   4.926   1.072   0.491
 1743SOL    HW2 6129   4.793   0.984   0.456
 1744SOL     OW 6130   3.056   0.876   1.580
 1744SOL    HW1 6131   2.984   0.865   1.649
 1744SOL    HW2 6132   3.094   0.786   1.557
 1745SOL     OW 6133   0.057   2.906   4.351
 1745SOL    HW1 6134   0.067   2.996   4.395
 1745SOL    HW2 6135   0.146   2.862   4.343
 1746SOL     OW 6136   2.880   0.451   6.111
 1746SOL    HW1 6137   2.816   0.528   6.107
 1746SOL    HW2 6138   2.873   0.398   6.027
 1747SOL     OW 6139   4.657   0.745   0.079
 1747SOL    HW1 6140   4.571   0.703   0.049
 1747SOL    HW2 6141   4.733   0.702   0.030
 1748SOL     OW 6142   6.175   1.757   1.637
 1748SOL    HW1 6143   6.195   1.676   1.581
 1748SOL    HW2 6144   6.145   1.832   1.578
 1749SOL     OW 6145   4.511   0.016   6.244
 1749SOL    HW1 6146   4.544   0.090   6.186
 1749SOL    HW2 6147   4.455   6.978   6.191
 1750SOL     OW 6148   5.304   0.605   3.481
 1750SOL    HW1 6149   5.373   0.657   3.530
 1750SOL    HW2 6150   5.224   0.592   3.539
 1751SOL     OW 6151   2.047   5.784   3.916
 1751SOL    HW1 6152   2.135   5.830   3.923
 1751SOL    HW2 6153   2.053   5.693   3.959
 1752SOL     OW 6154   6.703   2.276   0.351
 1752SOL    HW1 6155   6.711   2.373   0.329
 1752SOL    HW2 6156   6.608   2.254   0.372
 1753SOL     OW 6157   2.668   0.042   2.181
 1753SOL    HW1 6158   2.713   0.024   2.268
 1753SOL    HW2 6159   2.695   6.997   2.115
 1754SOL     OW 6160   3.762   2.676   1.025
 1754SOL    HW1 6161   3.734   2.682   1.121
 1754SOL    HW2 6162   3.768   2.581   0.997
 1755SOL     OW 6163   4.922   3.523   0.145
 1755SOL    HW1 6164   5.021   3.538   0.137
 1755SOL    HW2 6165   4.903   3.470   0.228
 1756SOL     OW 6166   5.920   5.542   4.602
 1756SOL    HW1 6167   5.823   5.551   4.626
 1756SOL    HW2 6168   5.970   5.502   4.679
 1757SOL     OW 6169   3.480   6.915   4.913
 1757SOL    HW1 6170   3.396   6.936   4.962
 1757SOL    HW2 6171   3.514   6.825   4.942
 1758SOL     OW 6172   2.775   1.316   3.350
 1758SOL    HW1 6173   2.758   1.396   3.407
 1758SOL    HW2 6174   2.798   1.238   3.408
 1759SOL     OW 6175   0.275   5.538   6.506
 1759SOL    HW1 6176   0.240   5.514   6.416
 1759SOL    HW2 6177   0.347   5.607   6.497
 1760SOL     OW 6178   5.743   0.550   2.157
 1760SOL    HW1 6179   5.839   0.574   2.156
 1760SOL    HW2 6180   5.691   0.620   2.206
 1761SOL     OW 6181   6.360   2.773   1.028
 1761SOL    HW1 6182   6.326   2.681   1.051
 1761SOL    HW2 6183   6.283   2.837   1.029
 1762SOL     OW 6184   5.840   2.057   6.969
 1762SOL    HW1 6185   5.879   1.972   7.004
 1762SOL    HW2 6186   5.857   2.130   0.011
 1763SOL     OW 6187   2.076   3.875   3.467
 1763SOL    HW1 6188   1.979   3.870   3.491
 1763SOL    HW2 6189   2.131   3.882   3.550
 1764SOL     OW 6190   6.520   3.020   4.245
 1764SOL    HW1 6191   6.439   2.965   4.226
 1764SOL    HW2 6192   6.571   2.979   4.321
 1765SOL     OW 6193   2.514   2.634   6.240
 1765SOL    HW1 6194   2.525   2.682   6.152
 1765SOL    HW2 6195   2.469   2.546   6.224
 1766SOL     OW 6196   5.858   3.280   5.431
 1766SOL    HW1 6197   5.865   3.186   5.396
 1766SOL    HW2 6198   5.766   3.295   5.468
 1767SOL     OW 6199   5.660   3.741   2.279
 1767SOL    HW1 6200   5.607   3.749   2.195
 1767SOL    HW2 6201   5.755   3.766   2.261
 1768SOL     OW 6202   5.669   6.267   3.914
 1768SOL    HW1 6203   5.728   6.216   3.977
 1768SOL    HW2 6204   5.608   6.327   3.966
 1769SOL     OW 6205   5.641   1.373   3.248
 1769SOL    HW1 6206   5.657   1.457   3.300
 1769SOL    HW2 6207   5.723   1.350   3.196
 1770SOL     OW 6208   2.680   5.420   5.098
 1770SOL    HW1 6209   2.586   5.393   5.074
 1770SOL    HW2 6210   2.712   5.366   5.175
 1771SOL     OW 6211   5.034   6.169   6.430
 1771SOL    HW1 6212   5.021   6.262   6.463
 1771SOL    HW2 6213   5.081   6.115   6.499
 1772SOL     OW 6214   3.608   6.373   2.610
 1772SOL    HW1 6215   3.526   6.362   2.554
 1772SOL    HW2 6216   3.629   6.288   2.657
 1773SOL     OW 6217   0.747   5.482   6.802
 1773SOL    HW1 6218   0.723   5.385   6.814
 1773SOL    HW2 6219   0.679   5.526   6.743
 1774SOL     OW 6220   3.489   5.293   2.040
 1774SOL    HW1 6221   3.475   5.194   2.038
 1774SOL    HW2 6222   3.400   5.339   2.032
 1775SOL     OW 6223   0.623   4.569   1.622
 1775SOL    HW1 6224   0.667   4.507   1.556
 1775SOL    HW2 6225   0.693   4.626   1.664
 1776SOL     OW 6226   3.220   5.571   5.115
 1776SOL    HW1 6227   3.291   5.632   5.148
 1776SOL    HW2 6228   3.133   5.594   5.159
 1777SOL     OW 6229   3.465   5.813   0.173
 1777SOL    HW1 6230   3.412   5.789   0.255
 1777SOL    HW2 6231   3.405   5.860   0.108
 1778SOL     OW 6232   5.954   3.667   5.594
 1778SOL    HW1 6233   5.994   3.716   5.671
 1778SOL    HW2 6234   5.972   3.569   5.603
 1779SOL     OW 6235   3.414   6.515   5.469
 1779SOL    HW1 6236   3.513   6.523   5.463
 1779SOL    HW2 6237   3.376   6.599   5.510
 1780SOL     OW 6238   3.277   3.455   6.440
 1780SOL    HW1 6239   3.341   3.497   6.377
 1780SOL    HW2 6240   3.185   3.489   6.423
 1781SOL     OW 6241   3.957   5.454   3.130
 1781SOL    HW1 6242   3.898   5.402   3.192
 1781SOL    HW2 6243   3.902   5.526   3.086
 1782SOL     OW 6244   3.557   1.521   3.920
 1782SOL    HW1 6245   3.573   1.608   3.874
 1782SOL    HW2 6246   3.644   1.482   3.950
 1783SOL     OW 6247   1.504   5.345   0.256
 1783SOL    HW1 6248   1.406   5.361   0.246
 1783SOL    HW2 6249   1.526   5.250   0.232
 1784SOL     OW 6250   3.449   6.504   5.204
 1784SOL    HW1 6251   3.418   6.528   5.296
 1784SOL    HW2 6252   3.445   6.405   5.192
 1785SOL     OW 6253   6.373   4.623   2.911
 1785SOL    HW1 6254   6.465   4.657   2.931
 1785SOL    HW2 6255   6.353   4.546   2.970
 1786SOL     OW 6256   3.253   2.660   1.334
 1786SOL    HW1 6257   3.224   2.750   1.303
 1786SOL    HW2 6258   3.353   2.658   1.342
 1787SOL     OW 6259   3.524   0.325   6.147
 1787SOL    HW1 6260   3.609   0.295   6.104
 1787SOL    HW2 6261   3.512   0.278   6.234
 1788SOL     OW 6262   2.101   4.864   5.072
 1788SOL    HW1 6263   2.140   4.857   4.980
 1788SOL    HW2 6264   2.175   4.879   5.138
 1789SOL     OW 6265   6.192   1.308   6.990
 1789SOL    HW1 6266   6.096   1.329   6.973
 1789SOL    HW2 6267   6.240   1.298   6.903
 1790SOL     OW 6268   3.905   6.874   2.891
 1790SOL    HW1 6269   3.894   6.775   2.903
 1790SOL    HW2 6270   3.987   6.892   2.837
 1791SOL     OW 6271   0.534   0.037   2.457
 1791SOL    HW1 6272   0.453   0.040   2.398
 1791SOL    HW2 6273   0.613   0.073   2.407
 1792SOL     OW 6274   1.174   3.091   5.461
 1792SOL    HW1 6275   1.263   3.065   5.423
 1792SOL    HW2 6276   1.167   3.059   5.555
 1793SOL     OW 6277   0.618   0.615   3.487
 1793SOL    HW1 6278   0.680   0.559   3.543
 1793SOL    HW2 6279   0.641   0.603   3.391
 1794SOL     OW 6280   4.303   5.831   6.112
 1794SOL    HW1 6281   4.343   5.767   6.178
 1794SOL    HW2 6282   4.369   5.904   6.092
 1795SOL     OW 6283   0.818   3.195   0.581
 1795SOL    HW1 6284   0.885   3.121   0.574
 1795SOL    HW2 6285   0.750   3.186   0.508
 1796SOL     OW 6286   3.253   0.330   6.567
 1796SOL    HW1 6287   3.249   0.331   6.667
 1796SOL    HW2 6288   3.189   0.262   6.532
 1797SOL     OW 6289   0.864   0.102   0.978
 1797SOL    HW1 6290   0.810   0.127   1.059
 1797SOL    HW2 6291   0.819   0.138   0.896
 1798SOL     OW 6292   5.676   2.646   3.059
 1798SOL    HW1 6293   5.724   2.651   2.971
 1798SOL    HW2 6294   5.703   2.723   3.117
 1799SOL     OW 6295   1.565   1.693   6.480
 1799SOL    HW1 6296   1.475   1.736   6.480
 1799SOL    HW2 6297   1.556   1.596   6.460
 1800SOL     OW 6298   3.952   5.303   2.172
 1800SOL    HW1 6299   4.015   5.376   2.199
 1800SOL    HW2 6300   3.858   5.333   2.189
 1801SOL     OW 6301   6.060   6.738   0.831
 1801SOL    HW1 6302   6.060   6.815   0.768
 1801SOL    HW2 6303   6.152   6.723   0.867
 1802SOL     OW 6304   5.441   5.636   3.838
 1802SOL    HW1 6305   5.360   5.649   3.780
 1802SOL    HW2 6306   5.491   5.722   3.844
 1803SOL     OW 6307   6.284   5.255   1.140
 1803SOL    HW1 6308   6.359   5.318   1.122
 1803SOL    HW2 6309   6.289   5.222   1.234
 1804SOL     OW 6310   3.070   3.011   5.123
 1804SOL    HW1 6311   3.097   3.010   5.219
 1804SOL    HW2 6312   3.024   2.925   5.100
 1805SOL     OW 6313   4.846   3.400   6.897
 1805SOL    HW1 6314   4.826   3.456   6.977
 1805SOL    HW2 6315   4.944   3.402   6.878
 1806SOL     OW 6316   0.552   6.656   1.570
 1806SOL    HW1 6317   0.648   6.632   1.558
 1806SOL    HW2 6318   0.495   6.574   1.558
 1807SOL     OW 6319   5.969   1.034   5.335
 1807SOL    HW1 6320   5.885   0.983   5.317
 1807SOL    HW2 6321   5.977   1.052   5.433
 1808SOL     OW 6322   1.373   4.816   3.832
 1808SOL    HW1 6323   1.407   4.909   3.846
 1808SOL    HW2 6324   1.444   4.750   3.856
 1809SOL     OW 6325   3.580   6.836   6.351
 1809SOL    HW1 6326   3.598   6.860   6.256
 1809SOL    HW2 6327   3.624   6.749   6.372
 1810SOL     OW 6328   3.479   6.194   2.914
 1810SOL    HW1 6329   3.479   6.117   2.977
 1810SOL    HW2 6330   3.509   6.163   2.823
 1811SOL     OW 6331   5.990   5.206   3.408
 1811SOL    HW1 6332   6.011   5.300   3.432
 1811SOL    HW2 6333   6.039   5.144   3.469
 1812SOL     OW 6334   4.063   5.465   6.297
 1812SOL    HW1 6335   3.977   5.500   6.334
 1812SOL    HW2 6336   4.069   5.487   6.200
 1813SOL     OW 6337   6.139   4.715   5.944
 1813SOL    HW1 6338   6.086   4.670   5.872
 1813SOL    HW2 6339   6.146   4.654   6.023
 1814SOL     OW 6340   4.760   6.905   2.010
 1814SOL    HW1 6341   4.748   6.834   2.078
 1814SOL    HW2 6342   4.804   6.985   2.052
 1815SOL     OW 6343   0.521   0.778   3.182
 1815SOL    HW1 6344   0.614   0.745   3.192
 1815SOL    HW2 6345   0.505   0.854   3.245
 1816SOL     OW 6346   0.670   4.459   0.205
 1816SOL    HW1 6347   0.712   4.382   0.252
 1816SOL    HW2 6348   0.573   4.465   0.230
 1817SOL     OW 6349   2.209   5.882   2.076
 1817SOL    HW1 6350   2.114   5.875   2.047
 1817SOL    HW2 6351   2.256   5.951   2.021
 1818SOL     OW 6352   2.820   1.427   3.040
 1818SOL    HW1 6353   2.748   1.495   3.052
 1818SOL    HW2 6354   2.821   1.364   3.118
 1819SOL     OW 6355   1.699   4.511   2.066
 1819SOL    HW1 6356   1.759   4.553   1.998
 1819SOL    HW2 6357   1.754   4.458   2.131
 1820SOL     OW 6358   5.442   0.269   2.720
 1820SOL    HW1 6359   5.407   0.177   2.737
 1820SOL    HW2 6360   5.381   0.318   2.657
 1821SOL     OW 6361   2.857   2.262   2.995
 1821SOL    HW1 6362   2.835   2.175   2.950
 1821SOL    HW2 6363   2.783   2.327   2.980
 1822SOL     OW 6364   3.358   3.148   1.677
 1822SOL    HW1 6365   3.449   3.186   1.694
 1822SOL    HW2 6366   3.358   3.103   1.587
 1823SOL     OW 6367   4.093   6.795   2.279
 1823SOL    HW1 6368   4.032   6.735   2.332
 1823SOL    HW2 6369   4.179   6.748   2.261
 1824SOL     OW 6370   5.100   2.722   1.333
 1824SOL    HW1 6371   5.151   2.637   1.341
 1824SOL    HW2 6372   5.131   2.771   1.251
 1825SOL     OW 6373   1.445   0.467   1.334
 1825SOL    HW1 6374   1.391   0.549   1.314
 1825SOL    HW2 6375   1.533   0.473   1.287
 1826SOL     OW 6376   3.225   6.639   6.892
 1826SOL    HW1 6377   3.231   6.547   6.932
 1826SOL    HW2 6378   3.295   6.649   6.822
 1827SOL     OW 6379   6.253   6.678   1.537
 1827SOL    HW1 6380   6.312   6.680   1.457
 1827SOL    HW2 6381   6.276   6.754   1.598
 1828SOL     OW 6382   1.714   2.149   6.932
 1828SOL    HW1 6383   1.620   2.118   6.919
 1828SOL    HW2 6384   1.740   2.133   0.002
 1829SOL     OW 6385   6.001   5.445   1.490
 1829SOL    HW1 6386   6.077   5.479   1.545
 1829SOL    HW2 6387   5.918   5.442   1.546
 1830SOL     OW 6388   4.976   6.417   3.855
 1830SOL    HW1 6389   4.947   6.509   3.833
 1830SOL    HW2 6390   4.982   6.406   3.954
 1831SOL     OW 6391   5.015   0.496   2.652
 1831SOL    HW1 6392   5.113   0.487   2.632
 1831SOL    HW2 6393   5.003   0.542   2.740
 1832SOL     OW 6394   5.125   2.955   0.780
 1832SOL    HW1 6395   5.131   3.034   0.840
 1832SOL    HW2 6396   5.210   2.902   0.784
 1833SOL     OW 6397   5.751   1.746   5.576
 1833SOL    HW1 6398   5.835   1.705   5.612
 1833SOL    HW2 6399   5.753   1.742   5.476
 1834SOL     OW 6400   2.766   3.669   0.293
 1834SOL    HW1 6401   2.784   3.572   0.309
 1834SOL    HW2 6402   2.824   3.724   0.352
 1835SOL     OW 6403   1.467   4.571   0.123
 1835SOL    HW1 6404   1.562   4.601   0.112
 1835SOL    HW2 6405   1.454   4.533   0.215
 1836SOL     OW 6406   0.439   5.727   0.824
 1836SOL    HW1 6407   0.398   5.813   0.795
 1836SOL    HW2 6408   0.463   5.733   0.921
 1837SOL     OW 6409   1.172   2.671   4.886
 1837SOL    HW1 6410   1.220   2.746   4.931
 1837SOL    HW2 6411   1.223   2.641   4.805
 1838SOL     OW 6412   6.349   2.646   4.382
 1838SOL    HW1 6413   6.361   2.566   4.441
 1838SOL    HW2 6414   6.358   2.619   4.287
 1839SOL     OW 6415   7.023   2.046   6.019
 1839SOL    HW1 6416   0.055   2.060   5.937
 1839SOL    HW2 6417   6.942   2.104   6.013
 1840SOL     OW 6418   1.215   4.910   0.955
 1840SOL    HW1 6419   1.311   4.886   0.940
 1840SOL    HW2 6420   1.163   4.894   0.870
 1841SOL     OW 6421   1.706   2.682   3.699
 1841SOL    HW1 6422   1.768   2.617   3.655
 1841SOL    HW2 6423   1.705   2.665   3.798
 1842SOL     OW 6424   0.950   4.444   0.031
 1842SOL    HW1 6425   0.855   4.439   7.024
 1842SOL    HW2 6426   1.010   4.466   6.980
 1843SOL     OW 6427   2.964   1.756   4.645
 1843SOL    HW1 6428   2.992   1.802   4.561
 1843SOL    HW2 6429   3.040   1.757   4.710
 1844SOL     OW 6430   4.963   3.258   3.909
 1844SOL    HW1 6431   4.920   3.326   3.967
 1844SOL    HW2 6432   5.060   3.281   3.897
 1845SOL     OW 6433   4.198   0.502   0.028
 1845SOL    HW1 6434   4.108   0.469   7.025
 1845SOL    HW2 6435   4.214   0.480   0.124
 1846SOL     OW 6436   3.104   1.138   5.799
 1846SOL    HW1 6437   3.069   1.087   5.720
 1846SOL    HW2 6438   3.193   1.100   5.825
 1847SOL     OW 6439   0.696   7.012   0.354
 1847SOL    HW1 6440   0.660   0.028   0.437
 1847SOL    HW2 6441   0.796   7.018   0.353
 1848SOL     OW 6442   3.426   6.910   2.083
 1848SOL    HW1 6443   3.352   6.891   2.147
 1848SOL    HW2 6444   3.415   7.002   2.045
 1849SOL     OW 6445   2.448   1.301   6.542
 1849SOL    HW1 6446   2.351   1.282   6.528
 1849SOL    HW2 6447   2.488   1.231   6.601
 1850SOL     OW 6448   5.511   1.707   1.825
 1850SOL    HW1 6449   5.516   1.615   1.787
 1850SOL    HW2 6450   5.542   1.706   1.920
 1851SOL     OW 6451   6.770   2.863   2.763
 1851SOL    HW1 6452   6.858   2.887   2.721
 1851SOL    HW2 6453   6.733   2.782   2.718
 1852SOL     OW 6454   5.461   3.367   7.006
 1852SOL    HW1 6455   5.362   3.381   7.005
 1852SOL    HW2 6456   5.493   3.349   6.913
 1853SOL     OW 6457   1.829   4.795   0.594
 1853SOL    HW1 6458   1.829   4.817   0.496
 1853SOL    HW2 6459   1.891   4.858   0.642
 1854SOL     OW 6460   2.938   6.024   4.411
 1854SOL    HW1 6461   2.962   5.961   4.484
 1854SOL    HW2 6462   2.844   6.007   4.381
 1855SOL     OW 6463   5.030   4.756   1.881
 1855SOL    HW1 6464   5.002   4.741   1.976
 1855SOL    HW2 6465   5.101   4.826   1.879
 1856SOL     OW 6466   4.829   2.174   5.182
 1856SOL    HW1 6467   4.926   2.174   5.159
 1856SOL    HW2 6468   4.803   2.083   5.215
 1857SOL     OW 6469   5.085   1.072   2.962
 1857SOL    HW1 6470   5.123   0.988   3.000
 1857SOL    HW2 6471   5.127   1.151   3.006
 1858SOL     OW 6472   5.392   4.000   3.639
 1858SOL    HW1 6473   5.396   4.097   3.613
 1858SOL    HW2 6474   5.374   3.992   3.737
 1859SOL     OW 6475   5.160   1.493   2.703
 1859SOL    HW1 6476   5.224   1.564   2.733
 1859SOL    HW2 6477   5.103   1.465   2.780
 1860SOL     OW 6478   4.593   1.253   4.722
 1860SOL    HW1 6479   4.528   1.328   4.722
 1860SOL    HW2 6480   4.559   1.179   4.780
 1861SOL     OW 6481   5.706   6.633   2.786
 1861SOL    HW1 6482   5.678   6.552   2.735
 1861SOL    HW2 6483   5.730   6.607   2.879
 1862SOL     OW 6484   2.040   1.648   0.253
 1862SOL    HW1 6485   2.097   1.700   0.189
 1862SOL    HW2 6486   2.060   1.551   0.245
 1863SOL     OW 6487   2.712   3.267   1.741
 1863SOL    HW1 6488   2.804   3.276   1.779
 1863SOL    HW2 6489   2.679   3.173   1.756
 1864SOL     OW 6490   1.272   6.410   4.054
 1864SOL    HW1 6491   1.245   6.315   4.035
 1864SOL    HW2 6492   1.277   6.461   3.969
 1865SOL     OW 6493   4.439   2.164   6.460
 1865SOL    HW1 6494   4.375   2.092   6.489
 1865SOL    HW2 6495   4.410   2.200   6.371
 1866SOL     OW 6496   4.716   5.452   2.752
 1866SOL    HW1 6497   4.686   5.501   2.833
 1866SOL    HW2 6498   4.640   5.397   2.716
 1867SOL     OW 6499   1.019   4.197   6.793
 1867SOL    HW1 6500   0.944   4.170   6.852
 1867SOL    HW2 6501   1.100   4.217   6.848
 1868SOL     OW 6502   5.805   3.848   4.672
 1868SOL    HW1 6503   5.897   3.887   4.661
 1868SOL    HW2 6504   5.812   3.762   4.722
 1869SOL     OW 6505   6.157   1.015   5.089
 1869SOL    HW1 6506   6.121   1.015   5.182
 1869SOL    HW2 6507   6.081   1.011   5.024
 1870SOL     OW 6508   1.807   5.490   4.697
 1870SOL    HW1 6509   1.873   5.472   4.770
 1870SOL    HW2 6510   1.796   5.408   4.641
 1871SOL     OW 6511   1.256   0.249   0.605
 1871SOL    HW1 6512   1.281   0.240   0.509
 1871SOL    HW2 6513   1.326   0.205   0.661
 1872SOL     OW 6514   2.600   4.673   0.263
 1872SOL    HW1 6515   2.678   4.628   0.306
 1872SOL    HW2 6516   2.523   4.674   0.327
 1873SOL     OW 6517   4.893   1.881   0.209
 1873SOL    HW1 6518   4.939   1.847   0.128
 1873SOL    HW2 6519   4.952   1.869   0.289
 1874SOL     OW 6520   0.963   2.569   2.285
 1874SOL    HW1 6521   1.001   2.579   2.377
 1874SOL    HW2 6522   0.884   2.508   2.289
 1875SOL     OW 6523   0.481   6.924   0.198
 1875SOL    HW1 6524   0.488   6.825   0.188
 1875SOL    HW2 6525   0.559   6.958   0.250
 1876SOL     OW 6526   2.187   6.951   4.823
 1876SOL    HW1 6527   2.107   6.891   4.824
 1876SOL    HW2 6528   2.173   0.003   4.885
 1877SOL     OW 6529   0.866   6.857   3.510
 1877SOL    HW1 6530   0.881   6.923   3.436
 1877SOL    HW2 6531   0.771   6.861   3.539
 1878SOL     OW 6532   5.854   2.569   5.739
 1878SOL    HW1 6533   5.866   2.535   5.832
 1878SOL    HW2 6534   5.941   2.602   5.704
 1879SOL     OW 6535   1.323   4.098   5.068
 1879SOL    HW1 6536   1.423   4.096   5.073
 1879SOL    HW2 6537   1.289   4.009   5.037
 1880SOL     OW 6538   5.876   0.631   5.561
 1880SOL    HW1 6539   5.812   0.708   5.564
 1880SOL    HW2 6540   5.827   0.549   5.532
 1881SOL     OW 6541   6.753   2.288   7.009
 1881SOL    HW1 6542   6.710   2.355   0.045
 1881SOL    HW2 6543   6.714   2.198   0.002
 1882SOL     OW 6544   0.745   5.231   6.286
 1882SOL    HW1 6545   0.772   5.165   6.216
 1882SOL    HW2 6546   0.645   5.238   6.288
 1883SOL     OW 6547   6.922   1.816   4.166
 1883SOL    HW1 6548   6.856   1.742   4.176
 1883SOL    HW2 6549   6.983   1.798   4.089
 1884SOL     OW 6550   6.856   3.000   1.508
 1884SOL    HW1 6551   6.904   2.957   1.432
 1884SOL    HW2 6552   6.758   2.994   1.494
 1885SOL     OW 6553   2.183   1.798   4.267
 1885SOL    HW1 6554   2.215   1.703   4.257
 1885SOL    HW2 6555   2.162   1.816   4.363
 1886SOL     OW 6556   1.470   6.889   3.285
 1886SOL    HW1 6557   1.470   6.982   3.324
 1886SOL    HW2 6558   1.565   6.860   3.269
 1887SOL     OW 6559   2.127   6.326   5.989
 1887SOL    HW1 6560   2.120   6.419   5.952
 1887SOL    HW2 6561   2.106   6.260   5.916
 1888SOL     OW 6562   2.912   1.100   2.277
 1888SOL    HW1 6563   2.816   1.075   2.258
 1888SOL    HW2 6564   2.945   1.162   2.206
 1889SOL     OW 6565   0.313   3.069   3.430
 1889SOL    HW1 6566   0.297   2.971   3.420
 1889SOL    HW2 6567   0.343   3.108   3.343
 1890SOL     OW 6568   0.408   5.864   4.158
 1890SOL    HW1 6569   0.351   5.853   4.239
 1890SOL    HW2 6570   0.377   5.943   4.106
 1891SOL     OW 6571   3.579   3.353   3.266
 1891SOL    HW1 6572   3.647   3.425   3.274
 1891SOL    HW2 6573   3.594   3.284   3.337
 1892SOL     OW 6574   0.797   0.635   2.678
 1892SOL    HW1 6575   0.740   0.717   2.683
 1892SOL    HW2 6576   0.771   0.571   2.750
 1893SOL     OW 6577   3.649   2.934   4.575
 1893SOL    HW1 6578   3.701   2.912   4.493
 1893SOL    HW2 6579   3.712   2.947   4.652
 1894SOL     OW 6580   2.981   3.326   4.165
 1894SOL    HW1 6581   3.069   3.319   4.212
 1894SOL    HW2 6582   2.982   3.267   4.084
 1895SOL     OW 6583   1.881   5.868   6.853
 1895SOL    HW1 6584   1.970   5.913   6.853
 1895SOL    HW2 6585   1.893   5.770   6.835
 1896SOL     OW 6586   5.352   2.785   0.848
 1896SOL    HW1 6587   5.306   2.711   0.897
 1896SOL    HW2 6588   5.450   2.765   0.842
 1897SOL     OW 6589   1.781   4.368   4.161
 1897SOL    HW1 6590   1.858   4.323   4.117
 1897SOL    HW2 6591   1.774   4.337   4.256
 1898SOL     OW 6592   1.572   6.214   3.551
 1898SOL    HW1 6593   1.601   6.204   3.646
 1898SOL    HW2 6594   1.624   6.150   3.494
 1899SOL     OW 6595   0.470   0.393   2.450
 1899SOL    HW1 6596   0.459   0.444   2.535
 1899SOL    HW2 6597   0.431   0.301   2.461
 1900SOL     OW 6598   2.360   6.887   0.176
 1900SOL    HW1 6599   2.283   6.836   0.136
 1900SOL    HW2 6600   2.375   6.856   0.270
 1901SOL     OW 6601   3.017   3.719   1.245
 1901SOL    HW1 6602   3.098   3.772   1.274
 1901SOL    HW2 6603   2.949   3.781   1.207
 1902SOL     OW 6604   1.486   6.827   4.137
 1902SOL    HW1 6605   1.389   6.830   4.159
 1902SOL    HW2 6606   1.540   6.831   4.221
 1903SOL     OW 6607   0.776   2.481   4.347
 1903SOL    HW1 6608   0.846   2.548   4.371
 1903SOL    HW2 6609   0.729   2.451   4.429
 1904SOL     OW 6610   5.641   5.390   1.860
 1904SOL    HW1 6611   5.625   5.484   1.888
 1904SOL    HW2 6612   5.554   5.341   1.854
 1905SOL     OW 6613   0.177   0.979   3.968
 1905SOL    HW1 6614   0.143   0.949   3.879
 1905SOL    HW2 6615   0.220   1.069   3.959
 1906SOL     OW 6616   1.642   0.084   5.394
 1906SOL    HW1 6617   1.654   0.021   5.318
 1906SOL    HW2 6618   1.642   0.034   5.480
 1907SOL     OW 6619   5.701   2.565   0.417
 1907SOL    HW1 6620   5.609   2.599   0.434
 1907SOL    HW2 6621   5.749   2.628   0.355
 1908SOL     OW 6622   3.091   1.559   1.130
 1908SOL    HW1 6623   3.125   1.498   1.201
 1908SOL    HW2 6624   3.151   1.555   1.050
 1909SOL     OW 6625   6.700   5.092   4.885
 1909SOL    HW1 6626   6.635   5.114   4.812
 1909SOL    HW2 6627   6.744   5.005   4.865
 1910SOL     OW 6628   6.999   6.272   5.507
 1910SOL    HW1 6629   6.947   6.357   5.517
 1910SOL    HW2 6630   6.981   6.231   5.418
 1911SOL     OW 6631   0.079   5.370   4.189
 1911SOL    HW1 6632   0.177   5.359   4.204
 1911SOL    HW2 6633   0.061   5.377   4.091
 1912SOL     OW 6634   3.043   5.339   2.132
 1912SOL    HW1 6635   3.099   5.256   2.133
 1912SOL    HW2 6636   2.982   5.340   2.211
 1913SOL     OW 6637   3.550   4.183   6.530
 1913SOL    HW1 6638   3.636   4.179   6.479
 1913SOL    HW2 6639   3.475   4.148   6.472
 1914SOL     OW 6640   2.619   4.724   6.382
 1914SOL    HW1 6641   2.706   4.675   6.385
 1914SOL    HW2 6642   2.634   4.818   6.352
 1915SOL     OW 6643   4.294   2.467   5.515
 1915SOL    HW1 6644   4.230   2.485   5.589
 1915SOL    HW2 6645   4.362   2.541   5.511
 1916SOL     OW 6646   4.011   0.956   2.368
 1916SOL    HW1 6647   4.002   0.885   2.299
 1916SOL    HW2 6648   3.947   1.030   2.348
 1917SOL     OW 6649   2.437   4.084   1.348
 1917SOL    HW1 6650   2.382   4.074   1.431
 1917SOL    HW2 6651   2.477   4.176   1.346
 1918SOL     OW 6652   5.764   2.471   3.871
 1918SOL    HW1 6653   5.750   2.432   3.962
 1918SOL    HW2 6654   5.689   2.444   3.810
 1919SOL     OW 6655   6.710   2.560   0.289
 1919SOL    HW1 6656   6.767   2.615   0.351
 1919SOL    HW2 6657   6.621   2.603   0.278
 1920SOL     OW 6658   4.589   2.951   1.040
 1920SOL    HW1 6659   4.642   3.001   0.973
 1920SOL    HW2 6660   4.592   2.999   1.128
 1921SOL     OW 6661   2.106   2.805   6.774
 1921SOL    HW1 6662   2.045   2.877   6.806
 1921SOL    HW2 6663   2.201   2.836   6.782
 1922SOL     OW 6664   2.936   3.280   2.285
 1922SOL    HW1 6665   2.947   3.222   2.366
 1922SOL    HW2 6666   2.998   3.249   2.213
 1923SOL     OW 6667   3.672   0.842   4.719
 1923SOL    HW1 6668   3.584   0.889   4.732
 1923SOL    HW2 6669   3.675   0.762   4.779
 1924SOL     OW 6670   4.525   0.863   6.620
 1924SOL    HW1 6671   4.489   0.837   6.710
 1924SOL    HW2 6672   4.625   0.856   6.621
 1925SOL     OW 6673   1.678   3.586   0.891
 1925SOL    HW1 6674   1.719   3.657   0.833
 1925SOL    HW2 6675   1.705   3.496   0.857
 1926SOL     OW 6676   3.951   0.407   1.520
 1926SOL    HW1 6677   3.927   0.320   1.564
 1926SOL    HW2 6678   4.020   0.391   1.450
 1927SOL     OW 6679   2.203   5.286   1.427
 1927SOL    HW1 6680   2.258   5.216   1.471
 1927SOL    HW2 6681   2.111   5.286   1.467
 1928SOL     OW 6682   5.196   4.704   3.512
 1928SOL    HW1 6683   5.289   4.668   3.499
 1928SOL    HW2 6684   5.186   4.789   3.460
 1929SOL     OW 6685   3.209   0.161   2.885
 1929SOL    HW1 6686   3.226   0.218   2.965
 1929SOL    HW2 6687   3.118   0.182   2.848
 1930SOL     OW 6688   4.122   3.203   6.806
 1930SOL    HW1 6689   4.208   3.252   6.815
 1930SOL    HW2 6690   4.074   3.233   6.723
 1931SOL     OW 6691   6.611   1.982   4.613
 1931SOL    HW1 6692   6.603   1.891   4.654
 1931SOL    HW2 6693   6.672   2.038   4.669
 1932SOL     OW 6694   4.359   2.024   1.769
 1932SOL    HW1 6695   4.304   2.034   1.686
 1932SOL    HW2 6696   4.298   2.002   1.846
 1933SOL     OW 6697   0.943   0.765   1.470
 1933SOL    HW1 6698   0.989   0.853   1.482
 1933SOL    HW2 6699   0.943   0.740   1.373
 1934SOL     OW 6700   6.965   0.678   0.023
 1934SOL    HW1 6701   0.006   0.608   7.023
 1934SOL    HW2 6702   6.982   0.709   0.116
 1935SOL     OW 6703   6.753   5.196   4.009
 1935SOL    HW1 6704   6.769   5.128   4.081
 1935SOL    HW2 6705   6.795   5.283   4.036
 1936SOL     OW 6706   4.693   2.603   5.810
 1936SOL    HW1 6707   4.767   2.573   5.750
 1936SOL    HW2 6708   4.674   2.532   5.878
 1937SOL     OW 6709   5.961   5.046   6.616
 1937SOL    HW1 6710   5.866   5.077   6.621
 1937SOL    HW2 6711   6.016   5.096   6.683
 1938SOL     OW 6712   6.953   3.006   6.610
 1938SOL    HW1 6713   6.976   2.931   6.672
 1938SOL    HW2 6714   6.857   2.999   6.583
 1939SOL     OW 6715   1.382   0.502   4.679
 1939SOL    HW1 6716   1.288   0.528   4.702
 1939SOL    HW2 6717   1.398   0.407   4.707
 1940SOL     OW 6718   6.993   5.175   0.586
 1940SOL    HW1 6719   0.063   5.165   0.559
 1940SOL    HW2 6720   6.986   5.241   0.660
 1941SOL     OW 6721   5.094   1.766   4.384
 1941SOL    HW1 6722   5.088   1.681   4.436
 1941SOL    HW2 6723   5.017   1.826   4.407
 1942SOL     OW 6724   6.042   4.211   2.777
 1942SOL    HW1 6725   5.971   4.143   2.757
 1942SOL    HW2 6726   6.114   4.205   2.708
 1943SOL     OW 6727   0.965   2.333   2.617
 1943SOL    HW1 6728   0.985   2.431   2.620
 1943SOL    HW2 6729   0.877   2.316   2.660
 1944SOL     OW 6730   0.198   3.000   3.860
 1944SOL    HW1 6731   0.138   3.055   3.801
 1944SOL    HW2 6732   0.205   3.044   3.949
 1945SOL     OW 6733   4.567   1.436   1.660
 1945SOL    HW1 6734   4.504   1.502   1.700
 1945SOL    HW2 6735   4.548   1.345   1.696
 1946SOL     OW 6736   6.575   5.760   1.078
 1946SOL    HW1 6737   6.513   5.730   1.150
 1946SOL    HW2 6738   6.524   5.815   1.011
 1947SOL     OW 6739   6.382   4.775   3.362
 1947SOL    HW1 6740   6.417   4.866   3.340
 1947SOL    HW2 6741   6.282   4.776   3.357
 1948SOL     OW 6742   5.334   3.386   3.486
 1948SOL    HW1 6743   5.250   3.380   3.433
 1948SOL    HW2 6744   5.409   3.416   3.427
 1949SOL     OW 6745   3.185   5.088   6.804
 1949SOL    HW1 6746   3.105   5.085   6.864
 1949SOL    HW2 6747   3.266   5.110   6.857
 1950SOL     OW 6748   3.676   3.821   3.057
 1950SOL    HW1 6749   3.607   3.814   3.128
 1950SOL    HW2 6750   3.684   3.916   3.027
 1951SOL     OW 6751   5.731   5.028   5.347
 1951SOL    HW1 6752   5.750   4.933   5.323
 1951SOL    HW2 6753   5.666   5.031   5.422
 1952SOL     OW 6754   6.059   5.707   0.387
 1952SOL    HW1 6755   6.026   5.636   0.325
 1952SOL    HW2 6756   6.145   5.745   0.353
 1953SOL     OW 6757   0.486   1.338   6.944
 1953SOL    HW1 6758   0.401   1.370   6.902
 1953SOL    HW2 6759   0.498   1.240   6.927
 1954SOL     OW 6760   4.522   0.028   1.928
 1954SOL    HW1 6761   4.498   0.078   2.012
 1954SOL    HW2 6762   4.599   6.992   1.947
 1955SOL     OW 6763   6.746   2.030   4.110
 1955SOL    HW1 6764   6.775   2.044   4.015
 1955SOL    HW2 6765   6.801   1.957   4.151
 1956SOL     OW 6766   5.639   0.572   1.915
 1956SOL    HW1 6767   5.672   0.551   2.007
 1956SOL    HW2 6768   5.657   0.668   1.894
 1957SOL     OW 6769   6.106   2.220   4.465
 1957SOL    HW1 6770   6.143   2.169   4.387
 1957SOL    HW2 6771   6.023   2.174   4.497
 1958SOL     OW 6772   4.202   1.490   0.507
 1958SOL    HW1 6773   4.186   1.485   0.606
 1958SOL    HW2 6774   4.115   1.495   0.459
 1959SOL     OW 6775   1.057   1.749   5.180
 1959SOL    HW1 6776   1.073   1.847   5.178
 1959SOL    HW2 6777   1.132   1.701   5.134
 1960SOL     OW 6778   5.881   4.334   4.372
 1960SOL    HW1 6779   5.867   4.282   4.287
 1960SOL    HW2 6780   5.970   4.379   4.369
 1961SOL     OW 6781   0.153   3.736   3.963
 1961SOL    HW1 6782   0.088   3.811   3.977
 1961SOL    HW2 6783   0.234   3.771   3.916
 1962SOL     OW 6784   0.988   0.210   2.606
 1962SOL    HW1 6785   0.984   0.113   2.581
 1962SOL    HW2 6786   0.910   0.233   2.665
 1963SOL     OW 6787   0.353   2.416   0.003
 1963SOL    HW1 6788   0.338   2.405   0.101
 1963SOL    HW2 6789   0.271   2.453   6.986
 1964SOL     OW 6790   5.600   3.973   0.477
 1964SOL    HW1 6791   5.673   3.968   0.409
 1964SOL    HW2 6792   5.513   3.949   0.433
 1965SOL     OW 6793   6.320   4.091   3.785
 1965SOL    HW1 6794   6.243   4.151   3.769
 1965SOL    HW2 6795   6.404   4.135   3.754
 1966SOL     OW 6796   1.303   4.777   7.012
 1966SOL    HW1 6797   1.367   4.714   0.031
 1966SOL    HW2 6798   1.292   4.859   0.043
 1967SOL     OW 6799   6.126   3.279   4.467
 1967SOL    HW1 6800   6.055   3.208   4.468
 1967SOL    HW2 6801   6.210   3.241   4.505
 1968SOL     OW 6802   2.662   1.830   4.985
 1968SOL    HW1 6803   2.752   1.797   5.013
 1968SOL    HW2 6804   2.655   1.928   5.002
 1969SOL     OW 6805   1.696   6.171   0.889
 1969SOL    HW1 6806   1.631   6.243   0.869
 1969SOL    HW2 6807   1.656   6.082   0.866
 1970SOL     OW 6808   5.450   5.657   4.436
 1970SOL    HW1 6809   5.496   5.572   4.411
 1970SOL    HW2 6810   5.516   5.720   4.476
 1971SOL     OW 6811   1.574   5.471   5.293
 1971SOL    HW1 6812   1.621   5.558   5.305
 1971SOL    HW2 6813   1.590   5.412   5.372
 1972SOL     OW 6814   5.658   2.586   2.194
 1972SOL    HW1 6815   5.637   2.598   2.097
 1972SOL    HW2 6816   5.659   2.676   2.239
 1973SOL     OW 6817   2.789   2.682   1.227
 1973SOL    HW1 6818   2.835   2.669   1.315
 1973SOL    HW2 6819   2.704   2.629   1.226
 1974SOL     OW 6820   2.665   5.686   5.135
 1974SOL    HW1 6821   2.644   5.704   5.039
 1974SOL    HW2 6822   2.660   5.588   5.153
 1975SOL     OW 6823   2.032   2.704   3.632
 1975SOL    HW1 6824   2.031   2.736   3.727
 1975SOL    HW2 6825   1.985   2.617   3.625
 1976SOL     OW 6826   1.016   0.594   5.493
 1976SOL    HW1 6827   1.002   0.687   5.528
 1976SOL    HW2 6828   1.095   0.553   5.538
 1977SOL     OW 6829   1.651   4.264   6.269
 1977SOL    HW1 6830   1.676   4.175   6.230
 1977SOL    HW2 6831   1.681   4.337   6.208
 1978SOL     OW 6832   3.020   0.007   2.175
 1978SOL    HW1 6833   3.015   0.023   2.077
 1978SOL    HW2 6834   2.960   6.956   2.200
 1979SOL     OW 6835   6.328   4.363   6.175
 1979SOL    HW1 6836   6.401   4.400   6.231
 1979SOL    HW2 6837   6.366   4.307   6.102
 1980SOL     OW 6838   3.534   1.248   1.024
 1980SOL    HW1 6839   3.473   1.203   0.959
 1980SOL    HW2 6840   3.561   1.182   1.094
 1981SOL     OW 6841   3.585   1.963   2.665
 1981SOL    HW1 6842   3.491   1.993   2.686
 1981SOL    HW2 6843   3.637   2.040   2.629
 1982SOL     OW 6844   0.848   2.957   5.693
 1982SOL    HW1 6845   0.787   3.032   5.667
 1982SOL    HW2 6846   0.807   2.906   5.769
 1983SOL     OW 6847   0.478   0.816   2.451
 1983SOL    HW1 6848   0.434   0.904   2.470
 1983SOL    HW2 6849   0.519   0.781   2.535
 1984SOL     OW 6850   4.252   3.141   5.592
 1984SOL    HW1 6851   4.331   3.185   5.550
 1984SOL    HW2 6852   4.256   3.154   5.691
 1985SOL     OW 6853   6.228   2.748   2.954
 1985SOL    HW1 6854   6.292   2.672   2.948
 1985SOL    HW2 6855   6.248   2.802   3.036
 1986SOL     OW 6856   3.136   2.938   2.178
 1986SOL    HW1 6857   3.121   2.875   2.102
 1986SOL    HW2 6858   3.226   2.921   2.217
 1987SOL     OW 6859   2.450   1.275   1.014
 1987SOL    HW1 6860   2.373   1.324   0.974
 1987SOL    HW2 6861   2.467   1.310   1.106
 1988SOL     OW 6862   0.502   1.808   1.573
 1988SOL    HW1 6863   0.410   1.819   1.536
 1988SOL    HW2 6864   0.562   1.878   1.535
 1989SOL     OW 6865   2.944   4.815   4.756
 1989SOL    HW1 6866   2.935   4.766   4.843
 1989SOL    HW2 6867   2.896   4.764   4.684
 1990SOL     OW 6868   4.003   0.220   0.181
 1990SOL    HW1 6869   3.929   0.153   0.184
 1990SOL    HW2 6870   4.074   0.194   0.246
 1991SOL     OW 6871   2.804   5.718   1.578
 1991SOL    HW1 6872   2.770   5.761   1.495
 1991SOL    HW2 6873   2.729   5.707   1.643
 1992SOL     OW 6874   1.210   6.394   2.587
 1992SOL    HW1 6875   1.220   6.304   2.546
 1992SOL    HW2 6876   1.300   6.431   2.609
 1993SOL     OW 6877   2.130   2.147   3.093
 1993SOL    HW1 6878   2.037   2.161   3.059
 1993SOL    HW2 6879   2.176   2.235   3.103
 1994SOL     OW 6880   3.599   2.745   0.765
 1994SOL    HW1 6881   3.678   2.699   0.725
 1994SOL    HW2 6882   3.571   2.697   0.848
 1995SOL     OW 6883   5.237   1.360   3.885
 1995SOL    HW1 6884   5.219   1.459   3.884
 1995SOL    HW2 6885   5.289   1.335   3.803
 1996SOL     OW 6886   4.534   0.843   1.019
 1996SOL    HW1 6887   4.500   0.834   1.113
 1996SOL    HW2 6888   4.629   0.814   1.015
 1997SOL     OW 6889   3.862   1.066   4.376
 1997SOL    HW1 6890   3.776   1.110   4.349
 1997SOL    HW2 6891   3.930   1.077   4.304
 1998SOL     OW 6892   2.274   3.866   1.894
 1998SOL    HW1 6893   2.308   3.914   1.974
 1998SOL    HW2 6894   2.187   3.821   1.916
 1999SOL     OW 6895   0.961   0.109   0.405
 1999SOL    HW1 6896   1.013   0.023   0.403
 1999SOL    HW2 6897   1.004   0.172   0.470
 2000SOL     OW 6898   4.430   4.523   5.695
 2000SOL    HW1 6899   4.499   4.532   5.624
 2000SOL    HW2 6900   4.418   4.611   5.742
 2001SOL     OW 6901   2.388   2.251   1.314
 2001SOL    HW1 6902   2.434   2.192   1.380
 2001SOL    HW2 6903   2.316   2.200   1.267
 2002SOL     OW 6904   6.877   5.657   0.468
 2002SOL    HW1 6905   6.890   5.579   0.407
 2002SOL    HW2 6906   6.956   5.718   0.461
 2003SOL     OW 6907   5.871   5.243   2.586
 2003SOL    HW1 6908   5.821   5.329   2.597
 2003SOL    HW2 6909   5.955   5.246   2.641
 2004SOL     OW 6910   3.804   0.033   3.099
 2004SOL    HW1 6911   3.797   7.011   3.186
 2004SOL    HW2 6912   3.848   6.999   3.031
 2005SOL     OW 6913   1.700   6.229   0.241
 2005SOL    HW1 6914   1.730   6.233   0.336
 2005SOL    HW2 6915   1.699   6.321   0.202
 2006SOL     OW 6916   5.383   6.571   2.175
 2006SOL    HW1 6917   5.336   6.502   2.230
 2006SOL    HW2 6918   5.395   6.654   2.228
 2007SOL     OW 6919   5.061   4.609   6.813
 2007SOL    HW1 6920   4.965   4.601   6.839
 2007SOL    HW2 6921   5.067   4.647   6.720
 2008SOL     OW 6922   2.174   3.255   3.299
 2008SOL    HW1 6923   2.129   3.338   3.330
 2008SOL    HW2 6924   2.130   3.223   3.215
 2009SOL     OW 6925   6.416   6.969   2.612
 2009SOL    HW1 6926   6.374   6.955   2.701
 2009SOL    HW2 6927   6.512   6.941   2.617
 2010SOL     OW 6928   6.931   1.909   1.841
 2010SOL    HW1 6929   6.850   1.859   1.812
 2010SOL    HW2 6930   7.012   1.869   1.799
 2011SOL     OW 6931   1.135   6.919   4.873
 2011SOL    HW1 6932   1.047   6.920   4.919
 2011SOL    HW2 6933   1.122   6.944   4.777
 2012SOL     OW 6934   1.035   2.924   1.456
 2012SOL    HW1 6935   0.945   2.928   1.500
 2012SOL    HW2 6936   1.086   3.006   1.478
 2013SOL     OW 6937   0.530   2.789   1.832
 2013SOL    HW1 6938   0.452   2.763   1.889
 2013SOL    HW2 6939   0.612   2.742   1.864
 2014SOL     OW 6940   3.916   0.623   5.033
 2014SOL    HW1 6941   3.971   0.562   5.090
 2014SOL    HW2 6942   3.851   0.674   5.089
 2015SOL     OW 6943   4.023   6.999   1.410
 2015SOL    HW1 6944   3.929   7.006   1.444
 2015SOL    HW2 6945   4.056   0.065   1.385
 2016SOL     OW 6946   1.860   0.935   4.569
 2016SOL    HW1 6947   1.910   0.979   4.644
 2016SOL    HW2 6948   1.769   0.976   4.561
 2017SOL     OW 6949   4.150   6.415   3.988
 2017SOL    HW1 6950   4.066   6.371   3.956
 2017SOL    HW2 6951   4.223   6.346   3.994
 2018SOL     OW 6952   1.296   0.667   4.418
 2018SOL    HW1 6953   1.300   0.585   4.476
 2018SOL    HW2 6954   1.324   0.643   4.325
 2019SOL     OW 6955   5.358   5.346   6.308
 2019SOL    HW1 6956   5.326   5.408   6.237
 2019SOL    HW2 6957   5.314   5.369   6.395
 2020SOL     OW 6958   2.039   6.592   6.831
 2020SOL    HW1 6959   2.063   6.514   6.773
 2020SOL    HW2 6960   1.989   6.660   6.777
 2021SOL     OW 6961   0.270   6.323   4.292
 2021SOL    HW1 6962   0.228   6.237   4.263
 2021SOL    HW2 6963   0.224   6.357   4.374
 2022SOL     OW 6964   1.744   3.561   4.033
 2022SOL    HW1 6965   1.843   3.575   4.036
 2022SOL    HW2 6966   1.725   3.471   3.993
 2023SOL     OW 6967   6.648   6.211   6.937
 2023SOL    HW1 6968   6.596   6.253   7.011
 2023SOL    HW2 6969   6.585   6.169   6.872
 2024SOL     OW 6970   0.333   6.072   3.999
 2024SOL    HW1 6971   0.270   6.009   3.954
 2024SOL    HW2 6972   0.305   6.166   3.980
 2025SOL     OW 6973   1.593   5.827   4.863
 2025SOL    HW1 6974   1.592   5.844   4.764
 2025SOL    HW2 6975   1.609   5.729   4.879
 2026SOL     OW 6976   0.362   0.452   5.847
 2026SOL    HW1 6977   0.422   0.429   5.770
 2026SOL    HW2 6978   0.317   0.539   5.829
 2027SOL     OW 6979   6.829   6.488   2.261
 2027SOL    HW1 6980   6.883   6.571   2.243
 2027SOL    HW2 6981   6.794   6.492   2.355
 2028SOL     OW 6982   3.170   4.964   4.890
 2028SOL    HW1 6983   3.175   4.922   4.800
 2028SOL    HW2 6984   3.138   5.059   4.882
 2029SOL     OW 6985   6.348   2.893   6.279
 2029SOL    HW1 6986   6.252   2.922   6.281
 2029SOL    HW2 6987   6.407   2.973   6.288
 2030SOL     OW 6988   2.716   6.932   2.437
 2030SOL    HW1 6989   2.756   6.841   2.422
 2030SOL    HW2 6990   2.661   6.931   2.520
 2031SOL     OW 6991   0.832   6.068   4.504
 2031SOL    HW1 6992   0.810   6.047   4.408
 2031SOL    HW2 6993   0.861   6.163   4.511
 2032SOL     OW 6994   2.407   3.011   5.770
 2032SOL    HW1 6995   2.433   3.105   5.747
 2032SOL    HW2 6996   2.452   2.947   5.707
 2033SOL     OW 6997   2.294   1.782   0.633
 2033SOL    HW1 6998   2.373   1.843   0.643
 2033SOL    HW2 6999   2.279   1.734   0.719
 2034SOL     OW 7000   0.529   4.289   5.280
 2034SOL    HW1 7001   0.495   4.212   5.335
 2034SOL    HW2 7002   0.487   4.286   5.189
 2035SOL     OW 7003   5.233   6.913   3.196
 2035SOL    HW1 7004   5.203   6.936   3.103
 2035SOL    HW2 7005   5.275   6.993   3.238
 2036SOL     OW 7006   0.114   4.921   6.618
 2036SOL    HW1 7007   0.194   4.888   6.668
 2036SOL    HW2 7008   0.142   4.993   6.554
 2037SOL     OW 7009   0.961   2.563   0.038
 2037SOL    HW1 7010   1.038   2.582   0.099
 2037SOL    HW2 7011   0.982   2.484   7.007
 2038SOL     OW 7012   0.734   0.821   6.276
 2038SOL    HW1 7013   0.690   0.759   6.341
 2038SOL    HW2 7014   0.679   0.904   6.266
 2039SOL     OW 7015   5.424   6.067   3.354
 2039SOL    HW1 7016   5.372   6.149   3.379
 2039SOL    HW2 7017   5.521   6.083   3.367
 2040SOL     OW 7018   2.277   2.006   0.247
 2040SOL    HW1 7019   2.377   2.005   0.252
 2040SOL    HW2 7020   2.246   2.098   0.223
 2041SOL     OW 7021   2.831   0.313   6.380
 2041SOL    HW1 7022   2.836   0.328   6.281
 2041SOL    HW2 7023   2.879   0.386   6.427
 2042SOL     OW 7024   6.162   1.182   5.792
 2042SOL    HW1 7025   6.099   1.257   5.811
 2042SOL    HW2 7026   6.249   1.219   5.759
 2043SOL     OW 7027   0.622   3.848   0.922
 2043SOL    HW1 7028   0.658   3.848   1.016
 2043SOL    HW2 7029   0.525   3.824   0.923
 2044SOL     OW 7030   4.116   0.774   1.516
 2044SOL    HW1 7031   4.203   0.724   1.520
 2044SOL    HW2 7032   4.132   0.870   1.540
 2045SOL     OW 7033   1.824   6.187   4.756
 2045SOL    HW1 7034   1.852   6.116   4.691
 2045SOL    HW2 7035   1.756   6.246   4.714
 2046SOL     OW 7036   0.668   2.917   5.313
 2046SOL    HW1 7037   0.714   2.830   5.294
 2046SOL    HW2 7038   0.736   2.989   5.326
 2047SOL     OW 7039   7.005   0.296   0.610
 2047SOL    HW1 7040   0.003   0.206   0.574
 2047SOL    HW2 7041   0.053   0.328   0.670
 2048SOL     OW 7042   1.359   2.026   3.548
 2048SOL    HW1 7043   1.429   1.955   3.554
 2048SOL    HW2 7044   1.401   2.116   3.560
 2049SOL     OW 7045   4.586   2.798   4.994
 2049SOL    HW1 7046   4.670   2.769   4.948
 2049SOL    HW2 7047   4.516   2.819   4.926
 2050SOL     OW 7048   1.004   0.871   3.522
 2050SOL    HW1 7049   0.940   0.944   3.549
 2050SOL    HW2 7050   1.072   0.909   3.458
 2051SOL     OW 7051   2.715   6.273   0.724
 2051SOL    HW1 7052   2.802   6.288   0.678
 2051SOL    HW2 7053   2.672   6.362   0.742
 2052SOL     OW 7054   1.006   4.185   0.794
 2052SOL    HW1 7055   0.958   4.135   0.866
 2052SOL    HW2 7056   0.967   4.159   0.705
 2053SOL     OW 7057   6.627   5.407   2.704
 2053SOL    HW1 7058   6.681   5.484   2.671
 2053SOL    HW2 7059   6.559   5.438   2.769
 2054SOL     OW 7060   2.941   3.840   2.603
 2054SOL    HW1 7061   3.001   3.808   2.529
 2054SOL    HW2 7062   2.910   3.762   2.656
 2055SOL     OW 7063   3.680   2.657   5.346
 2055SOL    HW1 7064   3.767   2.695   5.313
 2055SOL    HW2 7065   3.680   2.656   5.446
 2056SOL     OW 7066   3.381   5.123   1.376
 2056SOL    HW1 7067   3.381   5.060   1.298
 2056SOL    HW2 7068   3.288   5.133   1.410
 2057SOL     OW 7069   5.243   3.039   3.943
 2057SOL    HW1 7070   5.199   2.967   3.890
 2057SOL    HW2 7071   5.300   3.095   3.883
 2058SOL     OW 7072   6.517   6.704   3.694
 2058SOL    HW1 7073   6.562   6.769   3.756
 2058SOL    HW2 7074   6.557   6.613   3.707
 2059SOL     OW 7075   1.729   1.540   5.458
 2059SOL    HW1 7076   1.819   1.534   5.502
 2059SOL    HW2 7077   1.731   1.492   5.371
 2060SOL     OW 7078   1.829   2.955   6.538
 2060SOL    HW1 7079   1.903   2.958   6.605
 2060SOL    HW2 7080   1.838   2.871   6.484
 2061SOL     OW 7081   1.467   2.314   3.009
 2061SOL    HW1 7082   1.484   2.326   3.106
 2061SOL    HW2 7083   1.528   2.244   2.972
 2062SOL     OW 7084   6.595   5.115   4.417
 2062SOL    HW1 7085   6.632   5.058   4.343
 2062SOL    HW2 7086   6.505   5.149   4.391
 2063SOL     OW 7087   0.888   1.924   4.010
 2063SOL    HW1 7088   0.834   1.889   3.934
 2063SOL    HW2 7089   0.829   1.971   4.075
 2064SOL     OW 7090   0.614   2.975   4.212
 2064SOL    HW1 7091   0.536   3.026   4.174
 2064SOL    HW2 7092   0.633   2.896   4.155
 2065SOL     OW 7093   4.044   3.539   5.752
 2065SOL    HW1 7094   3.961   3.586   5.722
 2065SOL    HW2 7095   4.024   3.443   5.770
 2066SOL     OW 7096   1.212   3.363   5.384
 2066SOL    HW1 7097   1.157   3.383   5.465
 2066SOL    HW2 7098   1.228   3.265   5.377
 2067SOL     OW 7099   6.509   4.731   1.781
 2067SOL    HW1 7100   6.421   4.713   1.825
 2067SOL    HW2 7101   6.582   4.690   1.835
 2068SOL     OW 7102   4.313   0.666   4.652
 2068SOL    HW1 7103   4.241   0.657   4.720
 2068SOL    HW2 7104   4.274   0.696   4.565
 2069SOL     OW 7105   0.025   1.296   3.462
 2069SOL    HW1 7106   0.008   1.203   3.429
 2069SOL    HW2 7107   0.071   1.349   3.391
 2070SOL     OW 7108   1.255   5.039   1.718
 2070SOL    HW1 7109   1.328   4.972   1.731
 2070SOL    HW2 7110   1.243   5.056   1.620
 2071SOL     OW 7111   0.381   2.136   5.806
 2071SOL    HW1 7112   0.413   2.217   5.756
 2071SOL    HW2 7113   0.387   2.152   5.904
 2072SOL     OW 7114   5.433   4.250   5.711
 2072SOL    HW1 7115   5.343   4.207   5.707
 2072SOL    HW2 7116   5.452   4.296   5.624
 2073SOL     OW 7117   3.654   5.770   6.859
 2073SOL    HW1 7118   3.719   5.743   6.930
 2073SOL    HW2 7119   3.579   5.704   6.855
 2074SOL     OW 7120   2.160   4.651   5.795
 2074SOL    HW1 7121   2.088   4.717   5.816
 2074SOL    HW2 7122   2.235   4.662   5.861
 2075SOL     OW 7123   5.719   2.656   1.307
 2075SOL    HW1 7124   5.781   2.671   1.229
 2075SOL    HW2 7125   5.772   2.662   1.392
 2076SOL     OW 7126   6.404   6.567   4.571
 2076SOL    HW1 7127   6.372   6.652   4.528
 2076SOL    HW2 7128   6.330   6.500   4.570
 2077SOL     OW 7129   6.498   4.714   0.885
 2077SOL    HW1 7130   6.476   4.683   0.978
 2077SOL    HW2 7131   6.564   4.790   0.890
 2078SOL     OW 7132   0.851   3.316   5.668
 2078SOL    HW1 7133   0.850   3.307   5.768
 2078SOL    HW2 7134   0.888   3.232   5.628
 2079SOL     OW 7135   5.376   0.980   2.483
 2079SOL    HW1 7136   5.318   0.996   2.563
 2079SOL    HW2 7137   5.471   0.968   2.513
 2080SOL     OW 7138   2.543   3.501   6.206
 2080SOL    HW1 7139   2.504   3.543   6.124
 2080SOL    HW2 7140   2.603   3.567   6.252
 2081SOL     OW 7141   6.080   6.135   1.718
 2081SOL    HW1 7142   6.042   6.150   1.627
 2081SOL    HW2 7143   6.008   6.147   1.786
 2082SOL     OW 7144   6.719   5.935   4.525
 2082SOL    HW1 7145   6.665   5.917   4.607
 2082SOL    HW2 7146   6.771   5.853   4.500
 2083SOL     OW 7147   0.336   6.632   3.906
 2083SOL    HW1 7148   0.337   6.679   3.994
 2083SOL    HW2 7149   0.430   6.622   3.873
 2084SOL     OW 7150   6.744   2.081   0.950
 2084SOL    HW1 7151   6.818   2.128   0.901
 2084SOL    HW2 7152   6.694   2.023   0.887
 2085SOL     OW 7153   6.417   6.379   0.784
 2085SOL    HW1 7154   6.322   6.386   0.752
 2085SOL    HW2 7155   6.419   6.389   0.884
 2086SOL     OW 7156   4.852   1.045   0.143
 2086SOL    HW1 7157   4.845   1.035   0.044
 2086SOL    HW2 7158   4.778   0.994   0.187
 2087SOL     OW 7159   4.292   1.690   6.759
 2087SOL    HW1 7160   4.213   1.678   6.699
 2087SOL    HW2 7161   4.297   1.785   6.790
 2088SOL     OW 7162   0.335   4.673   5.556
 2088SOL    HW1 7163   0.356   4.702   5.649
 2088SOL    HW2 7164   0.253   4.721   5.524
 2089SOL     OW 7165   2.256   3.699   6.112
 2089SOL    HW1 7166   2.256   3.600   6.124
 2089SOL    HW2 7167   2.223   3.743   6.196
 2090SOL     OW 7168   5.215   3.053   6.014
 2090SOL    HW1 7169   5.256   3.051   6.105
 2090SOL    HW2 7170   5.129   3.104   6.017
 2091SOL     OW 7171   5.695   6.156   0.642
 2091SOL    HW1 7172   5.751   6.082   0.680
 2091SOL    HW2 7173   5.622   6.117   0.586
 2092SOL     OW 7174   3.856   3.637   2.097
 2092SOL    HW1 7175   3.820   3.709   2.157
 2092SOL    HW2 7176   3.955   3.631   2.109
 2093SOL     OW 7177   4.522   1.046   1.331
 2093SOL    HW1 7178   4.549   0.973   1.394
 2093SOL    HW2 7179   4.424   1.043   1.317
 2094SOL     OW 7180   5.358   2.140   6.617
 2094SOL    HW1 7181   5.384   2.047   6.642
 2094SOL    HW2 7182   5.381   2.157   6.521
 2095SOL     OW 7183   5.744   5.594   3.961
 2095SOL    HW1 7184   5.733   5.682   4.007
 2095SOL    HW2 7185   5.715   5.602   3.866
 2096SOL     OW 7186   4.116   6.633   1.658
 2096SOL    HW1 7187   4.076   6.708   1.711
 2096SOL    HW2 7188   4.066   6.549   1.678
 2097SOL     OW 7189   0.831   5.784   5.763
 2097SOL    HW1 7190   0.748   5.751   5.718
 2097SOL    HW2 7191   0.910   5.737   5.725
 2098SOL     OW 7192   3.190   6.368   3.765
 2098SOL    HW1 7193   3.288   6.352   3.750
 2098SOL    HW2 7194   3.177   6.417   3.851
 2099SOL     OW 7195   4.299   2.296   6.756
 2099SOL    HW1 7196   4.367   2.278   6.684
 2099SOL    HW2 7197   4.330   2.372   6.813
 2100SOL     OW 7198   4.964   0.227   0.910
 2100SOL    HW1 7199   4.954   0.326   0.925
 2100SOL    HW2 7200   5.054   0.198   0.940
 2101SOL     OW 7201   1.180   0.274   2.773
 2101SOL    HW1 7202   1.100   0.237   2.726
 2101SOL    HW2 7203   1.261   0.221   2.748
 2102SOL     OW 7204   4.024   2.306   1.105
 2102SOL    HW1 7205   4.030   2.371   1.181
 2102SOL    HW2 7206   4.057   2.350   1.021
 2103SOL     OW 7207   1.927   6.259   0.721
 2103SOL    HW1 7208   2.008   6.200   0.720
 2103SOL    HW2 7209   1.848   6.206   0.753
 2104SOL     OW 7210   1.783   3.555   3.554
 2104SOL    HW1 7211   1.795   3.461   3.587
 2104SOL    HW2 7212   1.872   3.599   3.544
 2105SOL     OW 7213   5.860   0.181   5.233
 2105SOL    HW1 7214   5.919   0.128   5.294
 2105SOL    HW2 7215   5.790   0.122   5.195
 2106SOL     OW 7216   4.234   3.293   1.332
 2106SOL    HW1 7217   4.179   3.286   1.248
 2106SOL    HW2 7218   4.325   3.256   1.315
 2107SOL     OW 7219   5.083   4.873   5.088
 2107SOL    HW1 7220   5.097   4.845   4.993
 2107SOL    HW2 7221   5.030   4.958   5.090
 2108SOL     OW 7222   4.758   0.249   4.736
 2108SOL    HW1 7223   4.837   0.207   4.780
 2108SOL    HW2 7224   4.675   0.228   4.789
 2109SOL     OW 7225   2.979   6.481   2.327
 2109SOL    HW1 7226   2.906   6.438   2.272
 2109SOL    HW2 7227   3.038   6.535   2.267
 2110SOL     OW 7228   3.579   6.236   0.045
 2110SOL    HW1 7229   3.585   6.269   6.976
 2110SOL    HW2 7230   3.634   6.153   0.055
 2111SOL     OW 7231   1.145   2.462   6.041
 2111SOL    HW1 7232   1.118   2.543   5.989
 2111SOL    HW2 7233   1.214   2.487   6.109
 2112SOL     OW 7234   0.966   7.017   6.853
 2112SOL    HW1 7235   0.996   0.088   6.856
 2112SOL    HW2 7236   1.043   6.959   6.828
 2113SOL     OW 7237   6.611   1.483   4.748
 2113SOL    HW1 7238   6.551   1.406   4.769
 2113SOL    HW2 7239   6.704   1.449   4.733
 2114SOL     OW 7240   2.056   1.316   5.863
 2114SOL    HW1 7241   1.998   1.238   5.839
 2114SOL    HW2 7242   2.110   1.294   5.944
 2115SOL     OW 7243   6.816   5.521   3.346
 2115SOL    HW1 7244   6.756   5.598   3.323
 2115SOL    HW2 7245   6.911   5.549   3.332
 2116SOL     OW 7246   1.692   1.599   6.797
 2116SOL    HW1 7247   1.758   1.589   6.722
 2116SOL    HW2 7248   1.711   1.682   6.848
 2117SOL     OW 7249   6.801   2.071   2.689
 2117SOL    HW1 7250   6.721   2.023   2.724
 2117SOL    HW2 7251   6.878   2.007   2.683
 2118SOL     OW 7252   0.153   2.171   2.648
 2118SOL    HW1 7253   0.172   2.191   2.745
 2118SOL    HW2 7254   0.111   2.081   2.640
 2119SOL     OW 7255   0.283   2.544   0.577
 2119SOL    HW1 7256   0.270   2.625   0.634
 2119SOL    HW2 7257   0.377   2.541   0.543
 2120SOL     OW 7258   5.588   2.032   0.597
 2120SOL    HW1 7259   5.611   2.128   0.580
 2120SOL    HW2 7260   5.490   2.019   0.586
 2121SOL     OW 7261   1.654   6.787   0.863
 2121SOL    HW1 7262   1.730   6.816   0.804
 2121SOL    HW2 7263   1.658   6.688   0.874
 2122SOL     OW 7264   6.528   0.437   4.493
 2122SOL    HW1 7265   6.464   0.425   4.417
 2122SOL    HW2 7266   6.601   0.499   4.466
 2123SOL     OW 7267   1.551   5.288   3.025
 2123SOL    HW1 7268   1.454   5.261   3.019
 2123SOL    HW2 7269   1.595   5.236   3.098
 2124SOL     OW 7270   4.394   3.374   6.325
 2124SOL    HW1 7271   4.387   3.430   6.242
 2124SOL    HW2 7272   4.439   3.427   6.396
 2125SOL     OW 7273   1.844   5.856   4.307
 2125SOL    HW1 7274   1.857   5.778   4.369
 2125SOL    HW2 7275   1.748   5.860   4.279
 2126SOL     OW 7276   2.727   3.714   6.820
 2126SOL    HW1 7277   2.657   3.770   6.776
 2126SOL    HW2 7278   2.804   3.701   6.756
 2127SOL     OW 7279   1.149   3.282   4.265
 2127SOL    HW1 7280   1.084   3.349   4.231
 2127SOL    HW2 7281   1.111   3.190   4.256
 2128SOL     OW 7282   5.033   2.705   2.208
 2128SOL    HW1 7283   5.000   2.690   2.301
 2128SOL    HW2 7284   5.028   2.802   2.186
 2129SOL     OW 7285   4.867   4.750   4.356
 2129SOL    HW1 7286   4.890   4.796   4.442
 2129SOL    HW2 7287   4.774   4.714   4.361
 2130SOL     OW 7288   2.431   0.846   1.095
 2130SOL    HW1 7289   2.375   0.901   1.033
 2130SOL    HW2 7290   2.371   0.791   1.153
 2131SOL     OW 7291   5.762   0.714   6.030
 2131SOL    HW1 7292   5.820   0.676   5.958
 2131SOL    HW2 7293   5.680   0.658   6.039
 2132SOL     OW 7294   2.723   2.626   6.890
 2132SOL    HW1 7295   2.798   2.622   6.824
 2132SOL    HW2 7296   2.640   2.589   6.849
 2133SOL     OW 7297   3.747   2.302   1.228
 2133SOL    HW1 7298   3.719   2.207   1.238
 2133SOL    HW2 7299   3.703   2.358   1.298
 2134SOL     OW 7300   1.993   6.336   5.307
 2134SOL    HW1 7301   1.928   6.290   5.367
 2134SOL    HW2 7302   2.077   6.282   5.301
 2135SOL     OW 7303   1.097   5.841   3.783
 2135SOL    HW1 7304   1.014   5.825   3.731
 2135SOL    HW2 7305   1.175   5.799   3.737
 2136SOL     OW 7306   1.301   5.044   3.634
 2136SOL    HW1 7307   1.372   5.050   3.704
 2136SOL    HW2 7308   1.335   4.989   3.557
 2137SOL     OW 7309   0.924   1.161   4.841
 2137SOL    HW1 7310   0.882   1.093   4.901
 2137SOL    HW2 7311   0.979   1.224   4.895
 2138SOL     OW 7312   0.993   2.687   5.895
 2138SOL    HW1 7313   1.004   2.781   5.928
 2138SOL    HW2 7314   0.912   2.646   5.938
 2139SOL     OW 7315   2.683   0.236   4.766
 2139SOL    HW1 7316   2.696   0.192   4.677
 2139SOL    HW2 7317   2.662   0.167   4.835
 2140SOL     OW 7318   1.592   5.743   3.558
 2140SOL    HW1 7319   1.598   5.699   3.647
 2140SOL    HW2 7320   1.524   5.816   3.561
 2141SOL     OW 7321   6.863   1.642   6.913
 2141SOL    HW1 7322   6.930   1.669   6.844
 2141SOL    HW2 7323   6.883   1.690   6.998
 2142SOL     OW 7324   3.377   1.132   3.861
 2142SOL    HW1 7325   3.384   1.230   3.880
 2142SOL    HW2 7326   3.283   1.110   3.834
 2143SOL     OW 7327   4.174   6.244   0.044
 2143SOL    HW1 7328   4.252   6.268   0.102
 2143SOL    HW2 7329   4.193   6.157   7.023
 2144SOL     OW 7330   0.611   0.739   2.027
 2144SOL    HW1 7331   0.662   0.656   2.004
 2144SOL    HW2 7332   0.640   0.772   2.118
 2145SOL     OW 7333   3.306   5.995   2.582
 2145SOL    HW1 7334   3.263   5.918   2.534
 2145SOL    HW2 7335   3.239   6.036   2.644
 2146SOL     OW 7336   2.992   2.195   0.692
 2146SOL    HW1 7337   3.071   2.256   0.692
 2146SOL    HW2 7338   3.020   2.104   0.721
 2147SOL     OW 7339   0.163   0.640   5.169
 2147SOL    HW1 7340   0.245   0.634   5.111
 2147SOL    HW2 7341   0.179   0.591   5.255
 2148SOL     OW 7342   5.511   3.479   3.917
 2148SOL    HW1 7343   5.478   3.423   3.993
 2148SOL    HW2 7344   5.435   3.499   3.855
 2149SOL     OW 7345   3.339   0.261   2.669
 2149SOL    HW1 7346   3.294   0.220   2.748
 2149SOL    HW2 7347   3.285   0.338   2.635
 2150SOL     OW 7348   3.907   0.638   2.854
 2150SOL    HW1 7349   3.909   0.737   2.872
 2150SOL    HW2 7350   3.995   0.598   2.880
 2151SOL     OW 7351   3.301   3.798   5.733
 2151SOL    HW1 7352   3.347   3.842   5.656
 2151SOL    HW2 7353   3.368   3.756   5.793
 2152SOL     OW 7354   6.435   6.564   2.176
 2152SOL    HW1 7355   6.477   6.483   2.135
 2152SOL    HW2 7356   6.453   6.643   2.118
 2153SOL     OW 7357   4.964   2.321   3.072
 2153SOL    HW1 7358   4.907   2.397   3.101
 2153SOL    HW2 7359   5.037   2.355   3.013
 2154SOL     OW 7360   4.131   6.417   5.455
 2154SOL    HW1 7361   4.051   6.413   5.514
 2154SOL    HW2 7362   4.111   6.371   5.368
 2155SOL     OW 7363   6.157   4.037   6.718
 2155SOL    HW1 7364   6.139   3.951   6.670
 2155SOL    HW2 7365   6.071   4.080   6.744
 2156SOL     OW 7366   0.430   0.864   1.339
 2156SOL    HW1 7367   0.503   0.847   1.404
 2156SOL    HW2 7368   0.345   0.824   1.372
 2157SOL     OW 7369   6.410   1.098   4.025
 2157SOL    HW1 7370   6.420   1.195   4.044
 2157SOL    HW2 7371   6.479   1.046   4.075
 2158SOL     OW 7372   4.492   6.764   3.067
 2158SOL    HW1 7373   4.578   6.739   3.110
 2158SOL    HW2 7374   4.453   6.685   3.021
 2159SOL     OW 7375   2.426   0.162   5.158
 2159SOL    HW1 7376   2.516   0.197   5.134
 2159SOL    HW2 7377   2.371   0.235   5.198
 2160SOL     OW 7378   2.823   2.953   0.627
 2160SOL    HW1 7379   2.913   2.988   0.652
 2160SOL    HW2 7380   2.752   3.012   0.666
 2161SOL     OW 7381   5.343   2.477   3.694
 2161SOL    HW1 7382   5.357   2.568   3.655
 2161SOL    HW2 7383   5.245   2.459   3.702
 2162SOL     OW 7384   1.762   1.069   0.806
 2162SOL    HW1 7385   1.698   1.085   0.731
 2162SOL    HW2 7386   1.715   1.024   0.882
 2163SOL     OW 7387   2.269   1.712   1.270
 2163SOL    HW1 7388   2.218   1.715   1.356
 2163SOL    HW2 7389   2.238   1.634   1.215
 2164SOL     OW 7390   0.006   0.187   1.205
 2164SOL    HW1 7391   6.992   0.212   1.117
 2164SOL    HW2 7392   0.084   0.246   1.225
 2165SOL     OW 7393   3.118   6.880   1.272
 2165SOL    HW1 7394   3.218   6.883   1.271
 2165SOL    HW2 7395   3.086   6.890   1.366
 2166SOL     OW 7396   5.942   2.584   6.036
 2166SOL    HW1 7397   5.957   2.680   6.015
 2166SOL    HW2 7398   5.986   2.561   6.123
 2167SOL     OW 7399   2.776   1.125   1.653
 2167SOL    HW1 7400   2.709   1.198   1.636
 2167SOL    HW2 7401   2.729   1.043   1.684
 2168SOL     OW 7402   5.706   6.489   4.516
 2168SOL    HW1 7403   5.707   6.581   4.554
 2168SOL    HW2 7404   5.613   6.464   4.489
 2169SOL     OW 7405   6.778   1.387   5.579
 2169SOL    HW1 7406   6.754   1.383   5.676
 2169SOL    HW2 7407   6.699   1.356   5.525
 2170SOL     OW 7408   5.475   4.379   4.362
 2170SOL    HW1 7409   5.484   4.479   4.369
 2170SOL    HW2 7410   5.387   4.351   4.403
 2171SOL     OW 7411   6.562   3.487   0.338
 2171SOL    HW1 7412   6.572   3.418   0.266
 2171SOL    HW2 7413   6.509   3.564   0.303
 2172SOL     OW 7414   2.793   0.247   1.331
 2172SOL    HW1 7415   2.723   0.278   1.266
 2172SOL    HW2 7416   2.835   0.163   1.296
 2173SOL     OW 7417   4.745   2.031   4.849
 2173SOL    HW1 7418   4.774   2.031   4.753
 2173SOL    HW2 7419   4.805   1.972   4.902
 2174SOL     OW 7420   1.383   5.514   5.091
 2174SOL    HW1 7421   1.422   5.599   5.058
 2174SOL    HW2 7422   1.444   5.474   5.160
 2175SOL     OW 7423   1.649   6.094   6.016
 2175SOL    HW1 7424   1.678   6.039   5.938
 2175SOL    HW2 7425   1.554   6.074   6.037
 2176SOL     OW 7426   1.647   2.840   2.136
 2176SOL    HW1 7427   1.670   2.935   2.116
 2176SOL    HW2 7428   1.547   2.829   2.138
 2177SOL     OW 7429   0.551   2.203   2.140
 2177SOL    HW1 7430   0.487   2.135   2.104
 2177SOL    HW2 7431   0.499   2.280   2.178
 2178SOL     OW 7432   6.915   5.987   1.163
 2178SOL    HW1 7433   6.981   5.960   1.232
 2178SOL    HW2 7434   6.958   6.049   1.097
 2179SOL     OW 7435   1.104   3.954   4.161
 2179SOL    HW1 7436   1.086   4.050   4.139
 2179SOL    HW2 7437   1.042   3.896   4.108
 2180SOL     OW 7438   3.839   2.825   1.509
 2180SOL    HW1 7439   3.843   2.914   1.465
 2180SOL    HW2 7440   3.905   2.822   1.585
 2181SOL     OW 7441   4.160   6.720   1.129
 2181SOL    HW1 7442   4.180   6.818   1.125
 2181SOL    HW2 7443   4.167   6.688   1.223
 2182SOL     OW 7444   5.682   2.321   0.652
 2182SOL    HW1 7445   5.697   2.395   0.586
 2182SOL    HW2 7446   5.761   2.313   0.712
 2183SOL     OW 7447   2.790   2.780   0.102
 2183SOL    HW1 7448   2.697   2.805   0.130
 2183SOL    HW2 7449   2.787   2.719   0.024
 2184SOL     OW 7450   4.573   3.300   6.035
 2184SOL    HW1 7451   4.508   3.329   6.106
 2184SOL    HW2 7452   4.665   3.328   6.061
 2185SOL     OW 7453   0.199   0.127   2.024
 2185SOL    HW1 7454   0.144   0.158   2.102
 2185SOL    HW2 7455   0.205   0.027   2.026
 2186SOL     OW 7456   0.410   4.457   3.115
 2186SOL    HW1 7457   0.396   4.500   3.204
 2186SOL    HW2 7458   0.361   4.370   3.111
 2187SOL     OW 7459   6.260   1.499   6.556
 2187SOL    HW1 7460   6.276   1.493   6.457
 2187SOL    HW2 7461   6.308   1.424   6.602
 2188SOL     OW 7462   4.957   1.197   3.378
 2188SOL    HW1 7463   4.944   1.098   3.368
 2188SOL    HW2 7464   5.048   1.222   3.347
 2189SOL     OW 7465   2.847   0.113   6.657
 2189SOL    HW1 7466   2.779   0.183   6.631
 2189SOL    HW2 7467   2.802   0.039   6.705
 2190SOL     OW 7468   4.821   2.302   0.761
 2190SOL    HW1 7469   4.840   2.362   0.839
 2190SOL    HW2 7470   4.789   2.214   0.794
 2191SOL     OW 7471   2.459   1.976   6.948
 2191SOL    HW1 7472   2.478   2.024   0.008
 2191SOL    HW2 7473   2.404   2.034   6.888
 2192SOL     OW 7474   3.907   5.064   2.695
 2192SOL    HW1 7475   3.854   5.009   2.630
 2192SOL    HW2 7476   3.978   5.114   2.645
 2193SOL     OW 7477   6.898   5.866   5.060
 2193SOL    HW1 7478   6.992   5.830   5.063
 2193SOL    HW2 7479   6.900   5.961   5.030
 2194SOL     OW 7480   2.878   0.299   1.594
 2194SOL    HW1 7481   2.802   0.349   1.635
 2194SOL    HW2 7482   2.864   0.292   1.495
 2195SOL     OW 7483   1.009   5.042   2.069
 2195SOL    HW1 7484   1.014   5.016   1.973
 2195SOL    HW2 7485   0.920   5.013   2.106
 2196SOL     OW 7486   4.573   2.950   0.178
 2196SOL    HW1 7487   4.538   3.001   0.099
 2196SOL    HW2 7488   4.585   2.854   0.152
 2197SOL     OW 7489   4.634   4.179   6.845
 2197SOL    HW1 7490   4.714   4.238   6.847
 2197SOL    HW2 7491   4.579   4.194   6.927
 2198SOL     OW 7492   6.098   4.280   0.444
 2198SOL    HW1 7493   6.072   4.340   0.519
 2198SOL    HW2 7494   6.030   4.206   0.436
 2199SOL     OW 7495   4.400   0.955   2.703
 2199SOL    HW1 7496   4.392   0.872   2.648
 2199SOL    HW2 7497   4.497   0.975   2.718
 2200SOL     OW 7498   2.646   6.618   4.660
 2200SOL    HW1 7499   2.717   6.686   4.643
 2200SOL    HW2 7500   2.639   6.602   4.758
 2201SOL     OW 7501   4.784   4.064   3.937
 2201SOL    HW1 7502   4.823   4.122   3.866
 2201SOL    HW2 7503   4.788   4.112   4.025
 2202SOL     OW 7504   4.958   5.955   4.023
 2202SOL    HW1 7505   5.044   5.944   3.974
 2202SOL    HW2 7506   4.930   5.868   4.064
 2203SOL     OW 7507   2.906   2.021   2.851
 2203SOL    HW1 7508   2.836   1.951   2.850
 2203SOL    HW2 7509   2.958   2.018   2.765
 2204SOL     OW 7510   2.618   3.094   0.754
 2204SOL    HW1 7511   2.576   3.009   0.785
 2204SOL    HW2 7512   2.547   3.164   0.745
 2205SOL     OW 7513   2.481   1.110   1.989
 2205SOL    HW1 7514   2.488   1.191   1.932
 2205SOL    HW2 7515   2.549   1.115   2.063
 2206SOL     OW 7516   1.931   2.999   6.826
 2206SOL    HW1 7517   1.873   2.924   6.860
 2206SOL    HW2 7518   1.881   3.085   6.833
 2207SOL     OW 7519   0.672   4.738   4.959
 2207SOL    HW1 7520   0.670   4.654   4.905
 2207SOL    HW2 7521   0.741   4.800   4.921
 2208SOL     OW 7522   6.737   4.809   2.169
 2208SOL    HW1 7523   6.640   4.800   2.190
 2208SOL    HW2 7524   6.772   4.893   2.210
 2209SOL     OW 7525   1.216   0.227   1.786
 2209SOL    HW1 7526   1.207   0.301   1.720
 2209SOL    HW2 7527   1.308   0.189   1.782
 2210SOL     OW 7528   2.120   5.182   3.323
 2210SOL    HW1 7529   2.064   5.226   3.393
 2210SOL    HW2 7530   2.185   5.120   3.366
 2211SOL     OW 7531   6.905   1.766   5.182
 2211SOL    HW1 7532   6.940   1.707   5.109
 2211SOL    HW2 7533   6.806   1.756   5.189
 2212SOL     OW 7534   1.932   0.248   6.533
 2212SOL    HW1 7535   1.860   0.230   6.465
 2212SOL    HW2 7536   2.022   0.231   6.492
 2213SOL     OW 7537   3.942   0.378   3.203
 2213SOL    HW1 7538   3.895   0.350   3.120
 2213SOL    HW2 7539   3.986   0.466   3.188
 2214SOL     OW 7540   4.537   0.196   4.886
 2214SOL    HW1 7541   4.510   0.286   4.851
 2214SOL    HW2 7542   4.549   0.200   4.985
 2215SOL     OW 7543   5.777   2.222   5.566
 2215SOL    HW1 7544   5.768   2.139   5.621
 2215SOL    HW2 7545   5.805   2.298   5.624
 2216SOL     OW 7546   2.968   0.698   2.471
 2216SOL    HW1 7547   3.062   0.726   2.491
 2216SOL    HW2 7548   2.968   0.630   2.398
 2217SOL     OW 7549   4.226   1.035   1.915
 2217SOL    HW1 7550   4.250   0.967   1.985
 2217SOL    HW2 7551   4.294   1.108   1.915
 2218SOL     OW 7552   1.833   0.089   3.226
 2218SOL    HW1 7553   1.745   0.078   3.180
 2218SOL    HW2 7554   1.830   0.170   3.286
 2219SOL     OW 7555   1.164   2.765   2.663
 2219SOL    HW1 7556   1.145   2.833   2.735
 2219SOL    HW2 7557   1.199   2.681   2.704
 2220SOL     OW 7558   0.469   0.162   2.035
 2220SOL    HW1 7559   0.377   0.157   1.995
 2220SOL    HW2 7560   0.535   0.119   1.972
 2221SOL     OW 7561   0.508   0.876   6.647
 2221SOL    HW1 7562   0.599   0.864   6.606
 2221SOL    HW2 7563   0.469   0.787   6.669
 2222SOL     OW 7564   6.599   5.932   3.123
 2222SOL    HW1 7565   6.586   5.876   3.041
 2222SOL    HW2 7566   6.524   5.998   3.131
 2223SOL     OW 7567   6.375   6.140   1.723
 2223SOL    HW1 7568   6.284   6.104   1.743
 2223SOL    HW2 7569   6.369   6.238   1.705
 2224SOL     OW 7570   0.854   4.400   1.832
 2224SOL    HW1 7571   0.929   4.433   1.888
 2224SOL    HW2 7572   0.881   4.314   1.788
 2225SOL     OW 7573   0.385   4.223   1.173
 2225SOL    HW1 7574   0.311   4.161   1.149
 2225SOL    HW2 7575   0.385   4.301   1.110
 2226SOL     OW 7576   4.011   3.912   2.050
 2226SOL    HW1 7577   4.082   3.982   2.041
 2226SOL    HW2 7578   3.965   3.921   2.138
 2227SOL     OW 7579   0.954   2.787   4.756
 2227SOL    HW1 7580   0.972   2.883   4.736
 2227SOL    HW2 7581   1.031   2.748   4.806
 2228SOL     OW 7582   3.407   4.907   4.524
 2228SOL    HW1 7583   3.317   4.889   4.563
 2228SOL    HW2 7584   3.401   4.909   4.424
 2229SOL     OW 7585   5.899   6.610   3.360
 2229SOL    HW1 7586   5.938   6.677   3.423
 2229SOL    HW2 7587   5.961   6.600   3.281
 2230SOL     OW 7588   2.602   5.474   1.894
 2230SOL    HW1 7589   2.696   5.456   1.922
 2230SOL    HW2 7590   2.596   5.475   1.794
 2231SOL     OW 7591   2.540   6.246   1.156
 2231SOL    HW1 7592   2.536   6.343   1.181
 2231SOL    HW2 7593   2.525   6.190   1.238
 2232SOL     OW 7594   5.423   3.017   3.582
 2232SOL    HW1 7595   5.411   3.088   3.651
 2232SOL    HW2 7596   5.370   3.041   3.500
 2233SOL     OW 7597   2.536   1.663   6.290
 2233SOL    HW1 7598   2.493   1.697   6.207
 2233SOL    HW2 7599   2.525   1.729   6.363
 2234SOL     OW 7600   3.512   2.600   1.343
 2234SOL    HW1 7601   3.592   2.659   1.336
 2234SOL    HW2 7602   3.539   2.511   1.379
 2235SOL     OW 7603   2.524   2.046   1.469
 2235SOL    HW1 7604   2.619   2.024   1.488
 2235SOL    HW2 7605   2.465   2.000   1.536
 2236SOL     OW 7606   1.051   4.986   6.358
 2236SOL    HW1 7607   1.014   4.983   6.451
 2236SOL    HW2 7608   0.991   4.935   6.297
 2237SOL     OW 7609   6.176   3.316   4.117
 2237SOL    HW1 7610   6.116   3.251   4.164
 2237SOL    HW2 7611   6.235   3.361   4.184
 2238SOL     OW 7612   6.417   6.488   1.105
 2238SOL    HW1 7613   6.499   6.459   1.154
 2238SOL    HW2 7614   6.359   6.409   1.086
 2239SOL     OW 7615   6.218   6.165   2.161
 2239SOL    HW1 7616   6.151   6.142   2.232
 2239SOL    HW2 7617   6.189   6.248   2.113
 2240SOL     OW 7618   5.754   3.721   1.789
 2240SOL    HW1 7619   5.766   3.814   1.826
 2240SOL    HW2 7620   5.835   3.695   1.737
 2241SOL     OW 7621   1.508   6.899   2.633
 2241SOL    HW1 7622   1.549   6.852   2.711
 2241SOL    HW2 7623   1.579   6.951   2.585
 2242SOL     OW 7624   3.452   2.094   2.417
 2242SOL    HW1 7625   3.440   2.158   2.493
 2242SOL    HW2 7626   3.457   2.001   2.452
 2243SOL     OW 7627   2.587   6.935   5.195
 2243SOL    HW1 7628   2.549   6.854   5.237
 2243SOL    HW2 7629   2.579   7.013   5.257
 2244SOL     OW 7630   3.270   1.328   4.984
 2244SOL    HW1 7631   3.182   1.313   5.029
 2244SOL    HW2 7632   3.255   1.347   4.887
 2245SOL     OW 7633   0.349   2.377   2.238
 2245SOL    HW1 7634   0.273   2.363   2.175
 2245SOL    HW2 7635   0.372   2.475   2.240
 2246SOL     OW 7636   1.608   4.706   5.001
 2246SOL    HW1 7637   1.578   4.706   4.906
 2246SOL    HW2 7638   1.544   4.653   5.056
 2247SOL     OW 7639   2.003   1.441   4.428
 2247SOL    HW1 7640   1.907   1.413   4.415
 2247SOL    HW2 7641   2.062   1.386   4.368
 2248SOL     OW 7642   4.391   3.898   5.635
 2248SOL    HW1 7643   4.382   3.892   5.735
 2248SOL    HW2 7644   4.370   3.809   5.595
 2249SOL     OW 7645   3.856   5.291   5.351
 2249SOL    HW1 7646   3.859   5.380   5.305
 2249SOL    HW2 7647   3.762   5.270   5.376
 2250SOL     OW 7648   4.722   5.084   1.392
 2250SOL    HW1 7649   4.755   5.123   1.305
 2250SOL    HW2 7650   4.798   5.036   1.436
 2251SOL     OW 7651   0.355   0.182   5.979
 2251SOL    HW1 7652   0.339   0.246   5.903
 2251SOL    HW2 7653   0.442   0.205   6.024
 2252SOL     OW 7654   3.532   0.549   6.298
 2252SOL    HW1 7655   3.532   0.465   6.245
 2252SOL    HW2 7656   3.499   0.625   6.241
 2253SOL     OW 7657   1.179   2.889   6.464
 2253SOL    HW1 7658   1.091   2.904   6.510
 2253SOL    HW2 7659   1.228   2.976   6.459
 2254SOL     OW 7660   1.680   4.801   6.137
 2254SOL    HW1 7661   1.739   4.815   6.057
 2254SOL    HW2 7662   1.731   4.826   6.220
 2255SOL     OW 7663   5.672   3.549   6.947
 2255SOL    HW1 7664   5.594   3.508   6.996
 2255SOL    HW2 7665   5.723   3.477   6.901
 2256SOL     OW 7666   3.038   4.858   2.527
 2256SOL    HW1 7667   3.078   4.832   2.440
 2256SOL    HW2 7668   3.107   4.902   2.584
 2257SOL     OW 7669   1.748   3.685   4.272
 2257SOL    HW1 7670   1.751   3.622   4.193
 2257SOL    HW2 7671   1.755   3.633   4.356
 2258SOL     OW 7672   1.634   4.816   5.523
 2258SOL    HW1 7673   1.568   4.890   5.509
 2258SOL    HW2 7674   1.707   4.824   5.454
 2259SOL     OW 7675   6.302   3.333   6.501
 2259SOL    HW1 7676   6.214   3.333   6.453
 2259SOL    HW2 7677   6.294   3.387   6.584
 2260SOL     OW 7678   4.309   3.596   1.259
 2260SOL    HW1 7679   4.322   3.688   1.297
 2260SOL    HW2 7680   4.307   3.529   1.333
 2261SOL     OW 7681   3.017   6.815   5.003
 2261SOL    HW1 7682   3.072   6.751   5.057
 2261SOL    HW2 7683   2.925   6.778   4.991
 2262SOL     OW 7684   3.184   2.005   3.210
 2262SOL    HW1 7685   3.210   1.927   3.266
 2262SOL    HW2 7686   3.240   2.007   3.127
 2263SOL     OW 7687   0.431   3.821   5.664
 2263SOL    HW1 7688   0.454   3.849   5.758
 2263SOL    HW2 7689   0.456   3.895   5.601
 2264SOL     OW 7690   3.060   3.579   2.945
 2264SOL    HW1 7691   3.097   3.491   2.975
 2264SOL    HW2 7692   2.979   3.563   2.888
 2265SOL     OW 7693   1.124   6.632   3.242
 2265SOL    HW1 7694   1.032   6.665   3.221
 2265SOL    HW2 7695   1.149   6.559   3.177
 2266SOL     OW 7696   6.734   0.651   6.373
 2266SOL    HW1 7697   6.770   0.643   6.280
 2266SOL    HW2 7698   6.640   0.617   6.375
 2267SOL     OW 7699   5.786   1.977   5.360
 2267SOL    HW1 7700   5.702   1.929   5.336
 2267SOL    HW2 7701   5.770   2.075   5.362
 2268SOL     OW 7702   6.607   5.390   6.396
 2268SOL    HW1 7703   6.700   5.426   6.399
 2268SOL    HW2 7704   6.550   5.449   6.339
 2269SOL     OW 7705   0.543   6.870   3.222
 2269SOL    HW1 7706   0.535   6.968   3.204
 2269SOL    HW2 7707   0.560   6.856   3.320
 2270SOL     OW 7708   3.531   3.281   2.999
 2270SOL    HW1 7709   3.620   3.277   2.954
 2270SOL    HW2 7710   3.542   3.311   3.094
 2271SOL     OW 7711   0.838   4.337   2.887
 2271SOL    HW1 7712   0.873   4.415   2.939
 2271SOL    HW2 7713   0.747   4.312   2.920
 2272SOL     OW 7714   5.154   2.119   5.423
 2272SOL    HW1 7715   5.133   2.201   5.476
 2272SOL    HW2 7716   5.121   2.131   5.329
 2273SOL     OW 7717   0.736   1.086   3.155
 2273SOL    HW1 7718   0.728   1.044   3.246
 2273SOL    HW2 7719   0.801   1.035   3.100
 2274SOL     OW 7720   0.744   3.841   2.956
 2274SOL    HW1 7721   0.737   3.764   3.019
 2274SOL    HW2 7722   0.822   3.827   2.895
 2275SOL     OW 7723   4.965   6.196   3.672
 2275SOL    HW1 7724   4.952   6.274   3.733
 2275SOL    HW2 7725   4.917   6.116   3.710
 2276SOL     OW 7726   3.042   5.967   2.356
 2276SOL    HW1 7727   3.097   5.883   2.359
 2276SOL    HW2 7728   3.094   6.040   2.311
 2277SOL     OW 7729   3.257   3.961   1.323
 2277SOL    HW1 7730   3.259   3.901   1.404
 2277SOL    HW2 7731   3.309   3.918   1.249
 2278SOL     OW 7732   5.061   6.736   1.598
 2278SOL    HW1 7733   5.147   6.696   1.567
 2278SOL    HW2 7734   4.985   6.676   1.573
 2279SOL     OW 7735   5.888   3.945   5.832
 2279SOL    HW1 7736   5.888   3.986   5.923
 2279SOL    HW2 7737   5.795   3.925   5.804
 2280SOL     OW 7738   5.862   0.196   6.087
 2280SOL    HW1 7739   5.813   0.138   6.021
 2280SOL    HW2 7740   5.928   0.141   6.137
 2281SOL     OW 7741   2.833   1.729   0.289
 2281SOL    HW1 7742   2.823   1.670   0.209
 2281SOL    HW2 7743   2.930   1.741   0.311
 2282SOL     OW 7744   4.237   6.185   2.148
 2282SOL    HW1 7745   4.205   6.149   2.061
 2282SOL    HW2 7746   4.300   6.262   2.132
 2283SOL     OW 7747   6.528   4.080   1.997
 2283SOL    HW1 7748   6.461   4.029   2.050
 2283SOL    HW2 7749   6.495   4.092   1.903
 2284SOL     OW 7750   2.320   2.299   2.171
 2284SOL    HW1 7751   2.261   2.218   2.176
 2284SOL    HW2 7752   2.415   2.270   2.163
 2285SOL     OW 7753   1.848   3.815   6.803
 2285SOL    HW1 7754   1.762   3.765   6.818
 2285SOL    HW2 7755   1.895   3.827   6.891
 2286SOL     OW 7756   5.910   6.754   4.285
 2286SOL    HW1 7757   5.894   6.773   4.382
 2286SOL    HW2 7758   5.938   6.839   4.239
 2287SOL     OW 7759   2.035   2.357   0.453
 2287SOL    HW1 7760   2.044   2.259   0.435
 2287SOL    HW2 7761   2.094   2.382   0.530
 2288SOL     OW 7762   2.141   5.524   4.473
 2288SOL    HW1 7763   2.063   5.508   4.413
 2288SOL    HW2 7764   2.137   5.460   4.550
 2289SOL     OW 7765   4.305   1.501   7.012
 2289SOL    HW1 7766   4.223   1.522   0.040
 2289SOL    HW2 7767   4.299   1.544   6.922
 2290SOL     OW 7768   3.438   3.817   3.579
 2290SOL    HW1 7769   3.391   3.783   3.498
 2290SOL    HW2 7770   3.372   3.846   3.647
 2291SOL     OW 7771   1.202   2.350   6.663
 2291SOL    HW1 7772   1.142   2.430   6.668
 2291SOL    HW2 7773   1.297   2.380   6.656
 2292SOL     OW 7774   4.882   1.717   2.805
 2292SOL    HW1 7775   4.799   1.769   2.824
 2292SOL    HW2 7776   4.939   1.768   2.741
 2293SOL     OW 7777   0.421   0.850   0.203
 2293SOL    HW1 7778   0.483   0.855   0.124
 2293SOL    HW2 7779   0.326   0.855   0.171
 2294SOL     OW 7780   0.214   0.859   6.064
 2294SOL    HW1 7781   0.119   0.880   6.042
 2294SOL    HW2 7782   0.232   0.883   6.159
 2295SOL     OW 7783   6.109   5.712   1.195
 2295SOL    HW1 7784   6.076   5.793   1.147
 2295SOL    HW2 7785   6.055   5.698   1.278
 2296SOL     OW 7786   3.870   5.254   4.254
 2296SOL    HW1 7787   3.948   5.249   4.316
 2296SOL    HW2 7788   3.883   5.189   4.179
 2297SOL     OW 7789   5.414   3.985   5.093
 2297SOL    HW1 7790   5.412   3.981   5.193
 2297SOL    HW2 7791   5.497   4.031   5.064
 2298SOL     OW 7792   3.045   3.446   4.907
 2298SOL    HW1 7793   3.007   3.382   4.974
 2298SOL    HW2 7794   3.132   3.481   4.941
 2299SOL     OW 7795   5.458   3.171   4.445
 2299SOL    HW1 7796   5.369   3.166   4.400
 2299SOL    HW2 7797   5.455   3.116   4.529
 2300SOL     OW 7798   5.539   6.916   1.968
 2300SOL    HW1 7799   5.512   6.943   1.876
 2300SOL    HW2 7800   5.543   6.816   1.974
 2301SOL     OW 7801   3.950   3.196   4.867
 2301SOL    HW1 7802   3.942   3.265   4.795
 2301SOL    HW2 7803   4.026   3.219   4.927
 2302SOL     OW 7804   6.124   3.269   6.255
 2302SOL    HW1 7805   6.067   3.348   6.231
 2302SOL    HW2 7806   6.208   3.271   6.201
 2303SOL     OW 7807   3.067   2.626   0.025
 2303SOL    HW1 7808   3.074   2.641   0.123
 2303SOL    HW2 7809   3.038   2.532   0.007
 2304SOL     OW 7810   6.817   6.691   2.653
 2304SOL    HW1 7811   6.792   6.598   2.629
 2304SOL    HW2 7812   6.909   6.691   2.694
 2305SOL     OW 7813   2.551   6.954   5.770
 2305SOL    HW1 7814   2.498   0.009   5.798
 2305SOL    HW2 7815   2.615   6.979   5.698
 2306SOL     OW 7816   1.848   5.032   4.723
 2306SOL    HW1 7817   1.880   4.974   4.798
 2306SOL    HW2 7818   1.906   5.017   4.643
 2307SOL     OW 7819   6.684   3.528   5.095
 2307SOL    HW1 7820   6.600   3.494   5.052
 2307SOL    HW2 7821   6.714   3.464   5.166
 2308SOL     OW 7822   1.156   5.414   2.383
 2308SOL    HW1 7823   1.215   5.491   2.408
 2308SOL    HW2 7824   1.062   5.447   2.373
 2309SOL     OW 7825   2.627   0.929   4.619
 2309SOL    HW1 7826   2.642   0.950   4.715
 2309SOL    HW2 7827   2.660   0.837   4.599
 2310SOL     OW 7828   4.770   6.851   0.799
 2310SOL    HW1 7829   4.825   6.887   0.874
 2310SOL    HW2 7830   4.700   6.789   0.836
 2311SOL     OW 7831   2.257   5.642   0.949
 2311SOL    HW1 7832   2.172   5.632   0.897
 2311SOL    HW2 7833   2.308   5.556   0.949
 2312SOL     OW 7834   3.281   4.952   1.814
 2312SOL    HW1 7835   3.222   4.875   1.841
 2312SOL    HW2 7836   3.364   4.951   1.869
 2313SOL     OW 7837   5.095   4.434   1.596
 2313SOL    HW1 7838   5.019   4.452   1.659
 2313SOL    HW2 7839   5.135   4.521   1.566
 2314SOL     OW 7840   2.937   4.804   4.303
 2314SOL    HW1 7841   2.936   4.834   4.398
 2314SOL    HW2 7842   2.874   4.727   4.291
 2315SOL     OW 7843   4.766   2.158   6.703
 2315SOL    HW1 7844   4.794   2.246   6.742
 2315SOL    HW2 7845   4.844   2.095   6.703
 2316SOL     OW 7846   4.920   3.268   2.037
 2316SOL    HW1 7847   5.000   3.210   2.019
 2316SOL    HW2 7848   4.841   3.229   1.991
 2317SOL     OW 7849   0.705   6.191   2.944
 2317SOL    HW1 7850   0.797   6.207   2.980
 2317SOL    HW2 7851   0.700   6.224   2.850
 2318SOL     OW 7852   0.026   1.308   4.166
 2318SOL    HW1 7853   0.048   1.315   4.264
 2318SOL    HW2 7854   0.010   1.400   4.129
 2319SOL     OW 7855   1.460   4.810   2.285
 2319SOL    HW1 7856   1.430   4.720   2.316
 2319SOL    HW2 7857   1.382   4.862   2.250
 2320SOL     OW 7858   6.843   4.946   4.574
 2320SOL    HW1 7859   6.805   5.032   4.540
 2320SOL    HW2 7860   6.856   4.952   4.673
 2321SOL     OW 7861   3.781   4.909   4.706
 2321SOL    HW1 7862   3.839   4.920   4.787
 2321SOL    HW2 7863   3.742   4.817   4.706
 2322SOL     OW 7864   3.252   0.655   5.233
 2322SOL    HW1 7865   3.269   0.632   5.137
 2322SOL    HW2 7866   3.155   0.643   5.254
 2323SOL     OW 7867   4.886   3.790   2.298
 2323SOL    HW1 7868   4.979   3.763   2.321
 2323SOL    HW2 7869   4.855   3.862   2.360
 2324SOL     OW 7870   0.752   4.497   3.285
 2324SOL    HW1 7871   0.792   4.405   3.288
 2324SOL    HW2 7872   0.804   4.554   3.221
 2325SOL     OW 7873   0.018   2.339   0.240
 2325SOL    HW1 7874   0.047   2.407   0.307
 2325SOL    HW2 7875   6.994   2.266   0.286
 2326SOL     OW 7876   0.793   4.211   0.213
 2326SOL    HW1 7877   0.745   4.173   0.292
 2326SOL    HW2 7878   0.892   4.205   0.228
 2327SOL     OW 7879   5.293   1.516   3.466
 2327SOL    HW1 7880   5.354   1.591   3.441
 2327SOL    HW2 7881   5.208   1.552   3.503
 2328SOL     OW 7882   6.750   5.796   3.286
 2328SOL    HW1 7883   6.731   5.816   3.382
 2328SOL    HW2 7884   6.682   5.839   3.228
 2329SOL     OW 7885   0.366   5.428   2.834
 2329SOL    HW1 7886   0.344   5.450   2.929
 2329SOL    HW2 7887   0.430   5.351   2.832
 2330SOL     OW 7888   0.795   3.933   1.745
 2330SOL    HW1 7889   0.775   3.908   1.840
 2330SOL    HW2 7890   0.716   3.911   1.687
 2331SOL     OW 7891   1.277   4.234   6.090
 2331SOL    HW1 7892   1.223   4.236   6.173
 2331SOL    HW2 7893   1.238   4.297   6.023
 2332SOL     OW 7894   5.387   2.408   5.328
 2332SOL    HW1 7895   5.287   2.404   5.323
 2332SOL    HW2 7896   5.418   2.498   5.297
 2333SOL     OW 7897   3.142   4.954   4.172
 2333SOL    HW1 7898   3.090   4.885   4.222
 2333SOL    HW2 7899   3.113   4.956   4.077
 2334SOL     OW 7900   2.589   7.019   0.011
 2334SOL    HW1 7901   2.539   6.959   0.073
 2334SOL    HW2 7902   2.528   0.067   7.004
 2335SOL     OW 7903   4.634   5.065   4.764
 2335SOL    HW1 7904   4.720   5.111   4.741
 2335SOL    HW2 7905   4.617   4.992   4.698
 2336SOL     OW 7906   4.354   3.157   5.880
 2336SOL    HW1 7907   4.442   3.167   5.926
 2336SOL    HW2 7908   4.313   3.070   5.905
 2337SOL     OW 7909   6.480   0.537   4.105
 2337SOL    HW1 7910   6.498   0.546   4.007
 2337SOL    HW2 7911   6.543   0.470   4.145
 2338SOL     OW 7912   1.253   6.997   6.523
 2338SOL    HW1 7913   1.248   6.972   6.620
 2338SOL    HW2 7914   1.263   0.070   6.514
 2339SOL     OW 7915   4.536   5.014   0.062
 2339SOL    HW1 7916   4.607   5.070   0.020
 2339SOL    HW2 7917   4.478   5.071   0.119
 2340SOL     OW 7918   4.031   4.834   3.643
 2340SOL    HW1 7919   4.063   4.777   3.718
 2340SOL    HW2 7920   4.065   4.798   3.556
 2341SOL     OW 7921   5.827   4.731   6.399
 2341SOL    HW1 7922   5.825   4.707   6.497
 2341SOL    HW2 7923   5.767   4.669   6.349
 2342SOL     OW 7924   6.763   0.261   5.138
 2342SOL    HW1 7925   6.712   0.236   5.055
 2342SOL    HW2 7926   6.779   0.179   5.193
 2343SOL     OW 7927   0.799   0.493   0.791
 2343SOL    HW1 7928   0.858   0.560   0.838
 2343SOL    HW2 7929   0.739   0.541   0.727
 2344SOL     OW 7930   3.096   1.793   3.007
 2344SOL    HW1 7931   3.123   1.872   2.952
 2344SOL    HW2 7932   3.092   1.820   3.103
 2345SOL     OW 7933   1.347   1.621   2.441
 2345SOL    HW1 7934   1.285   1.699   2.445
 2345SOL    HW2 7935   1.441   1.653   2.435
 2346SOL     OW 7936   4.800   3.301   5.432
 2346SOL    HW1 7937   4.851   3.297   5.518
 2346SOL    HW2 7938   4.721   3.361   5.442
 2347SOL     OW 7939   1.402   3.262   0.921
 2347SOL    HW1 7940   1.479   3.324   0.906
 2347SOL    HW2 7941   1.436   3.168   0.927
 2348SOL     OW 7942   2.821   6.598   1.499
 2348SOL    HW1 7943   2.870   6.598   1.411
 2348SOL    HW2 7944   2.727   6.628   1.486
 2349SOL     OW 7945   4.472   4.257   6.347
 2349SOL    HW1 7946   4.411   4.316   6.293
 2349SOL    HW2 7947   4.515   4.311   6.419
 2350SOL     OW 7948   2.273   5.960   5.172
 2350SOL    HW1 7949   2.294   5.866   5.198
 2350SOL    HW2 7950   2.311   5.979   5.082
 2351SOL     OW 7951   2.021   4.863   3.370
 2351SOL    HW1 7952   1.978   4.910   3.294
 2351SOL    HW2 7953   2.117   4.890   3.377
 2352SOL     OW 7954   6.240   4.228   0.823
 2352SOL    HW1 7955   6.310   4.286   0.864
 2352SOL    HW2 7956   6.157   4.281   0.807
 2353SOL     OW 7957   2.359   3.680   6.638
 2353SOL    HW1 7958   2.327   3.764   6.682
 2353SOL    HW2 7959   2.317   3.601   6.682
 2354SOL     OW 7960   3.808   1.829   2.229
 2354SOL    HW1 7961   3.735   1.761   2.221
 2354SOL    HW2 7962   3.772   1.920   2.212
 2355SOL     OW 7963   0.282   1.544   2.002
 2355SOL    HW1 7964   0.229   1.628   1.986
 2355SOL    HW2 7965   0.319   1.511   1.915
 2356SOL     OW 7966   3.033   5.249   3.978
 2356SOL    HW1 7967   2.971   5.280   4.050
 2356SOL    HW2 7968   3.079   5.328   3.938
 2357SOL     OW 7969   0.171   4.538   0.732
 2357SOL    HW1 7970   0.228   4.481   0.790
 2357SOL    HW2 7971   0.100   4.582   0.788
 2358SOL     OW 7972   3.512   1.236   5.097
 2358SOL    HW1 7973   3.540   1.280   5.182
 2358SOL    HW2 7974   3.423   1.272   5.068
 2359SOL     OW 7975   2.167   1.723   5.442
 2359SOL    HW1 7976   2.232   1.698   5.514
 2359SOL    HW2 7977   2.215   1.777   5.373
 2360SOL     OW 7978   3.209   4.858   0.374
 2360SOL    HW1 7979   3.136   4.921   0.400
 2360SOL    HW2 7980   3.188   4.766   0.406
 2361SOL     OW 7981   3.452   5.879   1.154
 2361SOL    HW1 7982   3.426   5.974   1.139
 2361SOL    HW2 7983   3.534   5.875   1.211
 2362SOL     OW 7984   3.400   4.981   3.988
 2362SOL    HW1 7985   3.412   4.980   4.087
 2362SOL    HW2 7986   3.306   5.009   3.966
 2363SOL     OW 7987   1.472   4.147   0.462
 2363SOL    HW1 7988   1.463   4.059   0.415
 2363SOL    HW2 7989   1.484   4.131   0.560
 2364SOL     OW 7990   3.918   1.715   2.666
 2364SOL    HW1 7991   3.825   1.734   2.634
 2364SOL    HW2 7992   3.957   1.798   2.706
 2365SOL     OW 7993   4.911   4.444   2.837
 2365SOL    HW1 7994   4.872   4.536   2.826
 2365SOL    HW2 7995   4.837   4.377   2.842
 2366SOL     OW 7996   3.280   5.051   5.538
 2366SOL    HW1 7997   3.190   5.009   5.543
 2366SOL    HW2 7998   3.272   5.150   5.549
 2367SOL     OW 7999   5.804   5.358   5.733
 2367SOL    HW1 8000   5.842   5.267   5.711
 2367SOL    HW2 8001   5.742   5.350   5.811
 2368SOL     OW 8002   5.523   0.781   5.224
 2368SOL    HW1 8003   5.446   0.764   5.285
 2368SOL    HW2 8004   5.526   0.708   5.154
 2369SOL     OW 8005   3.844   2.083   4.138
 2369SOL    HW1 8006   3.866   2.040   4.226
 2369SOL    HW2 8007   3.746   2.102   4.134
 2370SOL     OW 8008   5.106   1.932   1.702
 2370SOL    HW1 8009   5.016   1.960   1.733
 2370SOL    HW2 8010   5.138   1.994   1.630
 2371SOL     OW 8011   1.209   6.585   1.762
 2371SOL    HW1 8012   1.305   6.568   1.743
 2371SOL    HW2 8013   1.152   6.524   1.706
 2372SOL     OW 8014   6.760   6.873   6.529
 2372SOL    HW1 8015   6.679   6.896   6.476
 2372SOL    HW2 8016   6.814   6.956   6.545
 2373SOL     OW 8017   5.933   4.260   5.982
 2373SOL    HW1 8018   5.896   4.330   6.043
 2373SOL    HW2 8019   5.896   4.171   6.008
 2374SOL     OW 8020   6.121   6.643   2.490
 2374SOL    HW1 8021   6.181   6.580   2.441
 2374SOL    HW2 8022   6.078   6.595   2.567
 2375SOL     OW 8023   2.289   0.724   4.326
 2375SOL    HW1 8024   2.244   0.650   4.277
 2375SOL    HW2 8025   2.387   0.704   4.334
 2376SOL     OW 8026   5.250   2.208   2.941
 2376SOL    HW1 8027   5.271   2.284   2.879
 2376SOL    HW2 8028   5.253   2.239   3.035
 2377SOL     OW 8029   4.718   3.696   5.686
 2377SOL    HW1 8030   4.765   3.749   5.758
 2377SOL    HW2 8031   4.690   3.608   5.723
 2378SOL     OW 8032   0.481   1.836   0.411
 2378SOL    HW1 8033   0.574   1.811   0.383
 2378SOL    HW2 8034   0.441   1.761   0.463
 2379SOL     OW 8035   0.294   5.300   2.180
 2379SOL    HW1 8036   0.298   5.295   2.080
 2379SOL    HW2 8037   0.287   5.396   2.208
 2380SOL     OW 8038   4.709   5.250   6.655
 2380SOL    HW1 8039   4.701   5.214   6.748
 2380SOL    HW2 8040   4.643   5.204   6.596
 2381SOL     OW 8041   2.292   4.135   3.493
 2381SOL    HW1 8042   2.330   4.092   3.411
 2381SOL    HW2 8043   2.259   4.065   3.556
 2382SOL     OW 8044   6.952   5.007   3.132
 2382SOL    HW1 8045   6.974   4.960   3.218
 2382SOL    HW2 8046   6.987   5.101   3.136
 2383SOL     OW 8047   5.285   4.265   6.327
 2383SOL    HW1 8048   5.247   4.174   6.345
 2383SOL    HW2 8049   5.258   4.295   6.235
 2384SOL     OW 8050   0.239   2.032   3.050
 2384SOL    HW1 8051   0.325   1.981   3.046
 2384SOL    HW2 8052   0.240   2.095   3.128
 2385SOL     OW 8053   0.143   1.390   0.896
 2385SOL    HW1 8054   0.085   1.352   0.967
 2385SOL    HW2 8055   0.160   1.321   0.826
 2386SOL     OW 8056   5.834   6.282   4.667
 2386SOL    HW1 8057   5.861   6.309   4.760
 2386SOL    HW2 8058   5.803   6.363   4.617
 2387SOL     OW 8059   1.027   1.197   3.953
 2387SOL    HW1 8060   1.065   1.136   4.022
 2387SOL    HW2 8061   1.098   1.259   3.920
 2388SOL     OW 8062   0.372   2.937   5.451
 2388SOL    HW1 8063   0.304   2.979   5.511
 2388SOL    HW2 8064   0.457   2.989   5.455
 2389SOL     OW 8065   4.418   5.610   3.157
 2389SOL    HW1 8066   4.343   5.674   3.166
 2389SOL    HW2 8067   4.382   5.517   3.144
 2390SOL     OW 8068   4.548   2.581   6.824
 2390SOL    HW1 8069   4.538   2.539   6.915
 2390SOL    HW2 8070   4.642   2.570   6.793
 2391SOL     OW 8071   3.592   4.708   6.437
 2391SOL    HW1 8072   3.528   4.644   6.480
 2391SOL    HW2 8073   3.567   4.721   6.341
 2392SOL     OW 8074   4.364   4.760   5.808
 2392SOL    HW1 8075   4.415   4.732   5.889
 2392SOL    HW2 8076   4.385   4.855   5.786
 2393SOL     OW 8077   4.672   4.359   0.819
 2393SOL    HW1 8078   4.656   4.416   0.899
 2393SOL    HW2 8079   4.664   4.262   0.844
 2394SOL     OW 8080   0.594   1.803   3.774
 2394SOL    HW1 8081   0.549   1.765   3.693
 2394SOL    HW2 8082   0.655   1.877   3.747
 2395SOL     OW 8083   0.961   3.040   3.959
 2395SOL    HW1 8084   0.886   3.087   4.006
 2395SOL    HW2 8085   1.005   3.104   3.896
 2396SOL     OW 8086   0.302   0.221   6.864
 2396SOL    HW1 8087   0.312   0.201   6.961
 2396SOL    HW2 8088   0.228   0.167   6.826
 2397SOL     OW 8089   0.889   3.708   4.853
 2397SOL    HW1 8090   0.796   3.694   4.885
 2397SOL    HW2 8091   0.934   3.776   4.911
 2398SOL     OW 8092   3.919   6.618   3.688
 2398SOL    HW1 8093   3.938   6.694   3.749
 2398SOL    HW2 8094   4.005   6.577   3.657
 2399SOL     OW 8095   3.381   1.956   3.019
 2399SOL    HW1 8096   3.431   1.983   3.101
 2399SOL    HW2 8097   3.422   1.873   2.981
 2400SOL     OW 8098   1.798   3.847   0.672
 2400SOL    HW1 8099   1.885   3.820   0.629
 2400SOL    HW2 8100   1.788   3.946   0.667
 2401SOL     OW 8101   2.110   6.036   6.443
 2401SOL    HW1 8102   2.140   6.085   6.361
 2401SOL    HW2 8103   2.072   6.101   6.509
 2402SOL     OW 8104   0.765   3.732   2.221
 2402SOL    HW1 8105   0.812   3.652   2.182
 2402SOL    HW2 8106   0.673   3.706   2.250
 2403SOL     OW 8107   3.310   3.860   4.968
 2403SOL    HW1 8108   3.215   3.888   4.960
 2403SOL    HW2 8109   3.353   3.859   4.877
 2404SOL     OW 8110   6.041   1.670   0.940
 2404SOL    HW1 8111   5.945   1.644   0.955
 2404SOL    HW2 8112   6.054   1.696   0.845
 2405SOL     OW 8113   1.632   3.244   0.684
 2405SOL    HW1 8114   1.637   3.322   0.622
 2405SOL    HW2 8115   1.627   3.160   0.630
 2406SOL     OW 8116   3.158   5.447   4.832
 2406SOL    HW1 8117   3.077   5.504   4.845
 2406SOL    HW2 8118   3.240   5.501   4.853
 2407SOL     OW 8119   3.114   1.367   3.475
 2407SOL    HW1 8120   3.145   1.273   3.460
 2407SOL    HW2 8121   3.105   1.413   3.387
 2408SOL     OW 8122   2.390   0.145   5.755
 2408SOL    HW1 8123   2.344   0.186   5.676
 2408SOL    HW2 8124   2.322   0.118   5.823
 2409SOL     OW 8125   0.884   3.417   0.254
 2409SOL    HW1 8126   0.918   3.323   0.249
 2409SOL    HW2 8127   0.953   3.479   0.216
 2410SOL     OW 8128   7.002   3.002   4.105
 2410SOL    HW1 8129   0.007   2.962   4.192
 2410SOL    HW2 8130   0.007   2.943   4.030
 2411SOL     OW 8131   3.178   2.312   6.434
 2411SOL    HW1 8132   3.122   2.266   6.365
 2411SOL    HW2 8133   3.253   2.360   6.390
 2412SOL     OW 8134   3.254   1.604   5.553
 2412SOL    HW1 8135   3.288   1.526   5.605
 2412SOL    HW2 8136   3.327   1.671   5.541
 2413SOL     OW 8137   0.537   2.942   0.051
 2413SOL    HW1 8138   0.479   2.892   7.012
 2413SOL    HW2 8139   0.521   3.040   0.040
 2414SOL     OW 8140   6.447   1.246   4.771
 2414SOL    HW1 8141   6.382   1.257   4.847
 2414SOL    HW2 8142   6.398   1.219   4.688
 2415SOL     OW 8143   2.617   4.988   6.243
 2415SOL    HW1 8144   2.676   5.055   6.198
 2415SOL    HW2 8145   2.569   5.032   6.319
 2416SOL     OW 8146   6.858   2.357   3.095
 2416SOL    HW1 8147   6.889   2.299   3.171
 2416SOL    HW2 8148   6.784   2.312   3.047
 2417SOL     OW 8149   2.900   2.640   1.504
 2417SOL    HW1 8150   2.821   2.674   1.555
 2417SOL    HW2 8151   2.894   2.540   1.496
 2418SOL     OW 8152   4.844   3.986   6.637
 2418SOL    HW1 8153   4.848   4.047   6.558
 2418SOL    HW2 8154   4.938   3.962   6.664
 2419SOL     OW 8155   2.613   0.779   3.269
 2419SOL    HW1 8156   2.527   0.754   3.313
 2419SOL    HW2 8157   2.596   0.847   3.198
 2420SOL     OW 8158   1.201   4.039   2.270
 2420SOL    HW1 8159   1.234   3.977   2.342
 2420SOL    HW2 8160   1.164   3.985   2.194
 2421SOL     OW 8161   3.271   6.719   3.502
 2421SOL    HW1 8162   3.320   6.633   3.488
 2421SOL    HW2 8163   3.193   6.724   3.440
 2422SOL     OW 8164   4.286   4.540   1.214
 2422SOL    HW1 8165   4.226   4.520   1.136
 2422SOL    HW2 8166   4.271   4.634   1.244
 2423SOL     OW 8167   2.254   5.526   3.349
 2423SOL    HW1 8168   2.306   5.463   3.407
 2423SOL    HW2 8169   2.173   5.480   3.314
 2424SOL     OW 8170   4.729   6.890   6.259
 2424SOL    HW1 8171   4.635   6.919   6.239
 2424SOL    HW2 8172   4.751   6.810   6.203
 2425SOL     OW 8173   4.969   5.337   5.306
 2425SOL    HW1 8174   5.042   5.313   5.370
 2425SOL    HW2 8175   4.974   5.434   5.283
 2426SOL     OW 8176   2.380   2.708   4.793
 2426SOL    HW1 8177   2.394   2.619   4.749
 2426SOL    HW2 8178   2.460   2.730   4.849
 2427SOL     OW 8179   5.471   0.826   0.314
 2427SOL    HW1 8180   5.495   0.832   0.218
 2427SOL    HW2 8181   5.431   0.913   0.345
 2428SOL     OW 8182   1.516   1.478   2.810
 2428SOL    HW1 8183   1.521   1.451   2.906
 2428SOL    HW2 8184   1.520   1.578   2.804
 2429SOL     OW 8185   6.238   5.364   1.952
 2429SOL    HW1 8186   6.331   5.353   1.916
 2429SOL    HW2 8187   6.172   5.336   1.882
 2430SOL     OW 8188   6.481   0.952   6.736
 2430SOL    HW1 8189   6.466   0.975   6.833
 2430SOL    HW2 8190   6.579   0.939   6.720
 2431SOL     OW 8191   0.558   3.521   1.628
 2431SOL    HW1 8192   0.552   3.560   1.536
 2431SOL    HW2 8193   0.635   3.563   1.677
 2432SOL     OW 8194   2.460   5.465   2.132
 2432SOL    HW1 8195   2.365   5.494   2.124
 2432SOL    HW2 8196   2.501   5.458   2.041
 2433SOL     OW 8197   6.873   4.107   5.294
 2433SOL    HW1 8198   6.840   4.122   5.200
 2433SOL    HW2 8199   6.794   4.101   5.356
 2434SOL     OW 8200   4.628   0.771   2.539
 2434SOL    HW1 8201   4.667   0.854   2.577
 2434SOL    HW2 8202   4.610   0.784   2.441
 2435SOL     OW 8203   5.986   6.815   6.956
 2435SOL    HW1 8204   6.044   6.752   7.007
 2435SOL    HW2 8205   5.931   6.869   7.020
 2436SOL     OW 8206   0.273   2.757   0.718
 2436SOL    HW1 8207   0.263   2.781   0.815
 2436SOL    HW2 8208   0.317   2.833   0.669
 2437SOL     OW 8209   6.927   3.866   1.860
 2437SOL    HW1 8210   6.969   3.788   1.814
 2437SOL    HW2 8211   6.829   3.868   1.839
 2438SOL     OW 8212   3.655   1.891   4.369
 2438SOL    HW1 8213   3.580   1.866   4.430
 2438SOL    HW2 8214   3.666   1.820   4.300
 2439SOL     OW 8215   1.702   5.350   1.425
 2439SOL    HW1 8216   1.784   5.376   1.374
 2439SOL    HW2 8217   1.657   5.432   1.459
 2440SOL     OW 8218   6.923   1.001   5.608
 2440SOL    HW1 8219   6.963   1.092   5.605
 2440SOL    HW2 8220   6.989   0.935   5.571
 2441SOL     OW 8221   5.797   0.736   0.766
 2441SOL    HW1 8222   5.741   0.729   0.848
 2441SOL    HW2 8223   5.747   0.785   0.695
 2442SOL     OW 8224   5.239   2.932   1.540
 2442SOL    HW1 8225   5.153   2.901   1.581
 2442SOL    HW2 8226   5.270   2.866   1.472
 2443SOL     OW 8227   0.713   3.281   1.256
 2443SOL    HW1 8228   0.704   3.368   1.304
 2443SOL    HW2 8229   0.650   3.278   1.179
 2444SOL     OW 8230   3.328   5.662   2.609
 2444SOL    HW1 8231   3.255   5.682   2.674
 2444SOL    HW2 8232   3.387   5.589   2.645
 2445SOL     OW 8233   0.628   1.616   1.430
 2445SOL    HW1 8234   0.638   1.526   1.473
 2445SOL    HW2 8235   0.577   1.676   1.492
 2446SOL     OW 8236   0.848   5.562   2.040
 2446SOL    HW1 8237   0.923   5.596   2.096
 2446SOL    HW2 8238   0.777   5.525   2.099
 2447SOL     OW 8239   2.323   0.152   0.141
 2447SOL    HW1 8240   2.304   0.167   0.044
 2447SOL    HW2 8241   2.322   0.054   0.160
 2448SOL     OW 8242   5.451   1.044   4.739
 2448SOL    HW1 8243   5.432   0.948   4.758
 2448SOL    HW2 8244   5.484   1.089   4.822
 2449SOL     OW 8245   1.259   4.331   1.694
 2449SOL    HW1 8246   1.334   4.387   1.728
 2449SOL    HW2 8247   1.229   4.268   1.766
 2450SOL     OW 8248   1.345   6.574   5.153
 2450SOL    HW1 8249   1.290   6.491   5.158
 2450SOL    HW2 8250   1.345   6.609   5.059
 2451SOL     OW 8251   1.530   6.699   5.568
 2451SOL    HW1 8252   1.497   6.779   5.616
 2451SOL    HW2 8253   1.500   6.702   5.472
 2452SOL     OW 8254   2.322   1.875   3.351
 2452SOL    HW1 8255   2.384   1.946   3.384
 2452SOL    HW2 8256   2.284   1.903   3.262
 2453SOL     OW 8257   1.077   1.500   5.881
 2453SOL    HW1 8258   1.127   1.540   5.804
 2453SOL    HW2 8259   0.981   1.528   5.877
 2454SOL     OW 8260   3.566   6.344   1.233
 2454SOL    HW1 8261   3.609   6.329   1.322
 2454SOL    HW2 8262   3.637   6.347   1.162
 2455SOL     OW 8263   4.194   2.797   0.625
 2455SOL    HW1 8264   4.165   2.708   0.588
 2455SOL    HW2 8265   4.123   2.865   0.607
 2456SOL     OW 8266   0.592   3.325   5.817
 2456SOL    HW1 8267   0.633   3.415   5.802
 2456SOL    HW2 8268   0.497   3.326   5.784
 2457SOL     OW 8269   4.077   1.883   5.248
 2457SOL    HW1 8270   3.982   1.852   5.247
 2457SOL    HW2 8271   4.133   1.817   5.298
 2458SOL     OW 8272   0.814   6.970   2.843
 2458SOL    HW1 8273   0.765   6.890   2.810
 2458SOL    HW2 8274   0.882   6.942   2.911
 2459SOL     OW 8275   1.912   6.835   0.372
 2459SOL    HW1 8276   1.930   6.933   0.361
 2459SOL    HW2 8277   1.858   6.802   0.294
 2460SOL     OW 8278   0.863   0.922   5.062
 2460SOL    HW1 8279   0.892   0.936   5.157
 2460SOL    HW2 8280   0.763   0.917   5.058
 2461SOL     OW 8281   4.655   0.700   3.628
 2461SOL    HW1 8282   4.710   0.783   3.634
 2461SOL    HW2 8283   4.629   0.672   3.721
 2462SOL     OW 8284   0.109   4.960   0.254
 2462SOL    HW1 8285   0.010   4.964   0.265
 2462SOL    HW2 8286   0.139   4.865   0.250
 2463SOL     OW 8287   6.400   0.483   0.233
 2463SOL    HW1 8288   6.480   0.519   0.282
 2463SOL    HW2 8289   6.318   0.499   0.287
 2464SOL     OW 8290   0.885   2.146   4.375
 2464SOL    HW1 8291   0.869   2.088   4.454
 2464SOL    HW2 8292   0.823   2.120   4.301
 2465SOL     OW 8293   6.869   6.778   6.190
 2465SOL    HW1 8294   6.934   6.753   6.119
 2465SOL    HW2 8295   6.914   6.772   6.280
 2466SOL     OW 8296   0.826   1.893   1.691
 2466SOL    HW1 8297   0.805   1.986   1.660
 2466SOL    HW2 8298   0.777   1.874   1.775
 2467SOL     OW 8299   6.119   2.630   5.626
 2467SOL    HW1 8300   6.165   2.669   5.707
 2467SOL    HW2 8301   6.172   2.552   5.593
 2468SOL     OW 8302   3.596   6.844   5.426
 2468SOL    HW1 8303   3.539   6.917   5.389
 2468SOL    HW2 8304   3.594   6.847   5.526
 2469SOL     OW 8305   3.738   2.105   5.418
 2469SOL    HW1 8306   3.809   2.112   5.489
 2469SOL    HW2 8307   3.730   2.010   5.388
 2470SOL     OW 8308   2.830   5.179   6.127
 2470SOL    HW1 8309   2.894   5.102   6.131
 2470SOL    HW2 8310   2.826   5.215   6.034
 2471SOL     OW 8311   2.866   5.530   1.927
 2471SOL    HW1 8312   2.900   5.583   2.004
 2471SOL    HW2 8313   2.932   5.535   1.851
 2472SOL     OW 8314   4.973   1.627   3.176
 2472SOL    HW1 8315   5.033   1.641   3.098
 2472SOL    HW2 8316   4.955   1.714   3.221
 2473SOL     OW 8317   0.354   4.095   3.954
 2473SOL    HW1 8318   0.420   4.170   3.955
 2473SOL    HW2 8319   0.261   4.133   3.953
 2474SOL     OW 8320   1.194   5.908   1.942
 2474SOL    HW1 8321   1.103   5.896   1.902
 2474SOL    HW2 8322   1.213   5.831   2.003
 2475SOL     OW 8323   4.653   0.897   0.347
 2475SOL    HW1 8324   4.687   0.829   0.283
 2475SOL    HW2 8325   4.554   0.908   0.335
 2476SOL     OW 8326   5.023   0.796   0.380
 2476SOL    HW1 8327   5.085   0.868   0.409
 2476SOL    HW2 8328   5.061   0.748   0.301
 2477SOL     OW 8329   4.012   0.368   2.708
 2477SOL    HW1 8330   3.962   0.319   2.636
 2477SOL    HW2 8331   3.966   0.356   2.796
 2478SOL     OW 8332   4.843   6.980   4.624
 2478SOL    HW1 8333   4.813   0.014   4.548
 2478SOL    HW2 8334   4.762   6.944   4.671
 2479SOL     OW 8335   6.088   3.190   6.944
 2479SOL    HW1 8336   6.066   3.198   6.847
 2479SOL    HW2 8337   6.009   3.217   6.998
 2480SOL     OW 8338   3.221   2.289   1.486
 2480SOL    HW1 8339   3.255   2.378   1.518
 2480SOL    HW2 8340   3.149   2.258   1.548
 2481SOL     OW 8341   3.117   0.357   1.691
 2481SOL    HW1 8342   3.031   0.335   1.645
 2481SOL    HW2 8343   3.194   0.329   1.633
 2482SOL     OW 8344   6.049   3.750   6.644
 2482SOL    HW1 8345   6.021   3.793   6.558
 2482SOL    HW2 8346   6.145   3.771   6.662
 2483SOL     OW 8347   1.598   2.539   0.517
 2483SOL    HW1 8348   1.546   2.552   0.433
 2483SOL    HW2 8349   1.619   2.441   0.528
 2484SOL     OW 8350   4.919   1.263   0.943
 2484SOL    HW1 8351   4.961   1.301   0.861
 2484SOL    HW2 8352   4.827   1.230   0.922
 2485SOL     OW 8353   6.940   2.140   6.360
 2485SOL    HW1 8354   0.010   2.134   6.391
 2485SOL    HW2 8355   6.917   2.234   6.336
 2486SOL     OW 8356   6.837   5.595   4.873
 2486SOL    HW1 8357   6.897   5.628   4.801
 2486SOL    HW2 8358   6.744   5.585   4.837
 2487SOL     OW 8359   5.053   6.468   6.484
 2487SOL    HW1 8360   5.121   6.465   6.412
 2487SOL    HW2 8361   5.083   6.530   6.556
 2488SOL     OW 8362   6.373   3.972   0.551
 2488SOL    HW1 8363   6.347   3.893   0.495
 2488SOL    HW2 8364   6.307   3.983   0.626
 2489SOL     OW 8365   6.583   6.141   4.775
 2489SOL    HW1 8366   6.659   6.087   4.812
 2489SOL    HW2 8367   6.618   6.226   4.735
 2490SOL     OW 8368   2.408   5.783   3.141
 2490SOL    HW1 8369   2.357   5.798   3.056
 2490SOL    HW2 8370   2.485   5.722   3.123
 2491SOL     OW 8371   3.751   4.656   1.520
 2491SOL    HW1 8372   3.821   4.590   1.492
 2491SOL    HW2 8373   3.663   4.631   1.480
 2492SOL     OW 8374   0.039   4.440   1.662
 2492SOL    HW1 8375   7.016   4.360   1.700
 2492SOL    HW2 8376   0.095   4.482   1.733
 2493SOL     OW 8377   5.850   6.696   1.001
 2493SOL    HW1 8378   5.771   6.733   0.951
 2493SOL    HW2 8379   5.930   6.696   0.941
 2494SOL     OW 8380   6.193   4.072   2.330
 2494SOL    HW1 8381   6.233   4.111   2.413
 2494SOL    HW2 8382   6.150   4.144   2.276
 2495SOL     OW 8383   0.106   4.535   3.181
 2495SOL    HW1 8384   0.176   4.504   3.246
 2495SOL    HW2 8385   0.150   4.586   3.107
 2496SOL     OW 8386   6.104   4.545   6.195
 2496SOL    HW1 8387   6.131   4.618   6.258
 2496SOL    HW2 8388   6.184   4.490   6.171
 2497SOL     OW 8389   0.454   0.425   2.095
 2497SOL    HW1 8390   0.532   0.465   2.142
 2497SOL    HW2 8391   0.480   0.336   2.057
 2498SOL     OW 8392   1.916   4.260   5.968
 2498SOL    HW1 8393   1.967   4.284   5.885
 2498SOL    HW2 8394   1.819   4.276   5.953
 2499SOL     OW 8395   6.436   3.655   2.155
 2499SOL    HW1 8396   6.454   3.720   2.228
 2499SOL    HW2 8397   6.511   3.589   2.151
 2500SOL     OW 8398   3.226   3.965   0.114
 2500SOL    HW1 8399   3.299   4.034   0.113
 2500SOL    HW2 8400   3.242   3.898   0.041
 2501SOL     OW 8401   5.787   5.417   6.734
 2501SOL    HW1 8402   5.804   5.474   6.654
 2501SOL    HW2 8403   5.766   5.324   6.705
 2502SOL     OW 8404   3.033   5.185   4.356
 2502SOL    HW1 8405   3.001   5.126   4.281
 2502SOL    HW2 8406   2.971   5.262   4.367
 2503SOL     OW 8407   2.370   6.581   6.281
 2503SOL    HW1 8408   2.380   6.542   6.189
 2503SOL    HW2 8409   2.460   6.601   6.319
 2504SOL     OW 8410   3.665   6.493   3.761
 2504SOL    HW1 8411   3.765   6.501   3.753
 2504SOL    HW2 8412   3.624   6.584   3.759
 2505SOL     OW 8413   0.319   5.222   3.572
 2505SOL    HW1 8414   0.309   5.155   3.499
 2505SOL    HW2 8415   0.272   5.307   3.547
 2506SOL     OW 8416   5.255   5.516   6.141
 2506SOL    HW1 8417   5.157   5.526   6.125
 2506SOL    HW2 8418   5.305   5.587   6.091
 2507SOL     OW 8419   6.614   3.495   1.064
 2507SOL    HW1 8420   6.685   3.446   1.115
 2507SOL    HW2 8421   6.527   3.490   1.114
 2508SOL     OW 8422   5.046   1.841   4.126
 2508SOL    HW1 8423   5.060   1.821   4.223
 2508SOL    HW2 8424   5.131   1.875   4.087
 2509SOL     OW 8425   6.983   4.212   5.598
 2509SOL    HW1 8426   6.914   4.282   5.616
 2509SOL    HW2 8427   0.048   4.247   5.621
 2510SOL     OW 8428   3.420   4.129   1.820
 2510SOL    HW1 8429   3.491   4.104   1.886
 2510SOL    HW2 8430   3.439   4.220   1.783
 2511SOL     OW 8431   2.002   0.819   5.055
 2511SOL    HW1 8432   1.923   0.819   5.117
 2511SOL    HW2 8433   2.054   0.903   5.068
 2512SOL     OW 8434   3.820   4.916   3.939
 2512SOL    HW1 8435   3.764   4.943   4.017
 2512SOL    HW2 8436   3.866   4.830   3.959
 2513SOL     OW 8437   2.378   5.593   5.797
 2513SOL    HW1 8438   2.304   5.585   5.864
 2513SOL    HW2 8439   2.415   5.502   5.778
 2514SOL     OW 8440   1.521   2.619   2.889
 2514SOL    HW1 8441   1.547   2.573   2.804
 2514SOL    HW2 8442   1.425   2.597   2.910
 2515SOL     OW 8443   1.349   1.543   1.225
 2515SOL    HW1 8444   1.419   1.516   1.159
 2515SOL    HW2 8445   1.394   1.574   1.310
 2516SOL     OW 8446   5.975   1.667   4.243
 2516SOL    HW1 8447   6.000   1.617   4.160
 2516SOL    HW2 8448   5.877   1.656   4.261
 2517SOL     OW 8449   1.758   1.638   3.964
 2517SOL    HW1 8450   1.721   1.654   4.056
 2517SOL    HW2 8451   1.853   1.610   3.971
 2518SOL     OW 8452   3.106   5.173   1.378
 2518SOL    HW1 8453   3.026   5.171   1.438
 2518SOL    HW2 8454   3.078   5.156   1.284
 2519SOL     OW 8455   0.826   1.109   0.846
 2519SOL    HW1 8456   0.848   1.169   0.769
 2519SOL    HW2 8457   0.832   1.014   0.816
 2520SOL     OW 8458   2.784   2.052   0.518
 2520SOL    HW1 8459   2.848   2.099   0.578
 2520SOL    HW2 8460   2.800   2.079   0.424
 2521SOL     OW 8461   4.810   1.111   5.186
 2521SOL    HW1 8462   4.791   1.048   5.112
 2521SOL    HW2 8463   4.726   1.158   5.212
 2522SOL     OW 8464   0.931   2.361   6.151
 2522SOL    HW1 8465   1.015   2.388   6.105
 2522SOL    HW2 8466   0.854   2.369   6.087
 2523SOL     OW 8467   2.063   4.947   6.856
 2523SOL    HW1 8468   2.043   4.854   6.884
 2523SOL    HW2 8469   2.046   4.957   6.758
 2524SOL     OW 8470   1.879   0.010   3.823
 2524SOL    HW1 8471   1.803   7.002   3.878
 2524SOL    HW2 8472   1.856   0.099   3.784
 2525SOL     OW 8473   6.750   2.405   4.480
 2525SOL    HW1 8474   6.650   2.403   4.478
 2525SOL    HW2 8475   6.781   2.417   4.575
 2526SOL     OW 8476   1.062   6.617   0.999
 2526SOL    HW1 8477   1.141   6.589   0.945
 2526SOL    HW2 8478   1.055   6.717   0.998
 2527SOL     OW 8479   5.042   4.871   6.616
 2527SOL    HW1 8480   5.047   4.921   6.529
 2527SOL    HW2 8481   4.959   4.900   6.665
 2528SOL     OW 8482   4.434   5.657   6.901
 2528SOL    HW1 8483   4.484   5.649   6.815
 2528SOL    HW2 8484   4.405   5.752   6.914
 2529SOL     OW 8485   0.290   6.808   6.687
 2529SOL    HW1 8486   0.244   6.722   6.710
 2529SOL    HW2 8487   0.222   6.879   6.673
 2530SOL     OW 8488   1.926   5.543   6.174
 2530SOL    HW1 8489   1.857   5.477   6.146
 2530SOL    HW2 8490   2.011   5.525   6.124
 2531SOL     OW 8491   6.400   5.153   5.695
 2531SOL    HW1 8492   6.313   5.140   5.648
 2531SOL    HW2 8493   6.468   5.089   5.659
 2532SOL     OW 8494   5.924   6.366   1.336
 2532SOL    HW1 8495   5.994   6.301   1.367
 2532SOL    HW2 8496   5.852   6.374   1.404
 2533SOL     OW 8497   5.178   0.757   3.284
 2533SOL    HW1 8498   5.248   0.736   3.353
 2533SOL    HW2 8499   5.212   0.829   3.224
 2534SOL     OW 8500   4.656   1.836   2.927
 2534SOL    HW1 8501   4.586   1.775   2.890
 2534SOL    HW2 8502   4.612   1.915   2.970
 2535SOL     OW 8503   3.649   2.569   6.220
 2535SOL    HW1 8504   3.673   2.620   6.303
 2535SOL    HW2 8505   3.625   2.633   6.148
 2536SOL     OW 8506   1.272   0.521   0.305
 2536SOL    HW1 8507   1.322   0.435   0.304
 2536SOL    HW2 8508   1.208   0.525   0.228
 2537SOL     OW 8509   4.270   0.520   6.695
 2537SOL    HW1 8510   4.278   0.449   6.625
 2537SOL    HW2 8511   4.271   0.478   6.785
 2538SOL     OW 8512   6.772   3.569   3.891
 2538SOL    HW1 8513   6.780   3.562   3.991
 2538SOL    HW2 8514   6.678   3.592   3.866
 2539SOL     OW 8515   5.126   1.929   5.046
 2539SOL    HW1 8516   5.191   1.853   5.043
 2539SOL    HW2 8517   5.042   1.903   4.999
 2540SOL     OW 8518   3.641   1.334   2.260
 2540SOL    HW1 8519   3.563   1.309   2.203
 2540SOL    HW2 8520   3.642   1.278   2.343
 2541SOL     OW 8521   3.487   6.194   5.160
 2541SOL    HW1 8522   3.561   6.129   5.145
 2541SOL    HW2 8523   3.447   6.220   5.073
 2542SOL     OW 8524   1.492   5.016   6.310
 2542SOL    HW1 8525   1.561   4.944   6.309
 2542SOL    HW2 8526   1.467   5.037   6.405
 2543SOL     OW 8527   1.990   0.833   3.870
 2543SOL    HW1 8528   1.946   0.915   3.905
 2543SOL    HW2 8529   2.089   0.839   3.888
 2544SOL     OW 8530   1.026   4.672   0.217
 2544SOL    HW1 8531   0.991   4.604   0.153
 2544SOL    HW2 8532   0.994   4.763   0.190
 2545SOL     OW 8533   2.615   6.254   3.006
 2545SOL    HW1 8534   2.640   6.269   2.911
 2545SOL    HW2 8535   2.617   6.156   3.026
 2546SOL     OW 8536   6.108   1.791   1.200
 2546SOL    HW1 8537   6.098   1.773   1.103
 2546SOL    HW2 8538   6.154   1.879   1.214
 2547SOL     OW 8539   0.254   3.723   4.921
 2547SOL    HW1 8540   0.215   3.676   5.001
 2547SOL    HW2 8541   0.241   3.667   4.840
 2548SOL     OW 8542   0.690   6.449   4.272
 2548SOL    HW1 8543   0.738   6.390   4.208
 2548SOL    HW2 8544   0.709   6.545   4.250
 2549SOL     OW 8545   0.001   2.116   1.070
 2549SOL    HW1 8546   6.994   2.149   0.982
 2549SOL    HW2 8547   7.017   2.016   1.074
 2550SOL     OW 8548   5.985   6.366   0.266
 2550SOL    HW1 8549   6.045   6.385   0.343
 2550SOL    HW2 8550   6.002   6.273   0.232
 2551SOL     OW 8551   1.397   4.211   6.677
 2551SOL    HW1 8552   1.494   4.235   6.672
 2551SOL    HW2 8553   1.348   4.256   6.602
 2552SOL     OW 8554   2.155   5.730   3.640
 2552SOL    HW1 8555   2.253   5.734   3.658
 2552SOL    HW2 8556   2.110   5.809   3.681
 2553SOL     OW 8557   3.698   3.565   6.860
 2553SOL    HW1 8558   3.777   3.602   6.811
 2553SOL    HW2 8559   3.727   3.489   6.918
 2554SOL     OW 8560   1.131   1.581   0.215
 2554SOL    HW1 8561   1.036   1.577   0.243
 2554SOL    HW2 8562   1.166   1.488   0.200
 2555SOL     OW 8563   6.016   2.137   6.762
 2555SOL    HW1 8564   5.960   2.103   6.837
 2555SOL    HW2 8565   6.067   2.217   6.791
 2556SOL     OW 8566   2.931   6.239   0.577
 2556SOL    HW1 8567   3.029   6.257   0.562
 2556SOL    HW2 8568   2.920   6.166   0.645
 2557SOL     OW 8569   2.072   4.089   6.940
 2557SOL    HW1 8570   2.112   4.002   6.909
 2557SOL    HW2 8571   2.144   4.156   6.952
 2558SOL     OW 8572   4.157   0.170   6.055
 2558SOL    HW1 8573   4.216   0.093   6.031
 2558SOL    HW2 8574   4.199   0.255   6.023
 2559SOL     OW 8575   0.487   4.828   4.697
 2559SOL    HW1 8576   0.587   4.832   4.697
 2559SOL    HW2 8577   0.454   4.803   4.788
 2560SOL     OW 8578   5.813   2.125   6.498
 2560SOL    HW1 8579   5.839   2.029   6.486
 2560SOL    HW2 8580   5.845   2.157   6.587
 2561SOL     OW 8581   3.007   5.212   4.864
 2561SOL    HW1 8582   3.067   5.291   4.854
 2561SOL    HW2 8583   2.979   5.204   4.960
 2562SOL     OW 8584   1.877   3.926   0.044
 2562SOL    HW1 8585   1.823   3.992   0.096
 2562SOL    HW2 8586   1.966   3.966   0.023
 2563SOL     OW 8587   2.300   1.000   0.130
 2563SOL    HW1 8588   2.297   0.915   0.078
 2563SOL    HW2 8589   2.382   1.002   0.187
 2564SOL     OW 8590   1.869   5.263   1.733
 2564SOL    HW1 8591   1.858   5.241   1.636
 2564SOL    HW2 8592   1.915   5.187   1.779
 2565SOL     OW 8593   2.025   0.470   1.049
 2565SOL    HW1 8594   2.059   0.515   1.132
 2565SOL    HW2 8595   2.101   0.432   0.997
 2566SOL     OW 8596   1.462   6.352   6.876
 2566SOL    HW1 8597   1.377   6.404   6.890
 2566SOL    HW2 8598   1.504   6.380   6.790
 2567SOL     OW 8599   1.448   6.195   0.068
 2567SOL    HW1 8600   1.526   6.218   0.126
 2567SOL    HW2 8601   1.446   6.257   7.015
 2568SOL     OW 8602   4.864   2.912   0.035
 2568SOL    HW1 8603   4.957   2.914   0.072
 2568SOL    HW2 8604   4.837   3.005   0.010
 2569SOL     OW 8605   2.774   0.322   3.415
 2569SOL    HW1 8606   2.770   0.397   3.349
 2569SOL    HW2 8607   2.827   0.247   3.377
 2570SOL     OW 8608   5.434   1.957   6.103
 2570SOL    HW1 8609   5.347   1.946   6.054
 2570SOL    HW2 8610   5.415   1.995   6.194
 2571SOL     OW 8611   1.198   4.369   4.564
 2571SOL    HW1 8612   1.134   4.309   4.516
 2571SOL    HW2 8613   1.249   4.316   4.632
 2572SOL     OW 8614   2.107   4.864   3.012
 2572SOL    HW1 8615   2.020   4.912   3.023
 2572SOL    HW2 8616   2.177   4.911   3.066
 2573SOL     OW 8617   1.110   0.252   1.061
 2573SOL    HW1 8618   1.023   0.202   1.063
 2573SOL    HW2 8619   1.186   0.187   1.054
 2574SOL     OW 8620   6.620   3.250   6.927
 2574SOL    HW1 8621   6.705   3.240   6.978
 2574SOL    HW2 8622   6.635   3.307   6.847
 2575SOL     OW 8623   0.168   5.492   6.046
 2575SOL    HW1 8624   0.266   5.476   6.047
 2575SOL    HW2 8625   0.150   5.589   6.035
 2576SOL     OW 8626   4.345   6.210   3.965
 2576SOL    HW1 8627   4.440   6.177   3.968
 2576SOL    HW2 8628   4.288   6.141   3.921
 2577SOL     OW 8629   2.687   4.637   2.312
 2577SOL    HW1 8630   2.705   4.568   2.243
 2577SOL    HW2 8631   2.695   4.728   2.271
 2578SOL     OW 8632   4.075   2.238   4.150
 2578SOL    HW1 8633   4.113   2.256   4.059
 2578SOL    HW2 8634   3.984   2.198   4.140
 2579SOL     OW 8635   1.125   6.210   3.589
 2579SOL    HW1 8636   1.207   6.172   3.546
 2579SOL    HW2 8637   1.044   6.176   3.541
 2580SOL     OW 8638   1.536   2.936   6.241
 2580SOL    HW1 8639   1.528   2.870   6.315
 2580SOL    HW2 8640   1.574   2.890   6.160
 2581SOL     OW 8641   3.628   0.020   5.118
 2581SOL    HW1 8642   3.577   7.019   5.036
 2581SOL    HW2 8643   3.700   6.979   5.135
 2582SOL     OW 8644   0.212   2.901   1.599
 2582SOL    HW1 8645   0.286   2.936   1.657
 2582SOL    HW2 8646   0.203   2.802   1.613
 2583SOL     OW 8647   5.777   0.044   0.774
 2583SOL    HW1 8648   5.788   0.104   0.853
 2583SOL    HW2 8649   5.760   6.976   0.806
 2584SOL     OW 8650   4.577   4.905   5.750
 2584SOL    HW1 8651   4.636   4.971   5.797
 2584SOL    HW2 8652   4.592   4.911   5.652
 2585SOL     OW 8653   3.270   5.366   6.353
 2585SOL    HW1 8654   3.315   5.282   6.322
 2585SOL    HW2 8655   3.187   5.343   6.403
 2586SOL     OW 8656   2.330   0.994   4.278
 2586SOL    HW1 8657   2.322   1.037   4.369
 2586SOL    HW2 8658   2.306   0.898   4.285
 2587SOL     OW 8659   6.481   1.331   3.608
 2587SOL    HW1 8660   6.416   1.320   3.683
 2587SOL    HW2 8661   6.574   1.338   3.645
 2588SOL     OW 8662   4.148   0.747   5.860
 2588SOL    HW1 8663   4.205   0.820   5.895
 2588SOL    HW2 8664   4.201   0.690   5.796
 2589SOL     OW 8665   1.692   6.478   0.131
 2589SOL    HW1 8666   1.711   6.422   0.051
 2589SOL    HW2 8667   1.742   6.564   0.124
 2590SOL     OW 8668   2.752   5.978   1.171
 2590SOL    HW1 8669   2.794   5.912   1.109
 2590SOL    HW2 8670   2.720   6.058   1.119
 2591SOL     OW 8671   5.955   5.861   3.988
 2591SOL    HW1 8672   6.034   5.821   4.035
 2591SOL    HW2 8673   5.985   5.940   3.934
 2592SOL     OW 8674   2.106   4.380   0.551
 2592SOL    HW1 8675   2.076   4.474   0.534
 2592SOL    HW2 8676   2.129   4.369   0.647
 2593SOL     OW 8677   3.150   4.290   0.783
 2593SOL    HW1 8678   3.128   4.388   0.786
 2593SOL    HW2 8679   3.080   4.242   0.729
 2594SOL     OW 8680   1.378   3.834   4.545
 2594SOL    HW1 8681   1.448   3.842   4.474
 2594SOL    HW2 8682   1.409   3.771   4.616
 2595SOL     OW 8683   1.915   0.938   2.936
 2595SOL    HW1 8684   1.940   1.019   2.883
 2595SOL    HW2 8685   1.918   0.858   2.877
 2596SOL     OW 8686   1.255   2.695   6.865
 2596SOL    HW1 8687   1.287   2.788   6.846
 2596SOL    HW2 8688   1.215   2.656   6.783
 2597SOL     OW 8689   6.869   5.898   6.176
 2597SOL    HW1 8690   6.807   5.821   6.159
 2597SOL    HW2 8691   6.874   5.916   6.274
 2598SOL     OW 8692   5.454   2.493   2.360
 2598SOL    HW1 8693   5.486   2.438   2.438
 2598SOL    HW2 8694   5.531   2.510   2.298
 2599SOL     OW 8695   2.829   6.307   1.705
 2599SOL    HW1 8696   2.903   6.374   1.695
 2599SOL    HW2 8697   2.854   6.222   1.660
 2600SOL     OW 8698   6.166   4.265   4.488
 2600SOL    HW1 8699   6.217   4.233   4.409
 2600SOL    HW2 8700   6.157   4.365   4.483
 2601SOL     OW 8701   6.808   1.869   3.451
 2601SOL    HW1 8702   6.747   1.899   3.525
 2601SOL    HW2 8703   6.796   1.771   3.435
 2602SOL     OW 8704   1.428   4.464   3.584
 2602SOL    HW1 8705   1.506   4.522   3.566
 2602SOL    HW2 8706   1.412   4.458   3.683
 2603SOL     OW 8707   3.267   6.669   2.826
 2603SOL    HW1 8708   3.286   6.572   2.818
 2603SOL    HW2 8709   3.351   6.721   2.813
 2604SOL     OW 8710   4.651   2.411   3.077
 2604SOL    HW1 8711   4.627   2.346   3.149
 2604SOL    HW2 8712   4.733   2.461   3.103
 2605SOL     OW 8713   1.980   3.976   1.541
 2605SOL    HW1 8714   1.884   4.002   1.527
 2605SOL    HW2 8715   1.984   3.878   1.563
 2606SOL     OW 8716   4.607   3.454   1.357
 2606SOL    HW1 8717   4.590   3.409   1.444
 2606SOL    HW2 8718   4.619   3.552   1.372
 2607SOL     OW 8719   2.660   2.409   1.390
 2607SOL    HW1 8720   2.606   2.325   1.383
 2607SOL    HW2 8721   2.754   2.386   1.416
 2608SOL     OW 8722   2.425   4.845   5.416
 2608SOL    HW1 8723   2.509   4.840   5.363
 2608SOL    HW2 8724   2.447   4.869   5.511
 2609SOL     OW 8725   6.865   2.499   0.790
 2609SOL    HW1 8726   6.846   2.541   0.701
 2609SOL    HW2 8727   6.959   2.463   0.790
 2610SOL     OW 8728   1.217   4.626   4.675
 2610SOL    HW1 8729   1.199   4.535   4.639
 2610SOL    HW2 8730   1.130   4.673   4.693
 2611SOL     OW 8731   5.357   6.966   6.251
 2611SOL    HW1 8732   5.409   6.984   6.168
 2611SOL    HW2 8733   5.265   6.935   6.227
 2612SOL     OW 8734   6.422   0.321   5.591
 2612SOL    HW1 8735   6.486   0.398   5.600
 2612SOL    HW2 8736   6.334   0.346   5.631
 2613SOL     OW 8737   0.747   6.237   6.850
 2613SOL    HW1 8738   0.718   6.333   6.855
 2613SOL    HW2 8739   0.846   6.232   6.860
 2614SOL     OW 8740   6.317   1.225   6.755
 2614SOL    HW1 8741   6.331   1.126   6.749
 2614SOL    HW2 8742   6.406   1.270   6.764
 2615SOL     OW 8743   0.544   3.538   0.307
 2615SOL    HW1 8744   0.625   3.585   0.342
 2615SOL    HW2 8745   0.560   3.510   0.212
 2616SOL     OW 8746   1.407   0.833   5.477
 2616SOL    HW1 8747   1.319   0.829   5.430
 2616SOL    HW2 8748   1.393   0.859   5.572
 2617SOL     OW 8749   5.244   0.226   1.034
 2617SOL    HW1 8750   5.244   0.230   1.134
 2617SOL    HW2 8751   5.323   0.174   1.002
 2618SOL     OW 8752   0.948   6.280   6.347
 2618SOL    HW1 8753   1.039   6.272   6.307
 2618SOL    HW2 8754   0.930   6.200   6.405
 2619SOL     OW 8755   5.443   1.062   2.210
 2619SOL    HW1 8756   5.404   1.028   2.296
 2619SOL    HW2 8757   5.499   0.990   2.169
 2620SOL     OW 8758   5.819   1.118   1.220
 2620SOL    HW1 8759   5.820   1.155   1.127
 2620SOL    HW2 8760   5.730   1.135   1.263
 2621SOL     OW 8761   1.471   6.539   1.701
 2621SOL    HW1 8762   1.527   6.519   1.621
 2621SOL    HW2 8763   1.528   6.581   1.772
 2622SOL     OW 8764   3.621   3.530   6.430
 2622SOL    HW1 8765   3.687   3.491   6.366
 2622SOL    HW2 8766   3.629   3.484   6.518
 2623SOL     OW 8767   1.072   6.503   3.651
 2623SOL    HW1 8768   1.090   6.599   3.672
 2623SOL    HW2 8769   1.139   6.470   3.585
 2624SOL     OW 8770   0.344   1.808   5.437
 2624SOL    HW1 8771   0.352   1.794   5.536
 2624SOL    HW2 8772   0.248   1.812   5.411
 2625SOL     OW 8773   2.329   4.893   6.226
 2625SOL    HW1 8774   2.341   4.794   6.211
 2625SOL    HW2 8775   2.392   4.943   6.167
 2626SOL     OW 8776   6.807   5.606   0.028
 2626SOL    HW1 8777   6.844   5.667   6.983
 2626SOL    HW2 8778   6.871   5.599   0.104
 2627SOL     OW 8779   2.189   0.116   5.938
 2627SOL    HW1 8780   2.138   0.189   5.983
 2627SOL    HW2 8781   2.136   0.031   5.941
 2628SOL     OW 8782   0.637   4.484   1.974
 2628SOL    HW1 8783   0.721   4.474   1.920
 2628SOL    HW2 8784   0.561   4.441   1.927
 2629SOL     OW 8785   3.318   3.597   2.520
 2629SOL    HW1 8786   3.282   3.668   2.460
 2629SOL    HW2 8787   3.321   3.631   2.614
 2630SOL     OW 8788   4.026   0.896   4.066
 2630SOL    HW1 8789   3.951   0.933   4.012
 2630SOL    HW2 8790   3.990   0.837   4.139
 2631SOL     OW 8791   6.074   0.268   6.844
 2631SOL    HW1 8792   6.164   0.224   6.847
 2631SOL    HW2 8793   6.016   0.229   6.916
 2632SOL     OW 8794   5.200   4.612   2.410
 2632SOL    HW1 8795   5.220   4.610   2.312
 2632SOL    HW2 8796   5.116   4.665   2.426
 2633SOL     OW 8797   0.339   3.066   6.062
 2633SOL    HW1 8798   0.407   3.062   5.990
 2633SOL    HW2 8799   0.376   3.025   6.145
 2634SOL     OW 8800   0.404   0.613   6.121
 2634SOL    HW1 8801   0.307   0.634   6.129
 2634SOL    HW2 8802   0.420   0.564   6.035
 2635SOL     OW 8803   5.102   5.462   3.477
 2635SOL    HW1 8804   5.197   5.477   3.504
 2635SOL    HW2 8805   5.045   5.534   3.518
 2636SOL     OW 8806   3.980   5.743   5.320
 2636SOL    HW1 8807   4.057   5.685   5.345
 2636SOL    HW2 8808   3.914   5.691   5.266
 2637SOL     OW 8809   1.215   0.882   3.280
 2637SOL    HW1 8810   1.305   0.837   3.277
 2637SOL    HW2 8811   1.199   0.929   3.193
 2638SOL     OW 8812   0.894   6.349   4.507
 2638SOL    HW1 8813   0.921   6.346   4.411
 2638SOL    HW2 8814   0.834   6.427   4.523
 2639SOL     OW 8815   4.515   4.718   5.317
 2639SOL    HW1 8816   4.522   4.815   5.342
 2639SOL    HW2 8817   4.563   4.663   5.385
 2640SOL     OW 8818   2.098   0.206   3.537
 2640SOL    HW1 8819   2.163   0.246   3.602
 2640SOL    HW2 8820   2.114   0.108   3.531
 2641SOL     OW 8821   6.253   2.409   6.673
 2641SOL    HW1 8822   6.228   2.416   6.769
 2641SOL    HW2 8823   6.308   2.489   6.647
 2642SOL     OW 8824   6.314   0.615   3.664
 2642SOL    HW1 8825   6.292   0.712   3.650
 2642SOL    HW2 8826   6.351   0.577   3.579
 2643SOL     OW 8827   2.143   4.659   3.563
 2643SOL    HW1 8828   2.088   4.578   3.580
 2643SOL    HW2 8829   2.085   4.731   3.526
 2644SOL     OW 8830   4.883   5.224   4.683
 2644SOL    HW1 8831   4.903   5.265   4.595
 2644SOL    HW2 8832   4.949   5.255   4.751
 2645SOL     OW 8833   5.028   5.871   3.716
 2645SOL    HW1 8834   4.962   5.936   3.754
 2645SOL    HW2 8835   5.012   5.781   3.756
 2646SOL     OW 8836   0.836   2.818   6.200
 2646SOL    HW1 8837   0.917   2.760   6.206
 2646SOL    HW2 8838   0.857   2.908   6.238
 2647SOL     OW 8839   5.215   0.303   1.986
 2647SOL    HW1 8840   5.270   0.385   1.976
 2647SOL    HW2 8841   5.275   0.224   2.000
 2648SOL     OW 8842   0.739   0.094   6.767
 2648SOL    HW1 8843   0.731   0.052   6.677
 2648SOL    HW2 8844   0.825   0.066   6.810
 2649SOL     OW 8845   5.105   1.649   2.958
 2649SOL    HW1 8846   5.018   1.657   2.909
 2649SOL    HW2 8847   5.154   1.736   2.954
 2650SOL     OW 8848   2.820   6.247   4.099
 2650SOL    HW1 8849   2.854   6.156   4.076
 2650SOL    HW2 8850   2.897   6.309   4.112
 2651SOL     OW 8851   4.103   2.152   4.530
 2651SOL    HW1 8852   4.138   2.238   4.566
 2651SOL    HW2 8853   4.151   2.076   4.574
 2652SOL     OW 8854   5.059   4.201   5.419
 2652SOL    HW1 8855   5.151   4.236   5.401
 2652SOL    HW2 8856   4.991   4.271   5.395
 2653SOL     OW 8857   2.606   5.677   0.182
 2653SOL    HW1 8858   2.652   5.765   0.194
 2653SOL    HW2 8859   2.532   5.669   0.249
 2654SOL     OW 8860   6.317   1.156   0.530
 2654SOL    HW1 8861   6.240   1.216   0.510
 2654SOL    HW2 8862   6.285   1.079   0.585
 2655SOL     OW 8863   5.197   6.571   2.709
 2655SOL    HW1 8864   5.241   6.606   2.792
 2655SOL    HW2 8865   5.143   6.644   2.667
 2656SOL     OW 8866   4.602   6.162   3.342
 2656SOL    HW1 8867   4.531   6.231   3.327
 2656SOL    HW2 8868   4.586   6.084   3.282
 2657SOL     OW 8869   0.185   3.873   0.005
 2657SOL    HW1 8870   0.110   3.904   0.064
 2657SOL    HW2 8871   0.267   3.926   0.024
 2658SOL     OW 8872   3.319   5.327   0.711
 2658SOL    HW1 8873   3.408   5.369   0.693
 2658SOL    HW2 8874   3.277   5.299   0.625
 2659SOL     OW 8875   0.227   2.092   5.128
 2659SOL    HW1 8876   0.262   2.043   5.207
 2659SOL    HW2 8877   0.270   2.055   5.045
 2660SOL     OW 8878   0.496   1.665   2.159
 2660SOL    HW1 8879   0.444   1.630   2.082
 2660SOL    HW2 8880   0.550   1.591   2.199
 2661SOL     OW 8881   1.143   1.056   1.096
 2661SOL    HW1 8882   1.043   1.050   1.092
 2661SOL    HW2 8883   1.176   1.106   1.015
 2662SOL     OW 8884   3.102   1.497   2.270
 2662SOL    HW1 8885   3.187   1.488   2.322
 2662SOL    HW2 8886   3.071   1.592   2.272
 2663SOL     OW 8887   4.242   6.898   0.378
 2663SOL    HW1 8888   4.179   6.863   0.447
 2663SOL    HW2 8889   4.329   6.848   0.383
 2664SOL     OW 8890   4.682   3.929   5.269
 2664SOL    HW1 8891   4.672   3.923   5.369
 2664SOL    HW2 8892   4.685   4.025   5.241
 2665SOL     OW 8893   2.144   3.760   4.340
 2665SOL    HW1 8894   2.082   3.803   4.405
 2665SOL    HW2 8895   2.200   3.692   4.387
 2666SOL     OW 8896   1.925   4.257   1.821
 2666SOL    HW1 8897   1.904   4.339   1.768
 2666SOL    HW2 8898   1.887   4.177   1.774
 2667SOL     OW 8899   0.077   3.031   4.969
 2667SOL    HW1 8900   0.033   3.044   5.058
 2667SOL    HW2 8901   0.132   3.111   4.947
 2668SOL     OW 8902   6.228   0.626   3.243
 2668SOL    HW1 8903   6.290   0.574   3.302
 2668SOL    HW2 8904   6.227   0.585   3.152
 2669SOL     OW 8905   2.452   0.623   0.098
 2669SOL    HW1 8906   2.507   0.540   0.090
 2669SOL    HW2 8907   2.491   0.682   0.169
 2670SOL     OW 8908   0.457   0.211   6.431
 2670SOL    HW1 8909   0.506   0.280   6.377
 2670SOL    HW2 8910   0.373   0.251   6.467
 2671SOL     OW 8911   5.385   4.449   6.132
 2671SOL    HW1 8912   5.452   4.447   6.058
 2671SOL    HW2 8913   5.293   4.437   6.095
 2672SOL     OW 8914   3.439   1.279   2.063
 2672SOL    HW1 8915   3.371   1.213   2.033
 2672SOL    HW2 8916   3.472   1.332   1.984
 2673SOL     OW 8917   3.564   0.583   2.636
 2673SOL    HW1 8918   3.525   0.512   2.695
 2673SOL    HW2 8919   3.492   0.647   2.609
 2674SOL     OW 8920   0.317   5.502   3.073
 2674SOL    HW1 8921   0.221   5.530   3.071
 2674SOL    HW2 8922   0.372   5.573   3.117
 2675SOL     OW 8923   4.967   0.775   3.970
 2675SOL    HW1 8924   4.965   0.679   3.945
 2675SOL    HW2 8925   4.874   0.810   3.979
 2676SOL     OW 8926   3.898   4.048   3.612
 2676SOL    HW1 8927   3.800   4.064   3.602
 2676SOL    HW2 8928   3.926   4.073   3.705
 2677SOL     OW 8929   2.078   5.744   1.175
 2677SOL    HW1 8930   2.158   5.752   1.115
 2677SOL    HW2 8931   2.015   5.676   1.137
 2678SOL     OW 8932   3.772   1.824   3.096
 2678SOL    HW1 8933   3.798   1.728   3.090
 2678SOL    HW2 8934   3.718   1.849   3.016
 2679SOL     OW 8935   2.145   3.036   2.463
 2679SOL    HW1 8936   2.162   2.937   2.469
 2679SOL    HW2 8937   2.134   3.061   2.367
 2680SOL     OW 8938   5.945   1.805   0.010
 2680SOL    HW1 8939   5.891   1.773   6.957
 2680SOL    HW2 8940   5.913   1.761   0.093
 2681SOL     OW 8941   1.587   2.397   3.794
 2681SOL    HW1 8942   1.560   2.464   3.863
 2681SOL    HW2 8943   1.636   2.322   3.838
 2682SOL     OW 8944   3.866   4.270   1.593
 2682SOL    HW1 8945   3.906   4.209   1.525
 2682SOL    HW2 8946   3.778   4.304   1.560
 2683SOL     OW 8947   2.363   4.302   1.951
 2683SOL    HW1 8948   2.321   4.265   2.034
 2683SOL    HW2 8949   2.291   4.328   1.886
 2684SOL     OW 8950   0.098   0.091   4.042
 2684SOL    HW1 8951   0.191   0.059   4.027
 2684SOL    HW2 8952   0.093   0.139   4.130
 2685SOL     OW 8953   0.569   5.990   5.736
 2685SOL    HW1 8954   0.554   5.991   5.835
 2685SOL    HW2 8955   0.561   5.896   5.702
 2686SOL     OW 8956   0.859   1.091   5.666
 2686SOL    HW1 8957   0.835   1.188   5.655
 2686SOL    HW2 8958   0.816   1.056   5.749
 2687SOL     OW 8959   4.022   1.679   1.432
 2687SOL    HW1 8960   4.041   1.680   1.530
 2687SOL    HW2 8961   4.027   1.584   1.398
 2688SOL     OW 8962   3.972   2.449   6.409
 2688SOL    HW1 8963   3.969   2.548   6.418
 2688SOL    HW2 8964   3.887   2.409   6.445
 2689SOL     OW 8965   1.041   3.842   3.358
 2689SOL    HW1 8966   1.048   3.899   3.440
 2689SOL    HW2 8967   0.946   3.840   3.327
 2690SOL     OW 8968   4.821   1.621   5.818
 2690SOL    HW1 8969   4.875   1.701   5.842
 2690SOL    HW2 8970   4.834   1.550   5.887
 2691SOL     OW 8971   6.923   3.530   5.631
 2691SOL    HW1 8972   6.929   3.559   5.536
 2691SOL    HW2 8973   6.854   3.458   5.639
 2692SOL     OW 8974   2.215   5.931   2.356
 2692SOL    HW1 8975   2.195   6.028   2.365
 2692SOL    HW2 8976   2.233   5.909   2.260
 2693SOL     OW 8977   1.345   6.105   3.414
 2693SOL    HW1 8978   1.427   6.146   3.454
 2693SOL    HW2 8979   1.320   6.155   3.331
 2694SOL     OW 8980   2.886   0.104   2.440
 2694SOL    HW1 8981   2.975   0.061   2.457
 2694SOL    HW2 8982   2.815   0.034   2.441
 2695SOL     OW 8983   0.112   5.417   3.517
 2695SOL    HW1 8984   0.193   5.461   3.478
 2695SOL    HW2 8985   0.054   5.486   3.561
 2696SOL     OW 8986   4.929   5.202   6.267
 2696SOL    HW1 8987   4.897   5.164   6.180
 2696SOL    HW2 8988   4.861   5.266   6.303
 2697SOL     OW 8989   4.361   2.577   6.622
 2697SOL    HW1 8990   4.303   2.658   6.630
 2697SOL    HW2 8991   4.413   2.565   6.707
 2698SOL     OW 8992   1.619   5.259   6.226
 2698SOL    HW1 8993   1.621   5.163   6.255
 2698SOL    HW2 8994   1.554   5.309   6.282
 2699SOL     OW 8995   2.838   6.409   1.982
 2699SOL    HW1 8996   2.933   6.438   1.976
 2699SOL    HW2 8997   2.832   6.311   1.962
 2700SOL     OW 8998   3.910   1.661   1.759
 2700SOL    HW1 8999   3.882   1.756   1.745
 2700SOL    HW2 9000   3.880   1.605   1.682
 2701SOL     OW 9001   4.766   2.957   4.702
 2701SOL    HW1 9002   4.782   2.868   4.744
 2701SOL    HW2 9003   4.752   3.026   4.773
 2702SOL     OW 9004   2.502   1.224   4.863
 2702SOL    HW1 9005   2.547   1.266   4.784
 2702SOL    HW2 9006   2.487   1.294   4.933
 2703SOL     OW 9007   2.554   6.754   2.221
 2703SOL    HW1 9008   2.499   6.675   2.249
 2703SOL    HW2 9009   2.497   6.836   2.221
 2704SOL     OW 9010   5.600   0.604   3.311
 2704SOL    HW1 9011   5.556   0.542   3.376
 2704SOL    HW2 9012   5.562   0.589   3.220
 2705SOL     OW 9013   0.444   0.236   5.594
 2705SOL    HW1 9014   0.513   0.173   5.631
 2705SOL    HW2 9015   0.365   0.238   5.655
 2706SOL     OW 9016   6.550   3.601   3.389
 2706SOL    HW1 9017   6.460   3.570   3.421
 2706SOL    HW2 9018   6.613   3.605   3.467
 2707SOL     OW 9019   4.690   1.125   3.094
 2707SOL    HW1 9020   4.754   1.202   3.102
 2707SOL    HW2 9021   4.740   1.044   3.062
 2708SOL     OW 9022   5.260   3.468   5.933
 2708SOL    HW1 9023   5.214   3.534   5.992
 2708SOL    HW2 9024   5.359   3.472   5.950
 2709SOL     OW 9025   5.410   1.465   5.632
 2709SOL    HW1 9026   5.453   1.431   5.549
 2709SOL    HW2 9027   5.477   1.513   5.688
 2710SOL     OW 9028   0.793   2.569   4.702
 2710SOL    HW1 9029   0.835   2.658   4.718
 2710SOL    HW2 9030   0.717   2.579   4.638
 2711SOL     OW 9031   3.874   1.292   1.953
 2711SOL    HW1 9032   3.902   1.230   2.026
 2711SOL    HW2 9033   3.869   1.386   1.988
 2712SOL     OW 9034   4.380   6.100   2.400
 2712SOL    HW1 9035   4.415   6.175   2.345
 2712SOL    HW2 9036   4.284   6.083   2.378
 2713SOL     OW 9037   3.871   4.811   5.228
 2713SOL    HW1 9038   3.775   4.801   5.205
 2713SOL    HW2 9039   3.910   4.721   5.247
 2714SOL     OW 9040   3.138   4.808   6.468
 2714SOL    HW1 9041   3.064   4.810   6.536
 2714SOL    HW2 9042   3.225   4.825   6.513
 2715SOL     OW 9043   4.350   0.256   6.542
 2715SOL    HW1 9044   4.411   0.178   6.524
 2715SOL    HW2 9045   4.256   0.225   6.543
 2716SOL     OW 9046   3.613   1.437   2.915
 2716SOL    HW1 9047   3.557   1.449   2.832
 2716SOL    HW2 9048   3.664   1.351   2.909
 2717SOL     OW 9049   0.870   1.707   2.066
 2717SOL    HW1 9050   0.851   1.615   2.101
 2717SOL    HW2 9051   0.815   1.723   1.984
 2718SOL     OW 9052   0.250   0.699   5.831
 2718SOL    HW1 9053   0.230   0.747   5.916
 2718SOL    HW2 9054   0.325   0.745   5.783
 2719SOL     OW 9055   1.225   4.587   3.036
 2719SOL    HW1 9056   1.293   4.622   2.972
 2719SOL    HW2 9057   1.201   4.659   3.101
 2720SOL     OW 9058   2.167   6.194   6.225
 2720SOL    HW1 9059   2.158   6.220   6.129
 2720SOL    HW2 9060   2.164   6.276   6.282
 2721SOL     OW 9061   2.781   6.619   1.826
 2721SOL    HW1 9062   2.685   6.645   1.832
 2721SOL    HW2 9063   2.798   6.541   1.885
 2722SOL     OW 9064   4.201   5.684   6.431
 2722SOL    HW1 9065   4.277   5.682   6.365
 2722SOL    HW2 9066   4.136   5.611   6.409
 2723SOL     OW 9067   3.271   5.951   6.665
 2723SOL    HW1 9068   3.351   5.976   6.719
 2723SOL    HW2 9069   3.269   6.005   6.581
 2724SOL     OW 9070   0.407   6.448   0.784
 2724SOL    HW1 9071   0.503   6.438   0.810
 2724SOL    HW2 9072   0.355   6.484   0.861
 2725SOL     OW 9073   6.075   4.169   4.738
 2725SOL    HW1 9074   6.090   4.206   4.647
 2725SOL    HW2 9075   5.993   4.210   4.778
 2726SOL     OW 9076   6.455   1.662   1.915
 2726SOL    HW1 9077   6.362   1.700   1.924
 2726SOL    HW2 9078   6.515   1.704   1.982
 2727SOL     OW 9079   1.776   5.178   3.691
 2727SOL    HW1 9080   1.703   5.111   3.701
 2727SOL    HW2 9081   1.795   5.220   3.780
 2728SOL     OW 9082   4.747   5.545   5.779
 2728SOL    HW1 9083   4.649   5.558   5.771
 2728SOL    HW2 9084   4.795   5.627   5.747
 2729SOL     OW 9085   5.637   0.761   6.295
 2729SOL    HW1 9086   5.707   0.807   6.241
 2729SOL    HW2 9087   5.669   0.671   6.322
 2730SOL     OW 9088   1.584   5.585   2.007
 2730SOL    HW1 9089   1.499   5.551   1.968
 2730SOL    HW2 9090   1.661   5.530   1.971
 2731SOL     OW 9091   2.944   3.769   4.045
 2731SOL    HW1 9092   2.907   3.676   4.048
 2731SOL    HW2 9093   2.985   3.792   4.134
 2732SOL     OW 9094   5.792   0.357   1.825
 2732SOL    HW1 9095   5.875   0.307   1.801
 2732SOL    HW2 9096   5.816   0.438   1.880
 2733SOL     OW 9097   1.008   5.867   6.947
 2733SOL    HW1 9098   0.946   5.822   7.011
 2733SOL    HW2 9099   1.089   5.810   6.932
 2734SOL     OW 9100   3.563   6.091   2.668
 2734SOL    HW1 9101   3.475   6.079   2.622
 2734SOL    HW2 9102   3.585   6.009   2.720
 2735SOL     OW 9103   0.579   1.356   1.515
 2735SOL    HW1 9104   0.488   1.394   1.529
 2735SOL    HW2 9105   0.579   1.300   1.432
 2736SOL     OW 9106   4.922   4.229   3.375
 2736SOL    HW1 9107   4.998   4.201   3.315
 2736SOL    HW2 9108   4.946   4.314   3.422
 2737SOL     OW 9109   2.959   0.612   5.306
 2737SOL    HW1 9110   2.872   0.656   5.284
 2737SOL    HW2 9111   2.961   0.521   5.264
 2738SOL     OW 9112   5.503   5.968   1.405
 2738SOL    HW1 9113   5.424   5.997   1.459
 2738SOL    HW2 9114   5.585   6.015   1.439
 2739SOL     OW 9115   6.744   5.197   1.401
 2739SOL    HW1 9116   6.736   5.121   1.466
 2739SOL    HW2 9117   6.823   5.254   1.425
 2740SOL     OW 9118   0.056   5.852   3.102
 2740SOL    HW1 9119   0.141   5.881   3.146
 2740SOL    HW2 9120   7.016   5.928   3.101
 2741SOL     OW 9121   1.468   0.271   5.892
 2741SOL    HW1 9122   1.430   0.296   5.981
 2741SOL    HW2 9123   1.441   0.177   5.871
 2742SOL     OW 9124   3.248   5.684   1.842
 2742SOL    HW1 9125   3.157   5.687   1.799
 2742SOL    HW2 9126   3.318   5.695   1.771
 2743SOL     OW 9127   5.350   1.910   1.874
 2743SOL    HW1 9128   5.412   1.832   1.869
 2743SOL    HW2 9129   5.305   1.922   1.786
 2744SOL     OW 9130   3.163   4.043   2.573
 2744SOL    HW1 9131   3.063   4.038   2.578
 2744SOL    HW2 9132   3.193   4.026   2.479
 2745SOL     OW 9133   0.493   6.173   0.584
 2745SOL    HW1 9134   0.503   6.126   0.672
 2745SOL    HW2 9135   0.578   6.164   0.532
 2746SOL     OW 9136   1.470   0.789   3.254
 2746SOL    HW1 9137   1.525   0.814   3.334
 2746SOL    HW2 9138   1.523   0.806   3.171
 2747SOL     OW 9139   3.792   5.010   0.941
 2747SOL    HW1 9140   3.748   4.958   1.014
 2747SOL    HW2 9141   3.762   4.973   0.852
 2748SOL     OW 9142   4.490   0.244   0.375
 2748SOL    HW1 9143   4.491   0.210   0.468
 2748SOL    HW2 9144   4.534   0.334   0.371
 2749SOL     OW 9145   3.332   1.985   0.622
 2749SOL    HW1 9146   3.262   1.938   0.674
 2749SOL    HW2 9147   3.338   2.080   0.653
 2750SOL     OW 9148   3.304   5.497   2.314
 2750SOL    HW1 9149   3.339   5.568   2.253
 2750SOL    HW2 9150   3.288   5.536   2.405
 2751SOL     OW 9151   5.776   4.906   1.157
 2751SOL    HW1 9152   5.824   4.993   1.167
 2751SOL    HW2 9153   5.833   4.841   1.107
 2752SOL     OW 9154   3.926   5.029   0.115
 2752SOL    HW1 9155   3.872   4.976   0.180
 2752SOL    HW2 9156   4.002   4.973   0.082
 2753SOL     OW 9157   5.569   5.669   5.424
 2753SOL    HW1 9158   5.504   5.593   5.415
 2753SOL    HW2 9159   5.658   5.632   5.452
 2754SOL     OW 9160   1.456   7.004   6.244
 2754SOL    HW1 9161   1.393   0.057   6.245
 2754SOL    HW2 9162   1.503   6.999   6.156
 2755SOL     OW 9163   3.372   0.658   2.307
 2755SOL    HW1 9164   3.350   0.721   2.233
 2755SOL    HW2 9165   3.471   0.651   2.317
 2756SOL     OW 9166   4.771   5.798   0.398
 2756SOL    HW1 9167   4.709   5.747   0.339
 2756SOL    HW2 9168   4.850   5.742   0.420
 2757SOL     OW 9169   0.074   5.120   1.317
 2757SOL    HW1 9170   0.002   5.102   1.251
 2757SOL    HW2 9171   0.094   5.037   1.368
 2758SOL     OW 9172   4.034   0.098   6.288
 2758SOL    HW1 9173   4.023   7.024   6.276
 2758SOL    HW2 9174   4.093   0.133   6.215
 2759SOL     OW 9175   5.058   5.355   4.876
 2759SOL    HW1 9176   5.143   5.358   4.823
 2759SOL    HW2 9177   5.022   5.448   4.885
 2760SOL     OW 9178   2.768   5.937   4.042
 2760SOL    HW1 9179   2.728   5.958   3.952
 2760SOL    HW2 9180   2.802   5.843   4.041
 2761SOL     OW 9181   1.967   5.304   3.523
 2761SOL    HW1 9182   1.972   5.400   3.549
 2761SOL    HW2 9183   1.913   5.253   3.591
 2762SOL     OW 9184   1.329   0.064   4.881
 2762SOL    HW1 9185   1.266   7.012   4.869
 2762SOL    HW2 9186   1.316   0.103   4.971
 2763SOL     OW 9187   5.022   2.349   2.078
 2763SOL    HW1 9188   5.084   2.406   2.132
 2763SOL    HW2 9189   5.076   2.291   2.017
 2764SOL     OW 9190   6.699   1.098   1.969
 2764SOL    HW1 9191   6.646   1.156   1.907
 2764SOL    HW2 9192   6.695   1.003   1.937
 2765SOL     OW 9193   5.112   2.024   2.365
 2765SOL    HW1 9194   5.081   2.118   2.381
 2765SOL    HW2 9195   5.180   2.023   2.292
 2766SOL     OW 9196   6.207   0.219   3.024
 2766SOL    HW1 9197   6.277   0.152   3.000
 2766SOL    HW2 9198   6.117   0.178   3.013
 2767SOL     OW 9199   6.213   4.558   5.666
 2767SOL    HW1 9200   6.305   4.529   5.691
 2767SOL    HW2 9201   6.147   4.518   5.729
 2768SOL     OW 9202   5.950   1.536   6.649
 2768SOL    HW1 9203   5.872   1.508   6.593
 2768SOL    HW2 9204   6.035   1.514   6.600
 2769SOL     OW 9205   1.188   4.374   1.423
 2769SOL    HW1 9206   1.210   4.379   1.521
 2769SOL    HW2 9207   1.184   4.466   1.385
 2770SOL     OW 9208   6.116   5.954   1.503
 2770SOL    HW1 9209   6.198   5.898   1.502
 2770SOL    HW2 9210   6.134   6.040   1.456
 2771SOL     OW 9211   4.956   0.909   1.368
 2771SOL    HW1 9212   4.869   0.928   1.414
 2771SOL    HW2 9213   4.959   0.957   1.281
 2772SOL     OW 9214   3.163   2.858   6.192
 2772SOL    HW1 9215   3.080   2.862   6.136
 2772SOL    HW2 9216   3.199   2.950   6.205
 2773SOL     OW 9217   4.008   4.490   0.218
 2773SOL    HW1 9218   4.017   4.391   0.207
 2773SOL    HW2 9219   4.041   4.516   0.309
 2774SOL     OW 9220   5.616   3.195   2.472
 2774SOL    HW1 9221   5.594   3.099   2.489
 2774SOL    HW2 9222   5.714   3.210   2.486
 2775SOL     OW 9223   0.214   6.500   2.415
 2775SOL    HW1 9224   0.191   6.543   2.327
 2775SOL    HW2 9225   0.285   6.554   2.460
 2776SOL     OW 9226   3.210   5.985   6.020
 2776SOL    HW1 9227   3.135   5.920   6.021
 2776SOL    HW2 9228   3.292   5.942   6.060
 2777SOL     OW 9229   3.263   0.690   3.326
 2777SOL    HW1 9230   3.256   0.712   3.229
 2777SOL    HW2 9231   3.184   0.729   3.375
 2778SOL     OW 9232   2.369   2.043   4.621
 2778SOL    HW1 9233   2.398   1.999   4.706
 2778SOL    HW2 9234   2.308   2.120   4.643
 2779SOL     OW 9235   5.782   0.722   0.309
 2779SOL    HW1 9236   5.737   0.660   0.244
 2779SOL    HW2 9237   5.874   0.688   0.328
 2780SOL     OW 9238   4.627   5.668   0.188
 2780SOL    HW1 9239   4.694   5.638   0.120
 2780SOL    HW2 9240   4.577   5.589   0.223
 2781SOL     OW 9241   4.877   4.284   0.375
 2781SOL    HW1 9242   4.872   4.335   0.460
 2781SOL    HW2 9243   4.805   4.214   0.374
 2782SOL     OW 9244   2.756   2.048   6.297
 2782SOL    HW1 9245   2.784   1.952   6.286
 2782SOL    HW2 9246   2.661   2.051   6.329
 2783SOL     OW 9247   0.244   4.349   5.520
 2783SOL    HW1 9248   0.280   4.423   5.463
 2783SOL    HW2 9249   0.319   4.304   5.568
 2784SOL     OW 9250   2.221   1.887   2.030
 2784SOL    HW1 9251   2.235   1.959   2.098
 2784SOL    HW2 9252   2.124   1.863   2.027
 2785SOL     OW 9253   6.150   1.189   1.595
 2785SOL    HW1 9254   6.101   1.170   1.680
 2785SOL    HW2 9255   6.093   1.161   1.517
 2786SOL     OW 9256   3.601   6.904   1.019
 2786SOL    HW1 9257   3.613   6.865   0.927
 2786SOL    HW2 9258   3.581   6.830   1.084
 2787SOL     OW 9259   1.979   2.395   5.510
 2787SOL    HW1 9260   1.978   2.459   5.587
 2787SOL    HW2 9261   2.027   2.437   5.433
 2788SOL     OW 9262   0.940   3.739   0.613
 2788SOL    HW1 9263   0.992   3.805   0.667
 2788SOL    HW2 9264   0.882   3.683   0.673
 2789SOL     OW 9265   0.049   2.027   4.584
 2789SOL    HW1 9266   0.052   2.106   4.645
 2789SOL    HW2 9267   0.033   2.057   4.490
 2790SOL     OW 9268   4.199   5.846   3.504
 2790SOL    HW1 9269   4.127   5.823   3.569
 2790SOL    HW2 9270   4.171   5.925   3.450
 2791SOL     OW 9271   2.181   3.007   3.434
 2791SOL    HW1 9272   2.137   2.953   3.363
 2791SOL    HW2 9273   2.201   3.099   3.399
 2792SOL     OW 9274   1.362   2.436   5.006
 2792SOL    HW1 9275   1.355   2.359   5.069
 2792SOL    HW2 9276   1.281   2.439   4.948
 2793SOL     OW 9277   5.543   1.101   3.982
 2793SOL    HW1 9278   5.495   1.175   4.028
 2793SOL    HW2 9279   5.496   1.076   3.898
 2794SOL     OW 9280   0.756   0.868   1.162
 2794SOL    HW1 9281   0.793   0.958   1.139
 2794SOL    HW2 9282   0.663   0.861   1.127
 2795SOL     OW 9283   2.208   4.239   1.726
 2795SOL    HW1 9284   2.235   4.166   1.662
 2795SOL    HW2 9285   2.114   4.224   1.756
 2796SOL     OW 9286   5.285   3.960   2.753
 2796SOL    HW1 9287   5.226   3.957   2.673
 2796SOL    HW2 9288   5.321   4.052   2.765
 2797SOL     OW 9289   4.331   4.790   5.032
 2797SOL    HW1 9290   4.394   4.834   5.097
 2797SOL    HW2 9291   4.349   4.692   5.029
 2798SOL     OW 9292   1.618   3.313   4.261
 2798SOL    HW1 9293   1.532   3.355   4.290
 2798SOL    HW2 9294   1.607   3.272   4.170
 2799SOL     OW 9295   6.470   5.412   5.659
 2799SOL    HW1 9296   6.385   5.458   5.635
 2799SOL    HW2 9297   6.451   5.318   5.687
 2800SOL     OW 9298   2.932   3.083   6.912
 2800SOL    HW1 9299   2.973   2.992   6.918
 2800SOL    HW2 9300   2.918   3.106   6.816
 2801SOL     OW 9301   4.482   5.697   2.557
 2801SOL    HW1 9302   4.537   5.615   2.543
 2801SOL    HW2 9303   4.496   5.731   2.650
 2802SOL     OW 9304   5.202   0.925   5.950
 2802SOL    HW1 9305   5.120   0.968   5.910
 2802SOL    HW2 9306   5.213   0.955   6.045
 2803SOL     OW 9307   2.153   5.690   5.960
 2803SOL    HW1 9308   2.073   5.655   5.911
 2803SOL    HW2 9309   2.172   5.783   5.931
 2804SOL     OW 9310   6.880   4.439   2.800
 2804SOL    HW1 9311   6.800   4.482   2.759
 2804SOL    HW2 9312   6.856   4.400   2.888
 2805SOL     OW 9313   5.501   4.181   6.651
 2805SOL    HW1 9314   5.519   4.227   6.738
 2805SOL    HW2 9315   5.522   4.084   6.661
 2806SOL     OW 9316   7.008   5.628   3.652
 2806SOL    HW1 9317   6.987   5.677   3.567
 2806SOL    HW2 9318   6.924   5.616   3.705
 2807SOL     OW 9319   4.177   5.059   3.711
 2807SOL    HW1 9320   4.126   4.992   3.657
 2807SOL    HW2 9321   4.261   5.084   3.662
 2808SOL     OW 9322   4.743   6.664   3.829
 2808SOL    HW1 9323   4.763   6.688   3.734
 2808SOL    HW2 9324   4.651   6.626   3.836
 2809SOL     OW 9325   4.850   3.650   0.632
 2809SOL    HW1 9326   4.927   3.684   0.685
 2809SOL    HW2 9327   4.772   3.633   0.694
 2810SOL     OW 9328   1.683   0.407   5.433
 2810SOL    HW1 9329   1.622   0.482   5.457
 2810SOL    HW2 9330   1.714   0.418   5.338
 2811SOL     OW 9331   0.099   1.169   3.759
 2811SOL    HW1 9332   0.088   1.118   3.674
 2811SOL    HW2 9333   0.174   1.235   3.749
 2812SOL     OW 9334   5.062   3.593   2.711
 2812SOL    HW1 9335   5.161   3.602   2.695
 2812SOL    HW2 9336   5.022   3.535   2.639
 2813SOL     OW 9337   6.268   1.107   6.306
 2813SOL    HW1 9338   6.359   1.076   6.333
 2813SOL    HW2 9339   6.244   1.069   6.216
 2814SOL     OW 9340   5.214   4.159   4.980
 2814SOL    HW1 9341   5.278   4.089   5.012
 2814SOL    HW2 9342   5.136   4.115   4.936
 2815SOL     OW 9343   0.311   1.005   5.212
 2815SOL    HW1 9344   0.327   1.010   5.114
 2815SOL    HW2 9345   0.229   1.055   5.236
 2816SOL     OW 9346   5.861   6.333   3.383
 2816SOL    HW1 9347   5.893   6.282   3.462
 2816SOL    HW2 9348   5.873   6.431   3.400
 2817SOL     OW 9349   1.105   2.217   1.078
 2817SOL    HW1 9350   1.120   2.290   1.012
 2817SOL    HW2 9351   1.008   2.195   1.082
 2818SOL     OW 9352   6.776   4.528   5.176
 2818SOL    HW1 9353   6.683   4.531   5.138
 2818SOL    HW2 9354   6.841   4.509   5.102
 2819SOL     OW 9355   6.901   2.907   0.370
 2819SOL    HW1 9356   6.816   2.937   0.413
 2819SOL    HW2 9357   6.884   2.886   0.274
 2820SOL     OW 9358   6.650   2.878   4.454
 2820SOL    HW1 9359   6.556   2.857   4.482
 2820SOL    HW2 9360   6.688   2.949   4.514
 2821SOL     OW 9361   1.517   3.199   4.544
 2821SOL    HW1 9362   1.441   3.248   4.502
 2821SOL    HW2 9363   1.560   3.140   4.476
 2822SOL     OW 9364   3.371   1.711   6.732
 2822SOL    HW1 9365   3.421   1.718   6.645
 2822SOL    HW2 9366   3.342   1.802   6.761
 2823SOL     OW 9367   1.930   6.404   3.611
 2823SOL    HW1 9368   1.986   6.483   3.588
 2823SOL    HW2 9369   1.833   6.428   3.604
 2824SOL     OW 9370   2.899   1.566   4.939
 2824SOL    HW1 9371   2.964   1.543   4.866
 2824SOL    HW2 9372   2.911   1.661   4.966
 2825SOL     OW 9373   6.671   6.089   1.132
 2825SOL    HW1 9374   6.600   6.045   1.187
 2825SOL    HW2 9375   6.757   6.038   1.140
 2826SOL     OW 9376   4.902   2.328   4.558
 2826SOL    HW1 9377   4.909   2.236   4.597
 2826SOL    HW2 9378   4.846   2.326   4.476
 2827SOL     OW 9379   5.749   0.857   5.639
 2827SOL    HW1 9380   5.673   0.906   5.596
 2827SOL    HW2 9381   5.826   0.920   5.651
 2828SOL     OW 9382   3.336   1.973   5.979
 2828SOL    HW1 9383   3.374   2.044   5.920
 2828SOL    HW2 9384   3.410   1.925   6.026
 2829SOL     OW 9385   1.844   6.725   0.083
 2829SOL    HW1 9386   1.915   6.718   0.013
 2829SOL    HW2 9387   1.805   6.817   0.083
 2830SOL     OW 9388   3.552   3.354   6.664
 2830SOL    HW1 9389   3.467   3.348   6.612
 2830SOL    HW2 9390   3.532   3.351   6.762
 2831SOL     OW 9391   5.969   5.886   4.300
 2831SOL    HW1 9392   5.888   5.830   4.285
 2831SOL    HW2 9393   6.010   5.863   4.388
 2832SOL     OW 9394   0.394   0.873   1.989
 2832SOL    HW1 9395   0.460   0.798   1.998
 2832SOL    HW2 9396   0.313   0.853   2.045
 2833SOL     OW 9397   5.936   3.214   1.915
 2833SOL    HW1 9398   5.869   3.165   1.858
 2833SOL    HW2 9399   5.888   3.262   1.988
 2834SOL     OW 9400   3.574   0.828   6.127
 2834SOL    HW1 9401   3.598   0.925   6.136
 2834SOL    HW2 9402   3.488   0.820   6.076
 2835SOL     OW 9403   0.941   6.436   2.603
 2835SOL    HW1 9404   1.036   6.407   2.593
 2835SOL    HW2 9405   0.933   6.496   2.682
 2836SOL     OW 9406   6.729   0.786   0.558
 2836SOL    HW1 9407   6.828   0.775   0.560
 2836SOL    HW2 9408   6.695   0.802   0.651
 2837SOL     OW 9409   6.041   3.386   3.458
 2837SOL    HW1 9410   5.981   3.402   3.536
 2837SOL    HW2 9411   6.087   3.298   3.469
 2838SOL     OW 9412   3.142   4.902   3.606
 2838SOL    HW1 9413   3.159   4.935   3.513
 2838SOL    HW2 9414   3.228   4.872   3.647
 2839SOL     OW 9415   4.948   2.164   1.141
 2839SOL    HW1 9416   4.904   2.129   1.059
 2839SOL    HW2 9417   4.948   2.094   1.212
 2840SOL     OW 9418   6.853   2.006   5.462
 2840SOL    HW1 9419   6.904   1.945   5.401
 2840SOL    HW2 9420   6.763   1.966   5.481
 2841SOL     OW 9421   0.703   5.927   1.500
 2841SOL    HW1 9422   0.737   6.002   1.443
 2841SOL    HW2 9423   0.667   5.965   1.586
 2842SOL     OW 9424   6.469   3.257   3.411
 2842SOL    HW1 9425   6.446   3.162   3.428
 2842SOL    HW2 9426   6.541   3.262   3.341
 2843SOL     OW 9427   3.941   1.862   4.898
 2843SOL    HW1 9428   4.032   1.899   4.915
 2843SOL    HW2 9429   3.890   1.924   4.838
 2844SOL     OW 9430   6.738   3.704   6.047
 2844SOL    HW1 9431   6.800   3.626   6.055
 2844SOL    HW2 9432   6.721   3.723   5.951
 2845SOL     OW 9433   6.105   4.180   5.140
 2845SOL    HW1 9434   6.032   4.181   5.208
 2845SOL    HW2 9435   6.109   4.090   5.097
 2846SOL     OW 9436   4.740   1.721   6.281
 2846SOL    HW1 9437   4.679   1.799   6.270
 2846SOL    HW2 9438   4.693   1.638   6.251
 2847SOL     OW 9439   5.002   4.816   4.149
 2847SOL    HW1 9440   5.101   4.806   4.163
 2847SOL    HW2 9441   4.954   4.793   4.233
 2848SOL     OW 9442   0.829   5.766   5.120
 2848SOL    HW1 9443   0.850   5.847   5.065
 2848SOL    HW2 9444   0.914   5.729   5.158
 2849SOL     OW 9445   2.023   2.316   1.669
 2849SOL    HW1 9446   2.074   2.332   1.584
 2849SOL    HW2 9447   2.074   2.250   1.725
 2850SOL     OW 9448   3.659   1.446   0.027
 2850SOL    HW1 9449   3.751   1.435   0.066
 2850SOL    HW2 9450   3.659   1.412   6.958
 2851SOL     OW 9451   2.051   4.440   6.583
 2851SOL    HW1 9452   1.954   4.420   6.567
 2851SOL    HW2 9453   2.103   4.355   6.579
 2852SOL     OW 9454   0.428   3.565   6.133
 2852SOL    HW1 9455   0.498   3.626   6.172
 2852SOL    HW2 9456   0.447   3.471   6.162
 2853SOL     OW 9457   3.217   3.742   1.541
 2853SOL    HW1 9458   3.223   3.659   1.485
 2853SOL    HW2 9459   3.268   3.728   1.626
 2854SOL     OW 9460   1.871   1.503   3.642
 2854SOL    HW1 9461   1.947   1.458   3.595
 2854SOL    HW2 9462   1.906   1.572   3.705
 2855SOL     OW 9463   2.848   0.913   5.341
 2855SOL    HW1 9464   2.848   0.896   5.242
 2855SOL    HW2 9465   2.853   1.011   5.358
 2856SOL     OW 9466   2.688   2.341   4.784
 2856SOL    HW1 9467   2.736   2.253   4.789
 2856SOL    HW2 9468   2.692   2.386   4.873
 2857SOL     OW 9469   2.924   3.305   2.812
 2857SOL    HW1 9470   3.012   3.299   2.765
 2857SOL    HW2 9471   2.856   3.345   2.751
 2858SOL     OW 9472   6.486   3.407   2.756
 2858SOL    HW1 9473   6.486   3.490   2.701
 2858SOL    HW2 9474   6.392   3.371   2.763
 2859SOL     OW 9475   6.269   6.539   0.169
 2859SOL    HW1 9476   6.260   6.633   0.135
 2859SOL    HW2 9477   6.185   6.513   0.216
 2860SOL     OW 9478   4.291   1.260   1.648
 2860SOL    HW1 9479   4.228   1.324   1.692
 2860SOL    HW2 9480   4.358   1.311   1.594
 2861SOL     OW 9481   3.451   5.806   5.418
 2861SOL    HW1 9482   3.482   5.782   5.510
 2861SOL    HW2 9483   3.352   5.794   5.411
 2862SOL     OW 9484   5.383   0.788   4.654
 2862SOL    HW1 9485   5.437   0.705   4.665
 2862SOL    HW2 9486   5.317   0.775   4.580
 2863SOL     OW 9487   6.041   1.884   6.638
 2863SOL    HW1 9488   6.090   1.836   6.711
 2863SOL    HW2 9489   6.012   1.974   6.672
 2864SOL     OW 9490   3.223   1.133   6.834
 2864SOL    HW1 9491   3.147   1.068   6.834
 2864SOL    HW2 9492   3.255   1.147   6.740
 2865SOL     OW 9493   4.645   4.966   5.048
 2865SOL    HW1 9494   4.681   5.045   5.098
 2865SOL    HW2 9495   4.627   4.992   4.953
 2866SOL     OW 9496   0.271   6.579   6.437
 2866SOL    HW1 9497   0.243   6.550   6.528
 2866SOL    HW2 9498   0.357   6.630   6.444
 2867SOL     OW 9499   6.565   4.202   3.703
 2867SOL    HW1 9500   6.580   4.154   3.617
 2867SOL    HW2 9501   6.650   4.206   3.754
 2868SOL     OW 9502   1.630   4.275   5.916
 2868SOL    HW1 9503   1.596   4.361   5.955
 2868SOL    HW2 9504   1.627   4.280   5.817
 2869SOL     OW 9505   6.159   1.864   2.217
 2869SOL    HW1 9506   6.151   1.811   2.302
 2869SOL    HW2 9507   6.161   1.802   2.139
 2870SOL     OW 9508   5.025   1.906   2.672
 2870SOL    HW1 9509   5.096   1.941   2.733
 2870SOL    HW2 9510   5.020   1.963   2.590
 2871SOL     OW 9511   1.570   1.939   5.695
 2871SOL    HW1 9512   1.477   1.969   5.712
 2871SOL    HW2 9513   1.573   1.839   5.689
 2872SOL     OW 9514   2.629   6.478   3.956
 2872SOL    HW1 9515   2.714   6.516   3.993
 2872SOL    HW2 9516   2.586   6.419   4.025
 2873SOL     OW 9517   6.873   5.135   1.661
 2873SOL    HW1 9518   6.842   5.181   1.744
 2873SOL    HW2 9519   6.819   5.052   1.646
 2874SOL     OW 9520   6.015   2.026   2.008
 2874SOL    HW1 9521   5.930   2.077   2.021
 2874SOL    HW2 9522   6.023   1.956   2.078
 2875SOL     OW 9523   3.266   4.966   0.119
 2875SOL    HW1 9524   3.274   4.935   0.214
 2875SOL    HW2 9525   3.310   4.900   0.058
 2876SOL     OW 9526   6.788   1.410   2.274
 2876SOL    HW1 9527   6.793   1.311   2.284
 2876SOL    HW2 9528   6.770   1.434   2.179
 2877SOL     OW 9529   2.428   3.004   6.044
 2877SOL    HW1 9530   2.435   3.006   5.944
 2877SOL    HW2 9531   2.435   3.097   6.080
 2878SOL     OW 9532   3.072   4.221   6.698
 2878SOL    HW1 9533   3.061   4.193   6.603
 2878SOL    HW2 9534   2.982   4.226   6.742
 2879SOL     OW 9535   5.211   5.217   0.114
 2879SOL    HW1 9536   5.254   5.305   0.092
 2879SOL    HW2 9537   5.281   5.153   0.145
 2880SOL     OW 9538   1.109   6.391   1.584
 2880SOL    HW1 9539   1.195   6.345   1.562
 2880SOL    HW2 9540   1.033   6.333   1.554
 2881SOL     OW 9541   0.030   6.805   0.503
 2881SOL    HW1 9542   0.114   6.754   0.525
 2881SOL    HW2 9543   6.976   6.752   0.533
 2882SOL     OW 9544   6.662   2.971   3.338
 2882SOL    HW1 9545   6.668   2.911   3.258
 2882SOL    HW2 9546   6.575   2.955   3.385
 2883SOL     OW 9547   4.319   6.679   2.187
 2883SOL    HW1 9548   4.411   6.641   2.195
 2883SOL    HW2 9549   4.315   6.741   2.108
 2884SOL     OW 9550   1.255   6.075   3.085
 2884SOL    HW1 9551   1.217   6.073   2.993
 2884SOL    HW2 9552   1.354   6.083   3.080
 2885SOL     OW 9553   0.469   2.190   3.602
 2885SOL    HW1 9554   0.391   2.185   3.664
 2885SOL    HW2 9555   0.438   2.222   3.513
 2886SOL     OW 9556   2.369   2.587   5.666
 2886SOL    HW1 9557   2.295   2.652   5.646
 2886SOL    HW2 9558   2.333   2.494   5.665
 2887SOL     OW 9559   1.807   1.019   4.979
 2887SOL    HW1 9560   1.856   0.961   4.915
 2887SOL    HW2 9561   1.715   1.037   4.945
 2888SOL     OW 9562   6.626   5.032   6.614
 2888SOL    HW1 9563   6.590   5.076   6.696
 2888SOL    HW2 9564   6.556   5.033   6.543
 2889SOL     OW 9565   0.778   0.183   2.366
 2889SOL    HW1 9566   0.817   0.176   2.275
 2889SOL    HW2 9567   0.761   0.279   2.389
 2890SOL     OW 9568   3.819   0.443   1.151
 2890SOL    HW1 9569   3.728   0.458   1.114
 2890SOL    HW2 9570   3.879   0.520   1.126
 2891SOL     OW 9571   2.572   4.979   4.055
 2891SOL    HW1 9572   2.664   4.952   4.030
 2891SOL    HW2 9573   2.575   5.069   4.100
 2892SOL     OW 9574   4.656   4.234   5.774
 2892SOL    HW1 9575   4.620   4.204   5.862
 2892SOL    HW2 9576   4.588   4.218   5.703
 2893SOL     OW 9577   2.455   0.528   6.129
 2893SOL    HW1 9578   2.530   0.587   6.157
 2893SOL    HW2 9579   2.484   0.470   6.053
 2894SOL     OW 9580   3.557   3.174   0.587
 2894SOL    HW1 9581   3.654   3.196   0.580
 2894SOL    HW2 9582   3.506   3.225   0.517
 2895SOL     OW 9583   3.189   3.710   6.341
 2895SOL    HW1 9584   3.097   3.672   6.344
 2895SOL    HW2 9585   3.196   3.774   6.265
 2896SOL     OW 9586   2.262   5.340   1.140
 2896SOL    HW1 9587   2.250   5.352   1.239
 2896SOL    HW2 9588   2.359   5.350   1.116
 2897SOL     OW 9589   1.863   6.256   3.848
 2897SOL    HW1 9590   1.763   6.263   3.839
 2897SOL    HW2 9591   1.906   6.330   3.796
 2898SOL     OW 9592   3.044   5.472   2.405
 2898SOL    HW1 9593   2.982   5.543   2.370
 2898SOL    HW2 9594   3.125   5.466   2.347
 2899SOL     OW 9595   6.949   6.830   0.227
 2899SOL    HW1 9596   6.979   6.824   0.323
 2899SOL    HW2 9597   6.909   6.742   0.200
 2900SOL     OW 9598   2.171   5.288   5.912
 2900SOL    HW1 9599   2.100   5.244   5.967
 2900SOL    HW2 9600   2.129   5.343   5.840
 2901SOL     OW 9601   2.992   1.178   1.807
 2901SOL    HW1 9602   2.962   1.274   1.808
 2901SOL    HW2 9603   2.930   1.125   1.749
 2902SOL     OW 9604   5.848   5.997   1.548
 2902SOL    HW1 9605   5.809   5.931   1.611
 2902SOL    HW2 9606   5.943   5.972   1.527
 2903SOL     OW 9607   2.114   2.133   2.193
 2903SOL    HW1 9608   2.040   2.187   2.153
 2903SOL    HW2 9609   2.092   2.112   2.289
 2904SOL     OW 9610   1.752   3.172   4.952
 2904SOL    HW1 9611   1.778   3.116   5.031
 2904SOL    HW2 9612   1.653   3.184   4.951
 2905SOL     OW 9613   1.813   2.401   1.470
 2905SOL    HW1 9614   1.862   2.381   1.555
 2905SOL    HW2 9615   1.721   2.433   1.491
 2906SOL     OW 9616   5.639   5.758   2.367
 2906SOL    HW1 9617   5.544   5.788   2.358
 2906SOL    HW2 9618   5.641   5.663   2.397
 2907SOL     OW 9619   6.460   0.880   3.852
 2907SOL    HW1 9620   6.427   0.933   3.930
 2907SOL    HW2 9621   6.451   0.935   3.769
 2908SOL     OW 9622   4.126   6.557   4.543
 2908SOL    HW1 9623   4.056   6.537   4.474
 2908SOL    HW2 9624   4.216   6.535   4.506
 2909SOL     OW 9625   1.983   5.429   4.905
 2909SOL    HW1 9626   2.027   5.471   4.984
 2909SOL    HW2 9627   1.937   5.344   4.933
 2910SOL     OW 9628   5.778   6.466   6.324
 2910SOL    HW1 9629   5.760   6.545   6.382
 2910SOL    HW2 9630   5.738   6.481   6.233
 2911SOL     OW 9631   1.601   3.898   3.200
 2911SOL    HW1 9632   1.699   3.918   3.198
 2911SOL    HW2 9633   1.569   3.898   3.295
 2912SOL     OW 9634   2.519   5.577   0.625
 2912SOL    HW1 9635   2.573   5.548   0.546
 2912SOL    HW2 9636   2.546   5.670   0.652
 2913SOL     OW 9637   1.412   3.018   3.059
 2913SOL    HW1 9638   1.429   3.088   3.130
 2913SOL    HW2 9639   1.364   2.941   3.100
 2914SOL     OW 9640   5.269   5.643   5.835
 2914SOL    HW1 9641   5.256   5.565   5.774
 2914SOL    HW2 9642   5.359   5.638   5.877
 2915SOL     OW 9643   4.676   1.383   4.074
 2915SOL    HW1 9644   4.705   1.296   4.036
 2915SOL    HW2 9645   4.691   1.456   4.007
 2916SOL     OW 9646   5.131   5.780   4.416
 2916SOL    HW1 9647   5.081   5.740   4.340
 2916SOL    HW2 9648   5.229   5.770   4.401
 2917SOL     OW 9649   4.929   0.591   2.390
 2917SOL    HW1 9650   4.936   0.689   2.368
 2917SOL    HW2 9651   4.937   0.579   2.489
 2918SOL     OW 9652   6.639   3.830   3.602
 2918SOL    HW1 9653   6.616   3.913   3.552
 2918SOL    HW2 9654   6.556   3.775   3.615
 2919SOL     OW 9655   6.481   5.907   0.145
 2919SOL    HW1 9656   6.419   5.982   0.123
 2919SOL    HW2 9657   6.571   5.943   0.166
 2920SOL     OW 9658   4.456   2.340   3.389
 2920SOL    HW1 9659   4.381   2.341   3.323
 2920SOL    HW2 9660   4.420   2.342   3.482
 2921SOL     OW 9661   0.817   0.287   1.869
 2921SOL    HW1 9662   0.851   0.299   1.775
 2921SOL    HW2 9663   0.779   0.196   1.879
 2922SOL     OW 9664   4.388   6.362   5.358
 2922SOL    HW1 9665   4.292   6.369   5.384
 2922SOL    HW2 9666   4.404   6.273   5.315
 2923SOL     OW 9667   6.406   4.115   1.706
 2923SOL    HW1 9668   6.479   4.126   1.638
 2923SOL    HW2 9669   6.317   4.122   1.660
 2924SOL     OW 9670   6.680   1.102   5.245
 2924SOL    HW1 9671   6.596   1.083   5.194
 2924SOL    HW2 9672   6.667   1.184   5.301
 2925SOL     OW 9673   5.464   4.304   1.186
 2925SOL    HW1 9674   5.390   4.239   1.173
 2925SOL    HW2 9675   5.544   4.275   1.133
 2926SOL     OW 9676   0.093   1.126   4.774
 2926SOL    HW1 9677   0.012   1.141   4.831
 2926SOL    HW2 9678   0.093   1.191   4.698
 2927SOL     OW 9679   0.244   2.501   3.060
 2927SOL    HW1 9680   0.246   2.580   2.998
 2927SOL    HW2 9681   0.334   2.489   3.102
 2928SOL     OW 9682   6.290   6.699   0.976
 2928SOL    HW1 9683   6.312   6.787   1.018
 2928SOL    HW2 9684   6.357   6.631   1.006
 2929SOL     OW 9685   0.819   6.843   6.301
 2929SOL    HW1 9686   0.808   6.746   6.281
 2929SOL    HW2 9687   0.914   6.863   6.322
 2930SOL     OW 9688   3.558   6.390   4.771
 2930SOL    HW1 9689   3.616   6.428   4.844
 2930SOL    HW2 9690   3.509   6.310   4.806
 2931SOL     OW 9691   4.015   5.966   5.748
 2931SOL    HW1 9692   4.087   5.897   5.756
 2931SOL    HW2 9693   3.964   5.971   5.833
 2932SOL     OW 9694   1.241   4.639   1.703
 2932SOL    HW1 9695   1.304   4.629   1.626
 2932SOL    HW2 9696   1.294   4.650   1.787
 2933SOL     OW 9697   4.895   1.909   3.238
 2933SOL    HW1 9698   4.894   1.928   3.139
 2933SOL    HW2 9699   4.894   1.995   3.288
 2934SOL     OW 9700   2.793   0.633   0.282
 2934SOL    HW1 9701   2.775   0.572   0.205
 2934SOL    HW2 9702   2.755   0.723   0.263
 2935SOL     OW 9703   6.005   2.217   1.293
 2935SOL    HW1 9704   5.975   2.277   1.367
 2935SOL    HW2 9705   5.940   2.142   1.283
 2936SOL     OW 9706   4.130   5.822   0.550
 2936SOL    HW1 9707   4.133   5.921   0.566
 2936SOL    HW2 9708   4.155   5.803   0.455
 2937SOL     OW 9709   3.053   4.573   0.830
 2937SOL    HW1 9710   3.092   4.660   0.860
 2937SOL    HW2 9711   3.011   4.527   0.908
 2938SOL     OW 9712   4.948   5.424   5.651
 2938SOL    HW1 9713   4.969   5.482   5.572
 2938SOL    HW2 9714   4.884   5.471   5.711
 2939SOL     OW 9715   0.265   6.286   5.642
 2939SOL    HW1 9716   0.360   6.260   5.626
 2939SOL    HW2 9717   0.206   6.206   5.633
 2940SOL     OW 9718   4.527   0.405   5.647
 2940SOL    HW1 9719   4.461   0.347   5.695
 2940SOL    HW2 9720   4.584   0.453   5.714
 2941SOL     OW 9721   1.804   2.263   4.806
 2941SOL    HW1 9722   1.801   2.236   4.710
 2941SOL    HW2 9723   1.826   2.184   4.862
 2942SOL     OW 9724   3.455   6.350   4.257
 2942SOL    HW1 9725   3.543   6.303   4.251
 2942SOL    HW2 9726   3.391   6.309   4.192
 2943SOL     OW 9727   5.856   4.329   3.233
 2943SOL    HW1 9728   5.907   4.320   3.147
 2943SOL    HW2 9729   5.885   4.412   3.279
 2944SOL     OW 9730   3.796   5.998   5.946
 2944SOL    HW1 9731   3.712   5.946   5.931
 2944SOL    HW2 9732   3.849   5.957   6.021
 2945SOL     OW 9733   3.063   3.204   3.428
 2945SOL    HW1 9734   3.019   3.160   3.349
 2945SOL    HW2 9735   3.041   3.301   3.428
 2946SOL     OW 9736   6.567   5.972   6.000
 2946SOL    HW1 9737   6.594   6.063   5.969
 2946SOL    HW2 9738   6.592   5.904   5.931
 2947SOL     OW 9739   6.630   4.903   6.975
 2947SOL    HW1 9740   6.533   4.886   6.994
 2947SOL    HW2 9741   6.649   5.001   6.985
 2948SOL     OW 9742   6.514   4.543   5.073
 2948SOL    HW1 9743   6.468   4.614   5.127
 2948SOL    HW2 9744   6.450   4.470   5.052
 2949SOL     OW 9745   1.271   6.686   0.140
 2949SOL    HW1 9746   1.173   6.705   0.142
 2949SOL    HW2 9747   1.320   6.761   0.185
 2950SOL     OW 9748   4.970   3.597   4.456
 2950SOL    HW1 9749   4.955   3.529   4.384
 2950SOL    HW2 9750   4.952   3.555   4.545
 2951SOL     OW 9751   6.583   1.188   1.499
 2951SOL    HW1 9752   6.501   1.131   1.502
 2951SOL    HW2 9753   6.559   1.280   1.467
 2952SOL     OW 9754   1.395   3.431   2.226
 2952SOL    HW1 9755   1.478   3.478   2.255
 2952SOL    HW2 9756   1.352   3.387   2.305
 2953SOL     OW 9757   5.748   1.081   2.503
 2953SOL    HW1 9758   5.702   1.116   2.585
 2953SOL    HW2 9759   5.776   1.158   2.445
 2954SOL     OW 9760   6.161   6.783   2.104
 2954SOL    HW1 9761   6.255   6.759   2.130
 2954SOL    HW2 9762   6.155   6.882   2.094
 2955SOL     OW 9763   6.565   3.110   0.751
 2955SOL    HW1 9764   6.549   3.187   0.690
 2955SOL    HW2 9765   6.579   3.144   0.844
 2956SOL     OW 9766   6.692   5.619   2.492
 2956SOL    HW1 9767   6.755   5.549   2.458
 2956SOL    HW2 9768   6.625   5.641   2.421
 2957SOL     OW 9769   0.952   3.816   1.133
 2957SOL    HW1 9770   0.967   3.718   1.148
 2957SOL    HW2 9771   0.855   3.837   1.149
 2958SOL     OW 9772   2.603   4.624   5.756
 2958SOL    HW1 9773   2.684   4.681   5.747
 2958SOL    HW2 9774   2.618   4.538   5.707
 2959SOL     OW 9775   3.915   5.309   6.926
 2959SOL    HW1 9776   3.845   5.307   6.997
 2959SOL    HW2 9777   3.884   5.365   6.849
 2960SOL     OW 9778   2.231   1.774   0.128
 2960SOL    HW1 9779   2.314   1.718   0.118
 2960SOL    HW2 9780   2.252   1.854   0.185
 2961SOL     OW 9781   5.699   3.116   4.293
 2961SOL    HW1 9782   5.617   3.131   4.348
 2961SOL    HW2 9783   5.693   3.028   4.247
 2962SOL     OW 9784   4.214   1.074   3.520
 2962SOL    HW1 9785   4.296   1.018   3.536
 2962SOL    HW2 9786   4.132   1.019   3.536
 2963SOL     OW 9787   2.072   2.895   4.509
 2963SOL    HW1 9788   2.131   2.815   4.500
 2963SOL    HW2 9789   2.127   2.973   4.539
 2964SOL     OW 9790   3.585   6.113   0.537
 2964SOL    HW1 9791   3.564   6.078   0.446
 2964SOL    HW2 9792   3.649   6.189   0.530
 2965SOL     OW 9793   0.732   2.246   5.906
 2965SOL    HW1 9794   0.761   2.280   5.817
 2965SOL    HW2 9795   0.783   2.163   5.928
 2966SOL     OW 9796   4.554   4.465   4.056
 2966SOL    HW1 9797   4.614   4.455   3.977
 2966SOL    HW2 9798   4.504   4.551   4.049
 2967SOL     OW 9799   5.566   1.901   3.903
 2967SOL    HW1 9800   5.581   1.877   3.807
 2967SOL    HW2 9801   5.486   1.960   3.910
 2968SOL     OW 9802   6.852   4.139   3.404
 2968SOL    HW1 9803   6.918   4.205   3.368
 2968SOL    HW2 9804   6.898   4.051   3.419
 2969SOL     OW 9805   4.619   1.433   5.081
 2969SOL    HW1 9806   4.568   1.370   5.139
 2969SOL    HW2 9807   4.557   1.478   5.017
 2970SOL     OW 9808   0.980   4.842   6.585
 2970SOL    HW1 9809   0.956   4.750   6.553
 2970SOL    HW2 9810   1.021   4.836   6.676
 2971SOL     OW 9811   5.335   3.163   3.154
 2971SOL    HW1 9812   5.378   3.181   3.065
 2971SOL    HW2 9813   5.406   3.139   3.220
 2972SOL     OW 9814   0.127   3.792   5.708
 2972SOL    HW1 9815   0.113   3.699   5.676
 2972SOL    HW2 9816   0.225   3.812   5.712
 2973SOL     OW 9817   5.123   6.054   4.385
 2973SOL    HW1 9818   5.033   6.085   4.355
 2973SOL    HW2 9819   5.121   5.955   4.400
 2974SOL     OW 9820   0.328   3.675   2.454
 2974SOL    HW1 9821   0.390   3.713   2.523
 2974SOL    HW2 9822   0.237   3.666   2.493
 2975SOL     OW 9823   0.372   0.802   4.879
 2975SOL    HW1 9824   0.285   0.803   4.829
 2975SOL    HW2 9825   0.393   0.894   4.912
 2976SOL     OW 9826   3.897   0.124   2.113
 2976SOL    HW1 9827   3.828   0.068   2.066
 2976SOL    HW2 9828   3.851   0.187   2.176
 2977SOL     OW 9829   3.106   6.326   4.320
 2977SOL    HW1 9830   3.153   6.317   4.407
 2977SOL    HW2 9831   3.125   6.246   4.263
 2978SOL     OW 9832   4.539   5.916   0.130
 2978SOL    HW1 9833   4.571   5.829   0.167
 2978SOL    HW2 9834   4.615   5.964   0.087
 2979SOL     OW 9835   3.515   0.633   3.425
 2979SOL    HW1 9836   3.415   0.632   3.423
 2979SOL    HW2 9837   3.549   0.539   3.433
 2980SOL     OW 9838   0.113   6.665   4.351
 2980SOL    HW1 9839   0.096   6.567   4.358
 2980SOL    HW2 9840   0.164   6.684   4.267
 2981SOL     OW 9841   2.253   1.082   5.454
 2981SOL    HW1 9842   2.173   1.022   5.455
 2981SOL    HW2 9843   2.256   1.134   5.540
 2982SOL     OW 9844   4.641   6.806   2.676
 2982SOL    HW1 9845   4.545   6.780   2.686
 2982SOL    HW2 9846   4.699   6.728   2.699
 2983SOL     OW 9847   6.578   0.241   3.402
 2983SOL    HW1 9848   6.525   0.191   3.471
 2983SOL    HW2 9849   6.528   0.241   3.316
 2984SOL     OW 9850   5.246   4.951   1.895
 2984SOL    HW1 9851   5.280   4.920   1.984
 2984SOL    HW2 9852   5.159   4.999   1.908
 2985SOL     OW 9853   6.222   2.441   3.075
 2985SOL    HW1 9854   6.129   2.423   3.044
 2985SOL    HW2 9855   6.231   2.417   3.172
 2986SOL     OW 9856   2.134   3.804   5.098
 2986SOL    HW1 9857   2.206   3.870   5.078
 2986SOL    HW2 9858   2.138   3.730   5.030
 2987SOL     OW 9859   4.401   2.244   4.761
 2987SOL    HW1 9860   4.307   2.225   4.787
 2987SOL    HW2 9861   4.432   2.327   4.807
 2988SOL     OW 9862   0.657   0.454   2.269
 2988SOL    HW1 9863   0.585   0.412   2.325
 2988SOL    HW2 9864   0.712   0.514   2.327
 2989SOL     OW 9865   6.529   4.776   1.329
 2989SOL    HW1 9866   6.611   4.770   1.273
 2989SOL    HW2 9867   6.474   4.855   1.301
 2990SOL     OW 9868   3.672   0.712   1.048
 2990SOL    HW1 9869   3.620   0.628   1.061
 2990SOL    HW2 9870   3.629   0.767   0.977
 2991SOL     OW 9871   6.483   4.443   0.457
 2991SOL    HW1 9872   6.420   4.365   0.454
 2991SOL    HW2 9873   6.559   4.422   0.519
 2992SOL     OW 9874   3.792   4.310   6.441
 2992SOL    HW1 9875   3.875   4.255   6.452
 2992SOL    HW2 9876   3.811   4.405   6.466
 2993SOL     OW 9877   1.628   5.264   1.124
 2993SOL    HW1 9878   1.528   5.260   1.127
 2993SOL    HW2 9879   1.664   5.267   1.217
 2994SOL     OW 9880   4.480   6.602   0.053
 2994SOL    HW1 9881   4.533   6.580   6.996
 2994SOL    HW2 9882   4.503   6.538   0.126
 2995SOL     OW 9883   2.352   1.393   6.091
 2995SOL    HW1 9884   2.361   1.482   6.046
 2995SOL    HW2 9885   2.420   1.386   6.165
 2996SOL     OW 9886   4.184   5.558   5.410
 2996SOL    HW1 9887   4.274   5.583   5.445
 2996SOL    HW2 9888   4.191   5.477   5.353
 2997SOL     OW 9889   5.526   6.570   0.238
 2997SOL    HW1 9890   5.470   6.552   0.319
 2997SOL    HW2 9891   5.472   6.619   0.170
 2998SOL     OW 9892   6.664   5.621   5.089
 2998SOL    HW1 9893   6.588   5.557   5.076
 2998SOL    HW2 9894   6.734   5.604   5.019
 2999SOL     OW 9895   3.282   6.371   2.814
 2999SOL    HW1 9896   3.345   6.316   2.869
 2999SOL    HW2 9897   3.280   6.335   2.721
 3000SOL     OW 9898   1.840   2.985   4.644
 3000SOL    HW1 9899   1.911   2.929   4.601
 3000SOL    HW2 9900   1.872   3.018   4.733
 3001SOL     OW 9901   4.428   0.026   5.929
 3001SOL    HW1 9902   4.348   7.023   5.875
 3001SOL    HW2 9903   4.496   6.978   5.929
 3002SOL     OW 9904   4.276   6.913   5.529
 3002SOL    HW1 9905   4.356   6.870   5.571
 3002SOL    HW2 9906   4.197   6.852   5.537
 3003SOL     OW 9907   2.214   0.461   6.619
 3003SOL    HW1 9908   2.181   0.371   6.594
 3003SOL    HW2 9909   2.244   0.460   6.715
 3004SOL     OW 9910   6.140   3.221   4.849
 3004SOL    HW1 9911   6.166   3.260   4.761
 3004SOL    HW2 9912   6.177   3.128   4.856
 3005SOL     OW 9913   4.508   2.350   1.574
 3005SOL    HW1 9914   4.528   2.340   1.671
 3005SOL    HW2 9915   4.530   2.444   1.545
 3006SOL     OW 9916   5.569   0.523   1.637
 3006SOL    HW1 9917   5.552   0.612   1.679
 3006SOL    HW2 9918   5.619   0.465   1.701
 3007SOL     OW 9919   6.419   5.388   2.196
 3007SOL    HW1 9920   6.442   5.371   2.292
 3007SOL    HW2 9921   6.381   5.480   2.186
 3008SOL     OW 9922   3.153   5.474   5.921
 3008SOL    HW1 9923   3.248   5.445   5.906
 3008SOL    HW2 9924   3.143   5.506   6.015
 3009SOL     OW 9925   1.757   0.593   3.185
 3009SOL    HW1 9926   1.740   0.593   3.283
 3009SOL    HW2 9927   1.710   0.670   3.142
 3010SOL     OW 9928   4.213   6.690   1.411
 3010SOL    HW1 9929   4.265   6.770   1.441
 3010SOL    HW2 9930   4.169   6.648   1.491
 3011SOL     OW 9931   5.762   0.865   7.021
 3011SOL    HW1 9932   5.678   0.913   0.020
 3011SOL    HW2 9933   5.743   0.800   6.948
 3012SOL     OW 9934   6.757   3.967   2.764
 3012SOL    HW1 9935   6.839   3.947   2.709
 3012SOL    HW2 9936   6.701   3.884   2.771
 3013SOL     OW 9937   5.638   4.733   2.341
 3013SOL    HW1 9938   5.736   4.739   2.325
 3013SOL    HW2 9939   5.620   4.668   2.415
 3014SOL     OW 9940   4.419   1.015   4.920
 3014SOL    HW1 9941   4.399   0.918   4.931
 3014SOL    HW2 9942   4.358   1.069   4.978
 3015SOL     OW 9943   3.013   2.813   6.846
 3015SOL    HW1 9944   2.998   2.750   6.769
 3015SOL    HW2 9945   3.019   2.762   6.931
 3016SOL     OW 9946   3.824   6.294   3.425
 3016SOL    HW1 9947   3.777   6.383   3.425
 3016SOL    HW2 9948   3.923   6.309   3.424
 3017SOL     OW 9949   0.048   5.933   1.367
 3017SOL    HW1 9950   7.025   5.854   1.405
 3017SOL    HW2 9951   0.147   5.915   1.366
 3018SOL     OW 9952   3.822   6.499   0.193
 3018SOL    HW1 9953   3.797   6.430   0.126
 3018SOL    HW2 9954   3.854   6.582   0.146
 3019SOL     OW 9955   4.857   0.330   2.305
 3019SOL    HW1 9956   4.870   0.429   2.314
 3019SOL    HW2 9957   4.878   0.286   2.393
 3020SOL     OW 9958   1.418   2.094   0.772
 3020SOL    HW1 9959   1.377   2.124   0.858
 3020SOL    HW2 9960   1.508   2.137   0.761
 3021SOL     OW 9961   2.779   1.204   6.438
 3021SOL    HW1 9962   2.745   1.274   6.501
 3021SOL    HW2 9963   2.875   1.185   6.456
 3022SOL     OW 9964   4.858   6.971   2.922
 3022SOL    HW1 9965   4.884   6.875   2.923
 3022SOL    HW2 9966   4.822   6.995   2.832
 3023SOL     OW 9967   5.185   6.381   2.250
 3023SOL    HW1 9968   5.125   6.386   2.330
 3023SOL    HW2 9969   5.147   6.434   2.175
 3024SOL     OW 9970   2.878   6.449   0.037
 3024SOL    HW1 9971   2.912   6.442   0.131
 3024SOL    HW2 9972   2.954   6.435   6.998
 3025SOL     OW 9973   2.185   2.372   1.479
 3025SOL    HW1 9974   2.278   2.335   1.476
 3025SOL    HW2 9975   2.149   2.378   1.386
 3026SOL     OW 9976   2.311   4.732   1.165
 3026SOL    HW1 9977   2.221   4.690   1.177
 3026SOL    HW2 9978   2.357   4.739   1.254
 3027SOL     OW 9979   1.115   1.938   3.641
 3027SOL    HW1 9980   1.143   1.844   3.658
 3027SOL    HW2 9981   1.190   1.988   3.597
 3028SOL     OW 9982   1.785   0.091   4.610
 3028SOL    HW1 9983   1.723   0.153   4.658
 3028SOL    HW2 9984   1.764   7.022   4.637
 3029SOL     OW 9985   5.306   6.801   5.472
 3029SOL    HW1 9986   5.237   6.731   5.455
 3029SOL    HW2 9987   5.278   6.858   5.549
 3030SOL     OW 9988   1.039   2.179   5.596
 3030SOL    HW1 9989   1.087   2.203   5.681
 3030SOL    HW2 9990   1.091   2.213   5.518
 3031SOL     OW 9991   1.055   5.100   6.717
 3031SOL    HW1 9992   1.008   5.028   6.666
 3031SOL    HW2 9993   1.001   5.125   6.797
 3032SOL     OW 9994   4.647   0.243   6.140
 3032SOL    HW1 9995   4.739   0.214   6.166
 3032SOL    HW2 9996   4.607   0.296   6.214
 3033SOL     OW 9997   5.661   3.762   6.536
 3033SOL    HW1 9998   5.646   3.845   6.590
 3033SOL    HW2 9999   5.574   3.714   6.525
 3034SOL     OW10000   2.225   0.341   4.490
 3034SOL    HW110001   2.134   0.301   4.476
 3034SOL    HW210002   2.266   0.301   4.572
 3035SOL     OW10003   6.466   0.226   0.116
 3035SOL    HW110004   6.562   0.214   0.142
 3035SOL    HW210005   6.436   0.318   0.143
 3036SOL     OW10006   1.270   4.815   6.442
 3036SOL    HW110007   1.176   4.850   6.439
 3036SOL    HW210008   1.327   4.878   6.495
 3037SOL     OW10009   6.691   6.419   5.569
 3037SOL    HW110010   6.596   6.437   5.541
 3037SOL    HW210011   6.701   6.436   5.667
 3038SOL     OW10012   5.497   0.207   5.937
 3038SOL    HW110013   5.499   0.274   5.862
 3038SOL    HW210014   5.484   0.256   6.024
 3039SOL     OW10015   0.480   5.061   1.226
 3039SOL    HW110016   0.575   5.090   1.220
 3039SOL    HW210017   0.475   4.970   1.268
 3040SOL     OW10018   2.689   3.505   6.592
 3040SOL    HW110019   2.772   3.560   6.597
 3040SOL    HW210020   2.638   3.514   6.678
 3041SOL     OW10021   1.765   2.140   5.664
 3041SOL    HW110022   1.846   2.120   5.608
 3041SOL    HW210023   1.710   2.057   5.674
 3042SOL     OW10024   4.632   0.879   1.591
 3042SOL    HW110025   4.664   0.973   1.587
 3042SOL    HW210026   4.617   0.853   1.687
 3043SOL     OW10027   6.975   5.468   0.275
 3043SOL    HW110028   0.037   5.454   0.321
 3043SOL    HW210029   6.919   5.385   0.281
 3044SOL     OW10030   3.321   4.075   6.328
 3044SOL    HW110031   3.256   4.144   6.295
 3044SOL    HW210032   3.272   4.007   6.382
 3045SOL     OW10033   5.830   2.383   3.221
 3045SOL    HW110034   5.736   2.418   3.222
 3045SOL    HW210035   5.866   2.385   3.128
 3046SOL     OW10036   2.170   2.702   5.874
 3046SOL    HW110037   2.154   2.669   5.967
 3046SOL    HW210038   2.208   2.794   5.878
 3047SOL     OW10039   6.469   4.767   2.139
 3047SOL    HW110040   6.393   4.784   2.201
 3047SOL    HW210041   6.434   4.732   2.052
 3048SOL     OW10042   3.330   2.539   1.590
 3048SOL    HW110043   3.320   2.601   1.512
 3048SOL    HW210044   3.271   2.570   1.665
 3049SOL     OW10045   0.906   0.246   2.148
 3049SOL    HW110046   1.003   0.258   2.131
 3049SOL    HW210047   0.855   0.254   2.062
 3050SOL     OW10048   4.122   5.646   4.107
 3050SOL    HW110049   4.055   5.595   4.162
 3050SOL    HW210050   4.201   5.588   4.088
 3051SOL     OW10051   2.380   4.631   5.945
 3051SOL    HW110052   2.364   4.546   5.996
 3051SOL    HW210053   2.456   4.618   5.882
 3052SOL     OW10054   4.343   6.546   2.892
 3052SOL    HW110055   4.245   6.561   2.892
 3052SOL    HW210056   4.363   6.452   2.922
 3053SOL     OW10057   5.182   6.442   0.086
 3053SOL    HW110058   5.214   6.366   0.142
 3053SOL    HW210059   5.261   6.496   0.054
 3054SOL     OW10060   0.982   3.597   6.360
 3054SOL    HW110061   0.919   3.522   6.343
 3054SOL    HW210062   1.067   3.581   6.310
 3055SOL     OW10063   6.547   6.379   3.045
 3055SOL    HW110064   6.545   6.435   3.128
 3055SOL    HW210065   6.615   6.415   2.982
 3056SOL     OW10066   6.867   1.184   0.962
 3056SOL    HW110067   6.919   1.121   0.905
 3056SOL    HW210068   6.820   1.134   1.034
 3057SOL     OW10069   6.062   5.658   2.671
 3057SOL    HW110070   5.992   5.725   2.648
 3057SOL    HW210071   6.142   5.705   2.707
 3058SOL     OW10072   6.314   4.965   1.695
 3058SOL    HW110073   6.346   5.020   1.618
 3058SOL    HW210074   6.386   4.902   1.723
 3059SOL     OW10075   1.759   2.827   4.365
 3059SOL    HW110076   1.690   2.888   4.405
 3059SOL    HW210077   1.850   2.861   4.386
 3060SOL     OW10078   6.443   0.021   0.733
 3060SOL    HW110079   6.393   0.006   0.647
 3060SOL    HW210080   6.384   0.071   0.797
 3061SOL     OW10081   0.151   6.908   6.163
 3061SOL    HW110082   0.053   6.906   6.147
 3061SOL    HW210083   0.199   6.877   6.080
 3062SOL     OW10084   2.773   6.222   6.890
 3062SOL    HW110085   2.781   6.125   6.912
 3062SOL    HW210086   2.709   6.265   6.954
 3063SOL     OW10087   2.146   4.924   1.309
 3063SOL    HW110088   2.235   4.953   1.274
 3063SOL    HW210089   2.158   4.879   1.397
 3064SOL     OW10090   6.178   3.988   3.021
 3064SOL    HW110091   6.155   4.023   3.111
 3064SOL    HW210092   6.270   4.018   2.996
 3065SOL     OW10093   2.066   0.952   0.312
 3065SOL    HW110094   2.075   1.043   0.353
 3065SOL    HW210095   2.118   0.948   0.227
 3066SOL     OW10096   6.027   4.817   1.571
 3066SOL    HW110097   6.055   4.869   1.490
 3066SOL    HW210098   5.955   4.753   1.545
 3067SOL     OW10099   5.295   6.922   3.695
 3067SOL    HW110100   5.357   6.889   3.765
 3067SOL    HW210101   5.206   6.942   3.735
 3068SOL     OW10102   5.996   4.931   0.392
 3068SOL    HW110103   6.007   4.888   0.482
 3068SOL    HW210104   6.053   5.012   0.386
 3069SOL     OW10105   0.715   5.764   3.011
 3069SOL    HW110106   0.642   5.764   2.943
 3069SOL    HW210107   0.718   5.853   3.058
 3070SOL     OW10108   4.320   1.171   4.430
 3070SOL    HW110109   4.291   1.090   4.480
 3070SOL    HW210110   4.419   1.184   4.441
 3071SOL     OW10111   6.276   6.467   3.687
 3071SOL    HW110112   6.256   6.563   3.665
 3071SOL    HW210113   6.306   6.461   3.783
 3072SOL     OW10114   0.737   0.413   2.824
 3072SOL    HW110115   0.825   0.430   2.870
 3072SOL    HW210116   0.727   0.315   2.808
 3073SOL     OW10117   1.626   3.423   4.710
 3073SOL    HW110118   1.657   3.385   4.797
 3073SOL    HW210119   1.609   3.349   4.645
 3074SOL     OW10120   4.800   3.059   5.718
 3074SOL    HW110121   4.745   3.021   5.644
 3074SOL    HW210122   4.848   3.141   5.686
 3075SOL     OW10123   2.521   5.754   1.629
 3075SOL    HW110124   2.430   5.784   1.657
 3075SOL    HW210125   2.529   5.760   1.530
 3076SOL     OW10126   0.651   0.614   5.234
 3076SOL    HW110127   0.648   0.528   5.185
 3076SOL    HW210128   0.582   0.614   5.307
 3077SOL     OW10129   5.115   5.155   3.739
 3077SOL    HW110130   5.067   5.174   3.825
 3077SOL    HW210131   5.057   5.179   3.662
 3078SOL     OW10132   1.863   3.404   1.342
 3078SOL    HW110133   1.808   3.404   1.425
 3078SOL    HW210134   1.957   3.430   1.364
 3079SOL     OW10135   6.457   2.404   5.948
 3079SOL    HW110136   6.435   2.493   5.909
 3079SOL    HW210137   6.544   2.371   5.910
 3080SOL     OW10138   6.473   5.604   0.820
 3080SOL    HW110139   6.428   5.677   0.871
 3080SOL    HW210140   6.560   5.637   0.784
 3081SOL     OW10141   6.912   4.975   5.548
 3081SOL    HW110142   6.885   5.044   5.480
 3081SOL    HW210143   6.831   4.946   5.600
 3082SOL     OW10144   2.869   0.118   2.750
 3082SOL    HW110145   2.913   0.083   2.667
 3082SOL    HW210146   2.770   0.124   2.734
 3083SOL     OW10147   3.183   0.616   2.028
 3083SOL    HW110148   3.188   0.709   2.065
 3083SOL    HW210149   3.271   0.592   1.987
 3084SOL     OW10150   5.147   6.361   4.782
 3084SOL    HW110151   5.131   6.380   4.879
 3084SOL    HW210152   5.229   6.305   4.772
 3085SOL     OW10153   0.699   5.563   1.754
 3085SOL    HW110154   0.647   5.648   1.753
 3085SOL    HW210155   0.775   5.570   1.819
 3086SOL     OW10156   5.001   1.216   3.945
 3086SOL    HW110157   5.016   1.160   4.026
 3086SOL    HW210158   5.079   1.276   3.930
 3087SOL     OW10159   6.397   2.986   3.421
 3087SOL    HW110160   6.335   2.994   3.343
 3087SOL    HW210161   6.388   2.896   3.462
 3088SOL     OW10162   2.985   4.691   5.786
 3088SOL    HW110163   2.933   4.708   5.870
 3088SOL    HW210164   2.981   4.771   5.727
 3089SOL     OW10165   1.885   2.556   0.307
 3089SOL    HW110166   1.933   2.500   0.374
 3089SOL    HW210167   1.789   2.567   0.335
 3090SOL     OW10168   0.992   1.805   1.248
 3090SOL    HW110169   0.920   1.861   1.208
 3090SOL    HW210170   1.006   1.833   1.344
 3091SOL     OW10171   2.692   6.887   0.310
 3091SOL    HW110172   2.732   6.923   0.394
 3091SOL    HW210173   2.594   6.870   0.324
 3092SOL     OW10174   4.794   6.196   0.953
 3092SOL    HW110175   4.698   6.220   0.938
 3092SOL    HW210176   4.820   6.219   1.047
 3093SOL     OW10177   4.966   5.673   4.222
 3093SOL    HW110178   4.868   5.665   4.240
 3093SOL    HW210179   4.997   5.595   4.168
 3094SOL     OW10180   2.983   5.576   5.585
 3094SOL    HW110181   2.923   5.656   5.587
 3094SOL    HW210182   2.953   5.510   5.654
 3095SOL     OW10183   3.124   4.961   5.169
 3095SOL    HW110184   3.153   4.931   5.078
 3095SOL    HW210185   3.202   4.961   5.231
 3096SOL     OW10186   1.107   0.614   6.025
 3096SOL    HW110187   1.011   0.636   6.045
 3096SOL    HW210188   1.112   0.522   5.986
 3097SOL     OW10189   1.590   2.966   6.955
 3097SOL    HW110190   1.546   2.921   0.008
 3097SOL    HW210191   1.630   3.052   6.984
 3098SOL     OW10192   3.896   2.283   0.773
 3098SOL    HW110193   3.852   2.218   0.711
 3098SOL    HW210194   3.994   2.264   0.776
 3099SOL     OW10195   0.934   6.244   5.778
 3099SOL    HW110196   1.009   6.192   5.820
 3099SOL    HW210197   0.862   6.182   5.750
 3100SOL     OW10198   6.790   7.011   0.472
 3100SOL    HW110199   6.878   0.028   0.494
 3100SOL    HW210200   6.768   0.004   0.376
 3101SOL     OW10201   4.561   0.034   0.602
 3101SOL    HW110202   4.601   6.979   0.558
 3101SOL    HW210203   4.634   0.091   0.641
 3102SOL     OW10204   1.602   4.990   1.257
 3102SOL    HW110205   1.573   5.051   1.331
 3102SOL    HW210206   1.533   4.920   1.243
 3103SOL     OW10207   4.054   3.225   2.492
 3103SOL    HW110208   4.068   3.276   2.577
 3103SOL    HW210209   4.096   3.275   2.416
 3104SOL     OW10210   6.771   5.614   3.789
 3104SOL    HW110211   6.733   5.697   3.828
 3104SOL    HW210212   6.701   5.568   3.733
 3105SOL     OW10213   6.205   6.587   4.166
 3105SOL    HW110214   6.279   6.600   4.232
 3105SOL    HW210215   6.117   6.586   4.213
 3106SOL     OW10216   6.942   2.509   4.342
 3106SOL    HW110217   6.922   2.605   4.322
 3106SOL    HW210218   6.861   2.466   4.383
 3107SOL     OW10219   2.932   0.041   4.644
 3107SOL    HW110220   2.968   6.973   4.648
 3107SOL    HW210221   2.892   0.057   4.553
 3108SOL     OW10222   3.857   0.581   3.522
 3108SOL    HW110223   3.917   0.524   3.577
 3108SOL    HW210224   3.873   0.677   3.544
 3109SOL     OW10225   4.963   5.609   3.239
 3109SOL    HW110226   4.950   5.684   3.174
 3109SOL    HW210227   4.878   5.592   3.288
 3110SOL     OW10228   0.558   2.806   2.629
 3110SOL    HW110229   0.530   2.713   2.605
 3110SOL    HW210230   0.645   2.802   2.679
 3111SOL     OW10231   6.888   4.487   3.498
 3111SOL    HW110232   6.844   4.432   3.427
 3111SOL    HW210233   6.836   4.570   3.514
 3112SOL     OW10234   3.894   3.643   6.693
 3112SOL    HW110235   3.990   3.623   6.714
 3112SOL    HW210236   3.886   3.665   6.596
 3113SOL     OW10237   3.219   6.932   4.010
 3113SOL    HW110238   3.242   6.883   3.926
 3113SOL    HW210239   3.208   0.004   3.991
 3114SOL     OW10240   5.604   5.581   0.832
 3114SOL    HW110241   5.585   5.653   0.766
 3114SOL    HW210242   5.692   5.598   0.875
 3115SOL     OW10243   2.786   3.641   1.411
 3115SOL    HW110244   2.849   3.665   1.337
 3115SOL    HW210245   2.802   3.547   1.439
 3116SOL     OW10246   6.985   1.941   6.832
 3116SOL    HW110247   6.972   1.880   6.754
 3116SOL    HW210248   6.895   1.968   6.869
 3117SOL     OW10249   4.029   3.896   5.024
 3117SOL    HW110250   4.059   3.855   5.110
 3117SOL    HW210251   4.086   3.863   4.949
 3118SOL     OW10252   5.497   4.257   0.342
 3118SOL    HW110253   5.486   4.354   0.364
 3118SOL    HW210254   5.410   4.221   0.308
 3119SOL     OW10255   1.244   4.511   5.504
 3119SOL    HW110256   1.311   4.549   5.568
 3119SOL    HW210257   1.266   4.415   5.486
 3120SOL     OW10258   3.392   5.330   5.358
 3120SOL    HW110259   3.358   5.288   5.274
 3120SOL    HW210260   3.326   5.399   5.389
 3121SOL     OW10261   0.450   6.883   2.631
 3121SOL    HW110262   0.502   6.932   2.561
 3121SOL    HW210263   0.496   6.892   2.719
 3122SOL     OW10264   2.934   5.813   1.000
 3122SOL    HW110265   2.907   5.716   1.001
 3122SOL    HW210266   2.942   5.844   0.905
 3123SOL     OW10267   3.593   6.625   4.391
 3123SOL    HW110268   3.619   6.718   4.416
 3123SOL    HW210269   3.638   6.601   4.305
 3124SOL     OW10270   4.065   0.228   6.535
 3124SOL    HW110271   4.036   0.178   6.454
 3124SOL    HW210272   3.988   0.280   6.571
 3125SOL     OW10273   6.850   2.127   5.695
 3125SOL    HW110274   6.850   2.046   5.753
 3125SOL    HW210275   6.856   2.101   5.599
 3126SOL     OW10276   4.226   5.672   0.343
 3126SOL    HW110277   4.290   5.635   0.411
 3126SOL    HW210278   4.165   5.599   0.312
 3127SOL     OW10279   0.550   1.228   3.794
 3127SOL    HW110280   0.475   1.278   3.753
 3127SOL    HW210281   0.516   1.170   3.868
 3128SOL     OW10282   1.225   2.018   0.582
 3128SOL    HW110283   1.263   2.081   0.650
 3128SOL    HW210284   1.270   2.033   0.494
 3129SOL     OW10285   1.033   3.122   4.958
 3129SOL    HW110286   1.090   3.204   4.957
 3129SOL    HW210287   0.961   3.131   4.889
 3130SOL     OW10288   1.483   5.530   3.143
 3130SOL    HW110289   1.416   5.579   3.088
 3130SOL    HW210290   1.534   5.466   3.085
 3131SOL     OW10291   0.083   3.582   3.561
 3131SOL    HW110292   0.077   3.564   3.659
 3131SOL    HW210293   0.081   3.681   3.545
 3132SOL     OW10294   5.224   6.309   5.440
 3132SOL    HW110295   5.174   6.280   5.522
 3132SOL    HW210296   5.318   6.334   5.466
 3133SOL     OW10297   3.040   1.612   3.311
 3133SOL    HW110298   3.078   1.556   3.238
 3133SOL    HW210299   2.945   1.634   3.290
 3134SOL     OW10300   4.968   2.793   2.641
 3134SOL    HW110301   4.889   2.845   2.605
 3134SOL    HW210302   5.031   2.856   2.686
 3135SOL     OW10303   3.265   1.760   3.358
 3135SOL    HW110304   3.183   1.705   3.375
 3135SOL    HW210305   3.323   1.713   3.292
 3136SOL     OW10306   5.892   6.569   5.002
 3136SOL    HW110307   5.937   6.491   4.958
 3136SOL    HW210308   5.944   6.597   5.083
 3137SOL     OW10309   6.265   2.067   4.286
 3137SOL    HW110310   6.188   2.024   4.237
 3137SOL    HW210311   6.347   2.010   4.275
 3138SOL     OW10312   5.579   1.167   5.232
 3138SOL    HW110313   5.538   1.154   5.142
 3138SOL    HW210314   5.664   1.115   5.238
 3139SOL     OW10315   4.953   6.389   5.193
 3139SOL    HW110316   4.946   6.465   5.259
 3139SOL    HW210317   4.896   6.313   5.224
 3140SOL     OW10318   6.382   6.717   6.542
 3140SOL    HW110319   6.418   6.808   6.522
 3140SOL    HW210320   6.454   6.661   6.583
 3141SOL     OW10321   1.263   4.714   0.317
 3141SOL    HW110322   1.185   4.657   0.290
 3141SOL    HW210323   1.339   4.656   0.345
 3142SOL     OW10324   4.190   6.519   0.060
 3142SOL    HW110325   4.176   6.420   0.059
 3142SOL    HW210326   4.286   6.539   0.038
 3143SOL     OW10327   6.632   1.651   0.757
 3143SOL    HW110328   6.561   1.595   0.715
 3143SOL    HW210329   6.692   1.593   0.812
 3144SOL     OW10330   1.389   3.929   6.769
 3144SOL    HW110331   1.385   4.028   6.759
 3144SOL    HW210332   1.437   3.889   6.690
 3145SOL     OW10333   3.555   6.768   4.108
 3145SOL    HW110334   3.528   6.764   4.012
 3145SOL    HW210335   3.564   6.864   4.136
 3146SOL     OW10336   2.289   0.357   3.798
 3146SOL    HW110337   2.232   0.301   3.857
 3146SOL    HW210338   2.363   0.301   3.760
 3147SOL     OW10339   4.215   3.672   0.206
 3147SOL    HW110340   4.296   3.614   0.209
 3147SOL    HW210341   4.135   3.618   0.233
 3148SOL     OW10342   3.581   5.821   4.744
 3148SOL    HW110343   3.563   5.805   4.648
 3148SOL    HW210344   3.496   5.814   4.796
 3149SOL     OW10345   3.559   6.813   5.703
 3149SOL    HW110346   3.541   6.720   5.734
 3149SOL    HW210347   3.472   6.859   5.683
 3150SOL     OW10348   6.490   0.143   4.514
 3150SOL    HW110349   6.539   0.230   4.504
 3150SOL    HW210350   6.411   0.143   4.452
 3151SOL     OW10351   3.688   0.803   6.852
 3151SOL    HW110352   3.688   0.755   6.939
 3151SOL    HW210353   3.782   0.828   6.828
 3152SOL     OW10354   1.811   5.137   0.573
 3152SOL    HW110355   1.795   5.068   0.503
 3152SOL    HW210356   1.724   5.180   0.597
 3153SOL     OW10357   6.878   4.469   2.395
 3153SOL    HW110358   6.818   4.391   2.380
 3153SOL    HW210359   6.973   4.439   2.400
 3154SOL     OW10360   5.752   2.407   6.572
 3154SOL    HW110361   5.837   2.401   6.519
 3154SOL    HW210362   5.674   2.405   6.510
 3155SOL     OW10363   5.095   6.092   0.358
 3155SOL    HW110364   5.120   6.001   0.325
 3155SOL    HW210365   4.996   6.098   0.368
 3156SOL     OW10366   3.495   3.703   3.213
 3156SOL    HW110367   3.424   3.636   3.190
 3156SOL    HW210368   3.569   3.658   3.262
 3157SOL     OW10369   2.257   3.062   4.289
 3157SOL    HW110370   2.256   2.971   4.247
 3157SOL    HW210371   2.245   3.053   4.388
 3158SOL     OW10372   4.803   5.859   0.971
 3158SOL    HW110373   4.891   5.814   0.987
 3158SOL    HW210374   4.817   5.957   0.960
 3159SOL     OW10375   5.392   4.728   1.018
 3159SOL    HW110376   5.431   4.791   1.086
 3159SOL    HW210377   5.316   4.772   0.972
 3160SOL     OW10378   5.602   4.351   6.874
 3160SOL    HW110379   5.541   4.355   6.954
 3160SOL    HW210380   5.580   4.427   6.812
 3161SOL     OW10381   0.791   1.803   2.945
 3161SOL    HW110382   0.830   1.773   3.032
 3161SOL    HW210383   0.793   1.728   2.879
 3162SOL     OW10384   6.616   6.323   6.508
 3162SOL    HW110385   6.525   6.291   6.480
 3162SOL    HW210386   6.685   6.284   6.447
 3163SOL     OW10387   2.393   3.909   5.614
 3163SOL    HW110388   2.335   3.829   5.600
 3163SOL    HW210389   2.421   3.946   5.526
 3164SOL     OW10390   5.606   5.246   6.449
 3164SOL    HW110391   5.618   5.156   6.407
 3164SOL    HW210392   5.530   5.293   6.405
 3165SOL     OW10393   0.055   2.586   1.497
 3165SOL    HW110394   7.018   2.520   1.456
 3165SOL    HW210395   0.097   2.547   1.578
 3166SOL     OW10396   5.411   2.883   5.883
 3166SOL    HW110397   5.335   2.947   5.889
 3166SOL    HW210398   5.429   2.842   5.972
 3167SOL     OW10399   0.779   4.536   2.449
 3167SOL    HW110400   0.819   4.468   2.511
 3167SOL    HW210401   0.717   4.490   2.385
 3168SOL     OW10402   5.447   3.069   0.845
 3168SOL    HW110403   5.521   3.081   0.911
 3168SOL    HW210404   5.411   2.976   0.850
 3169SOL     OW10405   1.207   1.524   4.784
 3169SOL    HW110406   1.286   1.467   4.763
 3169SOL    HW210407   1.221   1.572   4.870
 3170SOL     OW10408   4.228   0.805   6.182
 3170SOL    HW110409   4.322   0.775   6.169
 3170SOL    HW210410   4.205   0.804   6.280
 3171SOL     OW10411   6.445   6.431   3.478
 3171SOL    HW110412   6.521   6.457   3.538
 3171SOL    HW210413   6.360   6.431   3.531
 3172SOL     OW10414   6.165   6.966   5.678
 3172SOL    HW110415   6.151   0.006   5.753
 3172SOL    HW210416   6.115   6.882   5.698
 3173SOL     OW10417   1.890   1.338   0.761
 3173SOL    HW110418   1.822   1.268   0.741
 3173SOL    HW210419   1.935   1.318   0.848
 3174SOL     OW10420   1.736   3.744   5.823
 3174SOL    HW110421   1.714   3.838   5.794
 3174SOL    HW210422   1.820   3.744   5.876
 3175SOL     OW10423   0.326   5.983   0.758
 3175SOL    HW110424   0.287   6.074   0.773
 3175SOL    HW210425   0.322   5.960   0.661
 3176SOL     OW10426   0.656   5.003   6.528
 3176SOL    HW110427   0.603   4.990   6.612
 3176SOL    HW210428   0.684   4.913   6.493
 3177SOL     OW10429   0.020   0.192   4.792
 3177SOL    HW110430   0.070   0.235   4.867
 3177SOL    HW210431   6.949   0.220   4.795
 3178SOL     OW10432   1.799   3.067   1.469
 3178SOL    HW110433   1.716   3.069   1.526
 3178SOL    HW210434   1.876   3.101   1.522
 3179SOL     OW10435   1.184   2.413   3.075
 3179SOL    HW110436   1.260   2.354   3.102
 3179SOL    HW210437   1.102   2.356   3.062
 3180SOL     OW10438   5.970   1.080   5.609
 3180SOL    HW110439   5.910   1.159   5.624
 3180SOL    HW210440   6.059   1.099   5.649
 3181SOL     OW10441   0.829   2.091   2.809
 3181SOL    HW110442   0.778   2.018   2.854
 3181SOL    HW210443   0.765   2.160   2.774
 3182SOL     OW10444   1.403   4.600   5.139
 3182SOL    HW110445   1.428   4.646   5.224
 3182SOL    HW210446   1.365   4.510   5.160
 3183SOL     OW10447   4.029   3.595   1.197
 3183SOL    HW110448   4.016   3.549   1.109
 3183SOL    HW210449   4.126   3.610   1.214
 3184SOL     OW10450   2.910   1.563   2.816
 3184SOL    HW110451   2.910   1.521   2.907
 3184SOL    HW210452   2.846   1.640   2.815
 3185SOL     OW10453   7.009   6.362   6.029
 3185SOL    HW110454   6.953   6.296   6.079
 3185SOL    HW210455   0.003   6.326   5.938
 3186SOL     OW10456   3.149   0.350   1.945
 3186SOL    HW110457   3.142   0.347   1.845
 3186SOL    HW210458   3.138   0.444   1.977
 3187SOL     OW10459   3.193   4.692   0.034
 3187SOL    HW110460   3.110   4.695   0.090
 3187SOL    HW210461   3.178   4.635   6.979
 3188SOL     OW10462   4.334   0.102   3.164
 3188SOL    HW110463   4.412   0.062   3.213
 3188SOL    HW210464   4.349   0.095   3.066
 3189SOL     OW10465   0.896   0.563   1.650
 3189SOL    HW110466   0.927   0.642   1.597
 3189SOL    HW210467   0.874   0.591   1.743
 3190SOL     OW10468   0.713   6.593   1.881
 3190SOL    HW110469   0.740   6.559   1.971
 3190SOL    HW210470   0.794   6.602   1.823
 3191SOL     OW10471   3.288   0.790   1.081
 3191SOL    HW110472   3.275   0.712   1.142
 3191SOL    HW210473   3.274   0.875   1.131
 3192SOL     OW10474   6.376   2.395   3.627
 3192SOL    HW110475   6.305   2.330   3.600
 3192SOL    HW210476   6.418   2.435   3.545
 3193SOL     OW10477   4.760   4.063   0.142
 3193SOL    HW110478   4.762   3.977   0.192
 3193SOL    HW210479   4.778   4.045   0.045
 3194SOL     OW10480   1.324   4.346   5.815
 3194SOL    HW110481   1.390   4.295   5.870
 3194SOL    HW210482   1.311   4.436   5.854
 3195SOL     OW10483   0.503   3.736   3.347
 3195SOL    HW110484   0.487   3.645   3.310
 3195SOL    HW210485   0.523   3.729   3.445
 3196SOL     OW10486   0.437   6.846   5.280
 3196SOL    HW110487   0.445   6.819   5.376
 3196SOL    HW210488   0.505   6.917   5.260
 3197SOL     OW10489   0.999   4.204   4.116
 3197SOL    HW110490   0.901   4.205   4.098
 3197SOL    HW210491   1.049   4.222   4.032
 3198SOL     OW10492   6.647   0.843   0.085
 3198SOL    HW110493   6.630   0.884   0.174
 3198SOL    HW210494   6.655   0.744   0.094
 3199SOL     OW10495   3.807   2.175   2.873
 3199SOL    HW110496   3.712   2.186   2.845
 3199SOL    HW210497   3.810   2.133   2.964
 3200SOL     OW10498   6.524   2.253   0.975
 3200SOL    HW110499   6.610   2.233   0.927
 3200SOL    HW210500   6.509   2.351   0.977
 3201SOL     OW10501   4.661   4.394   3.145
 3201SOL    HW110502   4.649   4.379   3.243
 3201SOL    HW210503   4.593   4.460   3.113
 3202SOL     OW10504   2.248   5.860   1.640
 3202SOL    HW110505   2.224   5.945   1.686
 3202SOL    HW210506   2.227   5.867   1.543
 3203SOL     OW10507   6.518   0.003   1.888
 3203SOL    HW110508   6.556   6.942   1.923
 3203SOL    HW210509   6.592   0.058   1.849
 3204SOL     OW10510   6.118   5.840   1.824
 3204SOL    HW110511   6.100   5.885   1.911
 3204SOL    HW210512   6.121   5.907   1.750
 3205SOL     OW10513   1.500   3.787   2.961
 3205SOL    HW110514   1.488   3.873   2.912
 3205SOL    HW210515   1.531   3.806   3.055
 3206SOL     OW10516   1.526   6.743   0.496
 3206SOL    HW110517   1.501   6.675   0.427
 3206SOL    HW210518   1.443   6.790   0.527
 3207SOL     OW10519   1.132   0.728   3.749
 3207SOL    HW110520   1.165   0.763   3.661
 3207SOL    HW210521   1.063   0.791   3.786
 3208SOL     OW10522   6.208   0.346   5.336
 3208SOL    HW110523   6.158   0.399   5.267
 3208SOL    HW210524   6.267   0.407   5.388
 3209SOL     OW10525   2.825   0.272   3.090
 3209SOL    HW110526   2.895   0.324   3.138
 3209SOL    HW210527   2.802   0.190   3.142
 3210SOL     OW10528   6.864   4.661   3.144
 3210SOL    HW110529   6.945   4.603   3.151
 3210SOL    HW210530   6.840   4.695   3.234
 3211SOL     OW10531   1.139   4.511   2.258
 3211SOL    HW110532   1.055   4.562   2.271
 3211SOL    HW210533   1.126   4.417   2.288
 3212SOL     OW10534   4.906   3.046   5.301
 3212SOL    HW110535   4.885   3.119   5.365
 3212SOL    HW210536   4.821   3.006   5.267
 3213SOL     OW10537   5.580   6.177   1.733
 3213SOL    HW110538   5.580   6.189   1.633
 3213SOL    HW210539   5.579   6.080   1.754
 3214SOL     OW10540   3.923   4.398   5.984
 3214SOL    HW110541   3.969   4.473   5.938
 3214SOL    HW210542   3.837   4.429   6.023
 3215SOL     OW10543   6.128   1.687   0.380
 3215SOL    HW110544   6.209   1.664   0.326
 3215SOL    HW210545   6.145   1.663   0.476
 3216SOL     OW10546   5.852   6.807   4.560
 3216SOL    HW110547   5.851   6.905   4.539
 3216SOL    HW210548   5.820   6.793   4.654
 3217SOL     OW10549   6.640   4.069   0.501
 3217SOL    HW110550   6.549   4.034   0.479
 3217SOL    HW210551   6.682   4.010   0.570
 3218SOL     OW10552   3.321   0.865   2.122
 3218SOL    HW110553   3.261   0.940   2.149
 3218SOL    HW210554   3.371   0.890   2.039
 3219SOL     OW10555   0.085   6.848   3.880
 3219SOL    HW110556   0.101   6.882   3.973
 3219SOL    HW210557   0.037   6.761   3.884
 3220SOL     OW10558   6.097   2.824   5.419
 3220SOL    HW110559   6.129   2.742   5.466
 3220SOL    HW210560   6.041   2.879   5.482
 3221SOL     OW10561   4.136   0.136   2.230
 3221SOL    HW110562   4.131   0.065   2.300
 3221SOL    HW210563   4.061   0.123   2.165
 3222SOL     OW10564   5.988   3.305   2.772
 3222SOL    HW110565   6.016   3.342   2.861
 3222SOL    HW210566   5.920   3.233   2.786
 3223SOL     OW10567   2.617   4.907   4.329
 3223SOL    HW110568   2.678   4.843   4.282
 3223SOL    HW210569   2.572   4.967   4.263
 3224SOL     OW10570   3.714   5.959   1.248
 3224SOL    HW110571   3.731   5.861   1.257
 3224SOL    HW210572   3.799   6.004   1.221
 3225SOL     OW10573   2.314   2.532   1.121
 3225SOL    HW110574   2.406   2.499   1.097
 3225SOL    HW210575   2.253   2.521   1.042
 3226SOL     OW10576   0.146   0.965   4.418
 3226SOL    HW110577   0.136   1.064   4.405
 3226SOL    HW210578   0.190   0.925   4.339
 3227SOL     OW10579   1.952   1.691   5.249
 3227SOL    HW110580   1.991   1.637   5.174
 3227SOL    HW210581   2.024   1.716   5.313
 3228SOL     OW10582   5.090   3.157   4.809
 3228SOL    HW110583   5.014   3.114   4.857
 3228SOL    HW210584   5.151   3.086   4.773
 3229SOL     OW10585   3.668   2.077   5.046
 3229SOL    HW110586   3.757   2.111   5.077
 3229SOL    HW210587   3.658   2.093   4.948
 3230SOL     OW10588   1.797   0.279   3.931
 3230SOL    HW110589   1.821   0.209   3.998
 3230SOL    HW210590   1.873   0.344   3.921
 3231SOL     OW10591   5.257   5.603   0.625
 3231SOL    HW110592   5.213   5.586   0.537
 3231SOL    HW210593   5.253   5.519   0.680
 3232SOL     OW10594   2.075   4.258   3.185
 3232SOL    HW110595   2.026   4.311   3.115
 3232SOL    HW210596   2.167   4.293   3.195
 3233SOL     OW10597   1.676   4.011   0.974
 3233SOL    HW110598   1.580   3.995   0.997
 3233SOL    HW210599   1.717   3.926   0.942
 3234SOL     OW10600   6.344   1.809   4.882
 3234SOL    HW110601   6.429   1.786   4.835
 3234SOL    HW210602   6.357   1.894   4.934
 3235SOL     OW10603   5.817   0.736   2.708
 3235SOL    HW110604   5.750   0.682   2.760
 3235SOL    HW210605   5.864   0.676   2.643
 3236SOL     OW10606   0.779   2.330   2.166
 3236SOL    HW110607   0.698   2.281   2.135
 3236SOL    HW210608   0.766   2.360   2.261
 3237SOL     OW10609   3.377   6.009   4.472
 3237SOL    HW110610   3.294   6.024   4.419
 3237SOL    HW210611   3.445   6.077   4.448
 3238SOL     OW10612   5.902   6.790   6.199
 3238SOL    HW110613   5.987   6.741   6.181
 3238SOL    HW210614   5.882   6.788   6.297
 3239SOL     OW10615   0.035   6.172   5.803
 3239SOL    HW110616   7.008   6.097   5.763
 3239SOL    HW210617   0.054   6.241   5.732
 3240SOL     OW10618   0.326   1.527   4.684
 3240SOL    HW110619   0.356   1.492   4.773
 3240SOL    HW210620   0.406   1.549   4.628
 3241SOL     OW10621   4.773   0.762   5.453
 3241SOL    HW110622   4.784   0.711   5.538
 3241SOL    HW210623   4.826   0.717   5.381
 3242SOL     OW10624   3.233   6.656   0.618
 3242SOL    HW110625   3.143   6.681   0.655
 3242SOL    HW210626   3.225   6.643   0.519
 3243SOL     OW10627   3.520   4.907   0.402
 3243SOL    HW110628   3.481   4.997   0.421
 3243SOL    HW210629   3.480   4.840   0.464
 3244SOL     OW10630   1.841   6.191   5.481
 3244SOL    HW110631   1.817   6.097   5.458
 3244SOL    HW210632   1.791   6.219   5.564
 3245SOL     OW10633   2.623   2.295   5.839
 3245SOL    HW110634   2.584   2.387   5.844
 3245SOL    HW210635   2.672   2.275   5.924
 3246SOL     OW10636   5.520   6.357   3.473
 3246SOL    HW110637   5.597   6.365   3.409
 3246SOL    HW210638   5.539   6.411   3.555
 3247SOL     OW10639   6.623   1.793   5.146
 3247SOL    HW110640   6.600   1.882   5.108
 3247SOL    HW210641   6.569   1.776   5.228
 3248SOL     OW10642   5.341   3.653   2.728
 3248SOL    HW110643   5.395   3.708   2.664
 3248SOL    HW210644   5.290   3.712   2.790
 3249SOL     OW10645   3.065   4.361   5.262
 3249SOL    HW110646   3.072   4.316   5.173
 3249SOL    HW210647   3.005   4.440   5.254
 3250SOL     OW10648   4.777   5.974   1.378
 3250SOL    HW110649   4.721   6.031   1.317
 3250SOL    HW210650   4.718   5.909   1.426
 3251SOL     OW10651   3.822   1.048   3.935
 3251SOL    HW110652   3.872   1.052   3.849
 3251SOL    HW210653   3.739   0.995   3.924
 3252SOL     OW10654   3.177   2.128   3.636
 3252SOL    HW110655   3.105   2.188   3.600
 3252SOL    HW210656   3.144   2.079   3.716
 3253SOL     OW10657   4.343   3.607   0.854
 3253SOL    HW110658   4.395   3.615   0.939
 3253SOL    HW210659   4.257   3.561   0.871
 3254SOL     OW10660   4.955   4.700   2.490
 3254SOL    HW110661   4.887   4.772   2.478
 3254SOL    HW210662   4.921   4.615   2.449
 3255SOL     OW10663   4.155   4.753   1.458
 3255SOL    HW110664   4.143   4.839   1.409
 3255SOL    HW210665   4.191   4.771   1.550
 3256SOL     OW10666   5.978   6.776   5.735
 3256SOL    HW110667   5.949   6.805   5.644
 3256SOL    HW210668   5.902   6.786   5.799
 3257SOL     OW10669   2.247   2.001   0.962
 3257SOL    HW110670   2.306   1.920   0.952
 3257SOL    HW210671   2.169   1.992   0.900
 3258SOL     OW10672   5.185   0.052   1.494
 3258SOL    HW110673   5.268   7.021   1.501
 3258SOL    HW210674   5.177   0.109   1.576
 3259SOL     OW10675   6.055   6.223   3.164
 3259SOL    HW110676   6.118   6.221   3.086
 3259SOL    HW210677   6.105   6.201   3.248
 3260SOL     OW10678   1.508   3.125   0.415
 3260SOL    HW110679   1.597   3.086   0.393
 3260SOL    HW210680   1.436   3.070   0.374
 3261SOL     OW10681   4.454   6.992   3.534
 3261SOL    HW110682   4.506   0.008   3.609
 3261SOL    HW210683   4.378   0.028   3.510
 3262SOL     OW10684   4.124   1.317   4.809
 3262SOL    HW110685   4.058   1.281   4.875
 3262SOL    HW210686   4.077   1.339   4.724
 3263SOL     OW10687   3.434   5.452   2.714
 3263SOL    HW110688   3.376   5.469   2.794
 3263SOL    HW210689   3.461   5.355   2.713
 3264SOL     OW10690   4.751   4.491   5.767
 3264SOL    HW110691   4.716   4.400   5.744
 3264SOL    HW210692   4.850   4.493   5.755
 3265SOL     OW10693   5.451   0.455   6.860
 3265SOL    HW110694   5.472   0.486   6.952
 3265SOL    HW210695   5.513   0.499   6.795
 3266SOL     OW10696   0.354   2.169   6.721
 3266SOL    HW110697   0.403   2.136   6.801
 3266SOL    HW210698   0.255   2.166   6.739
 3267SOL     OW10699   4.873   2.363   1.297
 3267SOL    HW110700   4.895   2.307   1.217
 3267SOL    HW210701   4.957   2.389   1.344
 3268SOL     OW10702   1.447   5.005   6.572
 3268SOL    HW110703   1.496   4.920   6.590
 3268SOL    HW210704   1.383   5.023   6.647
 3269SOL     OW10705   4.683   3.541   0.894
 3269SOL    HW110706   4.762   3.567   0.950
 3269SOL    HW210707   4.599   3.559   0.945
 3270SOL     OW10708   0.610   5.607   4.279
 3270SOL    HW110709   0.692   5.575   4.231
 3270SOL    HW210710   0.570   5.684   4.230
 3271SOL     OW10711   5.181   0.987   1.866
 3271SOL    HW110712   5.260   1.044   1.886
 3271SOL    HW210713   5.122   1.033   1.799
 3272SOL     OW10714   4.758   0.071   6.853
 3272SOL    HW110715   4.784   0.130   6.929
 3272SOL    HW210716   4.760   0.123   6.768
 3273SOL     OW10717   1.260   0.391   3.170
 3273SOL    HW110718   1.170   0.410   3.209
 3273SOL    HW210719   1.330   0.438   3.223
 3274SOL     OW10720   2.930   2.163   6.899
 3274SOL    HW110721   3.007   2.138   6.957
 3274SOL    HW210722   2.890   2.249   6.932
 3275SOL     OW10723   4.256   0.796   0.532
 3275SOL    HW110724   4.231   0.711   0.578
 3275SOL    HW210725   4.173   0.851   0.517
 3276SOL     OW10726   2.027   6.289   0.274
 3276SOL    HW110727   2.107   6.301   0.332
 3276SOL    HW210728   1.944   6.306   0.328
 3277SOL     OW10729   0.014   5.944   5.558
 3277SOL    HW110730   6.988   5.967   5.642
 3277SOL    HW210731   0.108   5.977   5.567
 3278SOL     OW10732   1.005   1.271   0.374
 3278SOL    HW110733   1.093   1.313   0.394
 3278SOL    HW210734   0.996   1.258   0.275
 3279SOL     OW10735   2.427   6.028   1.375
 3279SOL    HW110736   2.339   5.982   1.365
 3279SOL    HW210737   2.500   5.965   1.348
 3280SOL     OW10738   2.956   5.598   4.836
 3280SOL    HW110739   2.858   5.604   4.816
 3280SOL    HW210740   2.993   5.691   4.847
 3281SOL     OW10741   2.154   6.109   0.735
 3281SOL    HW110742   2.144   6.025   0.680
 3281SOL    HW210743   2.249   6.116   0.766
 3282SOL     OW10744   2.132   5.806   2.583
 3282SOL    HW110745   2.130   5.709   2.607
 3282SOL    HW210746   2.203   5.821   2.514
 3283SOL     OW10747   1.850   0.076   4.136
 3283SOL    HW110748   1.883   0.116   4.221
 3283SOL    HW210749   1.907   7.023   4.110
 3284SOL     OW10750   1.221   4.577   5.953
 3284SOL    HW110751   1.236   4.673   5.976
 3284SOL    HW210752   1.148   4.540   6.012
 3285SOL     OW10753   0.391   2.257   4.722
 3285SOL    HW110754   0.478   2.244   4.674
 3285SOL    HW210755   0.376   2.181   4.785
 3286SOL     OW10756   4.335   5.044   5.961
 3286SOL    HW110757   4.326   5.034   6.060
 3286SOL    HW210758   4.429   5.071   5.939
 3287SOL     OW10759   0.162   4.138   1.645
 3287SOL    HW110760   0.164   4.079   1.564
 3287SOL    HW210761   0.067   4.153   1.673
 3288SOL     OW10762   1.515   6.542   6.298
 3288SOL    HW110763   1.500   6.454   6.343
 3288SOL    HW210764   1.587   6.592   6.345
 3289SOL     OW10765   1.198   5.392   4.939
 3289SOL    HW110766   1.251   5.308   4.928
 3289SOL    HW210767   1.239   5.448   5.011
 3290SOL     OW10768   7.013   4.293   3.279
 3290SOL    HW110769   0.026   4.217   3.227
 3290SOL    HW210770   0.030   4.378   3.250
 3291SOL     OW10771   1.836   7.001   1.642
 3291SOL    HW110772   1.791   0.047   1.588
 3291SOL    HW210773   1.858   6.923   1.583
 3292SOL     OW10774   0.624   5.542   4.796
 3292SOL    HW110775   0.590   5.600   4.723
 3292SOL    HW210776   0.692   5.478   4.759
 3293SOL     OW10777   6.302   0.739   2.146
 3293SOL    HW110778   6.375   0.753   2.079
 3293SOL    HW210779   6.256   0.826   2.165
 3294SOL     OW10780   0.581   0.099   0.599
 3294SOL    HW110781   0.534   0.181   0.566
 3294SOL    HW210782   0.644   0.125   0.673
 3295SOL     OW10783   1.663   2.099   6.329
 3295SOL    HW110784   1.715   2.017   6.353
 3295SOL    HW210785   1.725   2.178   6.329
 3296SOL     OW10786   0.915   6.792   2.091
 3296SOL    HW110787   0.862   6.760   2.170
 3296SOL    HW210788   0.953   6.714   2.042
 3297SOL     OW10789   2.767   1.633   5.988
 3297SOL    HW110790   2.812   1.578   6.058
 3297SOL    HW210791   2.729   1.716   6.029
 3298SOL     OW10792   6.274   4.165   2.605
 3298SOL    HW110793   6.235   4.074   2.621
 3298SOL    HW210794   6.356   4.176   2.661
 3299SOL     OW10795   1.216   0.922   4.915
 3299SOL    HW110796   1.256   0.910   5.006
 3299SOL    HW210797   1.127   0.876   4.911
 3300SOL     OW10798   0.111   0.389   4.617
 3300SOL    HW110799   0.152   0.384   4.708
 3300SOL    HW210800   0.103   0.296   4.580
 3301SOL     OW10801   0.480   3.395   2.617
 3301SOL    HW110802   0.417   3.318   2.620
 3301SOL    HW210803   0.558   3.372   2.559
 3302SOL     OW10804   1.096   5.765   5.200
 3302SOL    HW110805   1.135   5.776   5.108
 3302SOL    HW210806   1.080   5.855   5.240
 3303SOL     OW10807   3.240   3.679   3.426
 3303SOL    HW110808   3.254   3.618   3.348
 3303SOL    HW210809   3.179   3.754   3.400
 3304SOL     OW10810   1.919   0.924   3.212
 3304SOL    HW110811   1.924   0.927   3.112
 3304SOL    HW210812   1.979   0.851   3.246
 3305SOL     OW10813   0.645   2.316   0.845
 3305SOL    HW110814   0.566   2.346   0.900
 3305SOL    HW210815   0.649   2.370   0.761
 3306SOL     OW10816   1.023   3.528   1.879
 3306SOL    HW110817   1.043   3.439   1.838
 3306SOL    HW210818   0.995   3.514   1.974
 3307SOL     OW10819   0.648   6.082   0.904
 3307SOL    HW110820   0.643   6.031   0.818
 3307SOL    HW210821   0.708   6.034   0.968
 3308SOL     OW10822   5.870   6.602   0.461
 3308SOL    HW110823   5.830   6.599   0.369
 3308SOL    HW210824   5.964   6.568   0.457
 3309SOL     OW10825   1.780   5.340   1.969
 3309SOL    HW110826   1.703   5.281   1.993
 3309SOL    HW210827   1.812   5.316   1.877
 3310SOL     OW10828   1.483   6.659   2.118
 3310SOL    HW110829   1.555   6.614   2.065
 3310SOL    HW210830   1.513   6.750   2.144
 3311SOL     OW10831   3.921   6.560   0.971
 3311SOL    HW110832   3.837   6.608   0.999
 3311SOL    HW210833   3.986   6.626   0.933
 3312SOL     OW10834   2.174   3.244   6.821
 3312SOL    HW110835   2.209   3.332   6.789
 3312SOL    HW210836   2.222   3.217   6.904
 3313SOL     OW10837   6.408   6.394   5.198
 3313SOL    HW110838   6.371   6.419   5.108
 3313SOL    HW210839   6.439   6.300   5.196
 3314SOL     OW10840   0.111   3.785   6.777
 3314SOL    HW110841   0.153   3.828   6.857
 3314SOL    HW210842   0.175   3.785   6.701
 3315SOL     OW10843   6.185   3.859   3.321
 3315SOL    HW110844   6.120   3.934   3.303
 3315SOL    HW210845   6.266   3.896   3.365
 3316SOL     OW10846   4.360   1.932   0.375
 3316SOL    HW110847   4.374   1.837   0.345
 3316SOL    HW210848   4.299   1.932   0.455
 3317SOL     OW10849   4.140   2.923   1.666
 3317SOL    HW110850   4.133   3.010   1.714
 3317SOL    HW210851   4.078   2.857   1.709
 3318SOL     OW10852   2.477   5.265   4.665
 3318SOL    HW110853   2.400   5.213   4.701
 3318SOL    HW210854   2.550   5.269   4.734
 3319SOL     OW10855   6.872   6.315   6.663
 3319SOL    HW110856   6.909   6.409   6.661
 3319SOL    HW210857   6.774   6.317   6.643
 3320SOL     OW10858   0.548   1.043   6.902
 3320SOL    HW110859   0.547   0.980   6.825
 3320SOL    HW210860   0.605   1.005   6.975
 3321SOL     OW10861   3.924   3.805   4.230
 3321SOL    HW110862   3.934   3.894   4.275
 3321SOL    HW210863   3.849   3.809   4.165
 3322SOL     OW10864   4.290   2.871   1.281
 3322SOL    HW110865   4.202   2.918   1.273
 3322SOL    HW210866   4.281   2.776   1.252
 3323SOL     OW10867   2.883   4.751   0.083
 3323SOL    HW110868   2.859   4.847   0.079
 3323SOL    HW210869   2.829   4.700   0.016
 3324SOL     OW10870   6.123   2.960   1.718
 3324SOL    HW110871   6.059   2.991   1.789
 3324SOL    HW210872   6.215   2.954   1.756
 3325SOL     OW10873   1.135   3.739   6.519
 3325SOL    HW110874   1.079   3.683   6.458
 3325SOL    HW210875   1.225   3.754   6.477
 3326SOL     OW10876   6.955   0.562   1.597
 3326SOL    HW110877   6.856   0.576   1.594
 3326SOL    HW210878   6.975   0.477   1.646
 3327SOL     OW10879   4.301   6.165   1.376
 3327SOL    HW110880   4.333   6.252   1.337
 3327SOL    HW210881   4.369   6.132   1.441
 3328SOL     OW10882   5.618   0.101   4.054
 3328SOL    HW110883   5.679   0.024   4.036
 3328SOL    HW210884   5.535   0.067   4.099
 3329SOL     OW10885   5.372   0.969   6.724
 3329SOL    HW110886   5.424   0.931   6.648
 3329SOL    HW210887   5.411   0.938   6.811
 3330SOL     OW10888   0.219   6.606   3.434
 3330SOL    HW110889   0.178   6.544   3.367
 3330SOL    HW210890   0.224   6.698   3.396
 3331SOL     OW10891   1.410   3.500   2.966
 3331SOL    HW110892   1.478   3.557   3.013
 3331SOL    HW210893   1.455   3.449   2.892
 3332SOL     OW10894   2.918   5.193   6.943
 3332SOL    HW110895   2.822   5.171   6.926
 3332SOL    HW210896   2.953   5.134   7.016
 3333SOL     OW10897   2.312   3.238   1.739
 3333SOL    HW110898   2.342   3.320   1.788
 3333SOL    HW210899   2.234   3.197   1.787
 3334SOL     OW10900   1.789   2.129   1.960
 3334SOL    HW110901   1.704   2.114   2.011
 3334SOL    HW210902   1.768   2.164   1.869
 3335SOL     OW10903   3.362   4.138   4.966
 3335SOL    HW110904   3.299   4.155   4.890
 3335SOL    HW210905   3.368   4.039   4.983
 3336SOL     OW10906   4.721   5.846   5.135
 3336SOL    HW110907   4.693   5.873   5.043
 3336SOL    HW210908   4.815   5.878   5.152
 3337SOL     OW10909   3.813   2.911   3.156
 3337SOL    HW110910   3.820   2.930   3.057
 3337SOL    HW210911   3.717   2.896   3.180
 3338SOL     OW10912   2.547   3.347   1.342
 3338SOL    HW110913   2.607   3.284   1.293
 3338SOL    HW210914   2.473   3.296   1.385
 3339SOL     OW10915   1.329   0.174   6.889
 3339SOL    HW110916   1.389   0.253   6.896
 3339SOL    HW210917   1.235   0.204   6.875
 3340SOL     OW10918   3.582   0.935   5.732
 3340SOL    HW110919   3.671   0.898   5.757
 3340SOL    HW210920   3.547   0.991   5.808
 3341SOL     OW10921   1.099   4.471   1.985
 3341SOL    HW110922   1.180   4.489   1.929
 3341SOL    HW210923   1.117   4.497   2.080
 3342SOL     OW10924   6.591   0.832   2.435
 3342SOL    HW110925   6.680   0.877   2.448
 3342SOL    HW210926   6.546   0.870   2.354
 3343SOL     OW10927   3.870   5.430   0.413
 3343SOL    HW110928   3.792   5.492   0.417
 3343SOL    HW210929   3.939   5.468   0.352
 3344SOL     OW10930   1.125   3.342   1.409
 3344SOL    HW110931   1.214   3.309   1.379
 3344SOL    HW210932   1.064   3.264   1.424
 3345SOL     OW10933   5.725   5.166   1.391
 3345SOL    HW110934   5.732   5.109   1.309
 3345SOL    HW210935   5.693   5.257   1.366
 3346SOL     OW10936   1.261   0.602   0.033
 3346SOL    HW110937   1.260   0.702   0.045
 3346SOL    HW210938   1.352   0.567   0.054
 3347SOL     OW10939   0.911   3.752   5.715
 3347SOL    HW110940   0.893   3.748   5.617
 3347SOL    HW210941   0.996   3.704   5.736
 3348SOL     OW10942   3.592   4.187   6.058
 3348SOL    HW110943   3.691   4.170   6.055
 3348SOL    HW210944   3.572   4.257   6.126
 3349SOL     OW10945   2.239   5.524   2.395
 3349SOL    HW110946   2.305   5.594   2.421
 3349SOL    HW210947   2.221   5.529   2.297
 3350SOL     OW10948   1.654   5.075   4.362
 3350SOL    HW110949   1.566   5.083   4.410
 3350SOL    HW210950   1.668   4.981   4.333
 3351SOL     OW10951   5.809   0.777   1.923
 3351SOL    HW110952   5.882   0.788   1.856
 3351SOL    HW210953   5.832   0.828   2.006
 3352SOL     OW10954   5.473   1.594   6.751
 3352SOL    HW110955   5.440   1.501   6.767
 3352SOL    HW210956   5.435   1.629   6.666
 3353SOL     OW10957   3.960   0.418   7.020
 3353SOL    HW110958   3.883   0.391   6.961
 3353SOL    HW210959   3.973   0.349   0.066
 3354SOL     OW10960   2.919   3.810   7.002
 3354SOL    HW110961   2.876   3.882   0.031
 3354SOL    HW210962   2.849   3.758   6.954
 3355SOL     OW10963   1.078   0.271   4.567
 3355SOL    HW110964   1.080   0.369   4.589
 3355SOL    HW210965   1.098   0.259   4.470
 3356SOL     OW10966   1.844   0.798   6.764
 3356SOL    HW110967   1.897   0.791   6.848
 3356SOL    HW210968   1.871   0.881   6.715
 3357SOL     OW10969   3.389   3.059   3.066
 3357SOL    HW110970   3.349   3.087   3.154
 3357SOL    HW210971   3.427   3.139   3.020
 3358SOL     OW10972   0.435   1.174   1.999
 3358SOL    HW110973   0.396   1.223   1.920
 3358SOL    HW210974   0.409   1.078   1.994
 3359SOL     OW10975   1.176   6.554   4.759
 3359SOL    HW110976   1.237   6.602   4.821
 3359SOL    HW210977   1.220   6.545   4.669
 3360SOL     OW10978   1.927   4.928   3.940
 3360SOL    HW110979   1.893   4.841   3.906
 3360SOL    HW210980   2.024   4.919   3.963
 3361SOL     OW10981   6.453   6.469   5.477
 3361SOL    HW110982   6.426   6.447   5.383
 3361SOL    HW210983   6.409   6.555   5.504
 3362SOL     OW10984   3.756   0.362   3.795
 3362SOL    HW110985   3.853   0.367   3.771
 3362SOL    HW210986   3.717   0.454   3.792
 3363SOL     OW10987   5.718   4.345   0.135
 3363SOL    HW110988   5.698   4.308   0.044
 3363SOL    HW210989   5.640   4.329   0.195
 3364SOL     OW10990   1.584   3.424   1.829
 3364SOL    HW110991   1.641   3.494   1.871
 3364SOL    HW210992   1.535   3.374   1.901
 3365SOL     OW10993   0.992   3.225   2.549
 3365SOL    HW110994   1.053   3.220   2.628
 3365SOL    HW210995   0.991   3.319   2.513
 3366SOL     OW10996   5.932   3.383   4.804
 3366SOL    HW110997   5.998   3.308   4.797
 3366SOL    HW210998   5.927   3.431   4.717
 3367SOL     OW10999   3.501   2.877   3.798
 3367SOL    HW111000   3.419   2.823   3.817
 3367SOL    HW211001   3.473   2.969   3.768
 3368SOL     OW11002   2.876   0.967   2.968
 3368SOL    HW111003   2.907   0.989   3.060
 3368SOL    HW211004   2.778   0.983   2.961
 3369SOL     OW11005   4.711   2.652   0.734
 3369SOL    HW111006   4.645   2.675   0.806
 3369SOL    HW211007   4.663   2.618   0.654
 3370SOL     OW11008   0.584   5.220   2.790
 3370SOL    HW111009   0.677   5.254   2.798
 3370SOL    HW211010   0.586   5.122   2.769
 3371SOL     OW11011   2.249   2.793   1.399
 3371SOL    HW111012   2.316   2.732   1.356
 3371SOL    HW211013   2.157   2.755   1.387
 3372SOL     OW11014   5.561   3.481   3.356
 3372SOL    HW111015   5.557   3.549   3.282
 3372SOL    HW211016   5.645   3.427   3.346
 3373SOL     OW11017   0.217   3.814   1.595
 3373SOL    HW111018   0.167   3.875   1.534
 3373SOL    HW211019   0.166   3.729   1.606
 3374SOL     OW11020   0.821   6.363   4.029
 3374SOL    HW111021   0.755   6.288   4.022
 3374SOL    HW211022   0.899   6.344   3.971
 3375SOL     OW11023   0.444   5.993   5.972
 3375SOL    HW111024   0.347   6.010   5.988
 3375SOL    HW211025   0.474   5.916   6.028
 3376SOL     OW11026   3.231   3.140   4.700
 3376SOL    HW111027   3.233   3.143   4.800
 3376SOL    HW211028   3.261   3.049   4.669
 3377SOL     OW11029   6.913   5.341   4.611
 3377SOL    HW111030   6.941   5.432   4.640
 3377SOL    HW211031   6.957   5.272   4.671
 3378SOL     OW11032   1.470   5.946   0.818
 3378SOL    HW111033   1.503   5.935   0.724
 3378SOL    HW211034   1.419   5.864   0.844
 3379SOL     OW11035   6.206   3.926   4.302
 3379SOL    HW111036   6.282   3.892   4.246
 3379SOL    HW211037   6.185   4.020   4.274
 3380SOL     OW11038   2.625   5.156   1.153
 3380SOL    HW111039   2.562   5.144   1.076
 3380SOL    HW211040   2.651   5.066   1.188
 3381SOL     OW11041   2.598   3.998   6.179
 3381SOL    HW111042   2.533   4.007   6.104
 3381SOL    HW211043   2.573   4.060   6.254
 3382SOL     OW11044   6.429   4.256   6.940
 3382SOL    HW111045   6.447   4.252   0.013
 3382SOL    HW211046   6.402   4.165   6.908
 3383SOL     OW11047   3.708   5.204   0.465
 3383SOL    HW111048   3.782   5.266   0.440
 3383SOL    HW211049   3.655   5.180   0.383
 3384SOL     OW11050   2.571   3.099   6.485
 3384SOL    HW111051   2.570   3.017   6.543
 3384SOL    HW211052   2.510   3.085   6.407
 3385SOL     OW11053   6.067   2.584   4.346
 3385SOL    HW111054   6.163   2.605   4.330
 3385SOL    HW211055   6.058   2.522   4.424
 3386SOL     OW11056   0.407   6.058   4.429
 3386SOL    HW111057   0.344   5.982   4.413
 3386SOL    HW211058   0.384   6.133   4.367
 3387SOL     OW11059   6.271   1.052   3.084
 3387SOL    HW111060   6.179   1.054   3.047
 3387SOL    HW211061   6.279   0.979   3.151
 3388SOL     OW11062   6.833   3.783   0.893
 3388SOL    HW111063   6.812   3.696   0.848
 3388SOL    HW211064   6.783   3.789   0.979
 3389SOL     OW11065   5.857   5.326   6.416
 3389SOL    HW111066   5.910   5.258   6.364
 3389SOL    HW211067   5.762   5.295   6.424
 3390SOL     OW11068   2.826   5.912   0.471
 3390SOL    HW111069   2.912   5.943   0.431
 3390SOL    HW211070   2.764   5.882   0.399
 3391SOL     OW11071   4.884   4.096   4.878
 3391SOL    HW111072   4.868   4.016   4.820
 3391SOL    HW211073   4.801   4.117   4.929
 3392SOL     OW11074   4.354   6.369   6.329
 3392SOL    HW111075   4.438   6.382   6.381
 3392SOL    HW211076   4.297   6.301   6.374
 3393SOL     OW11077   4.115   6.098   0.578
 3393SOL    HW111078   4.126   6.112   0.480
 3393SOL    HW211079   4.194   6.136   0.627
 3394SOL     OW11080   3.487   5.252   1.626
 3394SOL    HW111081   3.451   5.228   1.536
 3394SOL    HW211082   3.420   5.227   1.696
 3395SOL     OW11083   1.840   6.488   3.042
 3395SOL    HW111084   1.746   6.461   3.065
 3395SOL    HW211085   1.902   6.451   3.111
 3396SOL     OW11086   4.584   0.101   3.731
 3396SOL    HW111087   4.673   0.056   3.720
 3396SOL    HW211088   4.550   0.084   3.824
 3397SOL     OW11089   2.356   5.791   0.290
 3397SOL    HW111090   2.359   5.887   0.316
 3397SOL    HW211091   2.283   5.776   0.224
 3398SOL     OW11092   6.798   1.343   5.841
 3398SOL    HW111093   6.745   1.365   5.922
 3398SOL    HW211094   6.893   1.324   5.867
 3399SOL     OW11095   6.535   5.723   2.264
 3399SOL    HW111096   6.597   5.777   2.206
 3399SOL    HW211097   6.455   5.696   2.210
 3400SOL     OW11098   3.850   2.966   5.323
 3400SOL    HW111099   3.890   2.876   5.305
 3400SOL    HW211100   3.755   2.967   5.291
 3401SOL     OW11101   0.324   3.601   4.187
 3401SOL    HW111102   0.269   3.647   4.256
 3401SOL    HW211103   0.270   3.590   4.103
 3402SOL     OW11104   6.129   3.349   0.553
 3402SOL    HW111105   6.082   3.265   0.525
 3402SOL    HW211106   6.071   3.428   0.535
 3403SOL     OW11107   4.850   6.606   6.370
 3403SOL    HW111108   4.910   6.541   6.416
 3403SOL    HW211109   4.779   6.636   6.433
 3404SOL     OW11110   5.075   5.467   3.030
 3404SOL    HW111111   5.061   5.500   3.123
 3404SOL    HW211112   5.063   5.543   2.965
 3405SOL     OW11113   4.005   5.881   0.178
 3405SOL    HW111114   4.075   5.810   0.176
 3405SOL    HW211115   4.048   5.970   0.196
 3406SOL     OW11116   3.559   5.581   1.386
 3406SOL    HW111117   3.558   5.485   1.356
 3406SOL    HW211118   3.477   5.627   1.351
 3407SOL     OW11119   0.861   3.639   6.973
 3407SOL    HW111120   0.913   3.639   0.033
 3407SOL    HW211121   0.922   3.662   6.897
 3408SOL     OW11122   4.555   6.994   3.295
 3408SOL    HW111123   4.539   6.900   3.265
 3408SOL    HW211124   4.531   7.003   3.392
 3409SOL     OW11125   4.052   1.648   6.593
 3409SOL    HW111126   4.017   1.699   6.514
 3409SOL    HW211127   4.010   1.558   6.596
 3410SOL     OW11128   6.460   0.630   2.824
 3410SOL    HW111129   6.407   0.656   2.743
 3410SOL    HW211130   6.401   0.578   2.887
 3411SOL     OW11131   5.997   3.010   5.682
 3411SOL    HW111132   5.960   3.083   5.740
 3411SOL    HW211133   6.085   3.038   5.644
 3412SOL     OW11134   5.489   2.913   2.810
 3412SOL    HW111135   5.451   3.005   2.807
 3412SOL    HW211136   5.478   2.875   2.902
 3413SOL     OW11137   6.908   1.877   0.544
 3413SOL    HW111138   6.893   1.972   0.518
 3413SOL    HW211139   7.004   1.863   0.567
 3414SOL     OW11140   3.645   3.507   1.963
 3414SOL    HW111141   3.718   3.564   2.002
 3414SOL    HW211142   3.560   3.560   1.960
 3415SOL     OW11143   2.445   1.534   5.808
 3415SOL    HW111144   2.530   1.482   5.814
 3415SOL    HW211145   2.432   1.586   5.892
 3416SOL     OW11146   6.416   6.911   6.145
 3416SOL    HW111147   6.335   6.964   6.170
 3416SOL    HW211148   6.492   6.973   6.126
 3417SOL     OW11149   6.099   0.278   2.464
 3417SOL    HW111150   6.179   0.219   2.463
 3417SOL    HW211151   6.016   0.222   2.454
 3418SOL     OW11152   4.010   5.781   0.961
 3418SOL    HW111153   3.992   5.877   0.940
 3418SOL    HW211154   4.035   5.733   0.877
 3419SOL     OW11155   2.558   4.678   4.992
 3419SOL    HW111156   2.658   4.679   4.979
 3419SOL    HW211157   2.537   4.634   5.079
 3420SOL     OW11158   4.543   1.126   2.453
 3420SOL    HW111159   4.459   1.133   2.399
 3420SOL    HW211160   4.621   1.155   2.397
 3421SOL     OW11161   6.938   1.979   5.003
 3421SOL    HW111162   6.948   1.901   5.065
 3421SOL    HW211163   6.903   1.947   4.916
 3422SOL     OW11164   3.231   6.371   1.523
 3422SOL    HW111165   3.152   6.414   1.567
 3422SOL    HW211166   3.310   6.374   1.585
 3423SOL     OW11167   2.713   4.119   5.616
 3423SOL    HW111168   2.703   4.075   5.705
 3423SOL    HW211169   2.634   4.098   5.559
 3424SOL     OW11170   4.918   1.105   2.323
 3424SOL    HW111171   4.916   1.174   2.396
 3424SOL    HW211172   4.825   1.069   2.309
 3425SOL     OW11173   6.577   3.048   6.220
 3425SOL    HW111174   6.608   2.975   6.159
 3425SOL    HW211175   6.654   3.111   6.238
 3426SOL     OW11176   6.082   4.324   0.181
 3426SOL    HW111177   6.082   4.320   0.281
 3426SOL    HW211178   5.993   4.296   0.146
 3427SOL     OW11179   1.875   1.616   6.558
 3427SOL    HW111180   1.826   1.674   6.492
 3427SOL    HW211181   1.951   1.667   6.597
 3428SOL     OW11182   5.334   0.158   4.919
 3428SOL    HW111183   5.290   0.241   4.885
 3428SOL    HW211184   5.379   0.110   4.844
 3429SOL     OW11185   4.184   0.207   0.819
 3429SOL    HW111186   4.254   0.141   0.792
 3429SOL    HW211187   4.120   0.220   0.743
 3430SOL     OW11188   2.478   4.224   6.297
 3430SOL    HW111189   2.456   4.252   6.390
 3430SOL    HW211190   2.397   4.183   6.255
 3431SOL     OW11191   0.829   4.323   2.608
 3431SOL    HW111192   0.854   4.229   2.584
 3431SOL    HW211193   0.810   4.328   2.706
 3432SOL     OW11194   0.717   4.756   0.162
 3432SOL    HW111195   0.721   4.663   0.199
 3432SOL    HW211196   0.719   4.822   0.237
 3433SOL     OW11197   0.955   0.988   0.147
 3433SOL    HW111198   0.869   1.028   0.114
 3433SOL    HW211199   1.031   1.019   0.089
 3434SOL     OW11200   3.591   2.600   1.699
 3434SOL    HW111201   3.495   2.590   1.673
 3434SOL    HW211202   3.619   2.522   1.755
 3435SOL     OW11203   1.652   2.296   1.112
 3435SOL    HW111204   1.702   2.380   1.134
 3435SOL    HW211205   1.563   2.297   1.159
 3436SOL     OW11206   3.792   6.517   6.150
 3436SOL    HW111207   3.889   6.501   6.134
 3436SOL    HW211208   3.753   6.566   6.072
 3437SOL     OW11209   1.245   6.508   6.938
 3437SOL    HW111210   1.158   6.518   6.889
 3437SOL    HW211211   1.237   6.551   0.003
 3438SOL     OW11212   2.500   3.884   0.842
 3438SOL    HW111213   2.489   3.813   0.772
 3438SOL    HW211214   2.449   3.965   0.815
 3439SOL     OW11215   3.195   6.338   0.473
 3439SOL    HW111216   3.257   6.304   0.402
 3439SOL    HW211217   3.245   6.346   0.559
 3440SOL     OW11218   3.644   3.375   5.684
 3440SOL    HW111219   3.544   3.382   5.687
 3440SOL    HW211220   3.670   3.305   5.618
 3441SOL     OW11221   0.061   4.848   4.546
 3441SOL    HW111222   0.119   4.930   4.548
 3441SOL    HW211223   6.991   4.874   4.536
 3442SOL     OW11224   1.268   2.851   0.998
 3442SOL    HW111225   1.304   2.761   1.022
 3442SOL    HW211226   1.337   2.921   1.015
 3443SOL     OW11227   0.670   5.735   2.350
 3443SOL    HW111228   0.726   5.811   2.382
 3443SOL    HW211229   0.619   5.697   2.427
 3444SOL     OW11230   6.917   3.506   6.072
 3444SOL    HW111231   6.935   3.415   6.108
 3444SOL    HW211232   7.001   3.560   6.073
 3445SOL     OW11233   6.299   4.702   4.782
 3445SOL    HW111234   6.324   4.770   4.713
 3445SOL    HW211235   6.366   4.627   4.781
 3446SOL     OW11236   4.407   1.680   0.460
 3446SOL    HW111237   4.445   1.694   0.552
 3446SOL    HW211238   4.319   1.634   0.467
 3447SOL     OW11239   5.495   0.895   6.490
 3447SOL    HW111240   5.539   0.834   6.424
 3447SOL    HW211241   5.453   0.972   6.442
 3448SOL     OW11242   0.728   4.726   5.476
 3448SOL    HW111243   0.765   4.761   5.391
 3448SOL    HW211244   0.656   4.659   5.456
 3449SOL     OW11245   0.732   3.891   5.350
 3449SOL    HW111246   0.735   3.801   5.306
 3449SOL    HW211247   0.786   3.956   5.297
 3450SOL     OW11248   2.828   6.808   2.146
 3450SOL    HW111249   2.797   6.854   2.063
 3450SOL    HW211250   2.750   6.763   2.190
 3451SOL     OW11251   2.066   2.560   0.972
 3451SOL    HW111252   2.005   2.495   0.926
 3451SOL    HW211253   2.060   2.649   0.925
 3452SOL     OW11254   4.661   1.376   5.762
 3452SOL    HW111255   4.706   1.462   5.784
 3452SOL    HW211256   4.626   1.334   5.846
 3453SOL     OW11257   4.269   6.658   6.346
 3453SOL    HW111258   4.296   6.572   6.303
 3453SOL    HW211259   4.191   6.642   6.406
 3454SOL     OW11260   0.706   3.362   2.420
 3454SOL    HW111261   0.791   3.414   2.427
 3454SOL    HW211262   0.712   3.297   2.345
 3455SOL     OW11263   0.538   3.586   6.611
 3455SOL    HW111264   0.549   3.662   6.675
 3455SOL    HW211265   0.446   3.589   6.571
 3456SOL     OW11266   4.809   5.625   3.612
 3456SOL    HW111267   4.733   5.641   3.549
 3456SOL    HW211268   4.788   5.667   3.700
 3457SOL     OW11269   4.180   4.791   0.252
 3457SOL    HW111270   4.274   4.755   0.255
 3457SOL    HW211271   4.151   4.802   0.157
 3458SOL     OW11272   4.130   1.490   1.734
 3458SOL    HW111273   4.214   1.539   1.758
 3458SOL    HW211274   4.051   1.548   1.751
 3459SOL     OW11275   5.730   6.132   2.165
 3459SOL    HW111276   5.682   6.219   2.173
 3459SOL    HW211277   5.666   6.060   2.137
 3460SOL     OW11278   3.803   1.862   5.237
 3460SOL    HW111279   3.760   1.772   5.243
 3460SOL    HW211280   3.747   1.921   5.178
 3461SOL     OW11281   4.832   5.231   3.809
 3461SOL    HW111282   4.853   5.262   3.716
 3461SOL    HW211283   4.769   5.153   3.805
 3462SOL     OW11284   0.792   4.338   6.482
 3462SOL    HW111285   0.880   4.294   6.471
 3462SOL    HW211286   0.719   4.276   6.453
 3463SOL     OW11287   5.415   3.609   0.223
 3463SOL    HW111288   5.414   3.543   0.299
 3463SOL    HW211289   5.412   3.702   0.260
 3464SOL     OW11290   0.223   4.574   3.832
 3464SOL    HW111291   0.167   4.595   3.913
 3464SOL    HW211292   0.318   4.598   3.850
 3465SOL     OW11293   0.669   2.459   2.408
 3465SOL    HW111294   0.602   2.510   2.463
 3465SOL    HW211295   0.672   2.364   2.439
 3466SOL     OW11296   6.787   3.520   4.165
 3466SOL    HW111297   6.823   3.583   4.234
 3466SOL    HW211298   6.824   3.428   4.182
 3467SOL     OW11299   1.699   2.530   5.858
 3467SOL    HW111300   1.670   2.435   5.870
 3467SOL    HW211301   1.797   2.533   5.837
 3468SOL     OW11302   5.043   6.477   2.004
 3468SOL    HW111303   4.965   6.487   1.942
 3468SOL    HW211304   5.124   6.518   1.963
 3469SOL     OW11305   5.536   3.977   0.747
 3469SOL    HW111306   5.567   3.976   0.652
 3469SOL    HW211307   5.499   3.888   0.771
 3470SOL     OW11308   6.412   4.995   1.221
 3470SOL    HW111309   6.326   4.980   1.172
 3470SOL    HW211310   6.393   5.037   1.310
 3471SOL     OW11311   4.182   6.969   4.401
 3471SOL    HW111312   4.277   6.942   4.417
 3471SOL    HW211313   4.179   0.013   4.329
 3472SOL     OW11314   4.093   0.983   5.253
 3472SOL    HW111315   4.090   0.960   5.156
 3472SOL    HW211316   4.132   1.074   5.265
 3473SOL     OW11317   4.301   6.888   3.734
 3473SOL    HW111318   4.245   6.966   3.761
 3473SOL    HW211319   4.342   6.907   3.645
 3474SOL     OW11320   4.805   4.418   0.598
 3474SOL    HW111321   4.741   4.390   0.669
 3474SOL    HW211322   4.896   4.430   0.638
 3475SOL     OW11323   1.682   6.082   4.963
 3475SOL    HW111324   1.725   6.134   4.889
 3475SOL    HW211325   1.647   5.996   4.927
 3476SOL     OW11326   4.220   1.624   5.055
 3476SOL    HW111327   4.156   1.590   4.986
 3476SOL    HW211328   4.172   1.637   5.142
 3477SOL     OW11329   4.760   5.334   1.627
 3477SOL    HW111330   4.744   5.417   1.573
 3477SOL    HW211331   4.857   5.328   1.651
 3478SOL     OW11332   4.115   4.233   0.251
 3478SOL    HW111333   4.155   4.171   0.319
 3478SOL    HW211334   4.141   4.204   0.159
 3479SOL     OW11335   1.077   0.168   0.781
 3479SOL    HW111336   1.160   0.207   0.742
 3479SOL    HW211337   1.087   0.162   0.881
 3480SOL     OW11338   1.605   0.037   4.061
 3480SOL    HW111339   1.569   6.969   4.075
 3480SOL    HW211340   1.703   0.037   4.076
 3481SOL     OW11341   1.739   6.307   6.925
 3481SOL    HW111342   1.779   6.293   6.835
 3481SOL    HW211343   1.639   6.302   6.919
 3482SOL     OW11344   0.747   2.020   2.127
 3482SOL    HW111345   0.673   2.087   2.127
 3482SOL    HW211346   0.766   1.992   2.221
 3483SOL     OW11347   3.601   1.635   0.602
 3483SOL    HW111348   3.564   1.612   0.511
 3483SOL    HW211349   3.598   1.554   0.660
 3484SOL     OW11350   4.098   3.535   3.925
 3484SOL    HW111351   4.135   3.560   4.015
 3484SOL    HW211352   4.033   3.460   3.935
 3485SOL     OW11353   5.984   1.730   5.421
 3485SOL    HW111354   5.941   1.806   5.371
 3485SOL    HW211355   6.046   1.766   5.490
 3486SOL     OW11356   5.155   0.778   2.714
 3486SOL    HW111357   5.146   0.878   2.715
 3486SOL    HW211358   5.185   0.748   2.624
 3487SOL     OW11359   0.604   0.706   0.881
 3487SOL    HW111360   0.699   0.726   0.857
 3487SOL    HW211361   0.573   0.770   0.951
 3488SOL     OW11362   6.585   3.446   4.344
 3488SOL    HW111363   6.629   3.505   4.275
 3488SOL    HW211364   6.653   3.385   4.384
 3489SOL     OW11365   2.330   5.230   7.025
 3489SOL    HW111366   2.328   5.132   0.016
 3489SOL    HW211367   2.341   5.279   0.087
 3490SOL     OW11368   4.105   3.248   1.109
 3490SOL    HW111369   4.025   3.210   1.154
 3490SOL    HW211370   4.153   3.176   1.059
 3491SOL     OW11371   6.587   3.257   5.910
 3491SOL    HW111372   6.543   3.341   5.878
 3491SOL    HW211373   6.675   3.245   5.863
 3492SOL     OW11374   6.035   4.647   6.879
 3492SOL    HW111375   6.117   4.636   6.936
 3492SOL    HW211376   5.999   4.557   6.855
 3493SOL     OW11377   0.082   4.860   1.938
 3493SOL    HW111378   0.047   4.950   1.962
 3493SOL    HW211379   0.038   4.790   1.995
 3494SOL     OW11380   2.625   6.733   0.860
 3494SOL    HW111381   2.651   6.830   0.856
 3494SOL    HW211382   2.661   6.693   0.945
 3495SOL     OW11383   5.628   3.940   6.763
 3495SOL    HW111384   5.558   3.869   6.770
 3495SOL    HW211385   5.688   3.935   6.842
 3496SOL     OW11386   0.635   4.759   0.902
 3496SOL    HW111387   0.626   4.661   0.922
 3496SOL    HW211388   0.717   4.794   0.947
 3497SOL     OW11389   4.164   6.871   4.697
 3497SOL    HW111390   4.207   6.799   4.642
 3497SOL    HW211391   4.176   6.959   4.652
 3498SOL     OW11392   0.951   1.957   0.520
 3498SOL    HW111393   1.035   2.001   0.552
 3498SOL    HW211394   0.917   1.896   0.591
 3499SOL     OW11395   0.299   4.075   4.513
 3499SOL    HW111396   0.261   4.028   4.592
 3499SOL    HW211397   0.249   4.047   4.430
 3500SOL     OW11398   6.003   3.094   0.550
 3500SOL    HW111399   5.957   3.090   0.462
 3500SOL    HW211400   6.064   3.016   0.560
 3501SOL     OW11401   0.666   4.040   3.088
 3501SOL    HW111402   0.688   4.128   3.046
 3501SOL    HW211403   0.695   3.966   3.028
 3502SOL     OW11404   0.616   4.938   1.589
 3502SOL    HW111405   0.570   4.979   1.667
 3502SOL    HW211406   0.673   4.861   1.619
 3503SOL     OW11407   3.442   0.332   3.451
 3503SOL    HW111408   3.537   0.330   3.419
 3503SOL    HW211409   3.381   0.335   3.373
 3504SOL     OW11410   2.282   2.715   3.251
 3504SOL    HW111411   2.309   2.766   3.333
 3504SOL    HW211412   2.355   2.654   3.223
 3505SOL     OW11413   4.542   6.573   4.803
 3505SOL    HW111414   4.514   6.536   4.892
 3505SOL    HW211415   4.462   6.582   4.744
 3506SOL     OW11416   5.787   5.017   2.471
 3506SOL    HW111417   5.746   5.028   2.380
 3506SOL    HW211418   5.830   5.104   2.498
 3507SOL     OW11419   6.999   0.167   5.908
 3507SOL    HW111420   6.912   0.127   5.879
 3507SOL    HW211421   6.986   0.215   5.995
 3508SOL     OW11422   6.236   4.050   0.186
 3508SOL    HW111423   6.180   4.133   0.182
 3508SOL    HW211424   6.333   4.077   0.194
 3509SOL     OW11425   6.096   0.599   7.008
 3509SOL    HW111426   6.072   0.692   6.982
 3509SOL    HW211427   6.121   0.546   6.927
 3510SOL     OW11428   1.775   2.292   2.626
 3510SOL    HW111429   1.750   2.201   2.657
 3510SOL    HW211430   1.868   2.291   2.590
 3511SOL     OW11431   0.659   1.102   4.684
 3511SOL    HW111432   0.730   1.165   4.654
 3511SOL    HW211433   0.693   1.008   4.678
 3512SOL     OW11434   3.004   2.980   1.043
 3512SOL    HW111435   3.051   2.892   1.057
 3512SOL    HW211436   2.905   2.965   1.046
 3513SOL     OW11437   5.258   4.168   1.066
 3513SOL    HW111438   5.172   4.217   1.055
 3513SOL    HW211439   5.308   4.169   0.980
 3514SOL     OW11440   2.268   6.656   1.993
 3514SOL    HW111441   2.287   6.612   2.080
 3514SOL    HW211442   2.219   6.592   1.933
 3515SOL     OW11443   3.967   6.154   3.653
 3515SOL    HW111444   3.899   6.221   3.620
 3515SOL    HW211445   4.059   6.189   3.635
 3516SOL     OW11446   2.029   1.459   0.540
 3516SOL    HW111447   2.017   1.558   0.549
 3516SOL    HW211448   1.951   1.411   0.581
 3517SOL     OW11449   0.329   0.663   6.648
 3517SOL    HW111450   0.286   0.648   6.559
 3517SOL    HW211451   0.372   0.578   6.679
 3518SOL     OW11452   4.576   3.473   5.786
 3518SOL    HW111453   4.602   3.417   5.865
 3518SOL    HW211454   4.484   3.511   5.802
 3519SOL     OW11455   3.475   6.786   0.611
 3519SOL    HW111456   3.493   6.865   0.554
 3519SOL    HW211457   3.380   6.758   0.601
 3520SOL     OW11458   3.839   4.987   1.421
 3520SOL    HW111459   3.770   4.934   1.470
 3520SOL    HW211460   3.820   5.084   1.431
 3521SOL     OW11461   6.606   2.304   6.495
 3521SOL    HW111462   6.662   2.225   6.471
 3521SOL    HW211463   6.605   2.316   6.594
 3522SOL     OW11464   2.994   0.714   0.453
 3522SOL    HW111465   2.924   0.749   0.515
 3522SOL    HW211466   2.956   0.702   0.362
 3523SOL     OW11467   2.747   4.425   5.321
 3523SOL    HW111468   2.780   4.331   5.329
 3523SOL    HW211469   2.813   4.479   5.268
 3524SOL     OW11470   2.667   0.327   2.096
 3524SOL    HW111471   2.687   0.261   2.168
 3524SOL    HW211472   2.681   0.420   2.131
 3525SOL     OW11473   1.433   3.895   2.461
 3525SOL    HW111474   1.459   3.822   2.524
 3525SOL    HW211475   1.449   3.984   2.505
 3526SOL     OW11476   4.179   6.538   3.260
 3526SOL    HW111477   4.127   6.515   3.178
 3526SOL    HW211478   4.221   6.628   3.249
 3527SOL     OW11479   5.357   3.096   6.239
 3527SOL    HW111480   5.424   3.159   6.199
 3527SOL    HW211481   5.405   3.032   6.300
 3528SOL     OW11482   1.634   6.558   4.786
 3528SOL    HW111483   1.616   6.553   4.884
 3528SOL    HW211484   1.730   6.537   4.768
 3529SOL     OW11485   3.764   6.050   0.091
 3529SOL    HW111486   3.809   6.133   0.058
 3529SOL    HW211487   3.833   5.979   0.108
 3530SOL     OW11488   2.120   6.760   3.185
 3530SOL    HW111489   2.136   6.859   3.180
 3530SOL    HW211490   2.071   6.731   3.103
 3531SOL     OW11491   5.404   4.330   0.033
 3531SOL    HW111492   5.391   4.233   0.056
 3531SOL    HW211493   5.315   4.375   0.030
 3532SOL     OW11494   1.765   6.624   0.552
 3532SOL    HW111495   1.675   6.666   0.539
 3532SOL    HW211496   1.833   6.674   0.499
 3533SOL     OW11497   1.583   0.829   3.737
 3533SOL    HW111498   1.498   0.846   3.786
 3533SOL    HW211499   1.601   0.905   3.674
 3534SOL     OW11500   5.251   0.493   5.283
 3534SOL    HW111501   5.321   0.423   5.270
 3534SOL    HW211502   5.177   0.479   5.218
 3535SOL     OW11503   5.089   6.425   6.810
 3535SOL    HW111504   5.108   6.482   6.890
 3535SOL    HW211505   5.035   6.345   6.837
 3536SOL     OW11506   0.727   3.447   2.847
 3536SOL    HW111507   0.725   3.531   2.792
 3536SOL    HW211508   0.722   3.368   2.787
 3537SOL     OW11509   3.017   4.720   1.447
 3537SOL    HW111510   3.073   4.795   1.483
 3537SOL    HW211511   2.960   4.683   1.520
 3538SOL     OW11512   4.023   0.887   3.543
 3538SOL    HW111513   3.941   0.918   3.592
 3538SOL    HW211514   4.003   0.876   3.446
 3539SOL     OW11515   5.332   5.863   6.315
 3539SOL    HW111516   5.274   5.890   6.238
 3539SOL    HW211517   5.410   5.810   6.282
 3540SOL     OW11518   3.167   4.661   6.125
 3540SOL    HW111519   3.149   4.641   6.222
 3540SOL    HW211520   3.109   4.737   6.096
 3541SOL     OW11521   1.356   2.571   1.759
 3541SOL    HW111522   1.356   2.670   1.753
 3541SOL    HW211523   1.449   2.538   1.775
 3542SOL     OW11524   5.804   1.812   6.518
 3542SOL    HW111525   5.779   1.737   6.457
 3542SOL    HW211526   5.904   1.815   6.526
 3543SOL     OW11527   0.548   2.119   3.947
 3543SOL    HW111528   0.542   2.116   3.847
 3543SOL    HW211529   0.553   2.214   3.977
 3544SOL     OW11530   2.847   4.369   0.464
 3544SOL    HW111531   2.872   4.449   0.411
 3544SOL    HW211532   2.922   4.302   0.462
 3545SOL     OW11533   3.996   6.652   0.546
 3545SOL    HW111534   4.040   6.604   0.470
 3545SOL    HW211535   3.914   6.602   0.572
 3546SOL     OW11536   6.769   4.406   1.276
 3546SOL    HW111537   6.787   4.400   1.374
 3546SOL    HW211538   6.683   4.360   1.255
 3547SOL     OW11539   0.851   4.060   5.165
 3547SOL    HW111540   0.769   4.034   5.115
 3547SOL    HW211541   0.930   4.013   5.126
 3548SOL     OW11542   6.231   0.446   6.017
 3548SOL    HW111543   6.282   0.517   5.969
 3548SOL    HW211544   6.272   0.356   5.998
 3549SOL     OW11545   2.260   6.197   6.682
 3549SOL    HW111546   2.341   6.240   6.722
 3549SOL    HW211547   2.230   6.122   6.739
 3550SOL     OW11548   5.766   1.246   5.652
 3550SOL    HW111549   5.719   1.238   5.740
 3550SOL    HW211550   5.729   1.323   5.602
 3551SOL     OW11551   5.302   1.946   4.781
 3551SOL    HW111552   5.287   2.001   4.699
 3551SOL    HW211553   5.399   1.930   4.794
 3552SOL     OW11554   6.788   0.089   3.501
 3552SOL    HW111555   6.780   0.130   3.592
 3552SOL    HW211556   6.715   0.125   3.442
 3553SOL     OW11557   6.218   5.831   6.404
 3553SOL    HW111558   6.177   5.841   6.314
 3553SOL    HW211559   6.230   5.921   6.446
 3554SOL     OW11560   4.718   4.372   0.076
 3554SOL    HW111561   4.710   4.431   0.156
 3554SOL    HW211562   4.735   4.278   0.104
 3555SOL     OW11563   2.392   1.656   5.083
 3555SOL    HW111564   2.443   1.571   5.071
 3555SOL    HW211565   2.294   1.638   5.073
 3556SOL     OW11566   5.766   1.277   0.391
 3556SOL    HW111567   5.758   1.190   0.343
 3556SOL    HW211568   5.826   1.339   0.340
 3557SOL     OW11569   5.442   6.490   1.734
 3557SOL    HW111570   5.523   6.434   1.748
 3557SOL    HW211571   5.392   6.459   1.652
 3558SOL     OW11572   3.440   5.681   2.172
 3558SOL    HW111573   3.490   5.633   2.100
 3558SOL    HW211574   3.477   5.773   2.182
 3559SOL     OW11575   3.987   6.381   6.614
 3559SOL    HW111576   3.951   6.288   6.627
 3559SOL    HW211577   3.953   6.440   6.687
 3560SOL     OW11578   1.878   5.532   4.356
 3560SOL    HW111579   1.842   5.577   4.437
 3560SOL    HW211580   1.824   5.450   4.335
 3561SOL     OW11581   4.587   3.517   5.472
 3561SOL    HW111582   4.620   3.564   5.390
 3561SOL    HW211583   4.594   3.579   5.551
 3562SOL     OW11584   2.822   1.512   0.601
 3562SOL    HW111585   2.764   1.590   0.576
 3562SOL    HW211586   2.768   1.446   0.654
 3563SOL     OW11587   6.948   2.364   6.600
 3563SOL    HW111588   7.011   2.292   6.628
 3563SOL    HW211589   6.936   2.362   6.501
 3564SOL     OW11590   6.237   3.488   2.642
 3564SOL    HW111591   6.229   3.389   2.629
 3564SOL    HW211592   6.152   3.523   2.682
 3565SOL     OW11593   4.978   5.934   5.963
 3565SOL    HW111594   5.043   6.009   5.951
 3565SOL    HW211595   4.986   5.897   6.055
 3566SOL     OW11596   1.333   1.105   5.383
 3566SOL    HW111597   1.280   1.020   5.382
 3566SOL    HW211598   1.389   1.110   5.300
 3567SOL     OW11599   6.783   3.840   6.793
 3567SOL    HW111600   6.793   3.897   6.875
 3567SOL    HW211601   6.824   3.750   6.809
 3568SOL     OW11602   4.909   3.857   5.791
 3568SOL    HW111603   4.942   3.896   5.705
 3568SOL    HW211604   4.983   3.808   5.836
 3569SOL     OW11605   1.555   0.245   3.591
 3569SOL    HW111606   1.592   0.337   3.601
 3569SOL    HW211607   1.541   0.205   3.682
 3570SOL     OW11608   6.221   1.563   4.334
 3570SOL    HW111609   6.202   1.465   4.338
 3570SOL    HW211610   6.139   1.611   4.302
 3571SOL     OW11611   6.333   6.126   4.943
 3571SOL    HW111612   6.418   6.103   4.896
 3571SOL    HW211613   6.255   6.113   4.882
 3572SOL     OW11614   6.095   6.387   5.615
 3572SOL    HW111615   6.098   6.393   5.515
 3572SOL    HW211616   6.030   6.317   5.643
 3573SOL     OW11617   0.490   2.427   1.754
 3573SOL    HW111618   0.444   2.353   1.804
 3573SOL    HW211619   0.523   2.392   1.667
 3574SOL     OW11620   6.137   3.783   0.278
 3574SOL    HW111621   6.108   3.728   0.199
 3574SOL    HW211622   6.179   3.868   0.245
 3575SOL     OW11623   6.496   6.214   2.254
 3575SOL    HW111624   6.564   6.251   2.191
 3575SOL    HW211625   6.410   6.198   2.205
 3576SOL     OW11626   6.805   1.031   6.964
 3576SOL    HW111627   6.739   0.959   6.988
 3576SOL    HW211628   6.814   1.095   0.015
 3577SOL     OW11629   2.482   4.093   6.755
 3577SOL    HW111630   2.535   4.134   6.830
 3577SOL    HW211631   2.448   4.004   6.784
 3578SOL     OW11632   3.543   4.363   1.773
 3578SOL    HW111633   3.576   4.358   1.678
 3578SOL    HW211634   3.543   4.459   1.802
 3579SOL     OW11635   1.711   4.407   4.750
 3579SOL    HW111636   1.675   4.411   4.657
 3579SOL    HW211637   1.635   4.404   4.815
 3580SOL     OW11638   6.828   3.418   1.219
 3580SOL    HW111639   6.829   3.380   1.311
 3580SOL    HW211640   6.915   3.399   1.174
 3581SOL     OW11641   5.933   1.306   3.389
 3581SOL    HW111642   6.025   1.305   3.428
 3581SOL    HW211643   5.866   1.321   3.461
 3582SOL     OW11644   0.003   0.382   5.149
 3582SOL    HW111645   0.079   0.349   5.205
 3582SOL    HW211646   6.948   0.326   5.166
 3583SOL     OW11647   1.532   5.131   1.465
 3583SOL    HW111648   1.545   5.089   1.555
 3583SOL    HW211649   1.588   5.214   1.459
 3584SOL     OW11650   5.510   0.441   5.791
 3584SOL    HW111651   5.576   0.471   5.860
 3584SOL    HW211652   5.483   0.519   5.734
 3585SOL     OW11653   2.284   4.838   3.715
 3585SOL    HW111654   2.265   4.935   3.698
 3585SOL    HW211655   2.227   4.782   3.655
 3586SOL     OW11656   1.013   1.040   6.206
 3586SOL    HW111657   1.010   1.044   6.106
 3586SOL    HW211658   0.935   1.090   6.244
 3587SOL     OW11659   3.805   6.495   6.813
 3587SOL    HW111660   3.832   6.548   6.893
 3587SOL    HW211661   3.785   6.556   6.737
 3588SOL     OW11662   1.779   1.872   5.367
 3588SOL    HW111663   1.810   1.787   5.325
 3588SOL    HW211664   1.681   1.866   5.386
 3589SOL     OW11665   3.494   0.459   4.716
 3589SOL    HW111666   3.417   0.494   4.769
 3589SOL    HW211667   3.462   0.430   4.625
 3590SOL     OW11668   1.359   5.173   7.025
 3590SOL    HW111669   1.455   5.203   0.004
 3590SOL    HW211670   1.344   5.099   0.065
 3591SOL     OW11671   5.481   2.170   5.412
 3591SOL    HW111672   5.416   2.241   5.385
 3591SOL    HW211673   5.442   2.080   5.394
 3592SOL     OW11674   5.215   2.218   1.904
 3592SOL    HW111675   5.254   2.261   1.823
 3592SOL    HW211676   5.176   2.129   1.879
 3593SOL     OW11677   0.847   5.323   4.307
 3593SOL    HW111678   0.831   5.226   4.328
 3593SOL    HW211679   0.868   5.333   4.210
 3594SOL     OW11680   3.959   1.583   4.932
 3594SOL    HW111681   3.961   1.683   4.933
 3594SOL    HW211682   3.865   1.551   4.930
 3595SOL     OW11683   1.768   6.422   5.913
 3595SOL    HW111684   1.829   6.398   5.989
 3595SOL    HW211685   1.675   6.436   5.948
 3596SOL     OW11686   0.144   3.882   3.684
 3596SOL    HW111687   0.104   3.939   3.756
 3596SOL    HW211688   0.239   3.862   3.707
 3597SOL     OW11689   3.564   6.993   3.834
 3597SOL    HW111690   3.491   0.016   3.785
 3597SOL    HW211691   3.635   0.033   3.860
 3598SOL     OW11692   1.700   0.570   0.272
 3598SOL    HW111693   1.705   0.523   0.359
 3598SOL    HW211694   1.785   0.622   0.258
 3599SOL     OW11695   6.737   1.446   4.058
 3599SOL    HW111696   6.706   1.353   4.037
 3599SOL    HW211697   6.661   1.499   4.094
 3600SOL     OW11698   7.002   0.493   1.175
 3600SOL    HW111699   0.010   0.564   1.112
 3600SOL    HW211700   0.039   0.486   1.252
 3601SOL     OW11701   6.063   3.394   5.573
 3601SOL    HW111702   5.982   3.353   5.530
 3601SOL    HW211703   6.090   3.339   5.652
 3602SOL     OW11704   2.443   1.800   0.932
 3602SOL    HW111705   2.464   1.845   1.019
 3602SOL    HW211706   2.501   1.838   0.860
 3603SOL     OW11707   4.345   5.243   4.493
 3603SOL    HW111708   4.426   5.295   4.521
 3603SOL    HW211709   4.372   5.151   4.465
 3604SOL     OW11710   6.988   4.276   3.672
 3604SOL    HW111711   6.955   4.353   3.618
 3604SOL    HW211712   7.016   4.202   3.611
 3605SOL     OW11713   5.893   2.737   6.349
 3605SOL    HW111714   5.878   2.810   6.416
 3605SOL    HW211715   5.897   2.777   6.258
 3606SOL     OW11716   1.707   4.561   3.533
 3606SOL    HW111717   1.718   4.464   3.555
 3606SOL    HW211718   1.761   4.582   3.451
 3607SOL     OW11719   4.243   6.854   0.072
 3607SOL    HW111720   4.194   6.813   0.149
 3607SOL    HW211721   4.177   6.883   0.002
 3608SOL     OW11722   0.336   2.927   2.721
 3608SOL    HW111723   0.319   3.016   2.679
 3608SOL    HW211724   0.426   2.895   2.695
 3609SOL     OW11725   6.428   0.016   4.768
 3609SOL    HW111726   6.490   0.039   4.693
 3609SOL    HW211727   6.336   0.001   4.732
 3610SOL     OW11728   1.667   5.728   5.294
 3610SOL    HW111729   1.577   5.739   5.252
 3610SOL    HW211730   1.713   5.817   5.295
 3611SOL     OW11731   4.588   5.136   5.928
 3611SOL    HW111732   4.543   5.224   5.910
 3611SOL    HW211733   4.674   5.152   5.976
 3612SOL     OW11734   1.534   6.373   0.816
 3612SOL    HW111735   1.461   6.399   0.879
 3612SOL    HW211736   1.598   6.449   0.806
 3613SOL     OW11737   5.109   5.007   6.371
 3613SOL    HW111738   5.049   5.080   6.339
 3613SOL    HW211739   5.160   4.970   6.293
 3614SOL     OW11740   3.713   3.747   4.418
 3614SOL    HW111741   3.638   3.789   4.367
 3614SOL    HW211742   3.790   3.731   4.356
 3615SOL     OW11743   6.121   6.676   6.114
 3615SOL    HW111744   6.214   6.680   6.150
 3615SOL    HW211745   6.123   6.640   6.020
 3616SOL     OW11746   6.093   0.679   4.805
 3616SOL    HW111747   6.132   0.739   4.875
 3616SOL    HW211748   6.164   0.618   4.770
 3617SOL     OW11749   6.783   0.214   0.040
 3617SOL    HW111750   6.794   0.295   0.098
 3617SOL    HW211751   6.767   0.134   0.098
 3618SOL     OW11752   2.838   7.005   6.347
 3618SOL    HW111753   2.823   0.070   6.388
 3618SOL    HW211754   2.899   6.952   6.406
 3619SOL     OW11755   5.163   4.097   3.968
 3619SOL    HW111756   5.095   4.128   3.901
 3619SOL    HW211757   5.144   4.139   4.056
 3620SOL     OW11758   6.067   1.147   4.654
 3620SOL    HW111759   5.988   1.118   4.600
 3620SOL    HW211760   6.137   1.184   4.592
 3621SOL     OW11761   1.571   3.557   6.052
 3621SOL    HW111762   1.539   3.462   6.056
 3621SOL    HW211763   1.671   3.558   6.057
 3622SOL     OW11764   0.511   3.544   0.753
 3622SOL    HW111765   0.495   3.627   0.808
 3622SOL    HW211766   0.434   3.481   0.766
 3623SOL     OW11767   0.356   5.455   4.281
 3623SOL    HW111768   0.363   5.495   4.189
 3623SOL    HW211769   0.440   5.473   4.331
 3624SOL     OW11770   1.804   1.316   1.556
 3624SOL    HW111771   1.733   1.279   1.496
 3624SOL    HW211772   1.769   1.399   1.601
 3625SOL     OW11773   0.800   3.138   4.777
 3625SOL    HW111774   0.754   3.201   4.714
 3625SOL    HW211775   0.743   3.123   4.857
 3626SOL     OW11776   2.765   3.936   5.203
 3626SOL    HW111777   2.670   3.966   5.191
 3626SOL    HW211778   2.768   3.858   5.265
 3627SOL     OW11779   3.409   3.144   3.722
 3627SOL    HW111780   3.460   3.220   3.763
 3627SOL    HW211781   3.312   3.153   3.744
 3628SOL     OW11782   2.972   5.417   3.043
 3628SOL    HW111783   2.886   5.466   3.030
 3628SOL    HW211784   3.007   5.385   2.954
 3629SOL     OW11785   5.843   2.575   5.023
 3629SOL    HW111786   5.907   2.618   4.959
 3629SOL    HW211787   5.753   2.618   5.014
 3630SOL     OW11788   5.945   1.343   4.465
 3630SOL    HW111789   5.849   1.361   4.482
 3630SOL    HW211790   5.999   1.425   4.485
 3631SOL     OW11791   2.382   0.617   3.824
 3631SOL    HW111792   2.443   0.633   3.746
 3631SOL    HW211793   2.357   0.520   3.827
 3632SOL     OW11794   3.928   6.853   6.493
 3632SOL    HW111795   4.002   6.899   6.544
 3632SOL    HW211796   3.929   6.884   6.398
 3633SOL     OW11797   1.587   3.146   5.666
 3633SOL    HW111798   1.529   3.065   5.662
 3633SOL    HW211799   1.683   3.119   5.653
 3634SOL     OW11800   3.015   6.216   6.021
 3634SOL    HW111801   2.927   6.209   6.069
 3634SOL    HW211802   3.051   6.124   6.002
 3635SOL     OW11803   1.956   1.285   4.992
 3635SOL    HW111804   1.902   1.201   5.001
 3635SOL    HW211805   1.959   1.312   4.896
 3636SOL     OW11806   1.862   5.637   6.562
 3636SOL    HW111807   1.762   5.642   6.554
 3636SOL    HW211808   1.902   5.726   6.542
 3637SOL     OW11809   5.736   1.804   1.597
 3637SOL    HW111810   5.806   1.802   1.669
 3637SOL    HW211811   5.713   1.711   1.570
 3638SOL     OW11812   6.107   4.478   3.589
 3638SOL    HW111813   6.071   4.506   3.678
 3638SOL    HW211814   6.206   4.495   3.586
 3639SOL     OW11815   2.995   5.492   0.052
 3639SOL    HW111816   3.016   5.586   0.079
 3639SOL    HW211817   2.961   5.492   6.983
 3640SOL     OW11818   3.325   6.437   1.269
 3640SOL    HW111819   3.308   6.414   1.365
 3640SOL    HW211820   3.394   6.375   1.232
 3641SOL     OW11821   2.272   0.272   4.750
 3641SOL    HW111822   2.202   0.228   4.805
 3641SOL    HW211823   2.309   0.351   4.800
 3642SOL     OW11824   6.257   6.803   2.819
 3642SOL    HW111825   6.224   6.783   2.911
 3642SOL    HW211826   6.182   6.836   2.762
 3643SOL     OW11827   3.492   4.492   5.918
 3643SOL    HW111828   3.399   4.463   5.942
 3643SOL    HW211829   3.488   4.579   5.869
 3644SOL     OW11830   6.853   0.407   0.290
 3644SOL    HW111831   6.912   0.477   0.331
 3644SOL    HW211832   6.802   0.361   0.362
 3645SOL     OW11833   3.654   6.622   2.656
 3645SOL    HW111834   3.642   6.523   2.645
 3645SOL    HW211835   3.661   6.665   2.566
 3646SOL     OW11836   6.797   5.478   4.053
 3646SOL    HW111837   6.771   5.529   4.136
 3646SOL    HW211838   6.802   5.541   3.976
 3647SOL     OW11839   1.996   2.554   1.813
 3647SOL    HW111840   1.983   2.469   1.763
 3647SOL    HW211841   2.093   2.580   1.811
 3648SOL     OW11842   2.934   5.592   3.364
 3648SOL    HW111843   2.924   5.493   3.373
 3648SOL    HW211844   2.855   5.630   3.316
 3649SOL     OW11845   3.482   3.319   2.388
 3649SOL    HW111846   3.387   3.343   2.370
 3649SOL    HW211847   3.509   3.241   2.332
 3650SOL     OW11848   5.989   6.704   1.522
 3650SOL    HW111849   5.948   6.677   1.435
 3650SOL    HW211850   6.085   6.677   1.523
 3651SOL     OW11851   1.472   5.963   2.350
 3651SOL    HW111852   1.441   5.970   2.255
 3651SOL    HW211853   1.531   5.882   2.359
 3652SOL     OW11854   4.338   5.350   3.080
 3652SOL    HW111855   4.401   5.284   3.039
 3652SOL    HW211856   4.247   5.308   3.088
 3653SOL     OW11857   0.337   2.772   4.394
 3653SOL    HW111858   0.392   2.691   4.373
 3653SOL    HW211859   0.310   2.769   4.490
 3654SOL     OW11860   1.488   5.732   1.268
 3654SOL    HW111861   1.538   5.677   1.201
 3654SOL    HW211862   1.518   5.827   1.262
 3655SOL     OW11863   1.001   0.340   4.045
 3655SOL    HW111864   0.914   0.389   4.051
 3655SOL    HW211865   0.990   0.260   3.987
 3656SOL     OW11866   2.692   1.672   2.579
 3656SOL    HW111867   2.784   1.641   2.556
 3656SOL    HW211868   2.698   1.743   2.650
 3657SOL     OW11869   3.507   5.034   1.964
 3657SOL    HW111870   3.574   5.091   1.916
 3657SOL    HW211871   3.548   4.946   1.987
 3658SOL     OW11872   2.012   5.431   5.712
 3658SOL    HW111873   1.979   5.510   5.764
 3658SOL    HW211874   1.934   5.385   5.668
 3659SOL     OW11875   1.214   4.257   0.485
 3659SOL    HW111876   1.165   4.212   0.411
 3659SOL    HW211877   1.306   4.217   0.493
 3660SOL     OW11878   4.324   5.103   1.130
 3660SOL    HW111879   4.241   5.069   1.175
 3660SOL    HW211880   4.298   5.148   1.044
 3661SOL     OW11881   5.159   1.677   0.547
 3661SOL    HW111882   5.183   1.696   0.642
 3661SOL    HW211883   5.230   1.713   0.487
 3662SOL     OW11884   2.740   6.407   5.266
 3662SOL    HW111885   2.757   6.496   5.309
 3662SOL    HW211886   2.810   6.389   5.197
 3663SOL     OW11887   0.871   3.875   6.285
 3663SOL    HW111888   0.913   3.793   6.246
 3663SOL    HW211889   0.855   3.942   6.212
 3664SOL     OW11890   4.044   0.900   0.835
 3664SOL    HW111891   4.005   0.822   0.787
 3664SOL    HW211892   4.143   0.903   0.819
 3665SOL     OW11893   1.171   6.593   5.761
 3665SOL    HW111894   1.205   6.555   5.847
 3665SOL    HW211895   1.077   6.561   5.745
 3666SOL     OW11896   0.565   5.342   3.732
 3666SOL    HW111897   0.563   5.377   3.826
 3666SOL    HW211898   0.474   5.308   3.708
 3667SOL     OW11899   0.090   1.644   6.798
 3667SOL    HW111900   0.075   1.625   6.895
 3667SOL    HW211901   0.181   1.684   6.786
 3668SOL     OW11902   1.745   6.091   1.773
 3668SOL    HW111903   1.774   6.016   1.713
 3668SOL    HW211904   1.710   6.053   1.858
 3669SOL     OW11905   6.224   2.123   3.676
 3669SOL    HW111906   6.298   2.060   3.651
 3669SOL    HW211907   6.191   2.101   3.768
 3670SOL     OW11908   2.395   5.244   6.071
 3670SOL    HW111909   2.328   5.250   5.997
 3670SOL    HW211910   2.359   5.290   6.152
 3671SOL     OW11911   0.992   0.693   3.130
 3671SOL    HW111912   1.050   0.670   3.052
 3671SOL    HW211913   1.040   0.754   3.192
 3672SOL     OW11914   6.989   6.964   0.822
 3672SOL    HW111915   0.020   6.931   0.746
 3672SOL    HW211916   6.894   6.933   0.809
 3673SOL     OW11917   4.413   0.372   6.917
 3673SOL    HW111918   4.499   0.371   6.969
 3673SOL    HW211919   4.337   0.388   6.979
 3674SOL     OW11920   1.227   6.455   0.641
 3674SOL    HW111921   1.151   6.434   0.579
 3674SOL    HW211922   1.313   6.422   0.602
 3675SOL     OW11923   1.865   1.729   4.441
 3675SOL    HW111924   1.839   1.641   4.480
 3675SOL    HW211925   1.959   1.752   4.470
 3676SOL     OW11926   2.311   5.250   3.126
 3676SOL    HW111927   2.246   5.221   3.196
 3676SOL    HW211928   2.263   5.266   3.040
 3677SOL     OW11929   6.660   6.858   3.902
 3677SOL    HW111930   6.603   6.936   3.927
 3677SOL    HW211931   6.756   6.881   3.916
 3678SOL     OW11932   1.163   1.433   3.848
 3678SOL    HW111933   1.255   1.463   3.874
 3678SOL    HW211934   1.100   1.510   3.851
 3679SOL     OW11935   0.032   1.419   1.461
 3679SOL    HW111936   0.013   1.335   1.410
 3679SOL    HW211937   0.101   1.472   1.412
 3680SOL     OW11938   6.742   3.985   4.635
 3680SOL    HW111939   6.674   3.938   4.690
 3680SOL    HW211940   6.713   3.986   4.539
 3681SOL     OW11941   5.473   6.135   4.852
 3681SOL    HW111942   5.483   6.200   4.927
 3681SOL    HW211943   5.464   6.184   4.766
 3682SOL     OW11944   0.607   2.479   6.655
 3682SOL    HW111945   0.598   2.525   6.744
 3682SOL    HW211946   0.522   2.490   6.604
 3683SOL     OW11947   5.534   5.831   3.494
 3683SOL    HW111948   5.559   5.913   3.442
 3683SOL    HW211949   5.442   5.842   3.531
 3684SOL     OW11950   1.767   2.955   0.485
 3684SOL    HW111951   1.727   2.938   0.575
 3684SOL    HW211952   1.836   3.027   0.493
 3685SOL     OW11953   6.486   6.954   6.470
 3685SOL    HW111954   6.449   7.004   6.392
 3685SOL    HW211955   6.453   6.994   6.555
 3686SOL     OW11956   5.943   4.462   1.179
 3686SOL    HW111957   5.969   4.372   1.145
 3686SOL    HW211958   5.852   4.459   1.219
 3687SOL     OW11959   2.814   1.226   6.718
 3687SOL    HW111960   2.720   1.191   6.714
 3687SOL    HW211961   2.870   1.163   6.772
 3688SOL     OW11962   0.190   3.567   6.916
 3688SOL    HW111963   0.177   3.591   7.012
 3688SOL    HW211964   0.171   3.647   6.859
 3689SOL     OW11965   2.781   1.123   3.534
 3689SOL    HW111966   2.682   1.119   3.517
 3689SOL    HW211967   2.827   1.054   3.479
 3690SOL     OW11968   5.188   6.416   5.066
 3690SOL    HW111969   5.096   6.419   5.107
 3690SOL    HW211970   5.235   6.503   5.083
 3691SOL     OW11971   3.687   2.458   0.175
 3691SOL    HW111972   3.783   2.433   0.167
 3691SOL    HW211973   3.673   2.514   0.257
 3692SOL     OW11974   1.719   0.372   6.746
 3692SOL    HW111975   1.802   0.424   6.726
 3692SOL    HW211976   1.743   0.275   6.757
 3693SOL     OW11977   2.617   2.120   3.274
 3693SOL    HW111978   2.636   2.148   3.368
 3693SOL    HW211979   2.702   2.093   3.229
 3694SOL     OW11980   2.225   5.856   2.886
 3694SOL    HW111981   2.180   5.828   2.801
 3694SOL    HW211982   2.160   5.907   2.943
 3695SOL     OW11983   1.653   2.263   1.702
 3695SOL    HW111984   1.605   2.261   1.790
 3695SOL    HW211985   1.621   2.188   1.644
 3696SOL     OW11986   3.151   6.438   5.781
 3696SOL    HW111987   3.139   6.459   5.878
 3696SOL    HW211988   3.078   6.377   5.751
 3697SOL     OW11989   5.423   6.950   4.184
 3697SOL    HW111990   5.336   6.931   4.229
 3697SOL    HW211991   5.433   6.891   4.103
 3698SOL     OW11992   2.866   0.252   5.913
 3698SOL    HW111993   2.797   0.180   5.922
 3698SOL    HW211994   2.957   0.210   5.917
 3699SOL     OW11995   1.269   3.684   1.882
 3699SOL    HW111996   1.274   3.699   1.981
 3699SOL    HW211997   1.219   3.600   1.864
 3700SOL     OW11998   0.550   0.100   4.421
 3700SOL    HW111999   0.498   0.185   4.417
 3700SOL    HW212000   0.613   0.096   4.344
 3701SOL     OW12001   5.804   0.784   3.369
 3701SOL    HW112002   5.882   0.740   3.413
 3701SOL    HW212003   5.730   0.718   3.356
 3702SOL     OW12004   4.069   0.984   0.005
 3702SOL    HW112005   4.129   1.045   0.057
 3702SOL    HW212006   4.095   0.889   0.023
 3703SOL     OW12007   4.570   4.896   6.776
 3703SOL    HW112008   4.510   4.928   6.704
 3703SOL    HW212009   4.556   4.950   6.859
 3704SOL     OW12010   2.400   0.596   1.908
 3704SOL    HW112011   2.436   0.689   1.910
 3704SOL    HW212012   2.307   0.595   1.944
 3705SOL     OW12013   5.482   0.814   4.055
 3705SOL    HW112014   5.383   0.814   4.040
 3705SOL    HW212015   5.519   0.906   4.036
 3706SOL     OW12016   2.049   2.021   3.841
 3706SOL    HW112017   2.012   1.996   3.930
 3706SOL    HW212018   2.014   2.112   3.815
 3707SOL     OW12019   4.343   2.738   5.302
 3707SOL    HW112020   4.277   2.670   5.271
 3707SOL    HW212021   4.296   2.824   5.321
 3708SOL     OW12022   6.140   0.107   5.896
 3708SOL    HW112023   6.215   0.172   5.887
 3708SOL    HW212024   6.162   0.040   5.967
 3709SOL     OW12025   4.615   0.334   0.069
 3709SOL    HW112026   4.579   0.258   0.122
 3709SOL    HW212027   4.713   0.344   0.087
 3710SOL     OW12028   6.878   4.703   0.929
 3710SOL    HW112029   6.857   4.613   0.889
 3710SOL    HW212030   6.976   4.719   0.924
 3711SOL     OW12031   6.853   5.216   2.982
 3711SOL    HW112032   6.876   5.148   2.912
 3711SOL    HW212033   6.937   5.259   3.015
 3712SOL     OW12034   1.837   6.907   0.709
 3712SOL    HW112035   1.817   6.944   0.619
 3712SOL    HW212036   1.847   6.982   0.775
 3713SOL     OW12037   4.058   5.665   6.092
 3713SOL    HW112038   4.114   5.748   6.096
 3713SOL    HW212039   3.963   5.689   6.075
 3714SOL     OW12040   3.724   1.025   5.520
 3714SOL    HW112041   3.819   0.994   5.511
 3714SOL    HW212042   3.680   0.975   5.595
 3715SOL     OW12043   5.126   3.812   4.014
 3715SOL    HW112044   5.135   3.909   3.994
 3715SOL    HW212045   5.164   3.793   4.105
 3716SOL     OW12046   0.177   1.658   4.133
 3716SOL    HW112047   0.110   1.601   4.085
 3716SOL    HW212048   0.255   1.675   4.072
 3717SOL     OW12049   5.208   0.202   0.251
 3717SOL    HW112050   5.172   0.253   0.330
 3717SOL    HW212051   5.307   0.216   0.245
 3718SOL     OW12052   0.593   5.584   0.442
 3718SOL    HW112053   0.583   5.678   0.474
 3718SOL    HW212054   0.579   5.521   0.518
 3719SOL     OW12055   4.101   5.043   5.835
 3719SOL    HW112056   4.192   5.019   5.867
 3719SOL    HW212057   4.086   5.005   5.744
 3720SOL     OW12058   0.145   1.978   5.685
 3720SOL    HW112059   0.164   2.055   5.624
 3720SOL    HW212060   0.220   1.969   5.751
 3721SOL     OW12061   4.100   3.465   0.536
 3721SOL    HW112062   4.086   3.414   0.452
 3721SOL    HW212063   4.184   3.519   0.529
 3722SOL     OW12064   5.914   5.684   1.895
 3722SOL    HW112065   5.989   5.734   1.851
 3722SOL    HW212066   5.942   5.658   1.987
 3723SOL     OW12067   4.409   1.311   0.512
 3723SOL    HW112068   4.492   1.357   0.481
 3723SOL    HW212069   4.331   1.373   0.501
 3724SOL     OW12070   0.154   5.114   5.509
 3724SOL    HW112071   0.058   5.141   5.512
 3724SOL    HW212072   0.192   5.133   5.418
 3725SOL     OW12073   6.693   0.052   1.047
 3725SOL    HW112074   6.720   0.140   1.086
 3725SOL    HW212075   6.706   0.055   0.948
 3726SOL     OW12076   5.755   3.009   1.211
 3726SOL    HW112077   5.703   3.001   1.296
 3726SOL    HW212078   5.853   2.999   1.231
 3727SOL     OW12079   2.471   2.817   5.369
 3727SOL    HW112080   2.508   2.888   5.309
 3727SOL    HW212081   2.371   2.818   5.364
 3728SOL     OW12082   0.343   3.183   6.984
 3728SOL    HW112083   0.403   3.224   6.916
 3728SOL    HW212084   0.259   3.150   6.940
 3729SOL     OW12085   0.314   2.870   3.207
 3729SOL    HW112086   0.369   2.859   3.124
 3729SOL    HW212087   0.366   2.835   3.286
 3730SOL     OW12088   2.676   0.877   0.220
 3730SOL    HW112089   2.584   0.879   0.261
 3730SOL    HW212090   2.715   0.969   0.221
 3731SOL     OW12091   2.896   6.512   6.625
 3731SOL    HW112092   2.836   6.478   6.552
 3731SOL    HW212093   2.843   6.522   6.709
 3732SOL     OW12094   2.194   3.938   4.692
 3732SOL    HW112095   2.198   3.967   4.788
 3732SOL    HW212096   2.238   4.008   4.635
 3733SOL     OW12097   2.414   3.744   1.066
 3733SOL    HW112098   2.374   3.653   1.066
 3733SOL    HW212099   2.455   3.762   0.976
 3734SOL     OW12100   5.551   0.393   2.928
 3734SOL    HW112101   5.533   0.329   2.852
 3734SOL    HW212102   5.634   0.364   2.977
 3735SOL     OW12103   3.534   1.719   2.039
 3735SOL    HW112104   3.437   1.696   2.029
 3735SOL    HW212105   3.547   1.817   2.025
 3736SOL     OW12106   4.802   1.171   6.345
 3736SOL    HW112107   4.807   1.249   6.407
 3736SOL    HW212108   4.706   1.148   6.329
 3737SOL     OW12109   3.941   6.843   3.406
 3737SOL    HW112110   3.986   6.929   3.378
 3737SOL    HW212111   4.011   6.777   3.433
 3738SOL     OW12112   0.505   6.961   4.060
 3738SOL    HW112113   0.592   6.951   4.109
 3738SOL    HW212114   0.521   6.959   3.961
 3739SOL     OW12115   0.342   3.891   2.248
 3739SOL    HW112116   0.376   3.901   2.155
 3739SOL    HW212117   0.329   3.795   2.270
 3740SOL     OW12118   5.171   1.408   6.521
 3740SOL    HW112119   5.152   1.315   6.551
 3740SOL    HW212120   5.112   1.472   6.569
 3741SOL     OW12121   3.785   1.992   6.669
 3741SOL    HW112122   3.815   2.068   6.727
 3741SOL    HW212123   3.827   2.001   6.579
 3742SOL     OW12124   2.902   3.776   5.627
 3742SOL    HW112125   2.896   3.875   5.617
 3742SOL    HW212126   2.963   3.739   5.557
 3743SOL     OW12127   0.595   5.673   5.991
 3743SOL    HW112128   0.636   5.714   5.910
 3743SOL    HW212129   0.572   5.577   5.971
 3744SOL     OW12130   0.045   5.522   3.062
 3744SOL    HW112131   0.031   5.454   2.990
 3744SOL    HW212132   7.012   5.601   3.044
 3745SOL     OW12133   4.976   5.921   1.795
 3745SOL    HW112134   4.901   5.957   1.849
 3745SOL    HW212135   4.959   5.937   1.698
 3746SOL     OW12136   4.229   1.641   2.595
 3746SOL    HW112137   4.190   1.559   2.554
 3746SOL    HW212138   4.176   1.721   2.565
 3747SOL     OW12139   2.759   7.000   0.538
 3747SOL    HW112140   2.810   6.976   0.620
 3747SOL    HW212141   2.665   0.001   0.563
 3748SOL     OW12142   6.032   0.799   2.305
 3748SOL    HW112143   6.067   0.872   2.364
 3748SOL    HW212144   6.051   0.710   2.347
 3749SOL     OW12145   1.379   0.206   5.397
 3749SOL    HW112146   1.474   0.177   5.388
 3749SOL    HW212147   1.360   0.229   5.492
 3750SOL     OW12148   0.147   4.337   6.659
 3750SOL    HW112149   0.143   4.239   6.639
 3750SOL    HW212150   0.081   4.360   6.730
 3751SOL     OW12151   1.712   4.008   1.487
 3751SOL    HW112152   1.688   3.918   1.449
 3751SOL    HW212153   1.632   4.046   1.534
 3752SOL     OW12154   5.457   6.597   6.539
 3752SOL    HW112155   5.507   6.671   6.495
 3752SOL    HW212156   5.497   6.509   6.513
 3753SOL     OW12157   0.104   0.625   3.625
 3753SOL    HW112158   0.078   0.529   3.615
 3753SOL    HW212159   0.188   0.643   3.574
 3754SOL     OW12160   2.354   1.406   0.780
 3754SOL    HW112161   2.276   1.350   0.752
 3754SOL    HW212162   2.320   1.491   0.820
 3755SOL     OW12163   3.384   4.987   4.263
 3755SOL    HW112164   3.404   5.080   4.292
 3755SOL    HW212165   3.293   4.985   4.219
 3756SOL     OW12166   1.827   6.373   0.445
 3756SOL    HW112167   1.848   6.340   0.537
 3756SOL    HW212168   1.815   6.472   0.448
 3757SOL     OW12169   0.054   4.386   0.992
 3757SOL    HW112170   0.144   4.409   0.954
 3757SOL    HW212171   0.050   4.415   1.088
 3758SOL     OW12172   2.416   6.850   4.054
 3758SOL    HW112173   2.329   6.820   4.014
 3758SOL    HW212174   2.401   6.879   4.149
 3759SOL     OW12175   5.112   0.254   4.061
 3759SOL    HW112176   5.082   0.250   3.965
 3759SOL    HW212177   5.198   0.305   4.067
 3760SOL     OW12178   1.491   1.048   3.011
 3760SOL    HW112179   1.485   1.135   3.061
 3760SOL    HW212180   1.410   1.038   2.953
 3761SOL     OW12181   4.963   1.123   4.644
 3761SOL    HW112182   5.019   1.041   4.649
 3761SOL    HW212183   4.902   1.126   4.723
 3762SOL     OW12184   6.878   3.112   3.686
 3762SOL    HW112185   6.936   3.177   3.637
 3762SOL    HW212186   6.908   3.105   3.781
 3763SOL     OW12187   0.682   4.442   6.966
 3763SOL    HW112188   0.679   4.445   0.041
 3763SOL    HW212189   0.629   4.363   6.934
 3764SOL     OW12190   2.595   0.562   2.885
 3764SOL    HW112191   2.533   0.640   2.877
 3764SOL    HW212192   2.654   0.558   2.804
 3765SOL     OW12193   5.613   2.605   2.656
 3765SOL    HW112194   5.533   2.664   2.653
 3765SOL    HW212195   5.675   2.637   2.727
 3766SOL     OW12196   1.437   3.254   2.002
 3766SOL    HW112197   1.344   3.219   1.990
 3766SOL    HW212198   1.442   3.306   2.088
 3767SOL     OW12199   1.424   5.598   6.070
 3767SOL    HW112200   1.484   5.536   6.120
 3767SOL    HW212201   1.402   5.677   6.128
 3768SOL     OW12202   1.728   0.028   2.502
 3768SOL    HW112203   1.713   0.111   2.447
 3768SOL    HW212204   1.804   7.001   2.462
 3769SOL     OW12205   5.126   5.554   4.055
 3769SOL    HW112206   5.158   5.462   4.032
 3769SOL    HW212207   5.204   5.612   4.077
 3770SOL     OW12208   2.347   0.663   1.316
 3770SOL    HW112209   2.430   0.634   1.363
 3770SOL    HW212210   2.325   0.757   1.343
 3771SOL     OW12211   6.268   5.538   5.361
 3771SOL    HW112212   6.192   5.510   5.421
 3771SOL    HW212213   6.325   5.459   5.339
 3772SOL     OW12214   1.217   5.755   1.173
 3772SOL    HW112215   1.300   5.745   1.228
 3772SOL    HW212216   1.241   5.766   1.077
 3773SOL     OW12217   5.277   5.135   6.609
 3773SOL    HW112218   5.185   5.165   6.632
 3773SOL    HW212219   5.279   5.102   6.515
 3774SOL     OW12220   6.666   4.966   1.936
 3774SOL    HW112221   6.705   4.926   2.019
 3774SOL    HW212222   6.598   5.034   1.961
 3775SOL     OW12223   4.742   5.172   5.202
 3775SOL    HW112224   4.673   5.238   5.173
 3775SOL    HW212225   4.808   5.216   5.263
 3776SOL     OW12226   4.212   2.740   5.938
 3776SOL    HW112227   4.222   2.726   6.037
 3776SOL    HW212228   4.290   2.793   5.905
 3777SOL     OW12229   3.148   4.930   4.604
 3777SOL    HW112230   3.127   5.028   4.603
 3777SOL    HW212231   3.069   4.879   4.636
 3778SOL     OW12232   3.585   5.635   6.579
 3778SOL    HW112233   3.536   5.623   6.665
 3778SOL    HW212234   3.683   5.635   6.596
 3779SOL     OW12235   6.928   4.927   6.964
 3779SOL    HW112236   6.922   4.972   6.875
 3779SOL    HW212237   6.937   4.829   6.952
 3780SOL     OW12238   5.510   3.719   1.635
 3780SOL    HW112239   5.584   3.686   1.693
 3780SOL    HW212240   5.425   3.721   1.688
 3781SOL     OW12241   2.346   6.302   5.037
 3781SOL    HW112242   2.434   6.255   5.029
 3781SOL    HW212243   2.296   6.266   5.116
 3782SOL     OW12244   4.114   5.020   1.302
 3782SOL    HW112245   4.021   5.053   1.286
 3782SOL    HW212246   4.128   4.935   1.252
 3783SOL     OW12247   4.737   5.477   4.723
 3783SOL    HW112248   4.820   5.514   4.766
 3783SOL    HW212249   4.754   5.383   4.694
 3784SOL     OW12250   5.958   2.721   4.830
 3784SOL    HW112251   6.033   2.785   4.810
 3784SOL    HW212252   5.878   2.746   4.775
 3785SOL     OW12253   1.589   2.890   3.266
 3785SOL    HW112254   1.568   2.987   3.278
 3785SOL    HW212255   1.573   2.843   3.353
 3786SOL     OW12256   2.137   3.394   4.621
 3786SOL    HW112257   2.094   3.344   4.696
 3786SOL    HW212258   2.129   3.492   4.639
 3787SOL     OW12259   4.887   6.801   4.017
 3787SOL    HW112260   4.832   6.741   3.959
 3787SOL    HW212261   4.903   6.757   4.105
 3788SOL     OW12262   5.121   2.484   5.267
 3788SOL    HW112263   5.064   2.402   5.262
 3788SOL    HW212264   5.068   2.560   5.304
 3789SOL     OW12265   2.604   2.651   1.577
 3789SOL    HW112266   2.539   2.633   1.503
 3789SOL    HW212267   2.636   2.563   1.614
 3790SOL     OW12268   0.505   6.424   1.799
 3790SOL    HW112269   0.532   6.386   1.710
 3790SOL    HW212270   0.574   6.488   1.830
 3791SOL     OW12271   4.989   0.986   5.799
 3791SOL    HW112272   4.982   1.082   5.772
 3791SOL    HW212273   4.898   0.945   5.803
 3792SOL     OW12274   0.075   0.249   4.262
 3792SOL    HW112275   7.017   0.298   4.235
 3792SOL    HW212276   0.083   0.249   4.361
 3793SOL     OW12277   4.270   4.924   0.491
 3793SOL    HW112278   4.359   4.886   0.514
 3793SOL    HW212279   4.243   4.893   0.400
 3794SOL     OW12280   0.572   4.826   6.173
 3794SOL    HW112281   0.479   4.855   6.196
 3794SOL    HW212282   0.612   4.777   6.250
 3795SOL     OW12283   2.828   6.323   1.053
 3795SOL    HW112284   2.730   6.305   1.062
 3795SOL    HW212285   2.842   6.418   1.025
 3796SOL     OW12286   4.445   1.109   0.293
 3796SOL    HW112287   4.529   1.138   0.246
 3796SOL    HW212288   4.434   1.161   0.377
 3797SOL     OW12289   0.435   3.780   1.765
 3797SOL    HW112290   0.346   3.782   1.718
 3797SOL    HW212291   0.438   3.854   1.832
 3798SOL     OW12292   1.570   5.498   3.730
 3798SOL    HW112293   1.497   5.464   3.790
 3798SOL    HW212294   1.560   5.456   3.640
 3799SOL     OW12295   7.010   1.021   3.401
 3799SOL    HW112296   0.032   0.958   3.339
 3799SOL    HW212297   6.931   0.975   3.441
 3800SOL     OW12298   5.556   2.426   3.181
 3800SOL    HW112299   5.578   2.486   3.105
 3800SOL    HW212300   5.481   2.465   3.234
 3801SOL     OW12301   6.166   1.377   1.274
 3801SOL    HW112302   6.164   1.383   1.174
 3801SOL    HW212303   6.129   1.289   1.303
 3802SOL     OW12304   5.972   3.593   1.718
 3802SOL    HW112305   5.981   3.599   1.817
 3802SOL    HW212306   6.035   3.658   1.675
 3803SOL     OW12307   3.580   3.954   4.578
 3803SOL    HW112308   3.647   3.881   4.562
 3803SOL    HW212309   3.492   3.927   4.539
 3804SOL     OW12310   4.137   6.032   3.865
 3804SOL    HW112311   4.110   5.983   3.947
 3804SOL    HW212312   4.056   6.071   3.821
 3805SOL     OW12313   2.412   2.534   6.823
 3805SOL    HW112314   2.384   2.466   6.756
 3805SOL    HW212315   2.332   2.580   6.860
 3806SOL     OW12316   2.622   5.202   1.475
 3806SOL    HW112317   2.540   5.157   1.509
 3806SOL    HW212318   2.703   5.155   1.510
 3807SOL     OW12319   1.818   3.934   3.808
 3807SOL    HW112320   1.721   3.942   3.831
 3807SOL    HW212321   1.867   4.012   3.847
 3808SOL     OW12322   2.919   6.644   5.619
 3808SOL    HW112323   2.942   6.739   5.639
 3808SOL    HW212324   2.868   6.605   5.695
 3809SOL     OW12325   5.301   2.223   1.640
 3809SOL    HW112326   5.375   2.275   1.684
 3809SOL    HW212327   5.335   2.184   1.554
 3810SOL     OW12328   4.959   2.216   2.447
 3810SOL    HW112329   4.889   2.159   2.403
 3810SOL    HW212330   4.952   2.309   2.412
 3811SOL     OW12331   0.351   5.630   5.409
 3811SOL    HW112332   0.294   5.598   5.484
 3811SOL    HW212333   0.408   5.555   5.374
 3812SOL     OW12334   4.866   5.586   0.623
 3812SOL    HW112335   4.905   5.543   0.542
 3812SOL    HW212336   4.818   5.517   0.677
 3813SOL     OW12337   6.186   4.570   0.069
 3813SOL    HW112338   6.147   4.486   0.109
 3813SOL    HW212339   6.137   4.649   0.105
 3814SOL     OW12340   0.092   0.440   4.911
 3814SOL    HW112341   0.056   0.419   5.002
 3814SOL    HW212342   0.023   0.491   4.859
 3815SOL     OW12343   6.474   3.704   5.668
 3815SOL    HW112344   6.415   3.782   5.653
 3815SOL    HW212345   6.562   3.734   5.706
 3816SOL     OW12346   6.480   6.251   1.425
 3816SOL    HW112347   6.485   6.160   1.383
 3816SOL    HW212348   6.567   6.299   1.409
 3817SOL     OW12349   4.736   3.592   1.693
 3817SOL    HW112350   4.767   3.612   1.601
 3817SOL    HW212351   4.701   3.676   1.735
 3818SOL     OW12352   6.167   6.228   2.506
 3818SOL    HW112353   6.116   6.166   2.447
 3818SOL    HW212354   6.107   6.303   2.535
 3819SOL     OW12355   6.053   3.670   3.891
 3819SOL    HW112356   6.068   3.662   3.990
 3819SOL    HW212357   6.133   3.637   3.843
 3820SOL     OW12358   3.050   6.105   5.078
 3820SOL    HW112359   3.031   6.196   5.042
 3820SOL    HW212360   3.132   6.107   5.135
 3821SOL     OW12361   0.967   0.514   0.312
 3821SOL    HW112362   1.019   0.481   0.392
 3821SOL    HW212363   0.903   0.443   0.282
 3822SOL     OW12364   4.804   0.588   1.895
 3822SOL    HW112365   4.723   0.540   1.925
 3822SOL    HW212366   4.864   0.605   1.973
 3823SOL     OW12367   5.902   6.123   6.170
 3823SOL    HW112368   5.844   6.184   6.224
 3823SOL    HW212369   5.975   6.087   6.228
 3824SOL     OW12370   2.480   2.826   0.150
 3824SOL    HW112371   2.484   2.922   0.124
 3824SOL    HW212372   2.402   2.783   0.105
 3825SOL     OW12373   0.880   4.744   5.712
 3825SOL    HW112374   0.968   4.697   5.702
 3825SOL    HW212375   0.820   4.720   5.636
 3826SOL     OW12376   5.564   4.633   4.063
 3826SOL    HW112377   5.565   4.725   4.023
 3826SOL    HW212378   5.646   4.621   4.120
 3827SOL     OW12379   0.409   2.089   0.415
 3827SOL    HW112380   0.457   2.131   0.492
 3827SOL    HW212381   0.439   1.994   0.405
 3828SOL     OW12382   3.820   3.438   3.582
 3828SOL    HW112383   3.745   3.490   3.623
 3828SOL    HW212384   3.832   3.353   3.632
 3829SOL     OW12385   1.230   3.549   1.582
 3829SOL    HW112386   1.177   3.468   1.557
 3829SOL    HW212387   1.176   3.608   1.641
 3830SOL     OW12388   5.555   0.575   3.911
 3830SOL    HW112389   5.642   0.579   3.863
 3830SOL    HW212390   5.523   0.667   3.932
 3831SOL     OW12391   4.713   1.883   3.615
 3831SOL    HW112392   4.722   1.794   3.571
 3831SOL    HW212393   4.633   1.931   3.579
 3832SOL     OW12394   6.715   1.046   3.203
 3832SOL    HW112395   6.702   1.100   3.286
 3832SOL    HW212396   6.629   1.043   3.151
 3833SOL     OW12397   1.873   2.167   5.226
 3833SOL    HW112398   1.797   2.165   5.161
 3833SOL    HW212399   1.853   2.105   5.302
 3834SOL     OW12400   4.931   3.580   1.031
 3834SOL    HW112401   4.912   3.509   1.098
 3834SOL    HW212402   4.919   3.670   1.072
 3835SOL     OW12403   4.322   5.662   5.131
 3835SOL    HW112404   4.324   5.566   5.158
 3835SOL    HW212405   4.402   5.708   5.169
 3836SOL     OW12406   6.877   5.994   5.746
 3836SOL    HW112407   6.830   5.996   5.658
 3836SOL    HW212408   6.827   6.050   5.812
 3837SOL     OW12409   4.628   4.679   5.901
 3837SOL    HW112410   4.619   4.760   5.842
 3837SOL    HW212411   4.664   4.603   5.847
 3838SOL     OW12412   0.799   0.978   4.319
 3838SOL    HW112413   0.828   1.071   4.342
 3838SOL    HW212414   0.861   0.941   4.250
 3839SOL     OW12415   5.095   0.754   3.667
 3839SOL    HW112416   5.043   0.832   3.703
 3839SOL    HW212417   5.043   0.670   3.681
 3840SOL     OW12418   2.672   1.631   6.883
 3840SOL    HW112419   2.692   1.728   6.897
 3840SOL    HW212420   2.588   1.622   6.829
 3841SOL     OW12421   6.144   4.560   4.391
 3841SOL    HW112422   6.243   4.556   4.384
 3841SOL    HW212423   6.107   4.617   4.318
 3842SOL     OW12424   1.792   3.843   5.006
 3842SOL    HW112425   1.848   3.871   5.084
 3842SOL    HW212426   1.832   3.879   4.922
 3843SOL     OW12427   5.197   2.410   0.116
 3843SOL    HW112428   5.213   2.477   0.044
 3843SOL    HW212429   5.284   2.373   0.148
 3844SOL     OW12430   0.279   6.990   1.337
 3844SOL    HW112431   0.254   6.893   1.344
 3844SOL    HW212432   0.274   0.006   1.428
 3845SOL     OW12433   2.193   5.131   0.505
 3845SOL    HW112434   2.135   5.158   0.428
 3845SOL    HW212435   2.288   5.124   0.474
 3846SOL     OW12436   0.629   3.012   3.096
 3846SOL    HW112437   0.608   2.920   3.129
 3846SOL    HW212438   0.652   3.071   3.173
 3847SOL     OW12439   6.700   2.006   6.738
 3847SOL    HW112440   6.610   2.034   6.771
 3847SOL    HW212441   6.695   1.913   6.701
 3848SOL     OW12442   5.506   3.845   2.584
 3848SOL    HW112443   5.580   3.779   2.568
 3848SOL    HW212444   5.451   3.855   2.501
 3849SOL     OW12445   6.911   4.981   6.387
 3849SOL    HW112446   6.988   5.042   6.405
 3849SOL    HW212447   6.826   5.034   6.387
 3850SOL     OW12448   2.898   2.339   1.459
 3850SOL    HW112449   2.854   2.295   1.538
 3850SOL    HW212450   2.952   2.272   1.410
 3851SOL     OW12451   0.594   6.075   1.963
 3851SOL    HW112452   0.538   6.118   2.034
 3851SOL    HW212453   0.690   6.098   1.979
 3852SOL     OW12454   2.353   6.943   5.525
 3852SOL    HW112455   2.374   6.855   5.483
 3852SOL    HW212456   2.432   6.974   5.578
 3853SOL     OW12457   3.112   6.881   3.122
 3853SOL    HW112458   3.190   6.937   3.152
 3853SOL    HW212459   3.073   6.921   3.039
 3854SOL     OW12460   1.426   2.216   2.202
 3854SOL    HW112461   1.327   2.233   2.200
 3854SOL    HW212462   1.451   2.151   2.131
 3855SOL     OW12463   3.610   6.563   0.330
 3855SOL    HW112464   3.686   6.546   0.268
 3855SOL    HW212465   3.526   6.577   0.277
 3856SOL     OW12466   0.323   2.844   6.776
 3856SOL    HW112467   0.283   2.934   6.794
 3856SOL    HW212468   0.285   2.777   6.840
 3857SOL     OW12469   2.106   0.508   6.252
 3857SOL    HW112470   2.121   0.422   6.302
 3857SOL    HW212471   2.028   0.497   6.191
 3858SOL     OW12472   4.574   0.325   4.089
 3858SOL    HW112473   4.673   0.340   4.083
 3858SOL    HW212474   4.529   0.411   4.113
 3859SOL     OW12475   6.492   0.109   2.143
 3859SOL    HW112476   6.466   0.085   2.049
 3859SOL    HW212477   6.507   0.025   2.196
 3860SOL     OW12478   1.551   6.712   3.888
 3860SOL    HW112479   1.548   6.785   3.820
 3860SOL    HW212480   1.519   6.746   3.976
 3861SOL     OW12481   2.856   6.034   1.620
 3861SOL    HW112482   2.810   5.952   1.655
 3861SOL    HW212483   2.881   6.020   1.525
 3862SOL     OW12484   2.141   0.052   3.879
 3862SOL    HW112485   2.045   0.047   3.851
 3862SOL    HW212486   2.177   6.984   3.890
 3863SOL     OW12487   3.761   0.151   0.611
 3863SOL    HW112488   3.826   0.207   0.560
 3863SOL    HW212489   3.738   0.070   0.558
 3864SOL     OW12490   2.366   0.489   4.994
 3864SOL    HW112491   2.398   0.580   4.967
 3864SOL    HW212492   2.268   0.492   5.014
 3865SOL     OW12493   3.583   0.815   0.584
 3865SOL    HW112494   3.662   0.820   0.523
 3865SOL    HW212495   3.499   0.810   0.530
 3866SOL     OW12496   2.553   2.360   6.442
 3866SOL    HW112497   2.614   2.360   6.522
 3866SOL    HW212498   2.608   2.362   6.358
 3867SOL     OW12499   0.634   3.400   2.049
 3867SOL    HW112500   0.578   3.342   2.108
 3867SOL    HW212501   0.576   3.467   2.003
 3868SOL     OW12502   4.267   0.570   0.303
 3868SOL    HW112503   4.261   0.662   0.343
 3868SOL    HW212504   4.363   0.547   0.288
 3869SOL     OW12505   5.981   2.276   3.652
 3869SOL    HW112506   6.064   2.221   3.663
 3869SOL    HW212507   5.955   2.315   3.741
 3870SOL     OW12508   0.508   0.637   4.429
 3870SOL    HW112509   0.549   0.670   4.514
 3870SOL    HW212510   0.408   0.646   4.435
 3871SOL     OW12511   2.527   4.990   4.582
 3871SOL    HW112512   2.542   5.089   4.588
 3871SOL    HW212513   2.570   4.955   4.499
 3872SOL     OW12514   2.755   3.737   5.401
 3872SOL    HW112515   2.788   3.717   5.494
 3872SOL    HW212516   2.668   3.689   5.386
 3873SOL     OW12517   4.827   1.798   0.611
 3873SOL    HW112518   4.835   1.699   0.604
 3873SOL    HW212519   4.746   1.829   0.561
 3874SOL     OW12520   2.993   0.972   6.854
 3874SOL    HW112521   2.920   0.908   6.829
 3874SOL    HW212522   3.070   0.920   6.892
 3875SOL     OW12523   1.328   2.440   6.244
 3875SOL    HW112524   1.294   2.351   6.275
 3875SOL    HW212525   1.414   2.428   6.195
 3876SOL     OW12526   4.050   5.323   1.529
 3876SOL    HW112527   4.109   5.244   1.544
 3876SOL    HW212528   4.103   5.407   1.543
 3877SOL     OW12529   6.670   1.580   0.054
 3877SOL    HW112530   6.733   1.575   7.002
 3877SOL    HW212531   6.616   1.664   0.048
 3878SOL     OW12532   4.699   0.789   4.310
 3878SOL    HW112533   4.604   0.759   4.300
 3878SOL    HW212534   4.718   0.863   4.247
 3879SOL     OW12535   5.573   5.424   0.510
 3879SOL    HW112536   5.659   5.438   0.461
 3879SOL    HW212537   5.588   5.361   0.586
 3880SOL     OW12538   4.439   4.742   4.027
 3880SOL    HW112539   4.400   4.791   4.106
 3880SOL    HW212540   4.520   4.790   3.994
 3881SOL     OW12541   0.909   4.100   0.561
 3881SOL    HW112542   0.921   4.021   0.501
 3881SOL    HW212543   0.829   4.153   0.532
 3882SOL     OW12544   0.967   1.745   7.005
 3882SOL    HW112545   1.014   1.666   6.965
 3882SOL    HW212546   1.032   1.797   0.035
 3883SOL     OW12547   5.263   6.246   2.703
 3883SOL    HW112548   5.296   6.292   2.620
 3883SOL    HW212549   5.260   6.312   2.778
 3884SOL     OW12550   0.792   4.822   1.753
 3884SOL    HW112551   0.874   4.765   1.754
 3884SOL    HW212552   0.744   4.812   1.840
 3885SOL     OW12553   5.630   6.024   2.989
 3885SOL    HW112554   5.710   6.082   3.003
 3885SOL    HW212555   5.547   6.081   2.988
 3886SOL     OW12556   3.647   6.557   5.870
 3886SOL    HW112557   3.643   6.477   5.810
 3886SOL    HW212558   3.572   6.552   5.936
 3887SOL     OW12559   0.464   6.537   2.193
 3887SOL    HW112560   0.475   6.628   2.233
 3887SOL    HW212561   0.373   6.529   2.152
 3888SOL     OW12562   6.248   5.721   4.090
 3888SOL    HW112563   6.238   5.623   4.076
 3888SOL    HW212564   6.281   5.738   4.183
 3889SOL     OW12565   4.873   3.453   6.640
 3889SOL    HW112566   4.841   3.438   6.733
 3889SOL    HW212567   4.801   3.429   6.575
 3890SOL     OW12568   5.413   2.798   4.191
 3890SOL    HW112569   5.508   2.796   4.159
 3890SOL    HW212570   5.385   2.893   4.205
 3891SOL     OW12571   6.389   5.349   3.323
 3891SOL    HW112572   6.374   5.281   3.251
 3891SOL    HW212573   6.467   5.320   3.379
 3892SOL     OW12574   0.237   1.822   1.485
 3892SOL    HW112575   0.234   1.922   1.488
 3892SOL    HW212576   0.164   1.785   1.543
 3893SOL     OW12577   3.989   3.381   1.925
 3893SOL    HW112578   3.947   3.313   1.986
 3893SOL    HW212579   4.009   3.464   1.977
 3894SOL     OW12580   4.446   0.599   6.141
 3894SOL    HW112581   4.475   0.678   6.195
 3894SOL    HW212582   4.428   0.522   6.202
 3895SOL     OW12583   2.146   0.030   4.478
 3895SOL    HW112584   2.092   0.007   4.559
 3895SOL    HW212585   2.098   0.101   4.426
 3896SOL     OW12586   1.030   0.666   6.885
 3896SOL    HW112587   0.942   0.624   6.905
 3896SOL    HW212588   1.099   0.632   6.949
 3897SOL     OW12589   4.951   6.246   1.783
 3897SOL    HW112590   4.886   6.313   1.818
 3897SOL    HW212591   4.916   6.206   1.699
 3898SOL     OW12592   4.264   2.776   0.235
 3898SOL    HW112593   4.262   2.859   0.291
 3898SOL    HW212594   4.357   2.763   0.200
 3899SOL     OW12595   3.557   6.290   6.525
 3899SOL    HW112596   3.640   6.263   6.476
 3899SOL    HW212597   3.480   6.294   6.461
 3900SOL     OW12598   5.093   3.879   3.154
 3900SOL    HW112599   5.026   3.868   3.081
 3900SOL    HW212600   5.080   3.807   3.222
 3901SOL     OW12601   2.676   0.435   0.128
 3901SOL    HW112602   2.676   0.439   0.028
 3901SOL    HW212603   2.707   0.345   0.158
 3902SOL     OW12604   6.256   3.218   2.665
 3902SOL    HW112605   6.318   3.144   2.640
 3902SOL    HW212606   6.192   3.185   2.735
 3903SOL     OW12607   3.180   5.219   6.575
 3903SOL    HW112608   3.179   5.318   6.583
 3903SOL    HW212609   3.187   5.178   6.665
 3904SOL     OW12610   1.066   0.393   0.020
 3904SOL    HW112611   1.025   0.375   0.109
 3904SOL    HW212612   1.104   0.485   0.018
 3905SOL     OW12613   6.837   5.920   5.380
 3905SOL    HW112614   6.799   5.992   5.437
 3905SOL    HW212615   6.909   5.872   5.429
 3906SOL     OW12616   6.147   6.683   5.475
 3906SOL    HW112617   6.149   6.583   5.480
 3906SOL    HW212618   6.215   6.722   5.537
 3907SOL     OW12619   6.135   1.085   4.076
 3907SOL    HW112620   6.231   1.092   4.050
 3907SOL    HW212621   6.077   1.126   4.006
 3908SOL     OW12622   1.688   2.709   5.514
 3908SOL    HW112623   1.735   2.624   5.538
 3908SOL    HW212624   1.712   2.780   5.581
 3909SOL     OW12625   6.163   5.440   4.141
 3909SOL    HW112626   6.104   5.449   4.221
 3909SOL    HW212627   6.160   5.345   4.109
 3910SOL     OW12628   3.938   3.879   3.104
 3910SOL    HW112629   3.851   3.834   3.085
 3910SOL    HW212630   3.936   3.918   3.196
 3911SOL     OW12631   6.270   2.101   5.543
 3911SOL    HW112632   6.177   2.122   5.514
 3911SOL    HW212633   6.285   2.138   5.635
 3912SOL     OW12634   5.488   2.528   6.160
 3912SOL    HW112635   5.417   2.515   6.229
 3912SOL    HW212636   5.447   2.519   6.069
 3913SOL     OW12637   1.014   6.803   0.524
 3913SOL    HW112638   0.972   6.828   0.611
 3913SOL    HW212639   0.961   6.730   0.481
 3914SOL     OW12640   3.209   6.086   6.438
 3914SOL    HW112641   3.127   6.057   6.389
 3914SOL    HW212642   3.289   6.039   6.401
 3915SOL     OW12643   6.209   5.545   1.595
 3915SOL    HW112644   6.291   5.505   1.553
 3915SOL    HW212645   6.225   5.641   1.615
 3916SOL     OW12646   1.410   6.958   3.012
 3916SOL    HW112647   1.423   0.028   2.987
 3916SOL    HW212648   1.402   6.950   3.112
 3917SOL     OW12649   1.872   0.141   6.810
 3917SOL    HW112650   1.930   0.130   6.730
 3917SOL    HW212651   1.788   0.087   6.798
 3918SOL     OW12652   5.604   3.984   1.585
 3918SOL    HW112653   5.533   4.053   1.579
 3918SOL    HW212654   5.562   3.893   1.589
 3919SOL     OW12655   3.312   6.881   0.253
 3919SOL    HW112656   3.346   6.787   0.245
 3919SOL    HW212657   3.267   6.908   0.167
 3920SOL     OW12658   2.172   1.826   6.657
 3920SOL    HW112659   2.187   1.888   6.734
 3920SOL    HW212660   2.237   1.750   6.661
 3921SOL     OW12661   1.526   3.657   1.696
 3921SOL    HW112662   1.457   3.713   1.742
 3921SOL    HW212663   1.539   3.572   1.747
 3922SOL     OW12664   1.057   4.814   1.256
 3922SOL    HW112665   1.070   4.913   1.266
 3922SOL    HW212666   0.975   4.786   1.304
 3923SOL     OW12667   0.084   0.313   0.148
 3923SOL    HW112668   0.079   0.213   0.146
 3923SOL    HW212669   7.017   0.350   0.155
 3924SOL     OW12670   6.988   4.514   4.527
 3924SOL    HW112671   0.052   4.511   4.482
 3924SOL    HW212672   6.996   4.565   4.613
 3925SOL     OW12673   1.875   5.352   2.433
 3925SOL    HW112674   1.905   5.341   2.338
 3925SOL    HW212675   1.805   5.423   2.437
 3926SOL     OW12676   4.483   4.514   2.186
 3926SOL    HW112677   4.503   4.600   2.138
 3926SOL    HW212678   4.473   4.440   2.119
 3927SOL     OW12679   0.554   3.327   6.257
 3927SOL    HW112680   0.599   3.367   6.336
 3927SOL    HW212681   0.490   3.255   6.288
 3928SOL     OW12682   5.576   5.709   6.462
 3928SOL    HW112683   5.662   5.675   6.499
 3928SOL    HW212684   5.504   5.700   6.530
 3929SOL     OW12685   0.879   1.550   5.125
 3929SOL    HW112686   0.954   1.601   5.168
 3929SOL    HW212687   0.815   1.614   5.083
 3930SOL     OW12688   2.064   1.386   3.436
 3930SOL    HW112689   2.014   1.334   3.366
 3930SOL    HW212690   2.105   1.467   3.394
 3931SOL     OW12691   6.095   1.591   1.428
 3931SOL    HW112692   6.077   1.676   1.379
 3931SOL    HW212693   6.101   1.516   1.363
 3932SOL     OW12694   1.370   2.249   4.464
 3932SOL    HW112695   1.290   2.276   4.411
 3932SOL    HW212696   1.441   2.215   4.403
 3933SOL     OW12697   1.229   6.545   6.011
 3933SOL    HW112698   1.236   6.627   6.067
 3933SOL    HW212699   1.158   6.485   6.050
 3934SOL     OW12700   5.467   0.328   6.197
 3934SOL    HW112701   5.537   0.320   6.268
 3934SOL    HW212702   5.377   0.339   6.240
 3935SOL     OW12703   4.542   0.790   0.623
 3935SOL    HW112704   4.459   0.832   0.587
 3935SOL    HW212705   4.601   0.861   0.663
 3936SOL     OW12706   7.001   5.187   3.455
 3936SOL    HW112707   6.901   5.196   3.454
 3936SOL    HW212708   0.016   5.272   3.489
 3937SOL     OW12709   0.538   1.320   2.780
 3937SOL    HW112710   0.496   1.283   2.862
 3937SOL    HW212711   0.469   1.323   2.706
 3938SOL     OW12712   0.028   1.901   2.734
 3938SOL    HW112713   7.018   1.858   2.817
 3938SOL    HW212714   0.124   1.876   2.721
 3939SOL     OW12715   2.829   1.682   1.937
 3939SOL    HW112716   2.738   1.642   1.948
 3939SOL    HW212717   2.846   1.748   2.010
 3940SOL     OW12718   3.596   3.591   1.302
 3940SOL    HW112719   3.687   3.595   1.341
 3940SOL    HW212720   3.533   3.552   1.369
 3941SOL     OW12721   4.043   4.189   6.084
 3941SOL    HW112722   3.963   4.155   6.134
 3941SOL    HW212723   4.017   4.268   6.029
 3942SOL     OW12724   6.688   6.357   6.103
 3942SOL    HW112725   6.747   6.281   6.129
 3942SOL    HW212726   6.676   6.419   6.180
 3943SOL     OW12727   0.431   3.593   4.485
 3943SOL    HW112728   0.472   3.535   4.555
 3943SOL    HW212729   0.477   3.578   4.398
 3944SOL     OW12730   4.945   2.641   4.229
 3944SOL    HW112731   4.866   2.695   4.255
 3944SOL    HW212732   4.919   2.573   4.160
 3945SOL     OW12733   6.765   0.943   1.114
 3945SOL    HW112734   6.757   0.893   1.028
 3945SOL    HW212735   6.794   0.881   1.186
 3946SOL     OW12736   4.293   4.918   3.174
 3946SOL    HW112737   4.292   4.839   3.114
 3946SOL    HW212738   4.248   4.995   3.129
 3947SOL     OW12739   5.713   5.777   0.172
 3947SOL    HW112740   5.683   5.868   0.143
 3947SOL    HW212741   5.714   5.773   0.272
 3948SOL     OW12742   5.924   4.508   1.630
 3948SOL    HW112743   5.832   4.522   1.666
 3948SOL    HW212744   5.933   4.414   1.598
 3949SOL     OW12745   4.552   6.131   3.640
 3949SOL    HW112746   4.583   6.185   3.562
 3949SOL    HW212747   4.595   6.040   3.636
 3950SOL     OW12748   1.391   5.709   0.918
 3950SOL    HW112749   1.464   5.689   0.984
 3950SOL    HW212750   1.345   5.624   0.892
 3951SOL     OW12751   5.532   0.298   1.805
 3951SOL    HW112752   5.627   0.329   1.812
 3951SOL    HW212753   5.512   0.233   1.879
 3952SOL     OW12754   6.595   2.636   0.637
 3952SOL    HW112755   6.529   2.672   0.702
 3952SOL    HW212756   6.562   2.549   0.600
 3953SOL     OW12757   3.904   3.929   2.292
 3953SOL    HW112758   3.843   4.007   2.296
 3953SOL    HW212759   3.867   3.854   2.347
 3954SOL     OW12760   3.751   4.688   5.685
 3954SOL    HW112761   3.849   4.709   5.678
 3954SOL    HW212762   3.739   4.589   5.686
 3955SOL     OW12763   3.758   0.401   5.415
 3955SOL    HW112764   3.769   0.499   5.397
 3955SOL    HW212765   3.686   0.364   5.357
 3956SOL     OW12766   1.557   0.991   1.880
 3956SOL    HW112767   1.545   0.901   1.922
 3956SOL    HW212768   1.631   1.040   1.927
 3957SOL     OW12769   3.605   0.408   4.393
 3957SOL    HW112770   3.610   0.329   4.453
 3957SOL    HW212771   3.530   0.396   4.328
 3958SOL     OW12772   6.090   1.472   5.342
 3958SOL    HW112773   6.065   1.563   5.375
 3958SOL    HW212774   6.160   1.481   5.271
 3959SOL     OW12775   4.800   5.117   0.537
 3959SOL    HW112776   4.715   5.082   0.576
 3959SOL    HW212777   4.789   5.131   0.439
 3960SOL     OW12778   5.572   2.204   4.434
 3960SOL    HW112779   5.566   2.202   4.334
 3960SOL    HW212780   5.482   2.228   4.472
 3961SOL     OW12781   5.572   6.524   3.688
 3961SOL    HW112782   5.656   6.474   3.707
 3961SOL    HW212783   5.499   6.489   3.746
 3962SOL     OW12784   0.378   5.090   5.303
 3962SOL    HW112785   0.304   5.127   5.247
 3962SOL    HW212786   0.439   5.035   5.246
 3963SOL     OW12787   4.651   6.686   1.727
 3963SOL    HW112788   4.556   6.672   1.700
 3963SOL    HW212789   4.669   6.784   1.735
 3964SOL     OW12790   4.874   3.609   3.479
 3964SOL    HW112791   4.822   3.692   3.499
 3964SOL    HW212792   4.955   3.632   3.424
 3965SOL     OW12793   4.832   3.914   4.682
 3965SOL    HW112794   4.832   3.963   4.595
 3965SOL    HW212795   4.877   3.826   4.672
 3966SOL     OW12796   2.868   6.122   6.662
 3966SOL    HW112797   2.819   6.178   6.729
 3966SOL    HW212798   2.957   6.095   6.699
 3967SOL     OW12799   2.368   4.964   3.100
 3967SOL    HW112800   2.384   5.062   3.089
 3967SOL    HW212801   2.448   4.914   3.069
 3968SOL     OW12802   4.349   0.402   0.647
 3968SOL    HW112803   4.369   0.473   0.715
 3968SOL    HW212804   4.289   0.333   0.689
 3969SOL     OW12805   1.933   5.856   1.996
 3969SOL    HW112806   1.839   5.888   2.005
 3969SOL    HW212807   1.935   5.778   1.933
 3970SOL     OW12808   5.401   6.344   2.484
 3970SOL    HW112809   5.486   6.337   2.432
 3970SOL    HW212810   5.325   6.365   2.422
 3971SOL     OW12811   2.796   5.669   4.022
 3971SOL    HW112812   2.739   5.597   3.983
 3971SOL    HW212813   2.860   5.703   3.953
 3972SOL     OW12814   1.979   4.029   0.359
 3972SOL    HW112815   1.950   4.076   0.442
 3972SOL    HW212816   1.954   4.083   0.279
 3973SOL     OW12817   1.053   5.734   0.426
 3973SOL    HW112818   1.147   5.739   0.392
 3973SOL    HW212819   1.023   5.638   0.427
 3974SOL     OW12820   2.190   0.629   5.629
 3974SOL    HW112821   2.189   0.651   5.531
 3974SOL    HW212822   2.283   0.604   5.656
 3975SOL     OW12823   5.040   2.028   6.162
 3975SOL    HW112824   5.110   2.087   6.121
 3975SOL    HW212825   4.970   2.084   6.207
 3976SOL     OW12826   1.953   5.856   2.347
 3976SOL    HW112827   1.914   5.875   2.256
 3976SOL    HW212828   2.052   5.862   2.342
 3977SOL     OW12829   0.478   3.377   6.828
 3977SOL    HW112830   0.556   3.379   6.765
 3977SOL    HW212831   0.416   3.453   6.808
 3978SOL     OW12832   6.884   4.393   3.907
 3978SOL    HW112833   6.916   4.328   3.838
 3978SOL    HW212834   6.872   4.483   3.866
 3979SOL     OW12835   3.427   0.227   6.394
 3979SOL    HW112836   3.457   0.146   6.445
 3979SOL    HW212837   3.364   0.280   6.450
 3980SOL     OW12838   5.731   6.506   6.046
 3980SOL    HW112839   5.644   6.463   6.021
 3980SOL    HW212840   5.807   6.454   6.004
 3981SOL     OW12841   4.927   6.783   0.371
 3981SOL    HW112842   4.959   6.690   0.350
 3981SOL    HW212843   4.988   6.849   0.328
 3982SOL     OW12844   2.687   6.616   2.789
 3982SOL    HW112845   2.701   6.595   2.886
 3982SOL    HW212846   2.765   6.582   2.736
 3983SOL     OW12847   4.276   5.779   3.886
 3983SOL    HW112848   4.252   5.845   3.815
 3983SOL    HW212849   4.212   5.786   3.962
 3984SOL     OW12850   6.466   2.249   2.772
 3984SOL    HW112851   6.375   2.207   2.766
 3984SOL    HW212852   6.458   2.342   2.808
 3985SOL     OW12853   3.552   5.457   6.150
 3985SOL    HW112854   3.470   5.454   6.092
 3985SOL    HW212855   3.525   5.443   6.245
 3986SOL     OW12856   5.420   1.129   1.936
 3986SOL    HW112857   5.488   1.074   1.888
 3986SOL    HW212858   5.433   1.122   2.035
 3987SOL     OW12859   3.060   4.898   5.552
 3987SOL    HW112860   3.073   4.838   5.473
 3987SOL    HW212861   2.975   4.950   5.540
 3988SOL     OW12862   4.465   5.247   0.255
 3988SOL    HW112863   4.456   5.309   0.177
 3988SOL    HW212864   4.381   5.249   0.309
 3989SOL     OW12865   6.380   2.080   6.886
 3989SOL    HW112866   6.366   2.104   6.790
 3989SOL    HW212867   6.297   2.036   6.921
 3990SOL     OW12868   5.392   2.468   1.942
 3990SOL    HW112869   5.308   2.519   1.957
 3990SOL    HW212870   5.471   2.528   1.958
 3991SOL     OW12871   0.092   0.803   3.248
 3991SOL    HW112872   0.135   0.736   3.309
 3991SOL    HW212873   0.153   0.822   3.171
 3992SOL     OW12874   3.074   2.488   1.218
 3992SOL    HW112875   3.140   2.532   1.278
 3992SOL    HW212876   2.997   2.453   1.272
 3993SOL     OW12877   1.713   3.404   1.591
 3993SOL    HW112878   1.675   3.376   1.679
 3993SOL    HW212879   1.663   3.483   1.556
 3994SOL     OW12880   2.908   7.004   5.368
 3994SOL    HW112881   2.919   0.019   5.277
 3994SOL    HW212882   2.988   7.025   5.424
 3995SOL     OW12883   1.333   2.879   4.966
 3995SOL    HW112884   1.418   2.861   5.016
 3995SOL    HW212885   1.354   2.917   4.876
 3996SOL     OW12886   0.141   6.482   4.733
 3996SOL    HW112887   0.223   6.433   4.703
 3996SOL    HW212888   0.168   6.560   4.789
 3997SOL     OW12889   5.824   0.496   4.663
 3997SOL    HW112890   5.831   0.451   4.573
 3997SOL    HW212891   5.863   0.588   4.657
 3998SOL     OW12892   4.526   2.264   3.679
 3998SOL    HW112893   4.514   2.203   3.758
 3998SOL    HW212894   4.622   2.292   3.673
 3999SOL     OW12895   6.041   2.047   5.079
 3999SOL    HW112896   5.991   1.964   5.055
 3999SOL    HW212897   6.081   2.087   4.996
 4000SOL     OW12898   3.719   0.156   3.593
 4000SOL    HW112899   3.701   0.213   3.673
 4000SOL    HW212900   3.741   0.215   3.515
 4001SOL     OW12901   0.777   2.413   3.255
 4001SOL    HW112902   0.782   2.319   3.288
 4001SOL    HW212903   0.844   2.469   3.304
 4002SOL     OW12904   2.022   3.695   1.911
 4002SOL    HW112905   1.939   3.657   1.872
 4002SOL    HW212906   2.076   3.621   1.953
 4003SOL     OW12907   3.446   0.949   4.826
 4003SOL    HW112908   3.453   0.968   4.924
 4003SOL    HW212909   3.451   1.035   4.775
 4004SOL     OW12910   6.633   1.525   5.248
 4004SOL    HW112911   6.621   1.565   5.158
 4004SOL    HW212912   6.592   1.584   5.317
 4005SOL     OW12913   5.231   5.169   5.905
 4005SOL    HW112914   5.302   5.190   5.971
 4005SOL    HW212915   5.167   5.246   5.898
 4006SOL     OW12916   3.587   5.917   2.276
 4006SOL    HW112917   3.646   5.868   2.341
 4006SOL    HW212918   3.524   5.976   2.327
 4007SOL     OW12919   6.734   2.364   6.756
 4007SOL    HW112920   6.771   2.328   6.842
 4007SOL    HW212921   6.809   2.383   6.693
 4008SOL     OW12922   2.786   2.336   5.370
 4008SOL    HW112923   2.748   2.428   5.380
 4008SOL    HW212924   2.714   2.268   5.382
 4009SOL     OW12925   4.105   3.403   2.698
 4009SOL    HW112926   4.136   3.487   2.741
 4009SOL    HW212927   4.072   3.339   2.767
 4010SOL     OW12928   2.045   3.169   6.273
 4010SOL    HW112929   2.049   3.205   6.366
 4010SOL    HW212930   2.089   3.079   6.270
 4011SOL     OW12931   0.734   2.266   1.302
 4011SOL    HW112932   0.804   2.329   1.337
 4011SOL    HW212933   0.700   2.300   1.214
 4012SOL     OW12934   6.527   3.438   3.624
 4012SOL    HW112935   6.515   3.372   3.550
 4012SOL    HW212936   6.561   3.392   3.706
 4013SOL     OW12937   4.724   2.386   3.351
 4013SOL    HW112938   4.629   2.360   3.370
 4013SOL    HW212939   4.734   2.485   3.362
 4014SOL     OW12940   5.538   5.901   2.717
 4014SOL    HW112941   5.530   5.870   2.812
 4014SOL    HW212942   5.620   5.957   2.707
 4015SOL     OW12943   4.622   3.593   6.777
 4015SOL    HW112944   4.654   3.604   6.871
 4015SOL    HW212945   4.614   3.683   6.734
 4016SOL     OW12946   3.180   6.682   5.194
 4016SOL    HW112947   3.278   6.663   5.183
 4016SOL    HW212948   3.145   6.628   5.271
 4017SOL     OW12949   6.467   6.082   6.783
 4017SOL    HW112950   6.405   6.011   6.815
 4017SOL    HW212951   6.466   6.085   6.683
 4018SOL     OW12952   2.616   6.008   0.866
 4018SOL    HW112953   2.599   6.082   0.801
 4018SOL    HW212954   2.538   5.999   0.927
 4019SOL     OW12955   5.575   5.015   3.499
 4019SOL    HW112956   5.482   5.025   3.534
 4019SOL    HW212957   5.589   5.078   3.423
 4020SOL     OW12958   5.294   2.305   4.997
 4020SOL    HW112959   5.387   2.283   4.967
 4020SOL    HW212960   5.296   2.388   5.052
 4021SOL     OW12961   3.847   4.583   6.438
 4021SOL    HW112962   3.899   4.634   6.507
 4021SOL    HW212963   3.751   4.611   6.442
 4022SOL     OW12964   5.238   0.255   1.303
 4022SOL    HW112965   5.280   0.317   1.368
 4022SOL    HW212966   5.191   0.181   1.352
 4023SOL     OW12967   6.953   0.519   5.510
 4023SOL    HW112968   6.904   0.526   5.424
 4023SOL    HW212969   6.993   0.427   5.518
 4024SOL     OW12970   3.838   4.930   4.435
 4024SOL    HW112971   3.801   4.910   4.525
 4024SOL    HW212972   3.938   4.926   4.438
 4025SOL     OW12973   1.674   4.233   2.787
 4025SOL    HW112974   1.717   4.143   2.781
 4025SOL    HW212975   1.720   4.287   2.858
 4026SOL     OW12976   5.122   6.488   4.332
 4026SOL    HW112977   5.082   6.428   4.400
 4026SOL    HW212978   5.204   6.532   4.370
 4027SOL     OW12979   4.403   5.411   1.491
 4027SOL    HW112980   4.469   5.343   1.523
 4027SOL    HW212981   4.401   5.411   1.391
 4028SOL     OW12982   2.759   0.008   4.114
 4028SOL    HW112983   2.731   6.955   4.169
 4028SOL    HW212984   2.722   7.023   4.021
 4029SOL     OW12985   2.228   4.068   3.944
 4029SOL    HW112986   2.234   4.032   4.038
 4029SOL    HW212987   2.280   4.153   3.938
 4030SOL     OW12988   1.198   1.272   6.000
 4030SOL    HW112989   1.148   1.188   5.981
 4030SOL    HW212990   1.160   1.346   5.944
 4031SOL     OW12991   4.987   5.422   4.533
 4031SOL    HW112992   5.022   5.509   4.569
 4031SOL    HW212993   4.978   5.429   4.434
 4032SOL     OW12994   5.039   0.229   4.526
 4032SOL    HW112995   5.076   0.137   4.540
 4032SOL    HW212996   4.965   0.226   4.459
 4033SOL     OW12997   3.127   3.531   5.212
 4033SOL    HW112998   3.204   3.535   5.148
 4033SOL    HW212999   3.079   3.444   5.202
 4034SOL     OW13000   6.702   2.497   4.005
 4034SOL    HW113001   6.735   2.590   4.019
 4034SOL    HW213002   6.738   2.438   4.078
 4035SOL     OW13003   0.334   5.526   1.020
 4035SOL    HW113004   0.388   5.495   1.098
 4035SOL    HW213005   0.374   5.489   0.936
 4036SOL     OW13006   6.389   6.151   3.115
 4036SOL    HW113007   6.443   6.157   3.199
 4036SOL    HW213008   6.410   6.230   3.057
 4037SOL     OW13009   6.708   4.504   6.125
 4037SOL    HW113010   6.775   4.431   6.114
 4037SOL    HW213011   6.647   4.483   6.201
 4038SOL     OW13012   6.457   5.150   4.035
 4038SOL    HW113013   6.391   5.185   3.969
 4038SOL    HW213014   6.545   5.136   3.989
 4039SOL     OW13015   4.481   5.655   0.547
 4039SOL    HW113016   4.580   5.656   0.533
 4039SOL    HW213017   4.461   5.636   0.643
 4040SOL     OW13018   3.765   6.344   1.023
 4040SOL    HW113019   3.702   6.300   0.959
 4040SOL    HW213020   3.836   6.393   0.972
 4041SOL     OW13021   1.131   0.026   3.599
 4041SOL    HW113022   1.145   6.982   3.529
 4041SOL    HW213023   1.131   0.117   3.557
 4042SOL     OW13024   6.079   5.313   2.393
 4042SOL    HW113025   6.092   5.270   2.483
 4042SOL    HW213026   5.999   5.373   2.397
 4043SOL     OW13027   5.992   3.605   1.979
 4043SOL    HW113028   5.909   3.591   2.032
 4043SOL    HW213029   6.045   3.520   1.977
 4044SOL     OW13030   6.994   5.772   3.422
 4044SOL    HW113031   0.053   5.819   3.396
 4044SOL    HW213032   6.918   5.807   3.366
 4045SOL     OW13033   1.886   4.724   5.397
 4045SOL    HW113034   1.962   4.666   5.427
 4045SOL    HW213035   1.848   4.688   5.312
 4046SOL     OW13036   0.283   2.965   1.007
 4046SOL    HW113037   0.189   2.997   1.000
 4046SOL    HW213038   0.334   3.025   1.068
 4047SOL     OW13039   3.134   4.104   1.825
 4047SOL    HW113040   3.233   4.118   1.834
 4047SOL    HW213041   3.116   4.031   1.760
 4048SOL     OW13042   4.648   2.169   1.330
 4048SOL    HW113043   4.663   2.267   1.343
 4048SOL    HW213044   4.619   2.151   1.236
 4049SOL     OW13045   6.765   0.769   5.675
 4049SOL    HW113046   6.830   0.697   5.701
 4049SOL    HW213047   6.803   0.858   5.700
 4050SOL     OW13048   2.277   0.255   1.613
 4050SOL    HW113049   2.258   0.203   1.530
 4050SOL    HW213050   2.300   0.192   1.688
 4051SOL     OW13051   1.945   4.453   1.033
 4051SOL    HW113052   1.893   4.368   1.044
 4051SOL    HW213053   1.885   4.524   0.999
 4052SOL     OW13054   1.692   6.274   1.573
 4052SOL    HW113055   1.689   6.213   1.652
 4052SOL    HW213056   1.600   6.304   1.550
 4053SOL     OW13057   2.850   4.871   3.271
 4053SOL    HW113058   2.762   4.877   3.223
 4053SOL    HW213059   2.864   4.954   3.325
 4054SOL     OW13060   5.283   1.988   6.968
 4054SOL    HW113061   5.376   1.955   6.958
 4054SOL    HW213062   5.244   1.954   0.028
 4055SOL     OW13063   4.433   2.969   0.414
 4055SOL    HW113064   4.484   2.982   0.328
 4055SOL    HW213065   4.481   3.015   0.488
 4056SOL     OW13066   3.829   3.215   1.115
 4056SOL    HW113067   3.808   3.313   1.124
 4056SOL    HW213068   3.769   3.175   1.046
 4057SOL     OW13069   6.316   2.420   0.085
 4057SOL    HW113070   6.320   2.520   0.079
 4057SOL    HW213071   6.311   2.392   0.181
 4058SOL     OW13072   1.519   1.026   4.918
 4058SOL    HW113073   1.451   0.998   4.850
 4058SOL    HW213074   1.495   0.986   5.006
 4059SOL     OW13075   6.149   1.683   5.018
 4059SOL    HW113076   6.219   1.723   4.959
 4059SOL    HW213077   6.066   1.737   5.012
 4060SOL     OW13078   3.626   5.976   5.045
 4060SOL    HW113079   3.559   5.903   5.060
 4060SOL    HW213080   3.708   5.938   5.004
 4061SOL     OW13081   2.515   3.065   1.695
 4061SOL    HW113082   2.510   3.044   1.597
 4061SOL    HW213083   2.462   3.148   1.713
 4062SOL     OW13084   3.902   6.211   3.086
 4062SOL    HW113085   3.837   6.142   3.118
 4062SOL    HW213086   3.854   6.297   3.072
 4063SOL     OW13087   2.617   5.350   6.150
 4063SOL    HW113088   2.529   5.307   6.132
 4063SOL    HW213089   2.683   5.280   6.179
 4064SOL     OW13090   6.261   0.149   4.349
 4064SOL    HW113091   6.282   0.245   4.331
 4064SOL    HW213092   6.166   0.130   4.324
 4065SOL     OW13093   6.348   4.911   0.273
 4065SOL    HW113094   6.382   4.957   0.355
 4065SOL    HW213095   6.388   4.820   0.267
 4066SOL     OW13096   6.456   5.140   2.057
 4066SOL    HW113097   6.382   5.074   2.043
 4066SOL    HW213098   6.417   5.231   2.071
 4067SOL     OW13099   6.161   0.768   1.283
 4067SOL    HW113100   6.090   0.709   1.245
 4067SOL    HW213101   6.164   0.854   1.233
 4068SOL     OW13102   5.828   1.048   4.593
 4068SOL    HW113103   5.801   1.046   4.689
 4068SOL    HW213104   5.759   1.099   4.540
 4069SOL     OW13105   6.337   5.817   1.526
 4069SOL    HW113106   6.402   5.777   1.462
 4069SOL    HW213107   6.380   5.827   1.616
 4070SOL     OW13108   0.196   3.769   3.004
 4070SOL    HW113109   0.291   3.779   2.976
 4070SOL    HW213110   0.186   3.685   3.058
 4071SOL     OW13111   2.428   0.635   3.476
 4071SOL    HW113112   2.522   0.610   3.501
 4071SOL    HW213113   2.364   0.588   3.536
 4072SOL     OW13114   0.834   0.205   4.294
 4072SOL    HW113115   0.799   0.260   4.218
 4072SOL    HW213116   0.917   0.158   4.266
 4073SOL     OW13117   3.181   5.424   1.444
 4073SOL    HW113118   3.171   5.325   1.431
 4073SOL    HW213119   3.269   5.454   1.406
 4074SOL     OW13120   0.376   3.119   0.762
 4074SOL    HW113121   0.361   3.060   0.683
 4074SOL    HW213122   0.354   3.069   0.846
 4075SOL     OW13123   4.963   0.529   3.755
 4075SOL    HW113124   5.015   0.459   3.707
 4075SOL    HW213125   4.873   0.492   3.779
 4076SOL     OW13126   1.476   2.626   3.219
 4076SOL    HW113127   1.521   2.645   3.133
 4076SOL    HW213128   1.529   2.666   3.295
 4077SOL     OW13129   3.058   1.222   1.040
 4077SOL    HW113130   3.114   1.249   0.962
 4077SOL    HW213131   3.092   1.267   1.122
 4078SOL     OW13132   5.123   3.919   2.514
 4078SOL    HW113133   5.043   3.980   2.509
 4078SOL    HW213134   5.194   3.953   2.452
 4079SOL     OW13135   6.322   0.430   4.308
 4079SOL    HW113136   6.379   0.464   4.232
 4079SOL    HW213137   6.260   0.503   4.337
 4080SOL     OW13138   3.792   2.926   2.851
 4080SOL    HW113139   3.799   2.851   2.785
 4080SOL    HW213140   3.719   2.989   2.823
 4081SOL     OW13141   2.554   2.653   6.514
 4081SOL    HW113142   2.520   2.573   6.564
 4081SOL    HW213143   2.533   2.643   6.417
 4082SOL     OW13144   1.447   2.452   5.708
 4082SOL    HW113145   1.445   2.365   5.757
 4082SOL    HW213146   1.530   2.501   5.731
 4083SOL     OW13147   6.100   5.375   3.060
 4083SOL    HW113148   6.055   5.416   3.139
 4083SOL    HW213149   6.104   5.276   3.071
 4084SOL     OW13150   4.529   0.746   2.123
 4084SOL    HW113151   4.523   0.656   2.166
 4084SOL    HW213152   4.438   0.773   2.091
 4085SOL     OW13153   2.776   4.736   2.567
 4085SOL    HW113154   2.740   4.673   2.498
 4085SOL    HW213155   2.867   4.768   2.538
 4086SOL     OW13156   6.356   4.872   4.588
 4086SOL    HW113157   6.351   4.834   4.495
 4086SOL    HW213158   6.385   4.967   4.583
 4087SOL     OW13159   1.871   0.352   1.881
 4087SOL    HW113160   1.855   0.353   1.979
 4087SOL    HW213161   1.943   0.287   1.859
 4088SOL     OW13162   0.253   2.177   5.528
 4088SOL    HW113163   0.317   2.122   5.474
 4088SOL    HW213164   0.171   2.195   5.475
 4089SOL     OW13165   1.057   1.011   2.641
 4089SOL    HW113166   1.058   0.912   2.651
 4089SOL    HW213167   0.972   1.040   2.597
 4090SOL     OW13168   2.558   2.830   5.636
 4090SOL    HW113169   2.550   2.850   5.538
 4090SOL    HW213170   2.528   2.736   5.653
 4091SOL     OW13171   3.213   5.924   2.001
 4091SOL    HW113172   3.162   5.975   1.932
 4091SOL    HW213173   3.229   5.831   1.968
 4092SOL     OW13174   4.935   2.287   5.708
 4092SOL    HW113175   4.964   2.336   5.790
 4092SOL    HW213176   4.975   2.330   5.627
 4093SOL     OW13177   5.435   4.279   3.523
 4093SOL    HW113178   5.514   4.340   3.527
 4093SOL    HW213179   5.448   4.212   3.449
 4094SOL     OW13180   0.398   6.400   0.220
 4094SOL    HW113181   0.475   6.373   0.162
 4094SOL    HW213182   0.370   6.323   0.277
 4095SOL     OW13183   1.520   5.194   0.639
 4095SOL    HW113184   1.527   5.264   0.569
 4095SOL    HW213185   1.432   5.148   0.632
 4096SOL     OW13186   0.579   0.459   6.287
 4096SOL    HW113187   0.659   0.438   6.230
 4096SOL    HW213188   0.523   0.528   6.240
 4097SOL     OW13189   6.885   3.875   4.883
 4097SOL    HW113190   6.893   3.934   4.803
 4097SOL    HW213191   6.971   3.825   4.896
 4098SOL     OW13192   0.745   5.153   1.469
 4098SOL    HW113193   0.687   5.077   1.500
 4098SOL    HW213194   0.709   5.239   1.505
 4099SOL     OW13195   6.267   3.879   5.687
 4099SOL    HW113196   6.263   3.978   5.702
 4099SOL    HW213197   6.187   3.836   5.730
 4100SOL     OW13198   1.857   2.021   2.870
 4100SOL    HW113199   1.907   1.937   2.891
 4100SOL    HW213200   1.910   2.077   2.806
 4101SOL     OW13201   6.543   5.672   0.021
 4101SOL    HW113202   6.527   5.763   0.059
 4101SOL    HW213203   6.640   5.651   0.024
 4102SOL     OW13204   1.155   6.055   0.345
 4102SOL    HW113205   1.100   5.972   0.334
 4102SOL    HW213206   1.165   6.100   0.257
 4103SOL     OW13207   2.082   6.149   3.289
 4103SOL    HW113208   2.084   6.153   3.389
 4103SOL    HW213209   2.167   6.186   3.252
 4104SOL     OW13210   1.862   6.051   5.152
 4104SOL    HW113211   1.947   6.034   5.102
 4104SOL    HW213212   1.789   6.073   5.086
 4105SOL     OW13213   4.496   0.315   2.301
 4105SOL    HW113214   4.533   0.299   2.392
 4105SOL    HW213215   4.452   0.405   2.298
 4106SOL     OW13216   1.255   0.457   2.188
 4106SOL    HW113217   1.294   0.394   2.122
 4106SOL    HW213218   1.197   0.406   2.252
 4107SOL     OW13219   1.496   0.823   1.085
 4107SOL    HW113220   1.581   0.821   1.033
 4107SOL    HW213221   1.441   0.742   1.062
 4108SOL     OW13222   6.209   6.278   5.892
 4108SOL    HW113223   6.255   6.193   5.869
 4108SOL    HW213224   6.277   6.349   5.911
 4109SOL     OW13225   5.263   6.141   4.172
 4109SOL    HW113226   5.215   6.112   4.255
 4109SOL    HW213227   5.243   6.077   4.098
 4110SOL     OW13228   5.222   2.904   0.448
 4110SOL    HW113229   5.180   2.813   0.454
 4110SOL    HW213230   5.175   2.967   0.509
 4111SOL     OW13231   5.873   5.202   4.294
 4111SOL    HW113232   5.832   5.275   4.239
 4111SOL    HW213233   5.934   5.242   4.362
 4112SOL     OW13234   4.025   6.226   4.375
 4112SOL    HW113235   3.960   6.196   4.304
 4112SOL    HW213236   3.974   6.270   4.449
 4113SOL     OW13237   4.086   5.673   4.702
 4113SOL    HW113238   4.013   5.623   4.750
 4113SOL    HW213239   4.107   5.626   4.616
 4114SOL     OW13240   0.237   0.888   1.647
 4114SOL    HW113241   0.250   0.974   1.598
 4114SOL    HW213242   0.314   0.875   1.710
 4115SOL     OW13243   4.617   5.737   3.790
 4115SOL    HW113244   4.543   5.682   3.752
 4115SOL    HW213245   4.595   5.763   3.884
 4116SOL     OW13246   5.261   3.462   3.210
 4116SOL    HW113247   5.289   3.366   3.218
 4116SOL    HW213248   5.333   3.514   3.164
 4117SOL     OW13249   1.325   0.796   3.533
 4117SOL    HW113250   1.260   0.823   3.462
 4117SOL    HW213251   1.391   0.869   3.549
 4118SOL     OW13252   0.773   6.678   0.407
 4118SOL    HW113253   0.742   6.733   0.485
 4118SOL    HW213254   0.735   6.585   0.414
 4119SOL     OW13255   0.237   0.646   4.520
 4119SOL    HW113256   0.212   0.723   4.578
 4119SOL    HW213257   0.188   0.564   4.549
 4120SOL     OW13258   2.294   0.644   6.433
 4120SOL    HW113259   2.300   0.615   6.338
 4120SOL    HW213260   2.257   0.568   6.488
 4121SOL     OW13261   6.901   0.681   2.291
 4121SOL    HW113262   6.982   0.727   2.329
 4121SOL    HW213263   6.910   0.582   2.303
 4122SOL     OW13264   0.579   4.897   3.006
 4122SOL    HW113265   0.529   4.812   2.998
 4122SOL    HW213266   0.601   4.915   3.102
 4123SOL     OW13267   5.021   4.294   1.000
 4123SOL    HW113268   4.943   4.353   1.021
 4123SOL    HW213269   5.013   4.209   1.052
 4124SOL     OW13270   6.428   6.349   0.033
 4124SOL    HW113271   6.399   6.255   0.051
 4124SOL    HW213272   6.378   6.411   0.092
 4125SOL     OW13273   6.495   2.719   0.232
 4125SOL    HW113274   6.492   2.812   0.268
 4125SOL    HW213275   6.471   2.720   0.135
 4126SOL     OW13276   0.591   3.564   3.898
 4126SOL    HW113277   0.571   3.492   3.965
 4126SOL    HW213278   0.671   3.616   3.927
 4127SOL     OW13279   5.034   2.290   3.954
 4127SOL    HW113280   5.035   2.190   3.967
 4127SOL    HW213281   4.962   2.330   4.010
 4128SOL     OW13282   6.824   2.732   6.576
 4128SOL    HW113283   6.790   2.686   6.659
 4128SOL    HW213284   6.752   2.792   6.540
 4129SOL     OW13285   3.408   1.905   1.341
 4129SOL    HW113286   3.435   1.834   1.405
 4129SOL    HW213287   3.342   1.868   1.275
 4130SOL     OW13288   6.461   2.983   0.268
 4130SOL    HW113289   6.401   3.019   0.197
 4130SOL    HW213290   6.520   3.055   0.302
 4131SOL     OW13291   5.466   0.202   3.242
 4131SOL    HW113292   5.440   0.141   3.316
 4131SOL    HW213293   5.405   0.281   3.240
 4132SOL     OW13294   6.687   4.988   3.252
 4132SOL    HW113295   6.762   5.033   3.203
 4132SOL    HW213296   6.723   4.913   3.308
 4133SOL     OW13297   5.532   6.871   2.829
 4133SOL    HW113298   5.575   6.911   2.910
 4133SOL    HW213299   5.601   6.819   2.777
 4134SOL     OW13300   1.613   3.515   1.321
 4134SOL    HW113301   1.602   3.613   1.304
 4134SOL    HW213302   1.706   3.487   1.295
 4135SOL     OW13303   6.054   1.122   1.353
 4135SOL    HW113304   6.116   1.075   1.290
 4135SOL    HW213305   5.960   1.101   1.329
 4136SOL     OW13306   0.333   4.381   0.908
 4136SOL    HW113307   0.337   4.288   0.870
 4136SOL    HW213308   0.425   4.411   0.932
 4137SOL     OW13309   0.862   2.610   6.621
 4137SOL    HW113310   0.783   2.577   6.673
 4137SOL    HW213311   0.847   2.594   6.523
 4138SOL     OW13312   4.097   6.985   6.649
 4138SOL    HW113313   4.191   6.951   6.659
 4138SOL    HW213314   4.099   0.057   6.627
 4139SOL     OW13315   2.102   3.917   2.780
 4139SOL    HW113316   2.122   3.949   2.687
 4139SOL    HW213317   2.078   3.820   2.777
 4140SOL     OW13318   2.290   0.426   6.893
 4140SOL    HW113319   2.242   0.459   6.974
 4140SOL    HW213320   2.389   0.433   6.907
 4141SOL     OW13321   5.136   0.812   6.333
 4141SOL    HW113322   5.113   0.909   6.320
 4141SOL    HW213323   5.195   0.782   6.258
 4142SOL     OW13324   6.487   5.055   2.369
 4142SOL    HW113325   6.567   4.999   2.391
 4142SOL    HW213326   6.483   5.069   2.270
 4143SOL     OW13327   6.427   3.784   6.332
 4143SOL    HW113328   6.378   3.786   6.245
 4143SOL    HW213329   6.474   3.696   6.342
 4144SOL     OW13330   4.785   1.628   1.474
 4144SOL    HW113331   4.764   1.555   1.540
 4144SOL    HW213332   4.788   1.591   1.382
 4145SOL     OW13333   6.633   0.087   1.475
 4145SOL    HW113334   6.611   7.015   1.474
 4145SOL    HW213335   6.730   0.099   1.454
 4146SOL     OW13336   4.922   0.212   1.236
 4146SOL    HW113337   4.876   0.194   1.149
 4146SOL    HW213338   4.891   0.299   1.273
 4147SOL     OW13339   4.869   4.956   6.808
 4147SOL    HW113340   4.774   4.930   6.793
 4147SOL    HW213341   4.887   4.963   6.906
 4148SOL     OW13342   2.684   1.302   5.275
 4148SOL    HW113343   2.636   1.224   5.315
 4148SOL    HW213344   2.701   1.370   5.346
 4149SOL     OW13345   1.216   3.755   6.890
 4149SOL    HW113346   1.277   3.812   6.835
 4149SOL    HW213347   1.147   3.715   6.830
 4150SOL     OW13348   5.638   1.596   0.340
 4150SOL    HW113349   5.617   1.509   0.296
 4150SOL    HW213350   5.734   1.620   0.323
 4151SOL     OW13351   2.679   5.711   4.850
 4151SOL    HW113352   2.597   5.662   4.820
 4151SOL    HW213353   2.669   5.808   4.829
 4152SOL     OW13354   2.750   4.520   1.395
 4152SOL    HW113355   2.751   4.585   1.319
 4152SOL    HW213356   2.823   4.542   1.459
 4153SOL     OW13357   6.691   5.878   2.101
 4153SOL    HW113358   6.630   5.926   2.038
 4153SOL    HW213359   6.785   5.887   2.069
 4154SOL     OW13360   1.123   6.935   3.931
 4154SOL    HW113361   1.177   7.019   3.938
 4154SOL    HW213362   1.124   6.888   4.019
 4155SOL     OW13363   0.186   0.523   1.899
 4155SOL    HW113364   0.262   0.526   1.965
 4155SOL    HW213365   0.176   0.613   1.857
 4156SOL     OW13366   0.559   5.142   5.955
 4156SOL    HW113367   0.482   5.081   5.937
 4156SOL    HW213368   0.620   5.100   6.022
 4157SOL     OW13369   5.766   5.846   1.130
 4157SOL    HW113370   5.780   5.784   1.207
 4157SOL    HW213371   5.678   5.893   1.139
 4158SOL     OW13372   0.316   3.092   1.258
 4158SOL    HW113373   0.400   3.048   1.292
 4158SOL    HW213374   0.246   3.090   1.329
 4159SOL     OW13375   3.219   0.646   4.382
 4159SOL    HW113376   3.225   0.554   4.420
 4159SOL    HW213377   3.311   0.678   4.356
 4160SOL     OW13378   0.831   6.553   6.295
 4160SOL    HW113379   0.885   6.469   6.300
 4160SOL    HW213380   0.763   6.553   6.369
 4161SOL     OW13381   3.275   3.334   2.790
 4161SOL    HW113382   3.240   3.315   2.698
 4161SOL    HW213383   3.285   3.248   2.840
 4162SOL     OW13384   5.259   5.294   1.690
 4162SOL    HW113385   5.288   5.296   1.786
 4162SOL    HW213386   5.246   5.199   1.661
 4163SOL     OW13387   4.159   6.059   1.916
 4163SOL    HW113388   4.086   6.100   1.861
 4163SOL    HW213389   4.193   5.977   1.870
 4164SOL     OW13390   6.599   1.392   6.054
 4164SOL    HW113391   6.569   1.324   6.122
 4164SOL    HW213392   6.619   1.478   6.099
 4165SOL     OW13393   3.852   1.078   4.748
 4165SOL    HW113394   3.913   1.125   4.684
 4165SOL    HW213395   3.844   0.982   4.723
 4166SOL     OW13396   6.232   2.011   1.270
 4166SOL    HW113397   6.184   2.096   1.293
 4166SOL    HW213398   6.330   2.029   1.264
 4167SOL     OW13399   3.829   5.416   4.653
 4167SOL    HW113400   3.868   5.328   4.682
 4167SOL    HW213401   3.847   5.484   4.724
 4168SOL     OW13402   4.741   3.846   0.306
 4168SOL    HW113403   4.658   3.811   0.351
 4168SOL    HW213404   4.821   3.805   0.348
 4169SOL     OW13405   5.502   2.812   6.154
 4169SOL    HW113406   5.520   2.714   6.165
 4169SOL    HW213407   5.495   2.855   6.244
 4170SOL     OW13408   0.672   2.315   5.018
 4170SOL    HW113409   0.598   2.289   4.957
 4170SOL    HW213410   0.709   2.404   4.990
 4171SOL     OW13411   0.651   1.621   6.727
 4171SOL    HW113412   0.657   1.715   6.761
 4171SOL    HW213413   0.562   1.583   6.753
 4172SOL     OW13414   2.859   3.310   0.605
 4172SOL    HW113415   2.905   3.221   0.613
 4172SOL    HW213416   2.781   3.313   0.668
 4173SOL     OW13417   4.797   1.441   6.018
 4173SOL    HW113418   4.725   1.474   6.080
 4173SOL    HW213419   4.798   1.341   6.019
 4174SOL     OW13420   4.527   0.143   4.351
 4174SOL    HW113421   4.616   0.125   4.310
 4174SOL    HW213422   4.535   0.218   4.417
 4175SOL     OW13423   1.279   4.604   6.281
 4175SOL    HW113424   1.205   4.566   6.225
 4175SOL    HW213425   1.253   4.695   6.312
 4176SOL     OW13426   5.257   6.604   6.334
 4176SOL    HW113427   5.231   6.701   6.330
 4176SOL    HW213428   5.343   6.595   6.384
 4177SOL     OW13429   4.257   4.696   2.982
 4177SOL    HW113430   4.259   4.742   2.894
 4177SOL    HW213431   4.165   4.661   3.000
 4178SOL     OW13432   4.071   6.308   0.853
 4178SOL    HW113433   4.154   6.325   0.799
 4178SOL    HW213434   4.080   6.220   0.899
 4179SOL     OW13435   4.466   2.861   6.861
 4179SOL    HW113436   4.455   2.763   6.848
 4179SOL    HW213437   4.533   2.897   6.796
 4180SOL     OW13438   4.049   3.318   0.316
 4180SOL    HW113439   4.060   3.273   0.228
 4180SOL    HW213440   3.953   3.342   0.330
 4181SOL     OW13441   4.915   0.067   5.792
 4181SOL    HW113442   4.847   0.111   5.851
 4181SOL    HW213443   4.991   0.034   5.848
 4182SOL     OW13444   0.799   6.169   5.100
 4182SOL    HW113445   0.884   6.178   5.050
 4182SOL    HW213446   0.812   6.199   5.195
 4183SOL     OW13447   4.000   1.924   0.890
 4183SOL    HW113448   3.970   1.972   0.973
 4183SOL    HW213449   3.929   1.861   0.860
 4184SOL     OW13450   3.949   5.530   3.604
 4184SOL    HW113451   4.018   5.517   3.533
 4184SOL    HW213452   3.967   5.470   3.681
 4185SOL     OW13453   4.846   3.936   3.350
 4185SOL    HW113454   4.862   4.031   3.323
 4185SOL    HW213455   4.878   3.922   3.444
 4186SOL     OW13456   1.657   5.547   0.352
 4186SOL    HW113457   1.605   5.603   0.417
 4186SOL    HW213458   1.599   5.476   0.314
 4187SOL     OW13459   1.781   3.405   6.205
 4187SOL    HW113460   1.871   3.414   6.247
 4187SOL    HW213461   1.744   3.313   6.222
 4188SOL     OW13462   4.572   6.899   6.902
 4188SOL    HW113463   4.604   6.991   6.879
 4188SOL    HW213464   4.519   6.862   6.826
 4189SOL     OW13465   4.357   5.378   3.737
 4189SOL    HW113466   4.301   5.374   3.654
 4189SOL    HW213467   4.453   5.390   3.711
 4190SOL     OW13468   6.640   6.506   1.380
 4190SOL    HW113469   6.572   6.577   1.360
 4190SOL    HW213470   6.664   6.459   1.294
 4191SOL     OW13471   4.657   3.241   6.492
 4191SOL    HW113472   4.615   3.166   6.441
 4191SOL    HW213473   4.595   3.319   6.494
 4192SOL     OW13474   1.695   3.774   0.209
 4192SOL    HW113475   1.780   3.796   0.162
 4192SOL    HW213476   1.619   3.784   0.145
 4193SOL     OW13477   0.477   0.649   0.384
 4193SOL    HW113478   0.501   0.736   0.341
 4193SOL    HW213479   0.442   0.586   0.315
 4194SOL     OW13480   5.209   1.854   5.933
 4194SOL    HW113481   5.142   1.887   5.867
 4194SOL    HW213482   5.223   1.756   5.921
 4195SOL     OW13483   3.744   0.256   0.863
 4195SOL    HW113484   3.761   0.354   0.880
 4195SOL    HW213485   3.745   0.239   0.765
 4196SOL     OW13486   6.209   2.974   2.327
 4196SOL    HW113487   6.301   2.937   2.313
 4196SOL    HW213488   6.146   2.934   2.260
 4197SOL     OW13489   3.583   0.561   6.746
 4197SOL    HW113490   3.600   0.654   6.778
 4197SOL    HW213491   3.518   0.563   6.670
 4198SOL     OW13492   6.347   2.650   2.642
 4198SOL    HW113493   6.399   2.631   2.559
 4198SOL    HW213494   6.349   2.569   2.701
 4199SOL     OW13495   0.448   3.934   6.188
 4199SOL    HW113496   0.442   3.897   6.095
 4199SOL    HW213497   0.357   3.934   6.230
 4200SOL     OW13498   4.640   1.675   3.894
 4200SOL    HW113499   4.651   1.765   3.937
 4200SOL    HW213500   4.547   1.668   3.857
 4201SOL     OW13501   5.907   7.019   3.669
 4201SOL    HW113502   5.820   7.010   3.621
 4201SOL    HW213503   5.931   0.090   3.678
 4202SOL     OW13504   4.603   3.709   1.407
 4202SOL    HW113505   4.533   3.716   1.478
 4202SOL    HW213506   4.663   3.789   1.412
 4203SOL     OW13507   6.309   4.313   5.250
 4203SOL    HW113508   6.228   4.272   5.209
 4203SOL    HW213509   6.286   4.404   5.287
 4204SOL     OW13510   1.810   4.021   6.626
 4204SOL    HW113511   1.848   4.100   6.673
 4204SOL    HW213512   1.840   3.937   6.672
 4205SOL     OW13513   4.524   6.668   6.465
 4205SOL    HW113514   4.532   6.569   6.478
 4205SOL    HW213515   4.434   6.690   6.427
 4206SOL     OW13516   1.915   2.359   4.247
 4206SOL    HW113517   2.003   2.318   4.226
 4206SOL    HW213518   1.918   2.457   4.227
 4207SOL     OW13519   0.755   1.938   2.391
 4207SOL    HW113520   0.669   1.890   2.374
 4207SOL    HW213521   0.821   1.875   2.431
 4208SOL     OW13522   2.246   2.302   3.655
 4208SOL    HW113523   2.192   2.317   3.572
 4208SOL    HW213524   2.272   2.205   3.661
 4209SOL     OW13525   6.119   6.392   1.996
 4209SOL    HW113526   6.133   6.463   1.926
 4209SOL    HW213527   6.079   6.311   1.953
 4210SOL     OW13528   3.051   3.942   4.921
 4210SOL    HW113529   2.988   3.932   4.999
 4210SOL    HW213530   3.015   3.891   4.843
 4211SOL     OW13531   3.953   2.720   5.281
 4211SOL    HW113532   4.014   2.677   5.215
 4211SOL    HW213533   3.994   2.717   5.372
 4212SOL     OW13534   0.094   1.755   3.407
 4212SOL    HW113535   0.146   1.833   3.443
 4212SOL    HW213536   0.014   1.739   3.464
 4213SOL     OW13537   2.922   0.346   4.249
 4213SOL    HW113538   2.883   0.383   4.165
 4213SOL    HW213539   2.953   0.421   4.308
 4214SOL     OW13540   0.133   6.116   2.967
 4214SOL    HW113541   0.203   6.050   2.938
 4214SOL    HW213542   0.050   6.103   2.913
 4215SOL     OW13543   5.716   0.077   5.855
 4215SOL    HW113544   5.734   0.102   5.759
 4215SOL    HW213545   5.637   0.127   5.888
 4216SOL     OW13546   2.629   5.621   2.279
 4216SOL    HW113547   2.560   5.676   2.327
 4216SOL    HW213548   2.583   5.562   2.213
 4217SOL     OW13549   1.696   0.457   2.625
 4217SOL    HW113550   1.716   0.436   2.721
 4217SOL    HW213551   1.780   0.447   2.571
 4218SOL     OW13552   3.056   1.201   0.403
 4218SOL    HW113553   2.983   1.172   0.341
 4218SOL    HW213554   3.143   1.201   0.355
 4219SOL     OW13555   3.810   5.307   2.775
 4219SOL    HW113556   3.835   5.217   2.738
 4219SOL    HW213557   3.892   5.356   2.804
 4220SOL     OW13558   5.402   1.776   1.208
 4220SOL    HW113559   5.363   1.757   1.298
 4220SOL    HW213560   5.371   1.866   1.177
 4221SOL     OW13561   1.106   6.132   0.629
 4221SOL    HW113562   1.159   6.100   0.550
 4221SOL    HW213563   1.045   6.206   0.600
 4222SOL     OW13564   4.849   3.071   3.711
 4222SOL    HW113565   4.906   3.089   3.791
 4222SOL    HW213566   4.777   3.140   3.706
 4223SOL     OW13567   3.850   3.703   2.430
 4223SOL    HW113568   3.920   3.651   2.381
 4223SOL    HW213569   3.874   3.709   2.527
 4224SOL     OW13570   4.505   5.024   4.411
 4224SOL    HW113571   4.501   4.963   4.490
 4224SOL    HW213572   4.596   5.065   4.404
 4225SOL     OW13573   1.043   1.607   6.142
 4225SOL    HW113574   1.128   1.660   6.151
 4225SOL    HW213575   1.049   1.549   6.061
 4226SOL     OW13576   0.598   5.627   5.071
 4226SOL    HW113577   0.587   5.576   4.986
 4226SOL    HW213578   0.690   5.664   5.076
 4227SOL     OW13579   4.524   6.013   1.514
 4227SOL    HW113580   4.514   5.914   1.520
 4227SOL    HW213581   4.544   6.051   1.604
 4228SOL     OW13582   1.478   5.057   3.867
 4228SOL    HW113583   1.452   5.098   3.955
 4228SOL    HW213584   1.578   5.063   3.856
 4229SOL     OW13585   5.781   5.621   5.591
 4229SOL    HW113586   5.763   5.679   5.670
 4229SOL    HW213587   5.778   5.525   5.618
 4230SOL     OW13588   0.101   0.820   2.087
 4230SOL    HW113589   0.059   0.797   1.999
 4230SOL    HW213590   0.149   0.740   2.122
 4231SOL     OW13591   6.911   1.487   6.621
 4231SOL    HW113592   6.873   1.558   6.562
 4231SOL    HW213593   7.001   1.515   6.654
 4232SOL     OW13594   1.435   5.187   4.106
 4232SOL    HW113595   1.510   5.249   4.129
 4232SOL    HW213596   1.397   5.148   4.190
 4233SOL     OW13597   4.499   5.699   2.024
 4233SOL    HW113598   4.429   5.743   1.967
 4233SOL    HW213599   4.518   5.755   2.104
 4234SOL     OW13600   3.299   5.085   5.971
 4234SOL    HW113601   3.380   5.032   5.944
 4234SOL    HW213602   3.220   5.055   5.917
 4235SOL     OW13603   0.092   5.789   6.055
 4235SOL    HW113604   7.024   5.815   6.082
 4235SOL    HW213605   0.153   5.867   6.067
 4236SOL     OW13606   0.542   4.952   2.729
 4236SOL    HW113607   0.524   4.944   2.827
 4236SOL    HW213608   0.572   4.864   2.694
 4237SOL     OW13609   0.403   4.863   4.266
 4237SOL    HW113610   0.444   4.925   4.332
 4237SOL    HW213611   0.399   4.771   4.305
 4238SOL     OW13612   3.745   6.750   2.451
 4238SOL    HW113613   3.797   6.701   2.381
 4238SOL    HW213614   3.698   6.828   2.408
 4239SOL     OW13615   4.250   1.233   3.966
 4239SOL    HW113616   4.328   1.236   4.029
 4239SOL    HW213617   4.277   1.268   3.877
 4240SOL     OW13618   6.017   6.567   2.220
 4240SOL    HW113619   6.032   6.489   2.158
 4240SOL    HW213620   6.088   6.636   2.203
 4241SOL     OW13621   6.020   3.978   0.402
 4241SOL    HW113622   5.966   3.964   0.484
 4241SOL    HW213623   6.063   3.892   0.375
 4242SOL     OW13624   2.935   1.703   3.663
 4242SOL    HW113625   2.977   1.777   3.610
 4242SOL    HW213626   2.890   1.741   3.743
 4243SOL     OW13627   4.889   0.728   2.805
 4243SOL    HW113628   4.980   0.718   2.764
 4243SOL    HW213629   4.888   0.810   2.862
 4244SOL     OW13630   3.605   2.971   4.085
 4244SOL    HW113631   3.535   2.966   4.014
 4244SOL    HW213632   3.690   3.007   4.046
 4245SOL     OW13633   5.782   1.247   6.767
 4245SOL    HW113634   5.806   1.153   6.745
 4245SOL    HW213635   5.739   1.290   6.687
 4246SOL     OW13636   0.186   3.633   0.289
 4246SOL    HW113637   0.182   3.555   0.351
 4246SOL    HW213638   0.266   3.690   0.311
 4247SOL     OW13639   0.201   5.678   4.679
 4247SOL    HW113640   0.278   5.736   4.705
 4247SOL    HW213641   0.236   5.592   4.642
 4248SOL     OW13642   1.982   3.627   5.465
 4248SOL    HW113643   1.902   3.682   5.441
 4248SOL    HW213644   2.012   3.575   5.386
 4249SOL     OW13645   5.376   4.129   5.992
 4249SOL    HW113646   5.446   4.131   5.921
 4249SOL    HW213647   5.286   4.147   5.952
 4250SOL     OW13648   0.781   4.638   2.911
 4250SOL    HW113649   0.842   4.658   2.835
 4250SOL    HW213650   0.834   4.603   2.989
 4251SOL     OW13651   5.360   3.714   0.539
 4251SOL    HW113652   5.346   3.770   0.457
 4251SOL    HW213653   5.330   3.765   0.620
 4252SOL     OW13654   0.486   6.129   5.329
 4252SOL    HW113655   0.425   6.150   5.252
 4252SOL    HW213656   0.476   6.033   5.353
 4253SOL     OW13657   4.309   6.146   3.010
 4253SOL    HW113658   4.217   6.130   2.976
 4253SOL    HW213659   4.357   6.209   2.949
 4254SOL     OW13660   2.952   4.285   1.432
 4254SOL    HW113661   2.997   4.302   1.519
 4254SOL    HW213662   2.891   4.361   1.410
 4255SOL     OW13663   0.328   2.038   4.305
 4255SOL    HW113664   0.388   2.025   4.383
 4255SOL    HW213665   0.235   2.010   4.329
 4256SOL     OW13666   1.903   0.519   1.665
 4256SOL    HW113667   1.905   0.447   1.735
 4256SOL    HW213668   1.883   0.607   1.708
 4257SOL     OW13669   3.909   2.120   4.758
 4257SOL    HW113670   3.940   2.150   4.848
 4257SOL    HW213671   3.947   2.180   4.688
 4258SOL     OW13672   5.051   6.799   2.602
 4258SOL    HW113673   4.992   6.801   2.521
 4258SOL    HW213674   5.053   6.890   2.643
 4259SOL     OW13675   2.013   2.778   0.719
 4259SOL    HW113676   1.927   2.734   0.693
 4259SOL    HW213677   2.088   2.712   0.716
 4260SOL     OW13678   4.615   5.762   3.403
 4260SOL    HW113679   4.701   5.809   3.382
 4260SOL    HW213680   4.580   5.717   3.321
 4261SOL     OW13681   2.192   1.075   2.836
 4261SOL    HW113682   2.257   1.143   2.802
 4261SOL    HW213683   2.133   1.045   2.761
 4262SOL     OW13684   6.850   5.863   6.493
 4262SOL    HW113685   6.800   5.922   6.556
 4262SOL    HW213686   6.948   5.879   6.503
 4263SOL     OW13687   3.716   5.255   5.947
 4263SOL    HW113688   3.743   5.180   5.886
 4263SOL    HW213689   3.778   5.332   5.934
 4264SOL     OW13690   0.047   0.055   0.499
 4264SOL    HW113691   0.123   0.110   0.464
 4264SOL    HW213692   0.071   6.983   0.495
 4265SOL     OW13693   0.071   2.587   0.405
 4265SOL    HW113694   7.019   2.609   0.465
 4265SOL    HW213695   0.157   2.604   0.453
 4266SOL     OW13696   3.135   4.815   0.930
 4266SOL    HW113697   3.208   4.881   0.911
 4266SOL    HW213698   3.106   4.825   1.026
 4267SOL     OW13699   1.868   4.351   5.646
 4267SOL    HW113700   1.944   4.376   5.706
 4267SOL    HW213701   1.812   4.432   5.628
 4268SOL     OW13702   1.481   1.166   0.367
 4268SOL    HW113703   1.405   1.102   0.352
 4268SOL    HW213704   1.545   1.159   0.291
 4269SOL     OW13705   3.574   3.775   0.464
 4269SOL    HW113706   3.640   3.724   0.409
 4269SOL    HW213707   3.481   3.751   0.436
 4270SOL     OW13708   3.716   2.638   5.627
 4270SOL    HW113709   3.697   2.708   5.696
 4270SOL    HW213710   3.677   2.551   5.655
 4271SOL     OW13711   0.840   6.848   0.019
 4271SOL    HW113712   0.745   6.817   0.021
 4271SOL    HW213713   0.854   6.907   6.964
 4272SOL     OW13714   0.001   3.976   3.926
 4272SOL    HW113715   7.014   4.063   3.975
 4272SOL    HW213716   6.938   3.947   3.888
 4273SOL     OW13717   5.717   6.037   4.755
 4273SOL    HW113718   5.639   6.042   4.818
 4273SOL    HW213719   5.735   6.128   4.717
 4274SOL     OW13720   2.198   0.259   4.054
 4274SOL    HW113721   2.127   0.329   4.057
 4274SOL    HW213722   2.165   0.181   3.999
 4275SOL     OW13723   1.140   6.815   6.738
 4275SOL    HW113724   1.128   6.735   6.797
 4275SOL    HW213725   1.123   6.788   6.643
 4276SOL     OW13726   1.976   4.191   2.109
 4276SOL    HW113727   1.984   4.091   2.113
 4276SOL    HW213728   1.964   4.219   2.013
 4277SOL     OW13729   0.838   5.277   3.760
 4277SOL    HW113730   0.743   5.307   3.755
 4277SOL    HW213731   0.896   5.343   3.712
 4278SOL     OW13732   0.451   6.473   5.375
 4278SOL    HW113733   0.380   6.403   5.380
 4278SOL    HW213734   0.507   6.459   5.293
 4279SOL     OW13735   3.465   5.488   4.101
 4279SOL    HW113736   3.447   5.405   4.154
 4279SOL    HW213737   3.516   5.553   4.158
 4280SOL     OW13738   5.000   3.526   3.728
 4280SOL    HW113739   4.919   3.510   3.783
 4280SOL    HW213740   4.978   3.590   3.653
 4281SOL     OW13741   2.348   3.822   5.327
 4281SOL    HW113742   2.390   3.908   5.296
 4281SOL    HW213743   2.276   3.795   5.263
 4282SOL     OW13744   1.141   2.536   1.049
 4282SOL    HW113745   1.057   2.586   1.025
 4282SOL    HW213746   1.160   2.548   1.146
 4283SOL     OW13747   1.927   0.596   4.190
 4283SOL    HW113748   2.025   0.587   4.201
 4283SOL    HW213749   1.880   0.518   4.231
 4284SOL     OW13750   6.232   2.118   2.693
 4284SOL    HW113751   6.179   2.042   2.731
 4284SOL    HW213752   6.235   2.109   2.593
 4285SOL     OW13753   0.805   6.188   6.078
 4285SOL    HW113754   0.736   6.171   6.148
 4285SOL    HW213755   0.824   6.103   6.029
 4286SOL     OW13756   5.655   5.306   6.951
 4286SOL    HW113757   5.710   5.346   6.877
 4286SOL    HW213758   5.597   5.234   6.914
 4287SOL     OW13759   4.776   6.615   5.115
 4287SOL    HW113760   4.810   6.578   5.028
 4287SOL    HW213761   4.778   6.543   5.185
 4288SOL     OW13762   1.900   6.788   2.978
 4288SOL    HW113763   1.846   6.706   2.956
 4288SOL    HW213764   1.956   6.813   2.899
 4289SOL     OW13765   5.612   3.424   0.806
 4289SOL    HW113766   5.523   3.415   0.850
 4289SOL    HW213767   5.604   3.484   0.726
 4290SOL     OW13768   2.159   0.944   2.370
 4290SOL    HW113769   2.251   0.985   2.368
 4290SOL    HW213770   2.168   0.844   2.375
 4291SOL     OW13771   6.147   4.922   1.071
 4291SOL    HW113772   6.163   4.997   1.007
 4291SOL    HW213773   6.062   4.875   1.047
 4292SOL     OW13774   6.109   5.539   6.170
 4292SOL    HW113775   6.092   5.504   6.077
 4292SOL    HW213776   6.155   5.469   6.224
 4293SOL     OW13777   6.939   2.594   6.976
 4293SOL    HW113778   6.957   2.498   6.952
 4293SOL    HW213779   6.972   2.612   0.043
 4294SOL     OW13780   4.862   2.564   5.598
 4294SOL    HW113781   4.809   2.512   5.532
 4294SOL    HW213782   4.938   2.610   5.552
 4295SOL     OW13783   3.958   6.571   4.770
 4295SOL    HW113784   4.008   6.544   4.687
 4295SOL    HW213785   3.890   6.640   4.746
 4296SOL     OW13786   2.266   1.616   0.905
 4296SOL    HW113787   2.339   1.682   0.920
 4296SOL    HW213788   2.184   1.644   0.954
 4297SOL     OW13789   5.579   0.921   6.008
 4297SOL    HW113790   5.645   0.846   6.011
 4297SOL    HW213791   5.510   0.903   5.939
 4298SOL     OW13792   2.975   5.560   1.305
 4298SOL    HW113793   3.018   5.647   1.330
 4298SOL    HW213794   3.022   5.485   1.353
 4299SOL     OW13795   0.643   4.052   6.628
 4299SOL    HW113796   0.619   4.068   6.532
 4299SOL    HW213797   0.726   3.996   6.632
 4300SOL     OW13798   5.850   0.534   6.484
 4300SOL    HW113799   5.848   0.507   6.388
 4300SOL    HW213800   5.939   0.577   6.504
 4301SOL     OW13801   2.792   1.377   0.342
 4301SOL    HW113802   2.832   1.439   0.410
 4301SOL    HW213803   2.756   1.430   0.266
 4302SOL     OW13804   0.676   6.431   0.377
 4302SOL    HW113805   0.721   6.359   0.429
 4302SOL    HW213806   0.620   6.390   0.305
 4303SOL     OW13807   7.024   3.512   2.155
 4303SOL    HW113808   6.954   3.577   2.125
 4303SOL    HW213809   6.982   3.422   2.165
 4304SOL     OW13810   3.395   2.885   4.652
 4304SOL    HW113811   3.407   2.838   4.739
 4304SOL    HW213812   3.485   2.911   4.615
 4305SOL     OW13813   6.500   1.594   4.058
 4305SOL    HW113814   6.426   1.527   4.064
 4305SOL    HW213815   6.479   1.661   3.987
 4306SOL     OW13816   6.344   5.800   6.060
 4306SOL    HW113817   6.251   5.822   6.088
 4306SOL    HW213818   6.394   5.884   6.041
 4307SOL     OW13819   4.918   2.999   6.444
 4307SOL    HW113820   4.854   2.957   6.379
 4307SOL    HW213821   4.916   2.949   6.531
 4308SOL     OW13822   4.807   6.468   4.890
 4308SOL    HW113823   4.740   6.517   4.834
 4308SOL    HW213824   4.816   6.374   4.856
 4309SOL     OW13825   1.099   1.459   0.664
 4309SOL    HW113826   1.083   1.505   0.750
 4309SOL    HW213827   1.190   1.482   0.629
 4310SOL     OW13828   1.110   0.953   2.338
 4310SOL    HW113829   1.174   1.003   2.396
 4310SOL    HW213830   1.131   0.855   2.341
 4311SOL     OW13831   1.600   6.070   3.977
 4311SOL    HW113832   1.686   6.020   3.985
 4311SOL    HW213833   1.530   6.010   3.938
 4312SOL     OW13834   1.945   5.299   2.183
 4312SOL    HW113835   2.021   5.284   2.120
 4312SOL    HW213836   1.859   5.280   2.136
 4313SOL     OW13837   5.013   0.649   2.077
 4313SOL    HW113838   5.000   0.731   2.132
 4313SOL    HW213839   5.064   0.580   2.129
 4314SOL     OW13840   4.845   3.184   2.682
 4314SOL    HW113841   4.917   3.138   2.630
 4314SOL    HW213842   4.880   3.208   2.772
 4315SOL     OW13843   2.579   1.619   1.969
 4315SOL    HW113844   2.555   1.533   2.015
 4315SOL    HW213845   2.496   1.663   1.936
 4316SOL     OW13846   6.767   6.898   2.443
 4316SOL    HW113847   6.818   6.838   2.505
 4316SOL    HW213848   6.768   6.991   2.478
 4317SOL     OW13849   3.846   1.115   3.099
 4317SOL    HW113850   3.788   1.155   3.170
 4317SOL    HW213851   3.939   1.105   3.134
 4318SOL     OW13852   0.329   2.584   4.153
 4318SOL    HW113853   0.425   2.609   4.168
 4318SOL    HW213854   0.289   2.552   4.239
 4319SOL     OW13855   2.298   3.458   5.752
 4319SOL    HW113856   2.239   3.428   5.677
 4319SOL    HW213857   2.342   3.544   5.728
 4320SOL     OW13858   0.453   5.637   2.515
 4320SOL    HW113859   0.389   5.618   2.440
 4320SOL    HW213860   0.403   5.677   2.591
 4321SOL     OW13861   1.062   0.290   5.115
 4321SOL    HW113862   1.032   0.247   5.030
 4321SOL    HW213863   0.984   0.333   5.161
 4322SOL     OW13864   5.840   1.065   0.593
 4322SOL    HW113865   5.839   1.128   0.515
 4322SOL    HW213866   5.802   0.977   0.565
 4323SOL     OW13867   6.805   2.754   4.017
 4323SOL    HW113868   6.837   2.763   4.111
 4323SOL    HW213869   6.742   2.830   3.996
 4324SOL     OW13870   6.425   4.389   5.712
 4324SOL    HW113871   6.393   4.301   5.675
 4324SOL    HW213872   6.466   4.374   5.802
 4325SOL     OW13873   1.959   2.099   6.097
 4325SOL    HW113874   2.014   2.025   6.136
 4325SOL    HW213875   1.877   2.061   6.054
 4326SOL     OW13876   6.107   2.339   6.126
 4326SOL    HW113877   6.020   2.291   6.117
 4326SOL    HW213878   6.097   2.415   6.191
 4327SOL     OW13879   6.038   7.002   2.844
 4327SOL    HW113880   6.003   6.931   2.783
 4327SOL    HW213881   5.974   0.053   2.847
 4328SOL     OW13882   5.359   5.204   0.645
 4328SOL    HW113883   5.458   5.205   0.632
 4328SOL    HW213884   5.332   5.280   0.704
 4329SOL     OW13885   3.438   1.656   5.890
 4329SOL    HW113886   3.447   1.706   5.804
 4329SOL    HW213887   3.478   1.710   5.964
 4330SOL     OW13888   0.867   0.279   6.361
 4330SOL    HW113889   0.820   0.345   6.420
 4330SOL    HW213890   0.838   0.186   6.386
 4331SOL     OW13891   6.023   2.792   0.541
 4331SOL    HW113892   6.108   2.843   0.527
 4331SOL    HW213893   6.043   2.702   0.578
 4332SOL     OW13894   5.342   3.440   1.192
 4332SOL    HW113895   5.341   3.400   1.101
 4332SOL    HW213896   5.352   3.540   1.185
 4333SOL     OW13897   5.176   1.365   5.413
 4333SOL    HW113898   5.226   1.317   5.484
 4333SOL    HW213899   5.173   1.310   5.330
 4334SOL     OW13900   4.653   1.072   1.904
 4334SOL    HW113901   4.714   1.089   1.981
 4334SOL    HW213902   4.654   0.975   1.882
 4335SOL     OW13903   3.378   3.927   5.499
 4335SOL    HW113904   3.423   3.850   5.454
 4335SOL    HW213905   3.284   3.933   5.467
 4336SOL     OW13906   1.445   6.157   4.321
 4336SOL    HW113907   1.499   6.240   4.310
 4336SOL    HW213908   1.351   6.173   4.289
 4337SOL     OW13909   0.418   4.740   0.726
 4337SOL    HW113910   0.444   4.674   0.656
 4337SOL    HW213911   0.496   4.755   0.787
 4338SOL     OW13912   6.634   6.580   3.977
 4338SOL    HW113913   6.721   6.544   3.943
 4338SOL    HW213914   6.635   6.680   3.974
 4339SOL     OW13915   6.481   1.007   6.453
 4339SOL    HW113916   6.517   0.929   6.402
 4339SOL    HW213917   6.482   0.986   6.551
 4340SOL     OW13918   4.735   3.148   1.660
 4340SOL    HW113919   4.697   3.110   1.744
 4340SOL    HW213920   4.664   3.199   1.611
 4341SOL     OW13921   0.407   4.492   0.300
 4341SOL    HW113922   0.349   4.556   0.249
 4341SOL    HW213923   0.446   4.539   0.380
 4342SOL     OW13924   0.009   3.190   3.124
 4342SOL    HW113925   6.977   3.201   3.206
 4342SOL    HW213926   0.053   3.101   3.125
 4343SOL     OW13927   2.449   1.910   1.191
 4343SOL    HW113928   2.389   1.842   1.235
 4343SOL    HW213929   2.491   1.967   1.262
 4344SOL     OW13930   2.022   4.213   2.800
 4344SOL    HW113931   2.076   4.132   2.779
 4344SOL    HW213932   2.049   4.287   2.738
 4345SOL     OW13933   2.473   2.080   5.834
 4345SOL    HW113934   2.516   2.170   5.833
 4345SOL    HW213935   2.378   2.088   5.863
 4346SOL     OW13936   0.980   2.643   1.462
 4346SOL    HW113937   0.916   2.642   1.539
 4346SOL    HW213938   1.005   2.737   1.441
 4347SOL     OW13939   6.544   5.805   2.909
 4347SOL    HW113940   6.628   5.821   2.857
 4347SOL    HW213941   6.470   5.861   2.870
 4348SOL     OW13942   0.898   3.900   6.659
 4348SOL    HW113943   0.917   3.809   6.622
 4348SOL    HW213944   0.971   3.926   6.723
 4349SOL     OW13945   0.048   0.349   3.556
 4349SOL    HW113946   0.089   0.282   3.494
 4349SOL    HW213947   0.006   0.301   3.633
 4350SOL     OW13948   5.028   1.673   3.605
 4350SOL    HW113949   5.011   1.606   3.677
 4350SOL    HW213950   4.944   1.724   3.586
 4351SOL     OW13951   2.569   6.497   0.737
 4351SOL    HW113952   2.539   6.506   0.642
 4351SOL    HW213953   2.553   6.583   0.785
 4352SOL     OW13954   6.518   1.248   1.812
 4352SOL    HW113955   6.519   1.279   1.717
 4352SOL    HW213956   6.491   1.152   1.816
 4353SOL     OW13957   3.692   5.641   0.409
 4353SOL    HW113958   3.759   5.714   0.395
 4353SOL    HW213959   3.631   5.666   0.485
 4354SOL     OW13960   1.573   0.311   0.967
 4354SOL    HW113961   1.516   0.383   1.006
 4354SOL    HW213962   1.651   0.353   0.920
 4355SOL     OW13963   5.042   0.869   0.815
 4355SOL    HW113964   5.086   0.958   0.809
 4355SOL    HW213965   4.972   0.861   0.744
 4356SOL     OW13966   3.873   4.222   0.426
 4356SOL    HW113967   3.846   4.126   0.411
 4356SOL    HW213968   3.946   4.246   0.362
 4357SOL     OW13969   6.501   1.041   6.996
 4357SOL    HW113970   6.553   0.978   0.028
 4357SOL    HW213971   6.546   1.130   6.996
 4358SOL     OW13972   0.412   0.416   1.446
 4358SOL    HW113973   0.488   0.465   1.404
 4358SOL    HW213974   0.438   0.387   1.538
 4359SOL     OW13975   6.369   2.563   4.141
 4359SOL    HW113976   6.449   2.507   4.164
 4359SOL    HW213977   6.332   2.534   4.053
 4360SOL     OW13978   1.897   3.338   1.096
 4360SOL    HW113979   1.842   3.273   1.043
 4360SOL    HW213980   1.858   3.349   1.187
 4361SOL     OW13981   4.976   1.672   2.130
 4361SOL    HW113982   5.006   1.731   2.205
 4361SOL    HW213983   5.054   1.648   2.072
 4362SOL     OW13984   5.742   4.582   4.272
 4362SOL    HW113985   5.755   4.483   4.278
 4362SOL    HW213986   5.705   4.616   4.358
 4363SOL     OW13987   5.100   1.878   5.661
 4363SOL    HW113988   5.199   1.881   5.670
 4363SOL    HW213989   5.072   1.785   5.638
 4364SOL     OW13990   3.519   3.822   5.137
 4364SOL    HW113991   3.506   3.781   5.228
 4364SOL    HW213992   3.432   3.820   5.087
 4365SOL     OW13993   2.790   1.240   1.403
 4365SOL    HW113994   2.830   1.332   1.398
 4365SOL    HW213995   2.807   1.202   1.494
 4366SOL     OW13996   5.345   5.062   1.569
 4366SOL    HW113997   5.334   5.078   1.470
 4366SOL    HW213998   5.441   5.046   1.589
 4367SOL     OW13999   1.019   6.173   6.928
 4367SOL    HW114000   0.998   6.075   6.925
 4367SOL    HW214001   1.080   6.196   6.852
 4368SOL     OW14002   5.401   3.787   1.913
 4368SOL    HW114003   5.334   3.752   1.979
 4368SOL    HW214004   5.493   3.768   1.947
 4369SOL     OW14005   3.100   6.090   1.762
 4369SOL    HW114006   3.181   6.071   1.706
 4369SOL    HW214007   3.017   6.066   1.710
 4370SOL     OW14008   5.975   5.562   2.897
 4370SOL    HW114009   6.017   5.496   2.960
 4370SOL    HW214010   6.018   5.555   2.807
 4371SOL     OW14011   6.991   1.763   2.342
 4371SOL    HW114012   6.928   1.803   2.408
 4371SOL    HW214013   6.953   1.770   2.250
 4372SOL     OW14014   4.951   0.018   3.261
 4372SOL    HW114015   5.035   6.990   3.254
 4372SOL    HW214016   4.918   0.041   3.170
 4373SOL     OW14017   0.198   1.815   6.390
 4373SOL    HW114018   0.201   1.803   6.291
 4373SOL    HW214019   0.176   1.911   6.410
 4374SOL     OW14020   2.890   2.287   0.924
 4374SOL    HW114021   2.960   2.271   0.994
 4374SOL    HW214022   2.926   2.260   0.835
 4375SOL     OW14023   3.059   6.709   4.285
 4375SOL    HW114024   3.129   6.666   4.228
 4375SOL    HW214025   3.047   6.804   4.258
 4376SOL     OW14026   6.416   1.732   3.859
 4376SOL    HW114027   6.353   1.731   3.780
 4376SOL    HW214028   6.419   1.824   3.897
 4377SOL     OW14029   5.708   5.140   6.680
 4377SOL    HW114030   5.659   5.164   6.596
 4377SOL    HW214031   5.643   5.116   6.752
 4378SOL     OW14032   2.522   1.366   3.257
 4378SOL    HW114033   2.492   1.456   3.289
 4378SOL    HW214034   2.618   1.352   3.283
 4379SOL     OW14035   3.052   1.831   5.276
 4379SOL    HW114036   3.103   1.747   5.291
 4379SOL    HW214037   2.954   1.814   5.290
 4380SOL     OW14038   0.621   1.127   2.218
 4380SOL    HW114039   0.707   1.083   2.192
 4380SOL    HW214040   0.561   1.134   2.138
 4381SOL     OW14041   1.612   5.903   6.311
 4381SOL    HW114042   1.613   5.910   6.211
 4381SOL    HW214043   1.704   5.917   6.347
 4382SOL     OW14044   6.847   4.174   5.042
 4382SOL    HW114045   6.805   4.218   4.963
 4382SOL    HW214046   6.944   4.197   5.045
 4383SOL     OW14047   6.284   3.427   6.769
 4383SOL    HW114048   6.239   3.352   6.817
 4383SOL    HW214049   6.297   3.504   6.831
 4384SOL     OW14050   5.813   6.741   3.767
 4384SOL    HW114051   5.869   6.766   3.688
 4384SOL    HW214052   5.809   6.641   3.776
 4385SOL     OW14053   4.540   1.223   5.271
 4385SOL    HW114054   4.547   1.262   5.363
 4385SOL    HW214055   4.476   1.147   5.272
 4386SOL     OW14056   1.872   3.584   5.056
 4386SOL    HW114057   1.970   3.594   5.036
 4386SOL    HW214058   1.824   3.668   5.034
 4387SOL     OW14059   6.673   1.929   0.693
 4387SOL    HW114060   6.771   1.910   0.691
 4387SOL    HW214061   6.623   1.843   0.705
 4388SOL     OW14062   5.111   3.442   6.526
 4388SOL    HW114063   5.099   3.356   6.477
 4388SOL    HW214064   5.023   3.472   6.564
 4389SOL     OW14065   0.831   2.965   0.832
 4389SOL    HW114066   0.789   3.053   0.852
 4389SOL    HW214067   0.882   2.933   0.913
 4390SOL     OW14068   6.263   1.385   0.789
 4390SOL    HW114069   6.190   1.369   0.856
 4390SOL    HW214070   6.326   1.308   0.791
 4391SOL     OW14071   1.550   5.957   1.074
 4391SOL    HW114072   1.609   5.877   1.068
 4391SOL    HW214073   1.508   5.974   0.985
 4392SOL     OW14074   1.501   2.822   5.358
 4392SOL    HW114075   1.584   2.786   5.402
 4392SOL    HW214076   1.422   2.768   5.387
 4393SOL     OW14077   5.011   0.844   2.249
 4393SOL    HW114078   5.108   0.823   2.262
 4393SOL    HW214079   4.989   0.931   2.292
 4394SOL     OW14080   1.211   0.692   2.332
 4394SOL    HW114081   1.207   0.620   2.263
 4394SOL    HW214082   1.152   0.668   2.410
 4395SOL     OW14083   2.932   5.066   1.918
 4395SOL    HW114084   2.964   5.117   1.838
 4395SOL    HW214085   2.876   5.126   1.976
 4396SOL     OW14086   2.925   0.547   3.045
 4396SOL    HW114087   3.004   0.509   3.093
 4396SOL    HW214088   2.957   0.598   2.965
 4397SOL     OW14089   3.438   1.834   4.544
 4397SOL    HW114090   3.472   1.808   4.635
 4397SOL    HW214091   3.361   1.774   4.520
 4398SOL     OW14092   1.832   2.779   5.089
 4398SOL    HW114093   1.841   2.815   4.996
 4398SOL    HW214094   1.924   2.762   5.126
 4399SOL     OW14095   2.935   6.838   1.738
 4399SOL    HW114096   2.914   6.741   1.749
 4399SOL    HW214097   2.887   6.891   1.808
 4400SOL     OW14098   2.484   5.581   4.760
 4400SOL    HW114099   2.489   5.494   4.712
 4400SOL    HW214100   2.428   5.645   4.707
 4401SOL     OW14101   3.191   6.890   6.997
 4401SOL    HW114102   3.097   6.915   7.020
 4401SOL    HW214103   3.191   6.801   6.952
 4402SOL     OW14104   1.773   0.574   3.482
 4402SOL    HW114105   1.689   0.555   3.532
 4402SOL    HW214106   1.825   0.644   3.529
 4403SOL     OW14107   1.208   4.854   2.132
 4403SOL    HW114108   1.160   4.942   2.129
 4403SOL    HW214109   1.151   4.787   2.179
 4404SOL     OW14110   0.245   6.805   5.919
 4404SOL    HW114111   0.221   6.721   5.968
 4404SOL    HW214112   0.328   6.844   5.960
 4405SOL     OW14113   1.765   5.765   2.934
 4405SOL    HW114114   1.739   5.825   3.010
 4405SOL    HW214115   1.714   5.791   2.852
 4406SOL     OW14116   5.925   3.802   2.161
 4406SOL    HW114117   5.976   3.814   2.075
 4406SOL    HW214118   5.987   3.771   2.232
 4407SOL     OW14119   5.638   6.361   2.347
 4407SOL    HW114120   5.715   6.407   2.391
 4407SOL    HW214121   5.639   6.381   2.249
 4408SOL     OW14122   4.251   0.877   0.226
 4408SOL    HW114123   4.304   0.829   0.156
 4408SOL    HW214124   4.309   0.947   0.268
 4409SOL     OW14125   2.871   0.059   3.254
 4409SOL    HW114126   2.956   0.028   3.297
 4409SOL    HW214127   2.832   7.009   3.200
 4410SOL     OW14128   0.575   6.291   1.191
 4410SOL    HW114129   0.502   6.234   1.153
 4410SOL    HW214130   0.634   6.322   1.116
 4411SOL     OW14131   3.645   4.360   5.338
 4411SOL    HW114132   3.656   4.325   5.245
 4411SOL    HW214133   3.565   4.317   5.381
 4412SOL     OW14134   4.530   6.301   2.852
 4412SOL    HW114135   4.599   6.235   2.825
 4412SOL    HW214136   4.454   6.299   2.787
 4413SOL     OW14137   4.522   6.539   3.904
 4413SOL    HW114138   4.463   6.605   3.951
 4413SOL    HW214139   4.567   6.480   3.972
 4414SOL     OW14140   4.979   3.819   1.532
 4414SOL    HW114141   4.954   3.817   1.629
 4414SOL    HW214142   4.994   3.914   1.503
 4415SOL     OW14143   2.248   2.710   1.777
 4415SOL    HW114144   2.199   2.789   1.740
 4415SOL    HW214145   2.336   2.740   1.815
 4416SOL     OW14146   4.834   2.139   3.390
 4416SOL    HW114147   4.756   2.124   3.451
 4416SOL    HW214148   4.833   2.234   3.358
 4417SOL     OW14149   6.734   4.215   2.590
 4417SOL    HW114150   6.808   4.158   2.625
 4417SOL    HW214151   6.762   4.311   2.590
 4418SOL     OW14152   6.351   6.679   5.636
 4418SOL    HW114153   6.297   6.636   5.708
 4418SOL    HW214154   6.417   6.743   5.676
 4419SOL     OW14155   6.203   5.398   6.738
 4419SOL    HW114156   6.162   5.316   6.779
 4419SOL    HW214157   6.133   5.468   6.726
 4420SOL     OW14158   3.337   2.629   1.085
 4420SOL    HW114159   3.393   2.555   1.046
 4420SOL    HW214160   3.339   2.622   1.185
 4421SOL     OW14161   1.742   2.428   6.944
 4421SOL    HW114162   1.654   2.468   6.920
 4421SOL    HW214163   1.738   2.329   6.929
 4422SOL     OW14164   6.283   3.754   6.042
 4422SOL    HW114165   6.325   3.844   6.051
 4422SOL    HW214166   6.236   3.747   5.954
 4423SOL     OW14167   5.634   4.091   4.888
 4423SOL    HW114168   5.589   4.172   4.848
 4423SOL    HW214169   5.675   4.037   4.814
 4424SOL     OW14170   4.719   5.976   3.070
 4424SOL    HW114171   4.792   5.912   3.095
 4424SOL    HW214172   4.750   6.032   2.993
 4425SOL     OW14173   1.360   5.315   1.129
 4425SOL    HW114174   1.319   5.384   1.187
 4425SOL    HW214175   1.300   5.235   1.123
 4426SOL     OW14176   0.614   0.496   4.852
 4426SOL    HW114177   0.530   0.491   4.906
 4426SOL    HW214178   0.601   0.560   4.776
 4427SOL     OW14179   2.436   5.982   2.705
 4427SOL    HW114180   2.373   5.927   2.759
 4427SOL    HW214181   2.524   5.935   2.697
 4428SOL     OW14182   5.419   6.122   3.827
 4428SOL    HW114183   5.489   6.161   3.885
 4428SOL    HW214184   5.400   6.185   3.751
 4429SOL     OW14185   3.010   6.317   2.926
 4429SOL    HW114186   2.971   6.315   3.018
 4429SOL    HW214187   3.075   6.392   2.919
 4430SOL     OW14188   5.209   3.833   5.519
 4430SOL    HW114189   5.199   3.746   5.471
 4430SOL    HW214190   5.118   3.873   5.535
 4431SOL     OW14191   3.322   6.628   4.198
 4431SOL    HW114192   3.342   6.560   4.269
 4431SOL    HW214193   3.408   6.667   4.164
 4432SOL     OW14194   0.499   3.795   5.946
 4432SOL    HW114195   0.590   3.821   5.916
 4432SOL    HW214196   0.498   3.698   5.969
 4433SOL     OW14197   1.274   0.877   5.716
 4433SOL    HW114198   1.183   0.847   5.689
 4433SOL    HW214199   1.315   0.809   5.778
 4434SOL     OW14200   0.134   0.564   2.741
 4434SOL    HW114201   0.109   0.570   2.838
 4434SOL    HW214202   0.060   0.604   2.686
 4435SOL     OW14203   2.368   4.217   0.262
 4435SOL    HW114204   2.366   4.265   0.349
 4435SOL    HW214205   2.370   4.118   0.279
 4436SOL     OW14206   4.343   1.658   1.788
 4436SOL    HW114207   4.371   1.698   1.875
 4436SOL    HW214208   4.289   1.724   1.736
 4437SOL     OW14209   6.642   4.810   0.254
 4437SOL    HW114210   6.712   4.739   0.260
 4437SOL    HW214211   6.552   4.771   0.274
 4438SOL     OW14212   3.831   0.442   5.682
 4438SOL    HW114213   3.845   0.534   5.716
 4438SOL    HW214214   3.799   0.445   5.587
 4439SOL     OW14215   3.021   6.706   2.696
 4439SOL    HW114216   3.119   6.691   2.712
 4439SOL    HW214217   2.969   6.626   2.726
 4440SOL     OW14218   1.301   5.030   6.788
 4440SOL    HW114219   1.208   5.057   6.766
 4440SOL    HW214220   1.328   5.068   6.876
 4441SOL     OW14221   0.037   1.926   0.855
 4441SOL    HW114222   0.132   1.897   0.845
 4441SOL    HW214223   7.009   1.852   0.895
 4442SOL     OW14224   2.078   5.365   6.842
 4442SOL    HW114225   2.136   5.384   6.922
 4442SOL    HW214226   2.091   5.270   6.814
 4443SOL     OW14227   0.948   5.425   6.160
 4443SOL    HW114228   0.868   5.372   6.188
 4443SOL    HW214229   0.971   5.490   6.232
 4444SOL     OW14230   6.073   5.188   6.902
 4444SOL    HW114231   6.075   5.229   6.993
 4444SOL    HW214232   6.080   5.089   6.909
 4445SOL     OW14233   0.558   4.573   0.547
 4445SOL    HW114234   0.610   4.490   0.567
 4445SOL    HW214235   0.618   4.643   0.509
 4446SOL     OW14236   4.619   1.792   0.985
 4446SOL    HW114237   4.665   1.709   1.017
 4446SOL    HW214238   4.607   1.855   1.062
 4447SOL     OW14239   4.884   5.949   5.500
 4447SOL    HW114240   4.833   5.863   5.504
 4447SOL    HW214241   4.978   5.934   5.533
 4448SOL     OW14242   3.882   6.392   1.458
 4448SOL    HW114243   3.897   6.433   1.548
 4448SOL    HW214244   3.914   6.454   1.387
 4449SOL     OW14245   3.406   1.347   5.751
 4449SOL    HW114246   3.449   1.404   5.821
 4449SOL    HW214247   3.459   1.263   5.739
 4450SOL     OW14248   2.715   6.913   6.812
 4450SOL    HW114249   2.669   6.965   6.884
 4450SOL    HW214250   2.647   6.878   6.747
 4451SOL     OW14251   5.096   5.234   3.324
 4451SOL    HW114252   5.196   5.235   3.322
 4451SOL    HW214253   5.061   5.328   3.326
 4452SOL     OW14254   4.567   6.272   4.282
 4452SOL    HW114255   4.622   6.288   4.364
 4452SOL    HW214256   4.476   6.240   4.308
 4453SOL     OW14257   6.412   4.639   0.277
 4453SOL    HW114258   6.348   4.611   0.206
 4453SOL    HW214259   6.426   4.564   0.341
 4454SOL     OW14260   1.344   3.053   0.663
 4454SOL    HW114261   1.281   3.095   0.729
 4454SOL    HW214262   1.387   3.125   0.608
 4455SOL     OW14263   0.987   6.755   5.235
 4455SOL    HW114264   0.934   6.801   5.164
 4455SOL    HW214265   1.069   6.809   5.255
 4456SOL     OW14266   2.693   6.929   4.740
 4456SOL    HW114267   2.619   6.982   4.697
 4456SOL    HW214268   2.773   6.930   4.681
 4457SOL     OW14269   1.790   1.948   4.312
 4457SOL    HW114270   1.809   1.878   4.381
 4457SOL    HW214271   1.872   1.963   4.256
 4458SOL     OW14272   0.997   3.621   6.731
 4458SOL    HW114273   0.943   3.539   6.712
 4458SOL    HW214274   1.058   3.639   6.654
 4459SOL     OW14275   0.612   2.765   3.200
 4459SOL    HW114276   0.666   2.789   3.281
 4459SOL    HW214277   0.671   2.722   3.132
 4460SOL     OW14278   6.831   2.443   4.744
 4460SOL    HW114279   6.927   2.448   4.772
 4460SOL    HW214280   6.777   2.507   4.800
 4461SOL     OW14281   1.880   0.724   0.706
 4461SOL    HW114282   1.910   0.649   0.647
 4461SOL    HW214283   1.945   0.799   0.700
 4462SOL     OW14284   6.606   3.933   3.044
 4462SOL    HW114285   6.672   4.006   3.029
 4462SOL    HW214286   6.643   3.847   3.009
 4463SOL     OW14287   5.762   2.085   0.271
 4463SOL    HW114288   5.711   2.160   0.313
 4463SOL    HW214289   5.697   2.014   0.243
 4464SOL     OW14290   0.009   4.467   1.258
 4464SOL    HW114291   6.935   4.476   1.262
 4464SOL    HW214292   0.039   4.396   1.321
 4465SOL     OW14293   3.598   5.606   1.944
 4465SOL    HW114294   3.627   5.511   1.930
 4465SOL    HW214295   3.555   5.641   1.861
 4466SOL     OW14296   1.756   2.034   2.501
 4466SOL    HW114297   1.659   2.026   2.477
 4466SOL    HW214298   1.809   1.970   2.446
 4467SOL     OW14299   5.339   5.649   2.724
 4467SOL    HW114300   5.416   5.629   2.785
 4467SOL    HW214301   5.371   5.705   2.648
 4468SOL     OW14302   2.028   3.128   1.599
 4468SOL    HW114303   2.020   3.035   1.635
 4468SOL    HW214304   2.112   3.135   1.546
 4469SOL     OW14305   2.370   6.250   1.552
 4469SOL    HW114306   2.408   6.185   1.486
 4469SOL    HW214307   2.444   6.304   1.592
 4470SOL     OW14308   2.066   0.028   3.109
 4470SOL    HW114309   1.983   0.057   3.156
 4470SOL    HW214310   2.045   0.006   3.014
 4471SOL     OW14311   0.723   0.040   6.497
 4471SOL    HW114312   0.642   0.097   6.484
 4471SOL    HW214313   0.719   6.988   6.433
 4472SOL     OW14314   1.602   2.956   0.717
 4472SOL    HW114315   1.595   2.882   0.784
 4472SOL    HW214316   1.510   2.986   0.692
 4473SOL     OW14317   0.215   2.725   4.627
 4473SOL    HW114318   0.155   2.787   4.678
 4473SOL    HW214319   0.259   2.662   4.691
 4474SOL     OW14320   3.151   6.012   1.055
 4474SOL    HW114321   3.144   6.084   0.985
 4474SOL    HW214322   3.075   5.948   1.044
 4475SOL     OW14323   1.351   4.177   1.191
 4475SOL    HW114324   1.416   4.233   1.139
 4475SOL    HW214325   1.258   4.210   1.173
 4476SOL     OW14326   5.697   0.931   3.857
 4476SOL    HW114327   5.620   0.878   3.824
 4476SOL    HW214328   5.666   0.996   3.927
 4477SOL     OW14329   0.962   0.817   4.831
 4477SOL    HW114330   0.913   0.842   4.914
 4477SOL    HW214331   0.897   0.805   4.756
 4478SOL     OW14332   1.736   6.872   1.113
 4478SOL    HW114333   1.709   6.967   1.127
 4478SOL    HW214334   1.698   6.838   1.026
 4479SOL     OW14335   1.696   1.893   6.591
 4479SOL    HW114336   1.761   1.848   6.653
 4479SOL    HW214337   1.645   1.823   6.540
 4480SOL     OW14338   1.397   6.512   3.761
 4480SOL    HW114339   1.434   6.596   3.799
 4480SOL    HW214340   1.368   6.527   3.667
 4481SOL     OW14341   1.853   3.987   5.975
 4481SOL    HW114342   1.887   4.080   5.989
 4481SOL    HW214343   1.927   3.928   5.943
 4482SOL     OW14344   2.566   6.712   1.476
 4482SOL    HW114345   2.510   6.764   1.540
 4482SOL    HW214346   2.605   6.774   1.408
 4483SOL     OW14347   1.523   3.825   0.685
 4483SOL    HW114348   1.623   3.828   0.672
 4483SOL    HW214349   1.494   3.730   0.697
 4484SOL     OW14350   2.193   1.187   6.978
 4484SOL    HW114351   2.265   1.256   6.977
 4484SOL    HW214352   2.215   1.116   0.019
 4485SOL     OW14353   6.593   2.538   5.214
 4485SOL    HW114354   6.545   2.593   5.282
 4485SOL    HW214355   6.690   2.533   5.238
 4486SOL     OW14356   4.917   4.951   4.548
 4486SOL    HW114357   4.938   5.042   4.583
 4486SOL    HW214358   4.892   4.891   4.623
 4487SOL     OW14359   0.584   2.864   6.803
 4487SOL    HW114360   0.486   2.854   6.791
 4487SOL    HW214361   0.621   2.784   6.850
 4488SOL     OW14362   0.274   4.207   3.590
 4488SOL    HW114363   0.355   4.229   3.644
 4488SOL    HW214364   0.215   4.288   3.583
 4489SOL     OW14365   3.931   5.895   6.157
 4489SOL    HW114366   4.010   5.954   6.175
 4489SOL    HW214367   3.891   5.867   6.244
 4490SOL     OW14368   5.228   1.384   1.909
 4490SOL    HW114369   5.174   1.327   1.847
 4490SOL    HW214370   5.197   1.369   2.003
 4491SOL     OW14371   1.229   3.015   2.853
 4491SOL    HW114372   1.323   3.011   2.885
 4491SOL    HW214373   1.169   2.973   2.920
 4492SOL     OW14374   0.105   0.896   2.439
 4492SOL    HW114375   0.081   0.946   2.355
 4492SOL    HW214376   0.157   0.814   2.414
 4493SOL     OW14377   5.581   1.259   5.855
 4493SOL    HW114378   5.487   1.251   5.822
 4493SOL    HW214379   5.583   1.241   5.954
 4494SOL     OW14380   1.469   0.155   1.757
 4494SOL    HW114381   1.486   0.057   1.767
 4494SOL    HW214382   1.541   0.197   1.701
 4495SOL     OW14383   4.516   6.283   0.906
 4495SOL    HW114384   4.457   6.287   0.987
 4495SOL    HW214385   4.513   6.371   0.859
 4496SOL     OW14386   2.779   6.230   6.155
 4496SOL    HW114387   2.757   6.229   6.252
 4496SOL    HW214388   2.706   6.185   6.103
 4497SOL     OW14389   3.486   1.111   5.914
 4497SOL    HW114390   3.407   1.102   5.975
 4497SOL    HW214391   3.564   1.148   5.965
 4498SOL     OW14392   0.263   5.250   4.855
 4498SOL    HW114393   0.255   5.312   4.777
 4498SOL    HW214394   0.183   5.190   4.858
 4499SOL     OW14395   5.784   1.390   1.826
 4499SOL    HW114396   5.817   1.414   1.735
 4499SOL    HW214397   5.686   1.408   1.832
 4500SOL     OW14398   4.072   5.498   0.196
 4500SOL    HW114399   4.116   5.525   0.110
 4500SOL    HW214400   4.050   5.400   0.192
 4501SOL     OW14401   6.252   0.498   2.454
 4501SOL    HW114402   6.183   0.425   2.452
 4501SOL    HW214403   6.334   0.467   2.406
 4502SOL     OW14404   6.935   3.665   6.611
 4502SOL    HW114405   6.964   3.719   6.691
 4502SOL    HW214406   6.977   3.703   6.529
 4503SOL     OW14407   3.172   1.544   2.768
 4503SOL    HW114408   3.201   1.457   2.808
 4503SOL    HW214409   3.076   1.561   2.790
 4504SOL     OW14410   0.194   2.276   2.923
 4504SOL    HW114411   0.216   2.351   2.986
 4504SOL    HW214412   0.231   2.190   2.960
 4505SOL     OW14413   5.745   3.906   3.708
 4505SOL    HW114414   5.647   3.888   3.699
 4505SOL    HW214415   5.787   3.912   3.617
 4506SOL     OW14416   5.055   2.859   5.793
 4506SOL    HW114417   4.978   2.894   5.740
 4506SOL    HW214418   5.105   2.935   5.834
 4507SOL     OW14419   6.205   2.148   3.384
 4507SOL    HW114420   6.231   2.109   3.472
 4507SOL    HW214421   6.284   2.150   3.323
 4508SOL     OW14422   0.137   4.759   0.908
 4508SOL    HW114423   0.112   4.851   0.877
 4508SOL    HW214424   0.227   4.762   0.952
 4509SOL     OW14425   5.128   2.578   1.943
 4509SOL    HW114426   5.106   2.615   2.034
 4509SOL    HW214427   5.077   2.493   1.929
 4510SOL     OW14428   4.175   0.952   4.639
 4510SOL    HW114429   4.119   0.904   4.706
 4510SOL    HW214430   4.130   0.951   4.550
 4511SOL     OW14431   6.899   5.025   6.707
 4511SOL    HW114432   6.827   5.013   6.638
 4511SOL    HW214433   6.984   4.982   6.674
 4512SOL     OW14434   3.033   3.608   5.451
 4512SOL    HW114435   2.966   3.545   5.490
 4512SOL    HW214436   3.031   3.601   5.351
 4513SOL     OW14437   0.340   0.091   0.788
 4513SOL    HW114438   0.422   0.066   0.736
 4513SOL    HW214439   0.341   0.044   0.876
 4514SOL     OW14440   4.082   4.770   6.810
 4514SOL    HW114441   4.093   4.776   6.710
 4514SOL    HW214442   3.985   4.755   6.831
 4515SOL     OW14443   3.832   0.883   6.298
 4515SOL    HW114444   3.828   0.784   6.290
 4515SOL    HW214445   3.778   0.913   6.376
 4516SOL     OW14446   3.136   2.520   5.550
 4516SOL    HW114447   3.139   2.425   5.519
 4516SOL    HW214448   3.101   2.524   5.643
 4517SOL     OW14449   3.978   0.934   5.532
 4517SOL    HW114450   4.038   0.945   5.453
 4517SOL    HW214451   3.972   0.837   5.556
 4518SOL     OW14452   0.887   6.419   1.058
 4518SOL    HW114453   0.961   6.468   1.011
 4518SOL    HW214454   0.837   6.484   1.116
 4519SOL     OW14455   4.763   6.790   0.093
 4519SOL    HW114456   4.756   6.839   0.006
 4519SOL    HW214457   4.842   6.824   0.144
 4520SOL     OW14458   4.426   5.855   5.818
 4520SOL    HW114459   4.504   5.889   5.765
 4520SOL    HW214460   4.413   5.914   5.898
 4521SOL     OW14461   4.446   2.241   4.146
 4521SOL    HW114462   4.459   2.153   4.190
 4521SOL    HW214463   4.355   2.276   4.167
 4522SOL     OW14464   5.712   4.196   3.680
 4522SOL    HW114465   5.673   4.210   3.589
 4522SOL    HW214466   5.744   4.101   3.688
 4523SOL     OW14467   6.952   2.984   6.111
 4523SOL    HW114468   0.012   2.938   6.085
 4523SOL    HW214469   6.960   3.016   6.205
 4524SOL     OW14470   1.660   3.632   1.963
 4524SOL    HW114471   1.620   3.700   2.025
 4524SOL    HW214472   1.706   3.679   1.887
 4525SOL     OW14473   3.638   2.393   5.721
 4525SOL    HW114474   3.591   2.323   5.667
 4525SOL    HW214475   3.705   2.349   5.781
 4526SOL     OW14476   1.187   6.837   5.630
 4526SOL    HW114477   1.195   6.745   5.667
 4526SOL    HW214478   1.097   6.874   5.651
 4527SOL     OW14479   0.319   1.302   2.595
 4527SOL    HW114480   0.379   1.235   2.552
 4527SOL    HW214481   0.242   1.321   2.535
 4528SOL     OW14482   4.947   0.674   5.246
 4528SOL    HW114483   4.970   0.619   5.167
 4528SOL    HW214484   4.970   0.770   5.228
 4529SOL     OW14485   2.330   1.182   3.821
 4529SOL    HW114486   2.237   1.169   3.856
 4529SOL    HW214487   2.390   1.111   3.859
 4530SOL     OW14488   4.252   5.934   6.564
 4530SOL    HW114489   4.350   5.927   6.577
 4530SOL    HW214490   4.215   5.845   6.537
 4531SOL     OW14491   1.564   6.149   5.278
 4531SOL    HW114492   1.558   6.249   5.285
 4531SOL    HW214493   1.568   6.122   5.182
 4532SOL     OW14494   6.267   1.343   2.733
 4532SOL    HW114495   6.346   1.330   2.674
 4532SOL    HW214496   6.296   1.339   2.829
 4533SOL     OW14497   2.590   0.260   0.935
 4533SOL    HW114498   2.572   0.309   1.020
 4533SOL    HW214499   2.685   0.274   0.908
 4534SOL     OW14500   4.993   1.536   4.035
 4534SOL    HW114501   4.935   1.516   3.956
 4534SOL    HW214502   4.957   1.617   4.083
 4535SOL     OW14503   1.660   0.422   0.508
 4535SOL    HW114504   1.603   0.497   0.544
 4535SOL    HW214505   1.602   0.351   0.469
 4536SOL     OW14506   3.236   0.132   5.787
 4536SOL    HW114507   3.194   0.043   5.805
 4536SOL    HW214508   3.224   0.192   5.866
 4537SOL     OW14509   2.913   3.569   3.213
 4537SOL    HW114510   2.875   3.629   3.143
 4537SOL    HW214511   2.923   3.476   3.175
 4538SOL     OW14512   0.095   2.412   0.740
 4538SOL    HW114513   0.141   2.444   0.658
 4538SOL    HW214514   0.160   2.410   0.816
 4539SOL     OW14515   1.358   6.020   5.629
 4539SOL    HW114516   1.351   5.951   5.701
 4539SOL    HW214517   1.392   6.105   5.669
 4540SOL     OW14518   1.498   2.271   0.284
 4540SOL    HW114519   1.409   2.258   0.241
 4540SOL    HW214520   1.493   2.245   0.381
 4541SOL     OW14521   4.059   2.962   6.380
 4541SOL    HW114522   4.003   2.912   6.446
 4541SOL    HW214523   4.001   3.024   6.327
 4542SOL     OW14524   0.374   1.576   6.563
 4542SOL    HW114525   0.358   1.675   6.567
 4542SOL    HW214526   0.358   1.544   6.469
 4543SOL     OW14527   3.931   1.854   0.524
 4543SOL    HW114528   3.863   1.861   0.597
 4543SOL    HW214529   4.023   1.854   0.562
 4544SOL     OW14530   5.280   6.665   0.720
 4544SOL    HW114531   5.335   6.594   0.764
 4544SOL    HW214532   5.186   6.633   0.709
 4545SOL     OW14533   2.048   2.709   5.232
 4545SOL    HW114534   2.130   2.694   5.178
 4545SOL    HW214535   2.002   2.621   5.247
 4546SOL     OW14536   3.113   0.658   5.560
 4546SOL    HW114537   3.061   0.636   5.478
 4546SOL    HW214538   3.201   0.611   5.558
 4547SOL     OW14539   0.075   0.032   0.103
 4547SOL    HW114540   0.040   6.989   0.167
 4547SOL    HW214541   0.175   0.029   0.103
 4548SOL     OW14542   2.923   1.878   2.105
 4548SOL    HW114543   2.964   1.968   2.118
 4548SOL    HW214544   2.894   1.842   2.194
 4549SOL     OW14545   0.803   3.417   4.360
 4549SOL    HW114546   0.900   3.420   4.336
 4549SOL    HW214547   0.757   3.498   4.325
 4550SOL     OW14548   2.078   5.168   4.191
 4550SOL    HW114549   2.126   5.126   4.268
 4550SOL    HW214550   2.144   5.200   4.124
 4551SOL     OW14551   2.286   2.421   5.127
 4551SOL    HW114552   2.368   2.386   5.080
 4551SOL    HW214553   2.308   2.442   5.222
 4552SOL     OW14554   5.432   1.524   0.548
 4552SOL    HW114555   5.346   1.563   0.516
 4552SOL    HW214556   5.505   1.546   0.483
 4553SOL     OW14557   0.332   5.959   6.939
 4553SOL    HW114558   0.294   5.972   0.005
 4553SOL    HW214559   0.431   5.979   6.941
 4554SOL     OW14560   6.484   6.651   2.797
 4554SOL    HW114561   6.394   6.697   2.799
 4554SOL    HW214562   6.473   6.559   2.760
 4555SOL     OW14563   0.853   1.122   1.107
 4555SOL    HW114564   0.824   1.110   1.012
 4555SOL    HW214565   0.801   1.197   1.148
 4556SOL     OW14566   5.299   4.778   4.175
 4556SOL    HW114567   5.260   4.693   4.140
 4556SOL    HW214568   5.369   4.756   4.243
 4557SOL     OW14569   0.802   5.060   4.352
 4557SOL    HW114570   0.747   5.019   4.279
 4557SOL    HW214571   0.771   5.026   4.440
 4558SOL     OW14572   1.233   3.988   4.775
 4558SOL    HW114573   1.290   3.939   4.710
 4558SOL    HW214574   1.253   4.086   4.770
 4559SOL     OW14575   0.143   2.770   4.065
 4559SOL    HW114576   0.114   2.739   3.975
 4559SOL    HW214577   0.194   2.697   4.111
 4560SOL     OW14578   5.385   4.244   2.813
 4560SOL    HW114579   5.325   4.324   2.810
 4560SOL    HW214580   5.410   4.226   2.908
 4561SOL     OW14581   5.125   2.662   3.634
 4561SOL    HW114582   5.102   2.622   3.546
 4561SOL    HW214583   5.121   2.592   3.705
 4562SOL     OW14584   3.335   1.094   0.459
 4562SOL    HW114585   3.415   1.126   0.510
 4562SOL    HW214586   3.285   1.028   0.514
 4563SOL     OW14587   0.622   4.424   2.279
 4563SOL    HW114588   0.533   4.415   2.324
 4563SOL    HW214589   0.609   4.446   2.182
 4564SOL     OW14590   2.102   3.628   2.206
 4564SOL    HW114591   2.008   3.594   2.208
 4564SOL    HW214592   2.144   3.608   2.117
 4565SOL     OW14593   1.905   6.428   6.156
 4565SOL    HW114594   1.851   6.358   6.204
 4565SOL    HW214595   1.999   6.396   6.145
 4566SOL     OW14596   6.603   4.067   3.457
 4566SOL    HW114597   6.560   4.007   3.391
 4566SOL    HW214598   6.689   4.102   3.421
 4567SOL     OW14599   0.131   0.040   6.727
 4567SOL    HW114600   0.108   0.036   6.630
 4567SOL    HW214601   0.051   0.016   6.782
 4568SOL     OW14602   1.380   4.965   3.388
 4568SOL    HW114603   1.448   4.894   3.375
 4568SOL    HW214604   1.366   5.013   3.301
 4569SOL     OW14605   2.130   1.259   3.050
 4569SOL    HW114606   2.152   1.177   2.997
 4569SOL    HW214607   2.083   1.233   3.134
 4570SOL     OW14608   5.304   5.576   1.640
 4570SOL    HW114609   5.301   5.484   1.680
 4570SOL    HW214610   5.375   5.579   1.569
 4571SOL     OW14611   2.450   3.251   6.142
 4571SOL    HW114612   2.375   3.285   6.085
 4571SOL    HW214613   2.509   3.326   6.169
 4572SOL     OW14614   3.531   3.094   2.208
 4572SOL    HW114615   3.457   3.033   2.240
 4572SOL    HW214616   3.616   3.042   2.200
 4573SOL     OW14617   2.885   5.359   0.711
 4573SOL    HW114618   2.918   5.280   0.763
 4573SOL    HW214619   2.937   5.440   0.737
 4574SOL     OW14620   4.882   1.079   2.031
 4574SOL    HW114621   4.934   0.997   2.007
 4574SOL    HW214622   4.905   1.108   2.124
 4575SOL     OW14623   0.624   0.057   5.686
 4575SOL    HW114624   0.682   0.029   5.610
 4575SOL    HW214625   0.614   7.006   5.750
 4576SOL     OW14626   3.107   4.566   6.383
 4576SOL    HW114627   3.097   4.658   6.420
 4576SOL    HW214628   3.198   4.531   6.402
 4577SOL     OW14629   1.033   1.881   2.219
 4577SOL    HW114630   0.971   1.941   2.269
 4577SOL    HW214631   0.983   1.801   2.185
 4578SOL     OW14632   1.321   1.453   1.827
 4578SOL    HW114633   1.308   1.355   1.818
 4578SOL    HW214634   1.234   1.496   1.855
 4579SOL     OW14635   4.458   0.417   3.358
 4579SOL    HW114636   4.388   0.483   3.383
 4579SOL    HW214637   4.526   0.410   3.431
 4580SOL     OW14638   0.321   1.327   1.116
 4580SOL    HW114639   0.385   1.396   1.151
 4580SOL    HW214640   0.266   1.368   1.043
 4581SOL     OW14641   2.788   0.432   0.863
 4581SOL    HW114642   2.717   0.496   0.891
 4581SOL    HW214643   2.817   0.453   0.770
 4582SOL     OW14644   6.755   0.772   3.928
 4582SOL    HW114645   6.799   0.748   3.841
 4582SOL    HW214646   6.825   0.802   3.993
 4583SOL     OW14647   2.167   0.550   0.259
 4583SOL    HW114648   2.193   0.472   0.315
 4583SOL    HW214649   2.143   0.518   0.167
 4584SOL     OW14650   0.619   1.675   4.270
 4584SOL    HW114651   0.613   1.670   4.170
 4584SOL    HW214652   0.714   1.688   4.297
 4585SOL     OW14653   1.690   3.134   2.904
 4585SOL    HW114654   1.758   3.088   2.848
 4585SOL    HW214655   1.620   3.068   2.933
 4586SOL     OW14656   5.971   5.090   6.344
 4586SOL    HW114657   5.976   5.062   6.440
 4586SOL    HW214658   6.057   5.135   6.318
 4587SOL     OW14659   3.337   3.523   5.423
 4587SOL    HW114660   3.248   3.557   5.453
 4587SOL    HW214661   3.343   3.528   5.323
 4588SOL     OW14662   3.227   3.913   6.572
 4588SOL    HW114663   3.304   3.854   6.548
 4588SOL    HW214664   3.222   3.923   6.672
 4589SOL     OW14665   5.834   6.588   2.460
 4589SOL    HW114666   5.785   6.673   2.439
 4589SOL    HW214667   5.924   6.589   2.418
 4590SOL     OW14668   3.757   5.615   1.587
 4590SOL    HW114669   3.741   5.529   1.635
 4590SOL    HW214670   3.695   5.621   1.509
 4591SOL     OW14671   2.542   0.756   5.279
 4591SOL    HW114672   2.601   0.717   5.208
 4591SOL    HW214673   2.593   0.762   5.365
 4592SOL     OW14674   2.262   1.671   3.884
 4592SOL    HW114675   2.179   1.716   3.849
 4592SOL    HW214676   2.305   1.729   3.953
 4593SOL     OW14677   1.562   5.447   4.444
 4593SOL    HW114678   1.462   5.445   4.441
 4593SOL    HW214679   1.595   5.360   4.480
 4594SOL     OW14680   2.271   0.190   3.218
 4594SOL    HW114681   2.327   0.131   3.275
 4594SOL    HW214682   2.185   0.143   3.196
 4595SOL     OW14683   5.197   2.250   6.099
 4595SOL    HW114684   5.287   2.291   6.084
 4595SOL    HW214685   5.129   2.297   6.043
 4596SOL     OW14686   0.183   0.624   2.394
 4596SOL    HW114687   0.100   0.569   2.401
 4596SOL    HW214688   0.259   0.575   2.437
 4597SOL     OW14689   2.552   5.827   0.673
 4597SOL    HW114690   2.578   5.854   0.766
 4597SOL    HW214691   2.542   5.908   0.616
 4598SOL     OW14692   0.693   4.336   0.553
 4598SOL    HW114693   0.649   4.269   0.494
 4598SOL    HW214694   0.679   4.310   0.649
 4599SOL     OW14695   3.938   6.449   1.711
 4599SOL    HW114696   3.943   6.358   1.752
 4599SOL    HW214697   3.880   6.508   1.767
 4600SOL     OW14698   0.661   6.528   6.511
 4600SOL    HW114699   0.632   6.623   6.498
 4600SOL    HW214700   0.589   6.477   6.558
 4601SOL     OW14701   1.801   0.602   5.184
 4601SOL    HW114702   1.768   0.519   5.138
 4601SOL    HW214703   1.727   0.641   5.239
 4602SOL     OW14704   2.930   1.901   5.733
 4602SOL    HW114705   2.901   1.995   5.719
 4602SOL    HW214706   3.007   1.898   5.796
 4603SOL     OW14707   4.708   0.178   1.074
 4603SOL    HW114708   4.645   0.124   1.018
 4603SOL    HW214709   4.684   0.275   1.067
 4604SOL     OW14710   0.106   0.137   4.522
 4604SOL    HW114711   0.068   0.107   4.609
 4604SOL    HW214712   0.180   0.075   4.494
 4605SOL     OW14713   3.598   0.394   1.371
 4605SOL    HW114714   3.696   0.416   1.368
 4605SOL    HW214715   3.555   0.422   1.286
 4606SOL     OW14716   6.819   6.479   5.181
 4606SOL    HW114717   6.916   6.476   5.204
 4606SOL    HW214718   6.772   6.542   5.244
 4607SOL     OW14719   1.725   1.956   0.846
 4607SOL    HW114720   1.706   1.985   0.940
 4607SOL    HW214721   1.665   1.880   0.822
 4608SOL     OW14722   7.007   2.864   4.755
 4608SOL    HW114723   6.979   2.772   4.781
 4608SOL    HW214724   0.000   2.918   4.837
 4609SOL     OW14725   5.047   5.307   6.922
 4609SOL    HW114726   5.033   5.282   6.826
 4609SOL    HW214727   5.087   5.230   6.971
 4610SOL     OW14728   5.281   4.703   0.188
 4610SOL    HW114729   5.195   4.659   0.162
 4610SOL    HW214730   5.271   4.802   0.175
 4611SOL     OW14731   0.210   1.192   6.664
 4611SOL    HW114732   0.173   1.167   6.753
 4611SOL    HW214733   0.242   1.287   6.666
 4612SOL     OW14734   2.140   1.574   1.722
 4612SOL    HW114735   2.063   1.551   1.782
 4612SOL    HW214736   2.182   1.490   1.689
 4613SOL     OW14737   1.450   4.856   1.760
 4613SOL    HW114738   1.549   4.871   1.750
 4613SOL    HW214739   1.433   4.800   1.841
 4614SOL     OW14740   6.648   4.403   4.057
 4614SOL    HW114741   6.735   4.382   4.012
 4614SOL    HW214742   6.596   4.319   4.072
 4615SOL     OW14743   1.364   3.810   6.408
 4615SOL    HW114744   1.422   3.831   6.487
 4615SOL    HW214745   1.367   3.885   6.343
 4616SOL     OW14746   0.483   2.993   5.829
 4616SOL    HW114747   0.571   2.948   5.846
 4616SOL    HW214748   0.424   2.933   5.775
 4617SOL     OW14749   7.007   2.655   3.872
 4617SOL    HW114750   6.926   2.706   3.903
 4617SOL    HW214751   7.025   2.580   3.935
 4618SOL     OW14752   1.909   4.093   5.557
 4618SOL    HW114753   1.988   4.059   5.608
 4618SOL    HW214754   1.892   4.189   5.583
 4619SOL     OW14755   4.564   6.398   6.497
 4619SOL    HW114756   4.663   6.390   6.500
 4619SOL    HW214757   4.526   6.374   6.586
 4620SOL     OW14758   0.786   4.875   2.190
 4620SOL    HW114759   0.746   4.860   2.099
 4620SOL    HW214760   0.714   4.886   2.257
 4621SOL     OW14761   3.487   0.147   2.468
 4621SOL    HW114762   3.436   0.195   2.539
 4621SOL    HW214763   3.525   0.214   2.404
 4622SOL     OW14764   5.646   6.881   0.425
 4622SOL    HW114765   5.650   6.820   0.504
 4622SOL    HW214766   5.664   6.975   0.454
 4623SOL     OW14767   3.258   4.848   1.549
 4623SOL    HW114768   3.305   4.761   1.564
 4623SOL    HW214769   3.277   4.910   1.625
 4624SOL     OW14770   4.443   1.210   1.981
 4624SOL    HW114771   4.496   1.126   1.970
 4624SOL    HW214772   4.502   1.289   1.963
 4625SOL     OW14773   1.956   6.230   1.330
 4625SOL    HW114774   2.007   6.236   1.416
 4625SOL    HW214775   1.864   6.267   1.344
 4626SOL     OW14776   4.297   3.466   1.582
 4626SOL    HW114777   4.280   3.374   1.547
 4626SOL    HW214778   4.390   3.471   1.619
 4627SOL     OW14779   5.514   0.273   5.351
 4627SOL    HW114780   5.606   0.311   5.355
 4627SOL    HW214781   5.472   0.278   5.442
 4628SOL     OW14782   5.947   4.651   3.858
 4628SOL    HW114783   5.965   4.566   3.907
 4628SOL    HW214784   5.861   4.642   3.807
 4629SOL     OW14785   1.890   5.698   0.360
 4629SOL    HW114786   1.886   5.759   0.281
 4629SOL    HW214787   1.806   5.643   0.364
 4630SOL     OW14788   2.160   3.485   1.372
 4630SOL    HW114789   2.150   3.451   1.465
 4630SOL    HW214790   2.177   3.408   1.310
 4631SOL     OW14791   6.839   0.802   3.165
 4631SOL    HW114792   6.794   0.890   3.181
 4631SOL    HW214793   6.936   0.809   3.191
 4632SOL     OW14794   3.568   4.928   2.790
 4632SOL    HW114795   3.497   4.892   2.851
 4632SOL    HW214796   3.558   4.886   2.700
 4633SOL     OW14797   4.873   1.461   4.700
 4633SOL    HW114798   4.822   1.379   4.676
 4633SOL    HW214799   4.906   1.454   4.794
 4634SOL     OW14800   3.792   3.796   5.423
 4634SOL    HW114801   3.810   3.740   5.504
 4634SOL    HW214802   3.840   3.883   5.432
 4635SOL     OW14803   4.321   6.447   1.406
 4635SOL    HW114804   4.248   6.400   1.357
 4635SOL    HW214805   4.308   6.546   1.398
 4636SOL     OW14806   1.168   5.329   6.912
 4636SOL    HW114807   1.102   5.276   6.966
 4636SOL    HW214808   1.253   5.278   6.903
 4637SOL     OW14809   3.216   1.560   3.698
 4637SOL    HW114810   3.278   1.628   3.659
 4637SOL    HW214811   3.160   1.519   3.625
 4638SOL     OW14812   4.146   4.917   0.003
 4638SOL    HW114813   4.236   4.940   0.041
 4638SOL    HW214814   4.158   4.868   6.942
 4639SOL     OW14815   3.842   2.002   1.921
 4639SOL    HW114816   3.791   2.086   1.933
 4639SOL    HW214817   3.818   1.960   1.833
 4640SOL     OW14818   6.314   3.993   6.948
 4640SOL    HW114819   6.286   3.998   0.019
 4640SOL    HW214820   6.233   3.989   6.890
 4641SOL     OW14821   1.685   5.659   4.527
 4641SOL    HW114822   1.728   5.616   4.606
 4641SOL    HW214823   1.614   5.599   4.490
 4642SOL     OW14824   6.630   0.958   4.783
 4642SOL    HW114825   6.543   0.940   4.829
 4642SOL    HW214826   6.614   0.964   4.684
 4643SOL     OW14827   0.737   1.874   6.891
 4643SOL    HW114828   0.735   1.931   6.973
 4643SOL    HW214829   0.814   1.811   6.895
 4644SOL     OW14830   1.466   0.606   0.842
 4644SOL    HW114831   1.443   0.613   0.745
 4644SOL    HW214832   1.383   0.585   0.894
 4645SOL     OW14833   6.538   1.727   4.699
 4645SOL    HW114834   6.577   1.636   4.713
 4645SOL    HW214835   6.486   1.728   4.613
 4646SOL     OW14836   2.314   4.332   3.868
 4646SOL    HW114837   2.216   4.351   3.877
 4646SOL    HW214838   2.343   4.346   3.773
 4647SOL     OW14839   1.395   6.794   1.390
 4647SOL    HW114840   1.480   6.762   1.347
 4647SOL    HW214841   1.341   6.716   1.421
 4648SOL     OW14842   2.349   1.584   4.635
 4648SOL    HW114843   2.405   1.604   4.555
 4648SOL    HW214844   2.307   1.494   4.625
 4649SOL     OW14845   5.884   1.660   0.254
 4649SOL    HW114846   5.920   1.570   0.231
 4649SOL    HW214847   5.943   1.703   0.323
 4650SOL     OW14848   5.404   6.442   0.818
 4650SOL    HW114849   5.464   6.485   0.886
 4650SOL    HW214850   5.346   6.374   0.864
 4651SOL     OW14851   0.002   3.256   6.232
 4651SOL    HW114852   0.030   3.195   6.306
 4651SOL    HW214853   0.022   3.213   6.144
 4652SOL     OW14854   0.077   6.504   5.176
 4652SOL    HW114855   0.144   6.469   5.110
 4652SOL    HW214856   0.101   6.598   5.202
 4653SOL     OW14857   6.682   5.743   0.678
 4653SOL    HW114858   6.759   5.684   0.655
 4653SOL    HW214859   6.713   5.815   0.740
 4654SOL     OW14860   0.804   0.260   5.754
 4654SOL    HW114861   0.726   0.200   5.736
 4654SOL    HW214862   0.889   0.209   5.739
 4655SOL     OW14863   5.006   2.823   1.629
 4655SOL    HW114864   4.961   2.795   1.544
 4655SOL    HW214865   4.944   2.878   1.684
 4656SOL     OW14866   6.695   0.812   1.694
 4656SOL    HW114867   6.740   0.888   1.647
 4656SOL    HW214868   6.719   0.726   1.648
 4657SOL     OW14869   3.382   1.005   3.560
 4657SOL    HW114870   3.400   1.069   3.635
 4657SOL    HW214871   3.343   0.921   3.598
 4658SOL     OW14872   1.257   2.192   6.323
 4658SOL    HW114873   1.326   2.189   6.396
 4658SOL    HW214874   1.243   2.100   6.288
 4659SOL     OW14875   1.583   4.117   6.999
 4659SOL    HW114876   1.504   4.137   6.941
 4659SOL    HW214877   1.565   4.151   0.066
 4660SOL     OW14878   0.962   5.370   3.321
 4660SOL    HW114879   1.041   5.310   3.330
 4660SOL    HW214880   0.975   5.431   3.242
 4661SOL     OW14881   0.631   1.596   6.048
 4661SOL    HW114882   0.547   1.649   6.055
 4661SOL    HW214883   0.708   1.652   6.079
 4662SOL     OW14884   2.022   0.471   5.318
 4662SOL    HW114885   1.962   0.527   5.261
 4662SOL    HW214886   1.970   0.398   5.361
 4663SOL     OW14887   1.414   0.297   0.268
 4663SOL    HW114888   1.358   0.220   0.238
 4663SOL    HW214889   1.508   0.285   0.236
 4664SOL     OW14890   6.188   0.367   6.308
 4664SOL    HW114891   6.184   0.393   6.211
 4664SOL    HW214892   6.219   0.445   6.362
 4665SOL     OW14893   1.138   0.271   3.455
 4665SOL    HW114894   1.076   0.321   3.394
 4665SOL    HW214895   1.186   0.335   3.514
 4666SOL     OW14896   2.072   1.921   5.143
 4666SOL    HW114897   2.011   1.850   5.177
 4666SOL    HW214898   2.090   1.987   5.216
 4667SOL     OW14899   6.191   4.061   1.228
 4667SOL    HW114900   6.264   4.003   1.190
 4667SOL    HW214901   6.230   4.147   1.259
 4668SOL     OW14902   4.931   1.733   4.681
 4668SOL    HW114903   4.851   1.772   4.635
 4668SOL    HW214904   4.911   1.639   4.710
 4669SOL     OW14905   5.462   6.674   6.016
 4669SOL    HW114906   5.365   6.696   6.026
 4669SOL    HW214907   5.496   6.711   5.929
 4670SOL     OW14908   0.278   2.730   0.010
 4670SOL    HW114909   0.194   2.726   0.063
 4670SOL    HW214910   0.349   2.675   0.054
 4671SOL     OW14911   0.865   3.184   1.472
 4671SOL    HW114912   0.819   3.200   1.385
 4671SOL    HW214913   0.799   3.192   1.547
 4672SOL     OW14914   3.287   4.092   6.877
 4672SOL    HW114915   3.262   3.997   6.895
 4672SOL    HW214916   3.211   4.139   6.832
 4673SOL     OW14917   6.092   0.893   0.599
 4673SOL    HW114918   6.021   0.964   0.593
 4673SOL    HW214919   6.087   0.834   0.518
 4674SOL     OW14920   0.473   2.539   0.951
 4674SOL    HW114921   0.454   2.595   1.032
 4674SOL    HW214922   0.516   2.595   0.881
 4675SOL     OW14923   1.910   5.593   6.818
 4675SOL    HW114924   1.980   5.524   6.834
 4675SOL    HW214925   1.890   5.599   6.720
 4676SOL     OW14926   0.849   6.689   3.968
 4676SOL    HW114927   0.904   6.677   4.050
 4676SOL    HW214928   0.892   6.642   3.892
 4677SOL     OW14929   3.799   6.994   0.111
 4677SOL    HW114930   3.811   6.917   0.173
 4677SOL    HW214931   3.724   0.026   0.143
 4678SOL     OW14932   2.177   4.656   6.684
 4678SOL    HW114933   2.140   4.578   6.634
 4678SOL    HW214934   2.275   4.664   6.667
 4679SOL     OW14935   2.789   6.492   5.840
 4679SOL    HW114936   2.779   6.473   5.938
 4679SOL    HW214937   2.809   6.407   5.791
 4680SOL     OW14938   1.724   4.465   0.338
 4680SOL    HW114939   1.772   4.548   0.312
 4680SOL    HW214940   1.673   4.480   0.423
 4681SOL     OW14941   6.756   5.863   4.826
 4681SOL    HW114942   6.795   5.796   4.889
 4681SOL    HW214943   6.829   5.918   4.785
 4682SOL     OW14944   3.579   6.246   0.846
 4682SOL    HW114945   3.564   6.150   0.868
 4682SOL    HW214946   3.592   6.257   0.748
 4683SOL     OW14947   6.716   4.412   3.298
 4683SOL    HW114948   6.683   4.329   3.253
 4683SOL    HW214949   6.648   4.485   3.289
 4684SOL     OW14950   1.604   1.318   5.057
 4684SOL    HW114951   1.589   1.220   5.071
 4684SOL    HW214952   1.639   1.335   4.965
 4685SOL     OW14953   5.116   4.516   4.903
 4685SOL    HW114954   5.081   4.464   4.980
 4685SOL    HW214955   5.107   4.462   4.819
 4686SOL     OW14956   5.238   6.226   0.552
 4686SOL    HW114957   5.184   6.178   0.482
 4686SOL    HW214958   5.196   6.315   0.572
 4687SOL     OW14959   5.339   6.630   4.469
 4687SOL    HW114960   5.365   6.534   4.463
 4687SOL    HW214961   5.421   6.687   4.474
 4688SOL     OW14962   1.172   2.274   0.433
 4688SOL    HW114963   1.077   2.245   0.443
 4688SOL    HW214964   1.206   2.250   0.342
 4689SOL     OW14965   1.640   5.316   5.070
 4689SOL    HW114966   1.733   5.280   5.067
 4689SOL    HW214967   1.619   5.348   5.162
 4690SOL     OW14968   1.616   1.950   0.543
 4690SOL    HW114969   1.632   1.862   0.588
 4690SOL    HW214970   1.520   1.956   0.516
 4691SOL     OW14971   3.773   4.381   0.628
 4691SOL    HW114972   3.674   4.367   0.634
 4691SOL    HW214973   3.814   4.311   0.570
 4692SOL     OW14974   0.378   5.867   3.020
 4692SOL    HW114975   0.335   5.862   2.930
 4692SOL    HW214976   0.403   5.961   3.041
 4693SOL     OW14977   0.882   0.781   4.095
 4693SOL    HW114978   0.802   0.728   4.123
 4693SOL    HW214979   0.964   0.741   4.135
 4694SOL     OW14980   1.271   1.092   6.260
 4694SOL    HW114981   1.177   1.075   6.228
 4694SOL    HW214982   1.297   1.186   6.237
 4695SOL     OW14983   2.984   2.988   1.493
 4695SOL    HW114984   3.029   2.974   1.581
 4695SOL    HW214985   2.890   2.952   1.497
 4696SOL     OW14986   5.611   3.393   0.240
 4696SOL    HW114987   5.659   3.466   0.289
 4696SOL    HW214988   5.573   3.430   0.155
 4697SOL     OW14989   0.958   4.979   0.210
 4697SOL    HW114990   0.902   4.954   0.288
 4697SOL    HW214991   1.035   5.034   0.240
 4698SOL     OW14992   6.089   3.427   1.539
 4698SOL    HW114993   6.030   3.457   1.614
 4698SOL    HW214994   6.185   3.443   1.564
 4699SOL     OW14995   6.447   6.862   3.463
 4699SOL    HW114996   6.381   6.930   3.493
 4699SOL    HW214997   6.469   6.800   3.538
 4700SOL     OW14998   5.785   6.671   0.221
 4700SOL    HW114999   5.829   6.615   0.150
 4700SOL    HW215000   5.690   6.642   0.232
 4701SOL     OW15001   0.157   1.048   0.839
 4701SOL    HW115002   0.226   1.049   0.767
 4701SOL    HW215003   0.065   1.052   0.798
 4702SOL     OW15004   2.704   3.406   0.069
 4702SOL    HW115005   2.784   3.465   0.055
 4702SOL    HW215006   2.731   3.325   0.120
 4703SOL     OW15007   1.475   1.148   1.169
 4703SOL    HW115008   1.401   1.213   1.186
 4703SOL    HW215009   1.440   1.071   1.116
 4704SOL     OW15010   4.576   0.012   0.222
 4704SOL    HW115011   4.674   0.010   0.241
 4704SOL    HW215012   4.531   0.078   0.282
 4705SOL     OW15013   3.215   4.100   3.677
 4705SOL    HW115014   3.198   4.053   3.764
 4705SOL    HW215015   3.180   4.194   3.682
 4706SOL     OW15016   4.511   5.321   1.210
 4706SOL    HW115017   4.609   5.306   1.223
 4706SOL    HW215018   4.462   5.235   1.226
 4707SOL     OW15019   3.637   6.293   1.501
 4707SOL    HW115020   3.730   6.331   1.500
 4707SOL    HW215021   3.642   6.194   1.517
 4708SOL     OW15022   1.608   2.500   2.659
 4708SOL    HW115023   1.657   2.580   2.624
 4708SOL    HW215024   1.661   2.418   2.640
 4709SOL     OW15025   3.473   3.710   6.774
 4709SOL    HW115026   3.457   3.660   6.689
 4709SOL    HW215027   3.559   3.680   6.816
 4710SOL     OW15028   5.069   2.499   0.704
 4710SOL    HW115029   5.049   2.497   0.802
 4710SOL    HW215030   5.020   2.575   0.661
 4711SOL     OW15031   3.254   6.467   3.195
 4711SOL    HW115032   3.185   6.490   3.126
 4711SOL    HW215033   3.221   6.389   3.250
 4712SOL     OW15034   1.404   4.497   0.409
 4712SOL    HW115035   1.446   4.512   0.498
 4712SOL    HW215036   1.345   4.416   0.412
 4713SOL     OW15037   2.255   6.387   1.018
 4713SOL    HW115038   2.266   6.297   1.061
 4713SOL    HW215039   2.161   6.396   0.984
 4714SOL     OW15040   3.206   2.325   0.669
 4714SOL    HW115041   3.238   2.413   0.634
 4714SOL    HW215042   3.277   2.284   0.727
 4715SOL     OW15043   5.525   4.073   4.627
 4715SOL    HW115044   5.539   3.981   4.591
 4715SOL    HW215045   5.596   4.134   4.594
 4716SOL     OW15046   3.091   5.305   0.233
 4716SOL    HW115047   3.058   5.343   0.147
 4716SOL    HW215048   3.017   5.304   0.300
 4717SOL     OW15049   1.051   5.688   4.049
 4717SOL    HW115050   1.007   5.704   3.961
 4717SOL    HW215051   1.134   5.633   4.035
 4718SOL     OW15052   5.401   1.147   6.319
 4718SOL    HW115053   5.418   1.236   6.362
 4718SOL    HW215054   5.347   1.161   6.236
 4719SOL     OW15055   4.150   3.160   1.787
 4719SOL    HW115056   4.244   3.182   1.762
 4719SOL    HW215057   4.108   3.238   1.833
 4720SOL     OW15058   2.929   0.842   4.147
 4720SOL    HW115059   3.024   0.863   4.172
 4720SOL    HW215060   2.875   0.926   4.149
 4721SOL     OW15061   0.764   1.795   0.711
 4721SOL    HW115062   0.838   1.817   0.775
 4721SOL    HW215063   0.791   1.717   0.655
 4722SOL     OW15064   2.678   0.285   1.830
 4722SOL    HW115065   2.630   0.363   1.789
 4722SOL    HW215066   2.675   0.293   1.929
 4723SOL     OW15067   2.584   6.915   6.337
 4723SOL    HW115068   2.670   6.960   6.314
 4723SOL    HW215069   2.593   6.817   6.324
 4724SOL     OW15070   4.230   4.852   1.696
 4724SOL    HW115071   4.148   4.846   1.753
 4724SOL    HW215072   4.309   4.873   1.754
 4725SOL     OW15073   5.872   5.530   3.178
 4725SOL    HW115074   5.847   5.623   3.153
 4725SOL    HW215075   5.924   5.532   3.264
 4726SOL     OW15076   0.690   6.145   5.539
 4726SOL    HW115077   0.634   6.126   5.458
 4726SOL    HW215078   0.654   6.093   5.617
 4727SOL     OW15079   6.811   6.656   0.599
 4727SOL    HW115080   6.744   6.708   0.652
 4727SOL    HW215081   6.826   6.567   0.642
 4728SOL     OW15082   0.017   1.316   0.213
 4728SOL    HW115083   0.096   1.287   0.267
 4728SOL    HW215084   0.010   1.415   0.215
 4729SOL     OW15085   3.067   0.277   0.672
 4729SOL    HW115086   3.021   0.234   0.750
 4729SOL    HW215087   2.999   0.325   0.616
 4730SOL     OW15088   2.200   0.690   5.359
 4730SOL    HW115089   2.221   0.717   5.265
 4730SOL    HW215090   2.154   0.601   5.358
 4731SOL     OW15091   5.646   1.873   5.961
 4731SOL    HW115092   5.629   1.783   5.920
 4731SOL    HW215093   5.559   1.914   5.989
 4732SOL     OW15094   0.412   1.604   0.771
 4732SOL    HW115095   0.338   1.638   0.829
 4732SOL    HW215096   0.447   1.518   0.808
 4733SOL     OW15097   6.874   3.257   4.164
 4733SOL    HW115098   6.778   3.241   4.185
 4733SOL    HW215099   6.917   3.171   4.136
 4734SOL     OW15100   5.167   4.428   5.854
 4734SOL    HW115101   5.141   4.420   5.950
 4734SOL    HW215102   5.208   4.518   5.838
 4735SOL     OW15103   0.064   4.750   4.006
 4735SOL    HW115104   0.154   4.735   4.047
 4735SOL    HW215105   0.002   4.786   4.076
 4736SOL     OW15106   2.109   0.558   1.283
 4736SOL    HW115107   2.072   0.526   1.370
 4736SOL    HW215108   2.197   0.604   1.298
 4737SOL     OW15109   3.451   5.673   1.667
 4737SOL    HW115110   3.462   5.580   1.632
 4737SOL    HW215111   3.494   5.737   1.604
 4738SOL     OW15112   0.461   6.129   3.067
 4738SOL    HW115113   0.543   6.136   3.010
 4738SOL    HW215114   0.471   6.187   3.148
 4739SOL     OW15115   4.714   0.609   1.513
 4739SOL    HW115116   4.683   0.703   1.523
 4739SOL    HW215117   4.798   0.595   1.565
 4740SOL     OW15118   0.897   2.594   3.694
 4740SOL    HW115119   0.899   2.593   3.594
 4740SOL    HW215120   0.901   2.501   3.729
 4741SOL     OW15121   3.974   4.053   1.175
 4741SOL    HW115122   4.051   4.068   1.113
 4741SOL    HW215123   3.993   4.095   1.263
 4742SOL     OW15124   3.586   1.145   0.619
 4742SOL    HW115125   3.580   1.054   0.660
 4742SOL    HW215126   3.680   1.163   0.591
 4743SOL     OW15127   1.958   4.991   0.767
 4743SOL    HW115128   1.899   5.049   0.713
 4743SOL    HW215129   2.040   5.042   0.794
 4744SOL     OW15130   2.429   5.678   1.211
 4744SOL    HW115131   2.373   5.661   1.130
 4744SOL    HW215132   2.441   5.593   1.262
 4745SOL     OW15133   1.030   3.618   0.154
 4745SOL    HW115134   1.099   3.580   0.091
 4745SOL    HW215135   1.072   3.634   0.243
 4746SOL     OW15136   4.490   5.683   4.457
 4746SOL    HW115137   4.392   5.702   4.454
 4746SOL    HW215138   4.505   5.591   4.494
 4747SOL     OW15139   2.126   1.228   0.366
 4747SOL    HW115140   2.076   1.272   0.440
 4747SOL    HW215141   2.124   1.287   0.285
 4748SOL     OW15142   1.907   6.501   1.596
 4748SOL    HW115143   1.818   6.457   1.608
 4748SOL    HW215144   1.979   6.432   1.596
 4749SOL     OW15145   2.791   2.143   0.220
 4749SOL    HW115146   2.875   2.107   0.260
 4749SOL    HW215147   2.805   2.240   0.197
 4750SOL     OW15148   5.032   2.757   5.035
 4750SOL    HW115149   5.124   2.791   5.016
 4750SOL    HW215150   5.022   2.742   5.133
 4751SOL     OW15151   4.773   0.638   3.207
 4751SOL    HW115152   4.744   0.558   3.153
 4751SOL    HW215153   4.808   0.607   3.295
 4752SOL     OW15154   4.924   1.949   6.511
 4752SOL    HW115155   4.968   1.954   6.422
 4752SOL    HW215156   4.863   1.870   6.515
 4753SOL     OW15157   3.190   6.395   5.048
 4753SOL    HW115158   3.095   6.396   5.016
 4753SOL    HW215159   3.196   6.445   5.134
 4754SOL     OW15160   4.580   4.469   6.503
 4754SOL    HW115161   4.547   4.512   6.587
 4754SOL    HW215162   4.565   4.530   6.426
 4755SOL     OW15163   0.704   0.980   1.403
 4755SOL    HW115164   0.758   0.949   1.481
 4755SOL    HW215165   0.731   0.929   1.321
 4756SOL     OW15166   6.488   3.907   5.406
 4756SOL    HW115167   6.551   3.920   5.483
 4756SOL    HW215168   6.499   3.982   5.341
 4757SOL     OW15169   2.022   3.794   0.497
 4757SOL    HW115170   2.017   3.735   0.416
 4757SOL    HW215171   2.011   3.890   0.469
 4758SOL     OW15172   2.059   5.705   3.257
 4758SOL    HW115173   2.053   5.730   3.354
 4758SOL    HW215174   2.155   5.688   3.234
 4759SOL     OW15175   0.306   6.685   1.881
 4759SOL    HW115176   0.348   6.736   1.806
 4759SOL    HW215177   0.313   6.587   1.864
 4760SOL     OW15178   1.515   5.679   0.533
 4760SOL    HW115179   1.564   5.761   0.563
 4760SOL    HW215180   1.526   5.606   0.602
 4761SOL     OW15181   5.709   6.574   1.879
 4761SOL    HW115182   5.745   6.663   1.849
 4761SOL    HW215183   5.754   6.501   1.828
 4762SOL     OW15184   2.126   0.118   2.419
 4762SOL    HW115185   2.159   0.162   2.336
 4762SOL    HW215186   2.066   0.042   2.396
 4763SOL     OW15187   5.896   5.559   2.399
 4763SOL    HW115188   5.804   5.522   2.405
 4763SOL    HW215189   5.943   5.547   2.487
 4764SOL     OW15190   4.951   2.575   0.353
 4764SOL    HW115191   4.932   2.671   0.374
 4764SOL    HW215192   4.900   2.517   0.416
 4765SOL     OW15193   3.750   1.788   5.725
 4765SOL    HW115194   3.688   1.853   5.768
 4765SOL    HW215195   3.842   1.827   5.721
 4766SOL     OW15196   1.128   0.581   4.749
 4766SOL    HW115197   1.038   0.537   4.758
 4766SOL    HW215198   1.126   0.670   4.794
 4767SOL     OW15199   2.180   3.955   3.034
 4767SOL    HW115200   2.194   4.053   3.047
 4767SOL    HW215201   2.157   3.937   2.938
 4768SOL     OW15202   4.653   2.665   6.462
 4768SOL    HW115203   4.716   2.633   6.533
 4768SOL    HW215204   4.580   2.719   6.505
 4769SOL     OW15205   1.821   3.458   0.284
 4769SOL    HW115206   1.730   3.439   0.323
 4769SOL    HW215207   1.871   3.372   0.275
 4770SOL     OW15208   0.389   1.699   3.950
 4770SOL    HW115209   0.366   1.793   3.975
 4770SOL    HW215210   0.464   1.700   3.883
 4771SOL     OW15211   1.962   6.870   4.105
 4771SOL    HW115212   2.019   6.812   4.048
 4771SOL    HW215213   1.981   6.852   4.202
 4772SOL     OW15214   3.122   5.236   2.560
 4772SOL    HW115215   3.079   5.317   2.520
 4772SOL    HW215216   3.183   5.195   2.492
 4773SOL     OW15217   2.854   4.871   5.150
 4773SOL    HW115218   2.846   4.781   5.107
 4773SOL    HW215219   2.951   4.894   5.159
 4774SOL     OW15220   0.873   4.529   0.856
 4774SOL    HW115221   0.855   4.480   0.941
 4774SOL    HW215222   0.908   4.466   0.787
 4775SOL     OW15223   6.160   6.076   5.254
 4775SOL    HW115224   6.197   5.983   5.248
 4775SOL    HW215225   6.065   6.076   5.224
 4776SOL     OW15226   0.521   1.347   5.909
 4776SOL    HW115227   0.443   1.370   5.851
 4776SOL    HW215228   0.562   1.431   5.944
 4777SOL     OW15229   2.340   0.226   2.552
 4777SOL    HW115230   2.283   0.159   2.504
 4777SOL    HW215231   2.282   0.302   2.582
 4778SOL     OW15232   1.586   1.447   0.508
 4778SOL    HW115233   1.553   1.396   0.587
 4778SOL    HW215234   1.617   1.383   0.438
 4779SOL     OW15235   4.928   0.468   4.810
 4779SOL    HW115236   4.936   0.534   4.735
 4779SOL    HW215237   4.869   0.392   4.781
 4780SOL     OW15238   4.816   2.747   4.866
 4780SOL    HW115239   4.891   2.745   4.932
 4780SOL    HW215240   4.803   2.656   4.827
 4781SOL     OW15241   1.729   5.686   1.654
 4781SOL    HW115242   1.772   5.618   1.713
 4781SOL    HW215243   1.710   5.645   1.565
 4782SOL     OW15244   6.834   6.663   4.525
 4782SOL    HW115245   6.752   6.605   4.523
 4782SOL    HW215246   6.906   6.620   4.471
 4783SOL     OW15247   0.158   3.601   6.067
 4783SOL    HW115248   0.256   3.586   6.083
 4783SOL    HW215249   0.133   3.692   6.100
 4784SOL     OW15250   5.212   3.701   6.692
 4784SOL    HW115251   5.170   3.791   6.680
 4784SOL    HW215252   5.144   3.630   6.674
 4785SOL     OW15253   0.755   0.281   4.554
 4785SOL    HW115254   0.749   0.189   4.593
 4785SOL    HW215255   0.781   0.275   4.458
 4786SOL     OW15256   0.757   5.959   0.671
 4786SOL    HW115257   0.792   5.921   0.586
 4786SOL    HW215258   0.832   5.968   0.737
 4787SOL     OW15259   4.464   1.225   4.131
 4787SOL    HW115260   4.446   1.189   4.223
 4787SOL    HW215261   4.534   1.297   4.137
 4788SOL     OW15262   0.208   6.219   0.786
 4788SOL    HW115263   0.279   6.289   0.790
 4788SOL    HW215264   0.152   6.234   0.704
 4789SOL     OW15265   6.188   0.910   2.541
 4789SOL    HW115266   6.106   0.925   2.596
 4789SOL    HW215267   6.237   0.830   2.575
 4790SOL     OW15268   6.753   1.713   4.917
 4790SOL    HW115269   6.715   1.722   5.010
 4790SOL    HW215270   6.683   1.740   4.851
 4791SOL     OW15271   0.909   0.141   0.127
 4791SOL    HW115272   0.918   0.147   0.227
 4791SOL    HW215273   0.923   0.047   0.098
 4792SOL     OW15274   1.638   3.477   2.348
 4792SOL    HW115275   1.709   3.438   2.289
 4792SOL    HW215276   1.682   3.525   2.424
 4793SOL     OW15277   1.424   3.781   5.949
 4793SOL    HW115278   1.427   3.852   6.019
 4793SOL    HW215279   1.477   3.702   5.980
 4794SOL     OW15280   4.686   1.833   4.588
 4794SOL    HW115281   4.658   1.809   4.495
 4794SOL    HW215282   4.622   1.901   4.625
 4795SOL     OW15283   6.885   0.956   6.347
 4795SOL    HW115284   6.791   0.948   6.313
 4795SOL    HW215285   6.898   0.894   6.424
 4796SOL     OW15286   4.869   1.080   5.475
 4796SOL    HW115287   4.783   1.067   5.524
 4796SOL    HW215288   4.857   1.054   5.379
 4797SOL     OW15289   1.924   5.175   6.043
 4797SOL    HW115290   1.825   5.166   6.054
 4797SOL    HW215291   1.969   5.094   6.080
 4798SOL     OW15292   3.830   5.688   0.044
 4798SOL    HW115293   3.893   5.743   0.099
 4798SOL    HW215294   3.752   5.660   0.100
 4799SOL     OW15295   4.556   2.677   0.161
 4799SOL    HW115296   4.555   2.584   0.123
 4799SOL    HW215297   4.587   2.674   0.256
 4800SOL     OW15298   0.154   4.653   6.971
 4800SOL    HW115299   0.231   4.673   6.911
 4800SOL    HW215300   0.068   4.662   6.920
 4801SOL     OW15301   5.372   2.232   2.133
 4801SOL    HW115302   5.300   2.281   2.180
 4801SOL    HW215303   5.371   2.256   2.036
 4802SOL     OW15304   6.782   0.234   4.408
 4802SOL    HW115305   6.749   0.146   4.376
 4802SOL    HW215306   6.846   0.221   4.483
 4803SOL     OW15307   4.995   3.975   5.566
 4803SOL    HW115308   4.895   3.978   5.566
 4803SOL    HW215309   5.030   4.057   5.520
 4804SOL     OW15310   5.389   2.293   0.504
 4804SOL    HW115311   5.435   2.312   0.591
 4804SOL    HW215312   5.455   2.298   0.429
 4805SOL     OW15313   6.177   1.669   6.819
 4805SOL    HW115314   6.188   1.661   6.918
 4805SOL    HW215315   6.212   1.585   6.776
 4806SOL     OW15316   1.427   1.391   3.415
 4806SOL    HW115317   1.333   1.421   3.433
 4806SOL    HW215318   1.488   1.471   3.413
 4807SOL     OW15319   0.078   4.434   5.946
 4807SOL    HW115320   0.006   4.367   5.966
 4807SOL    HW215321   0.040   4.506   5.887
 4808SOL     OW15322   3.503   5.982   1.985
 4808SOL    HW115323   3.413   5.952   1.955
 4808SOL    HW215324   3.515   5.963   2.082
 4809SOL     OW15325   2.874   3.399   1.515
 4809SOL    HW115326   2.889   3.311   1.469
 4809SOL    HW215327   2.826   3.383   1.602
 4810SOL     OW15328   1.555   5.460   4.186
 4810SOL    HW115329   1.500   5.543   4.173
 4810SOL    HW215330   1.566   5.443   4.284
 4811SOL     OW15331   3.345   3.742   4.414
 4811SOL    HW115332   3.437   3.747   4.375
 4811SOL    HW215333   3.299   3.660   4.381
 4812SOL     OW15334   1.613   6.612   3.136
 4812SOL    HW115335   1.652   6.665   3.211
 4812SOL    HW215336   1.522   6.649   3.114
 4813SOL     OW15337   0.617   1.421   5.445
 4813SOL    HW115338   0.560   1.374   5.378
 4813SOL    HW215339   0.712   1.390   5.435
 4814SOL     OW15340   6.359   3.654   1.611
 4814SOL    HW115341   6.272   3.703   1.615
 4814SOL    HW215342   6.351   3.567   1.660
 4815SOL     OW15343   5.924   4.696   2.295
 4815SOL    HW115344   5.970   4.611   2.268
 4815SOL    HW215345   5.977   4.742   2.366
 4816SOL     OW15346   3.298   1.234   2.467
 4816SOL    HW115347   3.258   1.166   2.406
 4816SOL    HW215348   3.382   1.199   2.506
 4817SOL     OW15349   3.814   1.742   1.108
 4817SOL    HW115350   3.818   1.813   1.037
 4817SOL    HW215351   3.877   1.668   1.084
 4818SOL     OW15352   3.935   6.973   4.871
 4818SOL    HW115353   3.968   0.038   4.845
 4818SOL    HW215354   3.948   6.909   4.795
 4819SOL     OW15355   3.195   0.983   0.208
 4819SOL    HW115356   3.230   1.065   0.163
 4819SOL    HW215357   3.220   0.985   0.305
 4820SOL     OW15358   5.629   4.255   1.798
 4820SOL    HW115359   5.608   4.255   1.896
 4820SOL    HW215360   5.545   4.270   1.746
 4821SOL     OW15361   0.120   5.580   1.742
 4821SOL    HW115362   0.209   5.602   1.782
 4821SOL    HW215363   0.131   5.551   1.647
 4822SOL     OW15364   1.026   3.718   1.675
 4822SOL    HW115365   0.979   3.805   1.690
 4822SOL    HW215366   1.011   3.658   1.754
 4823SOL     OW15367   1.434   1.059   3.573
 4823SOL    HW115368   1.440   1.103   3.483
 4823SOL    HW215369   1.390   1.121   3.638
 4824SOL     OW15370   5.723   2.812   1.749
 4824SOL    HW115371   5.666   2.871   1.692
 4824SOL    HW215372   5.748   2.860   1.833
 4825SOL     OW15373   0.046   3.261   3.535
 4825SOL    HW115374   0.143   3.250   3.511
 4825SOL    HW215375   0.022   3.358   3.535
 4826SOL     OW15376   6.952   6.554   6.819
 4826SOL    HW115377   6.922   6.648   6.834
 4826SOL    HW215378   6.942   6.502   6.904
 4827SOL     OW15379   5.400   1.274   0.667
 4827SOL    HW115380   5.480   1.264   0.726
 4827SOL    HW215381   5.407   1.359   0.615
 4828SOL     OW15382   5.172   3.407   6.837
 4828SOL    HW115383   5.241   3.429   6.769
 4828SOL    HW215384   5.153   3.309   6.835
 4829SOL     OW15385   3.819   6.858   5.087
 4829SOL    HW115386   3.755   6.790   5.050
 4829SOL    HW215387   3.874   6.895   5.012
 4830SOL     OW15388   4.139   6.316   5.147
 4830SOL    HW115389   4.133   6.224   5.187
 4830SOL    HW215390   4.221   6.323   5.091
 4831SOL     OW15391   5.986   3.329   6.014
 4831SOL    HW115392   6.056   3.299   5.949
 4831SOL    HW215393   5.904   3.272   6.004
 4832SOL     OW15394   1.676   2.730   6.056
 4832SOL    HW115395   1.702   2.650   6.002
 4832SOL    HW215396   1.754   2.759   6.112
 4833SOL     OW15397   6.065   1.830   3.225
 4833SOL    HW115398   5.980   1.793   3.188
 4833SOL    HW215399   6.099   1.902   3.164
 4834SOL     OW15400   5.622   0.986   3.407
 4834SOL    HW115401   5.695   0.920   3.390
 4834SOL    HW215402   5.661   1.067   3.452
 4835SOL     OW15403   1.752   0.604   5.764
 4835SOL    HW115404   1.734   0.660   5.683
 4835SOL    HW215405   1.791   0.516   5.736
 4836SOL     OW15406   5.376   2.961   1.821
 4836SOL    HW115407   5.371   2.878   1.764
 4836SOL    HW215408   5.383   3.041   1.762
 4837SOL     OW15409   0.433   3.543   1.189
 4837SOL    HW115410   0.399   3.636   1.206
 4837SOL    HW215411   0.512   3.526   1.247
 4838SOL     OW15412   2.646   5.273   2.777
 4838SOL    HW115413   2.638   5.188   2.726
 4838SOL    HW215414   2.689   5.343   2.720
 4839SOL     OW15415   0.636   0.141   7.014
 4839SOL    HW115416   0.660   0.155   6.918
 4839SOL    HW215417   0.713   0.166   0.047
 4840SOL     OW15418   6.315   0.004   6.672
 4840SOL    HW115419   6.330   0.066   6.748
 4840SOL    HW215420   6.220   6.998   6.672
 4841SOL     OW15421   2.580   6.132   2.279
 4841SOL    HW115422   2.591   6.098   2.373
 4841SOL    HW215423   2.636   6.077   2.217
 4842SOL     OW15424   3.904   6.666   1.342
 4842SOL    HW115425   3.962   6.714   1.408
 4842SOL    HW215426   3.915   6.707   1.251
 4843SOL     OW15427   0.939   2.944   6.590
 4843SOL    HW115428   0.882   2.919   6.511
 4843SOL    HW215429   0.887   3.005   6.650
 4844SOL     OW15430   0.507   1.777   5.702
 4844SOL    HW115431   0.416   1.762   5.742
 4844SOL    HW215432   0.537   1.871   5.721
 4845SOL     OW15433   5.764   5.124   3.676
 4845SOL    HW115434   5.693   5.090   3.614
 4845SOL    HW215435   5.749   5.221   3.693
 4846SOL     OW15436   0.517   5.075   0.349
 4846SOL    HW115437   0.568   5.131   0.413
 4846SOL    HW215438   0.456   5.133   0.295
 4847SOL     OW15439   4.605   2.622   4.487
 4847SOL    HW115440   4.584   2.640   4.391
 4847SOL    HW215441   4.550   2.545   4.520
 4848SOL     OW15442   2.745   2.132   1.930
 4848SOL    HW115443   2.810   2.063   1.898
 4848SOL    HW215444   2.788   2.222   1.928
 4849SOL     OW15445   1.111   6.677   6.510
 4849SOL    HW115446   1.053   6.603   6.475
 4849SOL    HW215447   1.111   6.753   6.446
 4850SOL     OW15448   4.143   0.587   3.173
 4850SOL    HW115449   4.196   0.534   3.107
 4850SOL    HW215450   4.190   0.674   3.192
 4851SOL     OW15451   5.258   0.947   5.172
 4851SOL    HW115452   5.284   0.867   5.226
 4851SOL    HW215453   5.269   0.927   5.075
 4852SOL     OW15454   1.739   2.105   1.411
 4852SOL    HW115455   1.769   2.200   1.399
 4852SOL    HW215456   1.678   2.099   1.490
 4853SOL     OW15457   3.119   1.777   1.497
 4853SOL    HW115458   3.182   1.842   1.540
 4853SOL    HW215459   3.029   1.785   1.539
 4854SOL     OW15460   4.055   0.180   0.568
 4854SOL    HW115461   4.126   0.183   0.498
 4854SOL    HW215462   4.017   0.087   0.573
 4855SOL     OW15463   0.032   2.582   2.673
 4855SOL    HW115464   7.025   2.498   2.718
 4855SOL    HW215465   0.029   2.658   2.737
 4856SOL     OW15466   1.860   3.991   3.217
 4856SOL    HW115467   1.911   3.964   3.135
 4856SOL    HW215468   1.904   3.951   3.297
 4857SOL     OW15469   0.459   1.235   6.270
 4857SOL    HW115470   0.539   1.289   6.243
 4857SOL    HW215471   0.487   1.141   6.290
 4858SOL     OW15472   1.222   0.497   3.937
 4858SOL    HW115473   1.165   0.564   3.888
 4858SOL    HW215474   1.164   0.428   3.980
 4859SOL     OW15475   2.976   5.784   6.056
 4859SOL    HW115476   2.993   5.794   5.958
 4859SOL    HW215477   3.016   5.699   6.089
 4860SOL     OW15478   4.279   4.002   0.158
 4860SOL    HW115479   4.319   4.042   0.241
 4860SOL    HW215480   4.248   3.909   0.178
 4861SOL     OW15481   5.114   3.602   5.420
 4861SOL    HW115482   5.088   3.531   5.354
 4861SOL    HW215483   5.188   3.569   5.478
 4862SOL     OW15484   1.060   6.186   1.087
 4862SOL    HW115485   0.999   6.246   1.034
 4862SOL    HW215486   1.144   6.172   1.035
 4863SOL     OW15487   5.028   4.346   6.575
 4863SOL    HW115488   4.968   4.349   6.495
 4863SOL    HW215489   5.119   4.378   6.550
 4864SOL     OW15490   3.179   0.958   4.277
 4864SOL    HW115491   3.219   0.883   4.224
 4864SOL    HW215492   3.245   1.033   4.283
 4865SOL     OW15493   2.021   6.432   4.995
 4865SOL    HW115494   2.052   6.396   5.084
 4865SOL    HW215495   1.968   6.515   5.010
 4866SOL     OW15496   6.556   4.001   6.454
 4866SOL    HW115497   6.504   3.928   6.409
 4866SOL    HW215498   6.492   4.064   6.498
 4867SOL     OW15499   4.625   0.630   2.797
 4867SOL    HW115500   4.725   0.632   2.804
 4867SOL    HW215501   4.597   0.666   2.708
 4868SOL     OW15502   6.840   4.218   0.927
 4868SOL    HW115503   6.910   4.274   0.971
 4868SOL    HW215504   6.877   4.177   0.843
 4869SOL     OW15505   0.696   1.046   0.512
 4869SOL    HW115506   0.742   0.957   0.512
 4869SOL    HW215507   0.756   1.114   0.553
 4870SOL     OW15508   0.562   6.825   1.928
 4870SOL    HW115509   0.501   6.823   2.008
 4870SOL    HW215510   0.609   6.737   1.921
 4871SOL     OW15511   1.813   1.353   3.899
 4871SOL    HW115512   1.893   1.411   3.911
 4871SOL    HW215513   1.740   1.405   3.854
 4872SOL     OW15514   5.821   6.217   3.007
 4872SOL    HW115515   5.913   6.226   3.044
 4872SOL    HW215516   5.818   6.258   2.915
 4873SOL     OW15517   6.200   5.303   4.941
 4873SOL    HW115518   6.244   5.378   4.989
 4873SOL    HW215519   6.269   5.241   4.904
 4874SOL     OW15520   4.958   3.224   2.929
 4874SOL    HW115521   4.986   3.152   2.993
 4874SOL    HW215522   4.969   3.313   2.974
 4875SOL     OW15523   5.435   6.280   5.096
 4875SOL    HW115524   5.503   6.344   5.060
 4875SOL    HW215525   5.347   6.325   5.104
 4876SOL     OW15526   1.565   1.136   2.316
 4876SOL    HW115527   1.528   1.129   2.223
 4876SOL    HW215528   1.539   1.223   2.356
 4877SOL     OW15529   6.943   1.620   5.593
 4877SOL    HW115530   0.012   1.596   5.570
 4877SOL    HW215531   6.887   1.536   5.596
 4878SOL     OW15532   6.816   3.233   2.194
 4878SOL    HW115533   6.774   3.199   2.278
 4878SOL    HW215534   6.829   3.158   2.130
 4879SOL     OW15535   5.949   0.955   2.670
 4879SOL    HW115536   5.899   0.870   2.683
 4879SOL    HW215537   5.888   1.026   2.635
 4880SOL     OW15538   6.431   2.615   6.640
 4880SOL    HW115539   6.475   2.561   6.712
 4880SOL    HW215540   6.471   2.707   6.637
 4881SOL     OW15541   1.787   2.700   1.677
 4881SOL    HW115542   1.740   2.631   1.731
 4881SOL    HW215543   1.774   2.681   1.580
 4882SOL     OW15544   4.436   2.397   4.534
 4882SOL    HW115545   4.379   2.379   4.454
 4882SOL    HW215546   4.424   2.324   4.601
 4883SOL     OW15547   5.856   4.292   0.723
 4883SOL    HW115548   5.929   4.360   0.711
 4883SOL    HW215549   5.803   4.284   0.638
 4884SOL     OW15550   1.707   0.139   1.431
 4884SOL    HW115551   1.734   0.111   1.339
 4884SOL    HW215552   1.615   0.177   1.428
 4885SOL     OW15553   1.295   4.169   0.145
 4885SOL    HW115554   1.275   4.200   0.052
 4885SOL    HW215555   1.383   4.207   0.174
 4886SOL     OW15556   2.654   1.083   2.204
 4886SOL    HW115557   2.600   1.003   2.178
 4886SOL    HW215558   2.641   1.102   2.301
 4887SOL     OW15559   5.901   6.370   0.628
 4887SOL    HW115560   5.871   6.455   0.584
 4887SOL    HW215561   5.853   6.292   0.587
 4888SOL     OW15562   4.164   0.337   2.410
 4888SOL    HW115563   4.187   0.276   2.334
 4888SOL    HW215564   4.165   0.285   2.496
 4889SOL     OW15565   7.005   3.164   3.919
 4889SOL    HW115566   6.971   3.256   3.939
 4889SOL    HW215567   7.004   3.110   4.003
 4890SOL     OW15568   6.491   1.399   4.376
 4890SOL    HW115569   6.444   1.480   4.339
 4890SOL    HW215570   6.491   1.404   4.476
 4891SOL     OW15571   2.944   5.319   6.335
 4891SOL    HW115572   2.924   5.270   6.250
 4891SOL    HW215573   2.967   5.254   6.407
 4892SOL     OW15574   5.141   5.431   2.534
 4892SOL    HW115575   5.107   5.338   2.524
 4892SOL    HW215576   5.064   5.495   2.540
 4893SOL     OW15577   0.966   3.237   0.994
 4893SOL    HW115578   0.951   3.272   0.902
 4893SOL    HW215579   1.046   3.282   1.034
 4894SOL     OW15580   5.269   6.602   1.932
 4894SOL    HW115581   5.309   6.541   1.864
 4894SOL    HW215582   5.321   6.596   2.017
 4895SOL     OW15583   6.986   4.441   4.977
 4895SOL    HW115584   7.021   4.511   4.915
 4895SOL    HW215585   0.038   4.397   5.024
 4896SOL     OW15586   2.106   4.725   4.267
 4896SOL    HW115587   2.186   4.745   4.324
 4896SOL    HW215588   2.094   4.797   4.199
 4897SOL     OW15589   1.728   0.322   5.171
 4897SOL    HW115590   1.730   0.236   5.220
 4897SOL    HW215591   1.651   0.323   5.107
 4898SOL     OW15592   5.385   1.265   3.649
 4898SOL    HW115593   5.389   1.339   3.582
 4898SOL    HW215594   5.331   1.190   3.612
 4899SOL     OW15595   6.685   6.821   1.485
 4899SOL    HW115596   6.591   6.833   1.516
 4899SOL    HW215597   6.689   6.837   1.386
 4900SOL     OW15598   3.857   5.905   5.527
 4900SOL    HW115599   3.914   5.856   5.461
 4900SOL    HW215600   3.914   5.940   5.601
 4901SOL     OW15601   1.123   0.752   6.261
 4901SOL    HW115602   1.126   0.688   6.184
 4901SOL    HW215603   1.080   0.837   6.232
 4902SOL     OW15604   2.242   0.334   5.277
 4902SOL    HW115605   2.321   0.395   5.279
 4902SOL    HW215606   2.158   0.388   5.274
 4903SOL     OW15607   4.852   3.775   2.592
 4903SOL    HW115608   4.807   3.688   2.574
 4903SOL    HW215609   4.947   3.759   2.620
 4904SOL     OW15610   1.336   0.001   0.463
 4904SOL    HW115611   1.400   0.074   0.487
 4904SOL    HW215612   1.359   6.990   0.373
 4905SOL     OW15613   3.004   6.401   3.544
 4905SOL    HW115614   3.067   6.414   3.621
 4905SOL    HW215615   2.925   6.349   3.575
 4906SOL     OW15616   5.037   3.601   4.906
 4906SOL    HW115617   5.091   3.529   4.951
 4906SOL    HW215618   4.952   3.616   4.956
 4907SOL     OW15619   4.169   2.099   0.197
 4907SOL    HW115620   4.086   2.114   0.250
 4907SOL    HW215621   4.240   2.060   0.256
 4908SOL     OW15622   3.578   6.997   0.420
 4908SOL    HW115623   3.519   0.015   0.488
 4908SOL    HW215624   3.555   0.006   0.329
 4909SOL     OW15625   5.261   5.088   4.675
 4909SOL    HW115626   5.271   5.047   4.765
 4909SOL    HW215627   5.232   5.019   4.609
 4910SOL     OW15628   4.651   2.015   6.013
 4910SOL    HW115629   4.734   1.961   6.015
 4910SOL    HW215630   4.651   2.073   5.931
 4911SOL     OW15631   6.683   3.291   2.455
 4911SOL    HW115632   6.692   3.384   2.489
 4911SOL    HW215633   6.685   3.227   2.532
 4912SOL     OW15634   5.609   2.427   4.161
 4912SOL    HW115635   5.653   2.508   4.201
 4912SOL    HW215636   5.538   2.457   4.097
 4913SOL     OW15637   1.189   4.205   5.626
 4913SOL    HW115638   1.238   4.256   5.697
 4913SOL    HW215639   1.116   4.262   5.590
 4914SOL     OW15640   4.204   0.802   3.738
 4914SOL    HW115641   4.211   0.871   3.811
 4914SOL    HW215642   4.128   0.825   3.677
 4915SOL     OW15643   3.551   5.039   5.646
 4915SOL    HW115644   3.459   5.034   5.606
 4915SOL    HW215645   3.548   5.004   5.739
 4916SOL     OW15646   5.521   2.164   4.146
 4916SOL    HW115647   5.432   2.192   4.110
 4916SOL    HW215648   5.588   2.238   4.132
 4917SOL     OW15649   4.163   6.517   0.367
 4917SOL    HW115650   4.154   6.508   0.268
 4917SOL    HW215651   4.255   6.547   0.390
 4918SOL     OW15652   5.747   5.067   3.260
 4918SOL    HW115653   5.760   5.162   3.230
 4918SOL    HW215654   5.673   5.026   3.205
 4919SOL     OW15655   3.096   3.992   2.052
 4919SOL    HW115656   3.038   3.914   2.028
 4919SOL    HW215657   3.118   4.043   1.969
 4920SOL     OW15658   5.872   1.692   6.018
 4920SOL    HW115659   5.791   1.717   6.073
 4920SOL    HW215660   5.950   1.678   6.079
 4921SOL     OW15661   0.212   0.259   2.612
 4921SOL    HW115662   0.161   0.341   2.636
 4921SOL    HW215663   0.151   0.192   2.571
 4922SOL     OW15664   2.990   1.524   6.115
 4922SOL    HW115665   3.017   1.586   6.188
 4922SOL    HW215666   3.046   1.541   6.034
 4923SOL     OW15667   3.616   1.361   1.811
 4923SOL    HW115668   3.576   1.301   1.741
 4923SOL    HW215669   3.709   1.329   1.832
 4924SOL     OW15670   2.324   0.799   5.142
 4924SOL    HW115671   2.338   0.784   5.044
 4924SOL    HW215672   2.406   0.770   5.192
 4925SOL     OW15673   6.301   5.689   3.717
 4925SOL    HW115674   6.202   5.687   3.705
 4925SOL    HW215675   6.327   5.771   3.767
 4926SOL     OW15676   5.008   2.430   0.978
 4926SOL    HW115677   5.020   2.336   1.010
 4926SOL    HW215678   5.067   2.490   1.031
 4927SOL     OW15679   3.070   1.852   6.743
 4927SOL    HW115680   3.056   1.827   6.839
 4927SOL    HW215681   3.058   1.951   6.732
 4928SOL     OW15682   6.654   2.535   0.950
 4928SOL    HW115683   6.725   2.524   0.880
 4928SOL    HW215684   6.609   2.624   0.938
 4929SOL     OW15685   0.985   6.505   5.432
 4929SOL    HW115686   0.931   6.525   5.513
 4929SOL    HW215687   0.992   6.588   5.376
 4930SOL     OW15688   5.523   5.972   2.090
 4930SOL    HW115689   5.507   5.939   2.183
 4930SOL    HW215690   5.440   6.014   2.055
 4931SOL     OW15691   6.635   6.189   0.635
 4931SOL    HW115692   6.554   6.236   0.668
 4931SOL    HW215693   6.609   6.098   0.601
 4932SOL     OW15694   3.760   3.392   2.386
 4932SOL    HW115695   3.662   3.381   2.401
 4932SOL    HW215696   3.781   3.381   2.289
 4933SOL     OW15697   1.911   0.233   5.426
 4933SOL    HW115698   1.923   0.152   5.484
 4933SOL    HW215699   1.813   0.256   5.422
 4934SOL     OW15700   4.126   6.012   2.309
 4934SOL    HW115701   4.055   5.961   2.260
 4934SOL    HW215702   4.161   6.085   2.250
 4935SOL     OW15703   0.512   0.762   5.651
 4935SOL    HW115704   0.493   0.831   5.582
 4935SOL    HW215705   0.537   0.676   5.605
 4936SOL     OW15706   4.112   2.504   0.922
 4936SOL    HW115707   4.170   2.452   0.859
 4936SOL    HW215708   4.039   2.549   0.870
 4937SOL     OW15709   4.603   2.661   5.312
 4937SOL    HW115710   4.505   2.679   5.301
 4937SOL    HW215711   4.651   2.680   5.226
 4938SOL     OW15712   4.077   5.224   6.031
 4938SOL    HW115713   4.105   5.183   5.944
 4938SOL    HW215714   4.093   5.159   6.105
 4939SOL     OW15715   4.812   3.404   6.090
 4939SOL    HW115716   4.818   3.372   6.184
 4939SOL    HW215717   4.811   3.504   6.088
 4940SOL     OW15718   2.494   5.974   4.088
 4940SOL    HW115719   2.577   5.947   4.040
 4940SOL    HW215720   2.500   6.071   4.113
 4941SOL     OW15721   5.750   0.430   0.957
 4941SOL    HW115722   5.704   0.371   1.024
 4941SOL    HW215723   5.712   0.523   0.962
 4942SOL     OW15724   4.892   2.729   5.993
 4942SOL    HW115725   4.966   2.743   5.927
 4942SOL    HW215726   4.810   2.699   5.945
 4943SOL     OW15727   5.281   2.522   1.418
 4943SOL    HW115728   5.234   2.435   1.404
 4943SOL    HW215729   5.272   2.550   1.513
 4944SOL     OW15730   2.291   4.125   2.207
 4944SOL    HW115731   2.375   4.110   2.259
 4944SOL    HW215732   2.227   4.180   2.261
 4945SOL     OW15733   6.854   6.317   4.780
 4945SOL    HW115734   6.809   6.307   4.869
 4945SOL    HW215735   6.939   6.369   4.791
 4946SOL     OW15736   0.353   4.479   2.388
 4946SOL    HW115737   0.390   4.476   2.481
 4946SOL    HW215738   0.338   4.575   2.362
 4947SOL     OW15739   6.453   6.905   1.579
 4947SOL    HW115740   6.384   6.945   1.518
 4947SOL    HW215741   6.413   6.891   1.669
 4948SOL     OW15742   2.178   1.058   1.959
 4948SOL    HW115743   2.262   1.111   1.965
 4948SOL    HW215744   2.147   1.054   1.864
 4949SOL     OW15745   5.207   1.674   4.726
 4949SOL    HW115746   5.109   1.688   4.718
 4949SOL    HW215747   5.251   1.762   4.744
 4950SOL     OW15748   2.978   5.204   5.132
 4950SOL    HW115749   3.016   5.112   5.143
 4950SOL    HW215750   3.052   5.270   5.118
 4951SOL     OW15751   4.544   2.103   3.933
 4951SOL    HW115752   4.503   2.182   3.978
 4951SOL    HW215753   4.496   2.020   3.962
 4952SOL     OW15754   0.063   4.968   5.007
 4952SOL    HW115755   0.087   5.037   5.075
 4952SOL    HW215756   0.116   4.885   5.024
 4953SOL     OW15757   1.898   5.602   1.858
 4953SOL    HW115758   1.995   5.627   1.849
 4953SOL    HW215759   1.891   5.504   1.879
 4954SOL     OW15760   6.589   6.558   6.634
 4954SOL    HW115761   6.584   6.469   6.590
 4954SOL    HW215762   6.657   6.555   6.708
 4955SOL     OW15763   1.057   0.691   0.864
 4955SOL    HW115764   1.133   0.729   0.812
 4955SOL    HW215765   1.082   0.685   0.960
 4956SOL     OW15766   6.320   6.775   4.351
 4956SOL    HW115767   6.404   6.828   4.334
 4956SOL    HW215768   6.242   6.823   4.311
 4957SOL     OW15769   2.023   6.004   3.765
 4957SOL    HW115770   2.025   5.927   3.829
 4957SOL    HW215771   1.945   6.063   3.786
 4958SOL     OW15772   0.513   6.442   6.775
 4958SOL    HW115773   0.431   6.386   6.786
 4958SOL    HW215774   0.492   6.536   6.802
 4959SOL     OW15775   0.258   1.288   0.631
 4959SOL    HW115776   0.285   1.278   0.535
 4959SOL    HW215777   0.328   1.339   0.681
 4960SOL     OW15778   3.761   6.470   4.985
 4960SOL    HW115779   3.847   6.521   4.977
 4960SOL    HW215780   3.781   6.378   5.017
 4961SOL     OW15781   4.435   0.320   5.933
 4961SOL    HW115782   4.495   0.299   6.010
 4961SOL    HW215783   4.420   0.237   5.879
 4962SOL     OW15784   6.589   2.447   2.031
 4962SOL    HW115785   6.589   2.499   1.946
 4962SOL    HW215786   6.504   2.396   2.040
 4963SOL     OW15787   6.918   4.099   1.232
 4963SOL    HW115788   6.848   4.034   1.263
 4963SOL    HW215789   6.875   4.167   1.173
 4964SOL     OW15790   3.865   6.608   2.852
 4964SOL    HW115791   3.850   6.530   2.913
 4964SOL    HW215792   3.783   6.623   2.796
 4965SOL     OW15793   0.047   6.425   4.447
 4965SOL    HW115794   0.094   6.411   4.534
 4965SOL    HW215795   6.981   6.383   4.452
 4966SOL     OW15796   3.885   5.597   4.883
 4966SOL    HW115797   3.866   5.692   4.907
 4966SOL    HW215798   3.925   5.549   4.961
 4967SOL     OW15799   4.700   2.170   6.450
 4967SOL    HW115800   4.742   2.143   6.537
 4967SOL    HW215801   4.602   2.181   6.462
 4968SOL     OW15802   5.703   3.987   6.355
 4968SOL    HW115803   5.711   3.905   6.411
 4968SOL    HW215804   5.754   4.062   6.398
 4969SOL     OW15805   0.416   1.885   1.277
 4969SOL    HW115806   0.340   1.834   1.318
 4969SOL    HW215807   0.441   1.844   1.190
 4970SOL     OW15808   1.005   2.940   5.999
 4970SOL    HW115809   0.957   3.013   5.950
 4970SOL    HW215810   1.089   2.976   6.039
 4971SOL     OW15811   0.220   5.629   3.827
 4971SOL    HW115812   0.149   5.560   3.818
 4971SOL    HW215813   0.220   5.688   3.746
 4972SOL     OW15814   1.669   2.171   5.040
 4972SOL    HW115815   1.637   2.130   4.954
 4972SOL    HW215816   1.725   2.251   5.020
 4973SOL     OW15817   6.050   5.940   2.786
 4973SOL    HW115818   6.108   5.884   2.846
 4973SOL    HW215819   6.061   6.036   2.809
 4974SOL     OW15820   4.539   6.744   0.978
 4974SOL    HW115821   4.560   6.841   0.983
 4974SOL    HW215822   4.459   6.730   0.920
 4975SOL     OW15823   4.842   5.726   6.990
 4975SOL    HW115824   4.903   5.804   7.003
 4975SOL    HW215825   4.882   5.644   0.005
 4976SOL     OW15826   3.199   1.378   4.724
 4976SOL    HW115827   3.296   1.367   4.704
 4976SOL    HW215828   3.150   1.405   4.641
 4977SOL     OW15829   3.251   3.144   7.019
 4977SOL    HW115830   3.177   3.207   6.999
 4977SOL    HW215831   3.213   3.058   0.029
 4978SOL     OW15832   5.991   3.864   6.405
 4978SOL    HW115833   5.948   3.779   6.374
 4978SOL    HW215834   6.033   3.910   6.327
 4979SOL     OW15835   1.179   2.961   4.120
 4979SOL    HW115836   1.108   2.991   4.057
 4979SOL    HW215837   1.186   2.861   4.116
 4980SOL     OW15838   3.439   5.431   3.199
 4980SOL    HW115839   3.345   5.424   3.234
 4980SOL    HW215840   3.461   5.348   3.148
 4981SOL     OW15841   5.110   6.528   5.691
 4981SOL    HW115842   5.052   6.596   5.645
 4981SOL    HW215843   5.068   6.438   5.684
 4982SOL     OW15844   2.459   2.384   0.039
 4982SOL    HW115845   2.550   2.404   0.076
 4982SOL    HW215846   2.445   2.437   6.980
 4983SOL     OW15847   6.265   2.988   4.879
 4983SOL    HW115848   6.240   2.926   4.953
 4983SOL    HW215849   6.229   2.953   4.792
 4984SOL     OW15850   4.704   4.228   2.882
 4984SOL    HW115851   4.714   4.219   2.982
 4984SOL    HW215852   4.714   4.138   2.840
 4985SOL     OW15853   5.227   4.165   2.273
 4985SOL    HW115854   5.261   4.175   2.179
 4985SOL    HW215855   5.287   4.216   2.335
 4986SOL     OW15856   4.497   4.670   3.070
 4986SOL    HW115857   4.405   4.683   3.033
 4986SOL    HW215858   4.564   4.717   3.012
 4987SOL     OW15859   0.440   4.055   1.403
 4987SOL    HW115860   0.437   4.097   1.494
 4987SOL    HW215861   0.419   4.124   1.333
 4988SOL     OW15862   1.304   2.021   5.338
 4988SOL    HW115863   1.350   1.936   5.363
 4988SOL    HW215864   1.370   2.095   5.333
 4989SOL     OW15865   6.942   1.044   0.692
 4989SOL    HW115866   7.006   1.027   0.617
 4989SOL    HW215867   6.876   1.114   0.666
 4990SOL     OW15868   0.999   2.162   6.445
 4990SOL    HW115869   0.960   2.232   6.505
 4990SOL    HW215870   1.089   2.192   6.413
 4991SOL     OW15871   2.240   2.286   4.718
 4991SOL    HW115872   2.182   2.351   4.669
 4991SOL    HW215873   2.217   2.287   4.815
 4992SOL     OW15874   4.194   0.716   4.402
 4992SOL    HW115875   4.267   0.719   4.333
 4992SOL    HW215876   4.106   0.706   4.357
 4993SOL     OW15877   2.070   6.183   4.057
 4993SOL    HW115878   1.983   6.149   4.022
 4993SOL    HW215879   2.084   6.277   4.025
 4994SOL     OW15880   0.829   6.941   2.406
 4994SOL    HW115881   0.801   0.012   2.402
 4994SOL    HW215882   0.885   6.925   2.487
 4995SOL     OW15883   6.311   3.017   5.647
 4995SOL    HW115884   6.372   3.036   5.570
 4995SOL    HW215885   6.365   2.995   5.728
 4996SOL     OW15886   0.410   1.456   4.080
 4996SOL    HW115887   0.433   1.492   4.170
 4996SOL    HW215888   0.417   1.529   4.012
 4997SOL     OW15889   0.057   2.008   4.303
 4997SOL    HW115890   0.033   1.920   4.261
 4997SOL    HW215891   6.999   2.061   4.318
 4998SOL     OW15892   0.977   5.420   5.515
 4998SOL    HW115893   1.035   5.422   5.433
 4998SOL    HW215894   1.006   5.345   5.575
 4999SOL     OW15895   6.057   4.978   0.672
 4999SOL    HW115896   6.137   4.920   0.682
 4999SOL    HW215897   6.073   5.045   0.599
 5000SOL     OW15898   6.944   5.911   3.920
 5000SOL    HW115899   6.849   5.930   3.898
 5000SOL    HW215900   6.994   5.889   3.836
 5001SOL     OW15901   4.539   4.407   5.327
 5001SOL    HW115902   4.574   4.414   5.233
 5001SOL    HW215903   4.489   4.321   5.337
 5002SOL     OW15904   2.008   1.967   1.557
 5002SOL    HW115905   2.012   1.985   1.656
 5002SOL    HW215906   2.023   2.053   1.507
 5003SOL     OW15907   6.911   5.231   4.337
 5003SOL    HW115908   6.906   5.277   4.426
 5003SOL    HW215909   6.969   5.285   4.275
 5004SOL     OW15910   2.827   4.522   6.401
 5004SOL    HW115911   2.926   4.539   6.409
 5004SOL    HW215912   2.812   4.448   6.336
 5005SOL     OW15913   4.119   2.155   6.966
 5005SOL    HW115914   4.159   2.156   0.032
 5005SOL    HW215915   4.175   2.212   6.905
 5006SOL     OW15916   5.652   4.641   2.735
 5006SOL    HW115917   5.555   4.621   2.718
 5006SOL    HW215918   5.677   4.727   2.691
 5007SOL     OW15919   4.009   1.566   5.224
 5007SOL    HW115920   3.912   1.558   5.203
 5007SOL    HW215921   4.021   1.613   5.311
 5008SOL     OW15922   6.533   0.582   3.834
 5008SOL    HW115923   6.455   0.573   3.773
 5008SOL    HW215924   6.552   0.679   3.851
 5009SOL     OW15925   1.916   5.953   2.678
 5009SOL    HW115926   1.998   5.914   2.635
 5009SOL    HW215927   1.944   6.018   2.749
 5010SOL     OW15928   3.301   3.101   4.958
 5010SOL    HW115929   3.219   3.051   4.986
 5010SOL    HW215930   3.325   3.168   5.028
 5011SOL     OW15931   1.226   2.869   3.218
 5011SOL    HW115932   1.228   2.777   3.257
 5011SOL    HW215933   1.211   2.936   3.290
 5012SOL     OW15934   5.999   3.577   6.854
 5012SOL    HW115935   6.001   3.644   6.780
 5012SOL    HW215936   5.944   3.498   6.827
 5013SOL     OW15937   4.757   1.971   5.382
 5013SOL    HW115938   4.798   1.886   5.350
 5013SOL    HW215939   4.815   2.011   5.454
 5014SOL     OW15940   6.056   6.491   6.328
 5014SOL    HW115941   5.964   6.450   6.331
 5014SOL    HW215942   6.059   6.559   6.255
 5015SOL     OW15943   5.594   2.020   3.467
 5015SOL    HW115944   5.669   2.084   3.487
 5015SOL    HW215945   5.519   2.070   3.424
 5016SOL     OW15946   2.360   6.519   2.230
 5016SOL    HW115947   2.392   6.508   2.324
 5016SOL    HW215948   2.415   6.463   2.169
 5017SOL     OW15949   2.495   2.104   1.914
 5017SOL    HW115950   2.587   2.143   1.902
 5017SOL    HW215951   2.487   2.067   2.006
 5018SOL     OW15952   6.662   5.335   3.724
 5018SOL    HW115953   6.569   5.372   3.710
 5018SOL    HW215954   6.672   5.309   3.820
 5019SOL     OW15955   2.717   5.438   5.713
 5019SOL    HW115956   2.801   5.386   5.731
 5019SOL    HW215957   2.698   5.498   5.790
 5020SOL     OW15958   4.570   5.533   6.647
 5020SOL    HW115959   4.634   5.593   6.696
 5020SOL    HW215960   4.614   5.445   6.629
 5021SOL     OW15961   2.339   4.294   5.703
 5021SOL    HW115962   2.330   4.328   5.609
 5021SOL    HW215963   2.430   4.318   5.738
 5022SOL     OW15964   2.113   4.735   0.849
 5022SOL    HW115965   2.108   4.798   0.926
 5022SOL    HW215966   2.022   4.726   0.807
 5023SOL     OW15967   6.492   2.778   3.931
 5023SOL    HW115968   6.542   2.857   3.968
 5023SOL    HW215969   6.429   2.743   4.000
 5024SOL     OW15970   5.292   3.522   5.645
 5024SOL    HW115971   5.236   3.505   5.726
 5024SOL    HW215972   5.354   3.445   5.631
 5025SOL     OW15973   6.515   1.469   3.370
 5025SOL    HW115974   6.532   1.409   3.292
 5025SOL    HW215975   6.508   1.413   3.453
 5026SOL     OW15976   0.828   5.744   2.754
 5026SOL    HW115977   0.832   5.745   2.854
 5026SOL    HW215978   0.740   5.779   2.724
 5027SOL     OW15979   0.492   6.357   3.776
 5027SOL    HW115980   0.437   6.354   3.859
 5027SOL    HW215981   0.432   6.342   3.697
 5028SOL     OW15982   1.363   0.126   2.574
 5028SOL    HW115983   1.449   0.097   2.617
 5028SOL    HW215984   1.341   0.063   2.499
 5029SOL     OW15985   0.451   1.163   3.012
 5029SOL    HW115986   0.357   1.169   3.047
 5029SOL    HW215987   0.515   1.167   3.089
 5030SOL     OW15988   2.291   5.551   6.989
 5030SOL    HW115989   2.311   5.465   0.010
 5030SOL    HW215990   2.359   5.568   6.918
 5031SOL     OW15991   5.567   1.050   5.496
 5031SOL    HW115992   5.619   1.115   5.550
 5031SOL    HW215993   5.564   1.081   5.401
 5032SOL     OW15994   1.341   6.292   1.876
 5032SOL    HW115995   1.352   6.380   1.829
 5032SOL    HW215996   1.377   6.219   1.819
 5033SOL     OW15997   6.676   4.361   5.380
 5033SOL    HW115998   6.699   4.435   5.316
 5033SOL    HW215999   6.639   4.283   5.329
 5034SOL     OW16000   7.006   3.749   6.323
 5034SOL    HW116001   0.049   3.813   6.287
 5034SOL    HW216002   6.919   3.764   6.276
 5035SOL     OW16003   5.579   4.536   1.560
 5035SOL    HW116004   5.631   4.551   1.644
 5035SOL    HW216005   5.509   4.466   1.576
 5036SOL     OW16006   1.482   0.122   2.065
 5036SOL    HW116007   1.412   0.084   2.005
 5036SOL    HW216008   1.486   0.222   2.052
 5037SOL     OW16009   4.595   2.500   2.824
 5037SOL    HW116010   4.608   2.457   2.913
 5037SOL    HW216011   4.672   2.561   2.805
 5038SOL     OW16012   2.772   5.810   5.430
 5038SOL    HW116013   2.735   5.720   5.404
 5038SOL    HW216014   2.810   5.855   5.350
 5039SOL     OW16015   1.373   1.998   3.203
 5039SOL    HW116016   1.339   2.037   3.117
 5039SOL    HW216017   1.316   2.031   3.279
 5040SOL     OW16018   2.903   3.801   5.912
 5040SOL    HW116019   2.986   3.766   5.954
 5040SOL    HW216020   2.909   3.790   5.813
 5041SOL     OW16021   0.188   5.370   0.382
 5041SOL    HW116022   0.273   5.414   0.352
 5041SOL    HW216023   0.210   5.279   0.418
 5042SOL     OW16024   6.174   1.856   6.052
 5042SOL    HW116025   6.130   1.830   6.138
 5042SOL    HW216026   6.123   1.929   6.008
 5043SOL     OW16027   5.058   0.360   3.296
 5043SOL    HW116028   5.148   0.334   3.262
 5043SOL    HW216029   5.015   0.425   3.234
 5044SOL     OW16030   5.381   4.609   2.676
 5044SOL    HW116031   5.389   4.574   2.582
 5044SOL    HW216032   5.335   4.541   2.733
 5045SOL     OW16033   6.061   3.600   5.277
 5045SOL    HW116034   6.113   3.640   5.352
 5045SOL    HW216035   5.963   3.618   5.291
 5046SOL     OW16036   3.612   3.094   5.557
 5046SOL    HW116037   3.563   3.089   5.644
 5046SOL    HW216038   3.696   3.040   5.564
 5047SOL     OW16039   0.842   1.461   2.188
 5047SOL    HW116040   0.897   1.459   2.272
 5047SOL    HW216041   0.746   1.448   2.210
 5048SOL     OW16042   6.147   3.541   1.129
 5048SOL    HW116043   6.106   3.450   1.130
 5048SOL    HW216044   6.096   3.601   1.191
 5049SOL     OW16045   1.366   2.028   1.415
 5049SOL    HW116046   1.384   2.096   1.343
 5049SOL    HW216047   1.347   1.940   1.373
 5050SOL     OW16048   0.942   3.373   0.741
 5050SOL    HW116049   0.885   3.455   0.744
 5050SOL    HW216050   0.916   3.318   0.662
 5051SOL     OW16051   1.938   3.452   7.015
 5051SOL    HW116052   1.896   3.485   0.075
 5051SOL    HW216053   1.987   3.367   0.008
 5052SOL     OW16054   5.588   3.573   0.593
 5052SOL    HW116055   5.609   3.541   0.501
 5052SOL    HW216056   5.491   3.593   0.601
 5053SOL     OW16057   2.198   4.372   0.815
 5053SOL    HW116058   2.290   4.338   0.833
 5053SOL    HW216059   2.141   4.361   0.897
 5054SOL     OW16060   4.113   6.067   5.303
 5054SOL    HW116061   4.099   6.017   5.217
 5054SOL    HW216062   4.027   6.112   5.329
 5055SOL     OW16063   1.705   1.795   3.749
 5055SOL    HW116064   1.708   1.731   3.826
 5055SOL    HW216065   1.793   1.792   3.701
 5056SOL     OW16066   2.852   2.254   5.104
 5056SOL    HW116067   2.950   2.258   5.087
 5056SOL    HW216068   2.827   2.321   5.175
 5057SOL     OW16069   0.570   4.254   2.895
 5057SOL    HW116070   0.544   4.249   2.798
 5057SOL    HW216071   0.488   4.251   2.952
 5058SOL     OW16072   3.635   2.613   0.439
 5058SOL    HW116073   3.676   2.683   0.380
 5058SOL    HW216074   3.679   2.616   0.529
 5059SOL     OW16075   4.453   1.933   3.224
 5059SOL    HW116076   4.461   1.994   3.146
 5059SOL    HW216077   4.357   1.912   3.241
 5060SOL     OW16078   0.200   3.015   5.670
 5060SOL    HW116079   0.209   2.934   5.729
 5060SOL    HW216080   0.103   3.035   5.656
 5061SOL     OW16081   4.112   2.268   5.850
 5061SOL    HW116082   4.101   2.350   5.794
 5061SOL    HW216083   4.196   2.274   5.903
 5062SOL     OW16084   5.461   0.786   3.620
 5062SOL    HW116085   5.525   0.838   3.562
 5062SOL    HW216086   5.415   0.848   3.683
 5063SOL     OW16087   1.101   1.045   1.411
 5063SOL    HW116088   1.119   1.068   1.316
 5063SOL    HW216089   1.059   1.124   1.457
 5064SOL     OW16090   5.247   4.960   0.768
 5064SOL    HW116091   5.160   5.009   0.761
 5064SOL    HW216092   5.321   5.026   0.777
 5065SOL     OW16093   2.100   1.270   2.182
 5065SOL    HW116094   2.105   1.236   2.276
 5065SOL    HW216095   2.116   1.195   2.119
 5066SOL     OW16096   1.913   5.149   2.792
 5066SOL    HW116097   1.958   5.153   2.703
 5066SOL    HW216098   1.846   5.075   2.793
 5067SOL     OW16099   5.924   2.747   1.092
 5067SOL    HW116100   5.939   2.695   1.008
 5067SOL    HW216101   5.959   2.840   1.081
 5068SOL     OW16102   2.070   5.535   0.528
 5068SOL    HW116103   2.156   5.583   0.510
 5068SOL    HW216104   1.995   5.582   0.480
 5069SOL     OW16105   4.223   5.129   5.305
 5069SOL    HW116106   4.137   5.096   5.344
 5069SOL    HW216107   4.263   5.057   5.249
 5070SOL     OW16108   6.055   3.736   5.037
 5070SOL    HW116109   6.072   3.685   5.122
 5070SOL    HW216110   6.024   3.828   5.059
 5071SOL     OW16111   2.818   6.633   3.692
 5071SOL    HW116112   2.860   6.608   3.779
 5071SOL    HW216113   2.719   6.627   3.699
 5072SOL     OW16114   0.859   1.414   1.877
 5072SOL    HW116115   0.895   1.458   1.795
 5072SOL    HW216116   0.935   1.388   1.937
 5073SOL     OW16117   2.419   1.200   3.052
 5073SOL    HW116118   2.493   1.248   3.100
 5073SOL    HW216119   2.340   1.260   3.044
 5074SOL     OW16120   3.423   2.285   1.770
 5074SOL    HW116121   3.513   2.312   1.804
 5074SOL    HW216122   3.375   2.365   1.735
 5075SOL     OW16123   6.890   3.399   0.595
 5075SOL    HW116124   6.862   3.303   0.590
 5075SOL    HW216125   6.984   3.404   0.630
 5076SOL     OW16126   0.127   0.167   6.157
 5076SOL    HW116127   0.196   0.186   6.087
 5076SOL    HW216128   0.137   0.073   6.189
 5077SOL     OW16129   0.503   4.313   3.963
 5077SOL    HW116130   0.493   4.396   4.018
 5077SOL    HW216131   0.544   4.337   3.875
 5078SOL     OW16132   0.067   1.908   3.917
 5078SOL    HW116133   0.158   1.948   3.931
 5078SOL    HW216134   0.077   1.817   3.876
 5079SOL     OW16135   1.411   3.456   5.756
 5079SOL    HW116136   1.477   3.499   5.695
 5079SOL    HW216137   1.455   3.434   5.844
 5080SOL     OW16138   5.957   5.502   0.209
 5080SOL    HW116139   5.905   5.517   0.126
 5080SOL    HW216140   6.037   5.445   0.189
 5081SOL     OW16141   2.512   4.530   5.230
 5081SOL    HW116142   2.449   4.558   5.303
 5081SOL    HW216143   2.592   4.485   5.269
 5082SOL     OW16144   5.860   5.693   1.366
 5082SOL    HW116145   5.911   5.611   1.392
 5082SOL    HW216146   5.815   5.731   1.447
 5083SOL     OW16147   2.606   0.278   3.986
 5083SOL    HW116148   2.680   0.215   3.963
 5083SOL    HW216149   2.536   0.230   4.039
 5084SOL     OW16150   2.972   4.183   5.636
 5084SOL    HW116151   2.875   4.157   5.638
 5084SOL    HW216152   3.027   4.111   5.677
 5085SOL     OW16153   0.268   4.781   5.175
 5085SOL    HW116154   0.231   4.702   5.223
 5085SOL    HW216155   0.310   4.844   5.241
 5086SOL     OW16156   1.378   5.214   1.934
 5086SOL    HW116157   1.312   5.228   2.007
 5086SOL    HW216158   1.339   5.153   1.864
 5087SOL     OW16159   6.611   4.839   2.545
 5087SOL    HW116160   6.522   4.812   2.507
 5087SOL    HW216161   6.597   4.901   2.621
 5088SOL     OW16162   4.602   5.489   2.435
 5088SOL    HW116163   4.602   5.498   2.336
 5088SOL    HW216164   4.695   5.498   2.470
 5089SOL     OW16165   4.964   5.741   5.760
 5089SOL    HW116166   5.049   5.759   5.710
 5089SOL    HW216167   4.969   5.782   5.851
 5090SOL     OW16168   2.748   6.748   5.005
 5090SOL    HW116169   2.699   6.810   4.945
 5090SOL    HW216170   2.721   6.766   5.100
 5091SOL     OW16171   6.844   6.570   6.467
 5091SOL    HW116172   6.811   6.539   6.377
 5091SOL    HW216173   6.767   6.601   6.522
 5092SOL     OW16174   3.686   3.525   4.082
 5092SOL    HW116175   3.689   3.625   4.079
 5092SOL    HW216176   3.715   3.493   4.172
 5093SOL     OW16177   2.594   2.384   3.086
 5093SOL    HW116178   2.512   2.360   3.034
 5093SOL    HW216179   2.622   2.306   3.141
 5094SOL     OW16180   1.559   5.889   4.592
 5094SOL    HW116181   1.615   5.809   4.570
 5094SOL    HW216182   1.477   5.890   4.534
 5095SOL     OW16183   6.695   1.253   2.662
 5095SOL    HW116184   6.642   1.168   2.670
 5095SOL    HW216185   6.792   1.231   2.654
 5096SOL     OW16186   6.552   3.172   5.289
 5096SOL    HW116187   6.614   3.245   5.316
 5096SOL    HW216188   6.458   3.206   5.286
 5097SOL     OW16189   1.107   0.371   5.921
 5097SOL    HW116190   1.033   0.334   5.866
 5097SOL    HW216191   1.195   0.339   5.886
 5098SOL     OW16192   3.458   2.903   0.285
 5098SOL    HW116193   3.489   2.988   0.241
 5098SOL    HW216194   3.476   2.908   0.383
 5099SOL     OW16195   1.889   6.342   1.910
 5099SOL    HW116196   1.805   6.314   1.863
 5099SOL    HW216197   1.951   6.264   1.917
 5100SOL     OW16198   5.048   3.254   1.696
 5100SOL    HW116199   5.045   3.327   1.765
 5100SOL    HW216200   5.016   3.168   1.736
 5101SOL     OW16201   3.138   0.040   5.515
 5101SOL    HW116202   3.221   0.051   5.460
 5101SOL    HW216203   3.127   0.119   5.575
 5102SOL     OW16204   5.262   5.332   4.030
 5102SOL    HW116205   5.301   5.296   3.946
 5102SOL    HW216206   5.275   5.267   4.104
 5103SOL     OW16207   0.749   0.474   6.515
 5103SOL    HW116208   0.666   0.491   6.462
 5103SOL    HW216209   0.818   0.542   6.492
 5104SOL     OW16210   3.661   3.099   2.622
 5104SOL    HW116211   3.646   3.189   2.662
 5104SOL    HW216212   3.732   3.106   2.551
 5105SOL     OW16213   4.177   2.942   6.862
 5105SOL    HW116214   4.193   3.038   6.839
 5105SOL    HW216215   4.257   2.905   6.908
 5106SOL     OW16216   3.942   2.001   1.390
 5106SOL    HW116217   4.014   2.060   1.353
 5106SOL    HW216218   3.933   1.920   1.332
 5107SOL     OW16219   5.428   4.684   0.424
 5107SOL    HW116220   5.377   4.681   0.338
 5107SOL    HW216221   5.368   4.715   0.498
 5108SOL     OW16222   3.521   4.636   1.007
 5108SOL    HW116223   3.466   4.664   1.087
 5108SOL    HW216224   3.520   4.710   0.939
 5109SOL     OW16225   0.811   2.711   1.695
 5109SOL    HW116226   0.806   2.772   1.773
 5109SOL    HW216227   0.805   2.616   1.726
 5110SOL     OW16228   4.819   0.296   5.495
 5110SOL    HW116229   4.784   0.208   5.465
 5110SOL    HW216230   4.801   0.307   5.593
 5111SOL     OW16231   0.954   5.261   5.197
 5111SOL    HW116232   0.888   5.260   5.272
 5111SOL    HW216233   1.025   5.328   5.216
 5112SOL     OW16234   0.932   6.657   2.902
 5112SOL    HW116235   1.012   6.596   2.901
 5112SOL    HW216236   0.930   6.708   2.988
 5113SOL     OW16237   1.891   4.204   0.128
 5113SOL    HW116238   1.983   4.231   0.097
 5113SOL    HW216239   1.823   4.260   0.081
 5114SOL     OW16240   4.486   4.924   1.779
 5114SOL    HW116241   4.522   4.838   1.742
 5114SOL    HW216242   4.555   4.996   1.770
 5115SOL     OW16243   2.160   4.056   0.752
 5115SOL    HW116244   2.160   3.956   0.745
 5115SOL    HW216245   2.127   4.083   0.842
 5116SOL     OW16246   0.849   0.040   5.505
 5116SOL    HW116247   0.933   0.087   5.477
 5116SOL    HW216248   0.872   6.987   5.562
 5117SOL     OW16249   0.211   2.287   4.047
 5117SOL    HW116250   0.227   2.227   4.125
 5117SOL    HW216251   0.136   2.350   4.066
 5118SOL     OW16252   4.109   5.212   0.211
 5118SOL    HW116253   4.167   5.218   0.130
 5118SOL    HW216254   4.032   5.151   0.192
 5119SOL     OW16255   5.667   1.359   0.631
 5119SOL    HW116256   5.750   1.404   0.663
 5119SOL    HW216257   5.679   1.329   0.536
 5120SOL     OW16258   5.217   6.616   6.680
 5120SOL    HW116259   5.211   6.533   6.735
 5120SOL    HW216260   5.306   6.621   6.636
 5121SOL     OW16261   1.094   3.442   6.073
 5121SOL    HW116262   1.146   3.499   6.137
 5121SOL    HW216263   1.102   3.479   5.980
 5122SOL     OW16264   4.935   4.953   3.792
 5122SOL    HW116265   4.861   4.933   3.728
 5122SOL    HW216266   4.999   5.016   3.748
 5123SOL     OW16267   4.817   2.901   2.423
 5123SOL    HW116268   4.731   2.952   2.434
 5123SOL    HW216269   4.856   2.922   2.333
 5124SOL     OW16270   1.638   6.438   5.382
 5124SOL    HW116271   1.639   6.355   5.439
 5124SOL    HW216272   1.721   6.491   5.399
 5125SOL     OW16273   6.364   1.911   3.540
 5125SOL    HW116274   6.387   1.855   3.460
 5125SOL    HW216275   6.422   1.992   3.541
 5126SOL     OW16276   1.682   0.346   1.681
 5126SOL    HW116277   1.743   0.389   1.615
 5126SOL    HW216278   1.726   0.345   1.771
 5127SOL     OW16279   2.377   6.077   6.922
 5127SOL    HW116280   2.411   5.986   6.897
 5127SOL    HW216281   2.454   6.136   6.945
 5128SOL     OW16282   6.084   6.990   1.845
 5128SOL    HW116283   6.022   7.009   1.769
 5128SOL    HW216284   6.048   0.006   1.928
 5129SOL     OW16285   6.804   6.608   0.165
 5129SOL    HW116286   6.789   6.559   0.251
 5129SOL    HW216287   6.824   6.542   0.093
 5130SOL     OW16288   6.285   4.838   2.750
 5130SOL    HW116289   6.211   4.884   2.800
 5130SOL    HW216290   6.304   4.750   2.793
 5131SOL     OW16291   2.093   2.472   2.990
 5131SOL    HW116292   2.145   2.557   2.979
 5131SOL    HW216293   2.002   2.483   2.951
 5132SOL     OW16294   3.042   5.883   4.908
 5132SOL    HW116295   3.065   5.952   4.977
 5132SOL    HW216296   2.989   5.926   4.834
 5133SOL     OW16297   3.670   6.462   5.403
 5133SOL    HW116298   3.642   6.489   5.311
 5133SOL    HW216299   3.635   6.371   5.424
 5134SOL     OW16300   5.854   4.018   6.107
 5134SOL    HW116301   5.950   4.005   6.134
 5134SOL    HW216302   5.796   4.009   6.188
 5135SOL     OW16303   5.374   1.086   4.266
 5135SOL    HW116304   5.380   1.152   4.191
 5135SOL    HW216305   5.278   1.077   4.294
 5136SOL     OW16306   3.804   1.182   5.264
 5136SOL    HW116307   3.765   1.166   5.355
 5136SOL    HW216308   3.820   1.094   5.219
 5137SOL     OW16309   3.534   4.012   6.752
 5137SOL    HW116310   3.543   4.072   6.672
 5137SOL    HW216311   3.448   4.031   6.798
 5138SOL     OW16312   2.055   3.179   5.756
 5138SOL    HW116313   2.141   3.155   5.801
 5138SOL    HW216314   1.986   3.200   5.825
 5139SOL     OW16315   0.558   0.320   3.889
 5139SOL    HW116316   0.482   0.260   3.915
 5139SOL    HW216317   0.524   0.392   3.828
 5140SOL     OW16318   3.456   2.773   1.877
 5140SOL    HW116319   3.528   2.736   1.818
 5140SOL    HW216320   3.422   2.859   1.839
 5141SOL     OW16321   0.476   3.519   5.250
 5141SOL    HW116322   0.400   3.535   5.312
 5141SOL    HW216323   0.508   3.425   5.261
 5142SOL     OW16324   5.839   3.018   3.210
 5142SOL    HW116325   5.897   3.054   3.282
 5142SOL    HW216326   5.773   2.953   3.249
 5143SOL     OW16327   6.933   5.376   5.014
 5143SOL    HW116328   7.004   5.414   5.074
 5143SOL    HW216329   6.900   5.448   4.953
 5144SOL     OW16330   1.940   1.450   4.742
 5144SOL    HW116331   1.910   1.459   4.647
 5144SOL    HW216332   1.995   1.529   4.767
 5145SOL     OW16333   3.367   5.840   5.732
 5145SOL    HW116334   3.367   5.880   5.824
 5145SOL    HW216335   3.452   5.788   5.718
 5146SOL     OW16336   2.693   4.980   6.915
 5146SOL    HW116337   2.666   5.027   7.000
 5146SOL    HW216338   2.614   4.928   6.880
 5147SOL     OW16339   6.356   5.092   6.505
 5147SOL    HW116340   6.386   5.182   6.538
 5147SOL    HW216341   6.308   5.044   6.578
 5148SOL     OW16342   0.718   6.890   1.691
 5148SOL    HW116343   0.672   6.807   1.723
 5148SOL    HW216344   0.817   6.875   1.692
 5149SOL     OW16345   6.851   0.431   5.945
 5149SOL    HW116346   6.813   0.368   5.877
 5149SOL    HW216347   6.922   0.487   5.902
 5150SOL     OW16348   1.790   5.178   3.959
 5150SOL    HW116349   1.836   5.091   3.945
 5150SOL    HW216350   1.799   5.206   4.055
 5151SOL     OW16351   4.529   0.827   6.235
 5151SOL    HW116352   4.626   0.813   6.255
 5151SOL    HW216353   4.496   0.910   6.279
 5152SOL     OW16354   0.761   4.929   0.403
 5152SOL    HW116355   0.674   4.978   0.409
 5152SOL    HW216356   0.786   4.894   0.494
 5153SOL     OW16357   1.709   2.015   1.105
 5153SOL    HW116358   1.683   2.110   1.117
 5153SOL    HW216359   1.782   1.992   1.169
 5154SOL     OW16360   1.949   3.979   5.209
 5154SOL    HW116361   2.027   3.923   5.181
 5154SOL    HW216362   1.939   3.976   5.308
 5155SOL     OW16363   3.805   0.972   2.084
 5155SOL    HW116364   3.815   0.955   1.986
 5155SOL    HW216365   3.870   1.042   2.113
 5156SOL     OW16366   5.742   2.425   6.126
 5156SOL    HW116367   5.650   2.458   6.148
 5156SOL    HW216368   5.792   2.496   6.076
 5157SOL     OW16369   5.789   2.604   4.263
 5157SOL    HW116370   5.888   2.598   4.257
 5157SOL    HW216371   5.760   2.596   4.358
 5158SOL     OW16372   3.912   0.656   0.795
 5158SOL    HW116373   3.968   0.603   0.732
 5158SOL    HW216374   3.833   0.602   0.824
 5159SOL     OW16375   1.952   3.321   4.857
 5159SOL    HW116376   1.875   3.269   4.895
 5159SOL    HW216377   1.937   3.419   4.871
 5160SOL     OW16378   1.463   2.869   4.488
 5160SOL    HW116379   1.393   2.798   4.483
 5160SOL    HW216380   1.460   2.925   4.406
 5161SOL     OW16381   1.416   3.410   6.391
 5161SOL    HW116382   1.447   3.388   6.483
 5161SOL    HW216383   1.471   3.359   6.324
 5162SOL     OW16384   6.508   5.613   4.819
 5162SOL    HW116385   6.535   5.625   4.723
 5162SOL    HW216386   6.488   5.703   4.859
 5163SOL     OW16387   5.351   3.766   0.887
 5163SOL    HW116388   5.290   3.725   0.955
 5163SOL    HW216389   5.424   3.816   0.934
 5164SOL     OW16390   5.630   5.003   5.874
 5164SOL    HW116391   5.696   4.964   5.810
 5164SOL    HW216392   5.657   4.981   5.968
 5165SOL     OW16393   6.321   3.345   3.892
 5165SOL    HW116394   6.222   3.334   3.905
 5165SOL    HW216395   6.355   3.269   3.837
 5166SOL     OW16396   1.402   0.196   1.415
 5166SOL    HW116397   1.439   0.286   1.389
 5166SOL    HW216398   1.308   0.207   1.447
 5167SOL     OW16399   1.178   6.922   5.373
 5167SOL    HW116400   1.169   7.020   5.394
 5167SOL    HW216401   1.175   6.869   5.458
 5168SOL     OW16402   4.146   1.872   2.970
 5168SOL    HW116403   4.134   1.954   3.026
 5168SOL    HW216404   4.142   1.791   3.029
 5169SOL     OW16405   3.975   3.959   6.546
 5169SOL    HW116406   3.932   3.953   6.636
 5169SOL    HW216407   4.000   4.054   6.527
 5170SOL     OW16408   4.222   4.797   4.609
 5170SOL    HW116409   4.197   4.851   4.529
 5170SOL    HW216410   4.268   4.713   4.580
 5171SOL     OW16411   2.505   4.530   4.692
 5171SOL    HW116412   2.477   4.611   4.745
 5171SOL    HW216413   2.500   4.449   4.751
 5172SOL     OW16414   2.064   4.690   6.919
 5172SOL    HW116415   2.122   4.643   6.985
 5172SOL    HW216416   2.109   4.691   6.830
 5173SOL     OW16417   6.426   3.530   6.093
 5173SOL    HW116418   6.375   3.615   6.080
 5173SOL    HW216419   6.456   3.523   6.188
 5174SOL     OW16420   1.856   4.486   6.156
 5174SOL    HW116421   1.830   4.504   6.061
 5174SOL    HW216422   1.890   4.571   6.197
 5175SOL     OW16423   0.488   5.430   6.257
 5175SOL    HW116424   0.436   5.344   6.258
 5175SOL    HW216425   0.493   5.464   6.163
 5176SOL     OW16426   5.552   4.283   6.392
 5176SOL    HW116427   5.470   4.278   6.336
 5176SOL    HW216428   5.531   4.256   6.486
 5177SOL     OW16429   5.119   6.116   6.689
 5177SOL    HW116430   5.068   6.194   6.723
 5177SOL    HW216431   5.216   6.127   6.710
 5178SOL     OW16432   3.000   2.195   1.679
 5178SOL    HW116433   3.001   2.251   1.762
 5178SOL    HW216434   3.002   2.098   1.704
 5179SOL     OW16435   3.326   5.814   4.902
 5179SOL    HW116436   3.384   5.776   4.974
 5179SOL    HW216437   3.231   5.816   4.934
 5180SOL     OW16438   2.691   2.420   0.249
 5180SOL    HW116439   2.632   2.499   0.266
 5180SOL    HW216440   2.664   2.346   0.311
 5181SOL     OW16441   2.821   5.664   2.602
 5181SOL    HW116442   2.867   5.656   2.513
 5181SOL    HW216443   2.755   5.591   2.612
 5182SOL     OW16444   4.770   4.365   1.481
 5182SOL    HW116445   4.691   4.324   1.526
 5182SOL    HW216446   4.851   4.311   1.500
 5183SOL     OW16447   3.944   0.822   3.296
 5183SOL    HW116448   3.976   0.734   3.261
 5183SOL    HW216449   3.844   0.822   3.302
 5184SOL     OW16450   1.239   1.908   2.766
 5184SOL    HW116451   1.257   1.986   2.827
 5184SOL    HW216452   1.161   1.929   2.708
 5185SOL     OW16453   3.948   0.525   1.787
 5185SOL    HW116454   3.959   0.499   1.691
 5185SOL    HW216455   4.017   0.477   1.842
 5186SOL     OW16456   5.814   4.780   6.894
 5186SOL    HW116457   5.779   4.793   6.987
 5186SOL    HW216458   5.894   4.719   6.896
 5187SOL     OW16459   5.292   1.927   4.052
 5187SOL    HW116460   5.362   1.895   4.116
 5187SOL    HW216461   5.287   2.027   4.056
 5188SOL     OW16462   0.976   3.066   4.298
 5188SOL    HW116463   0.919   3.004   4.351
 5188SOL    HW216464   1.055   3.016   4.261
 5189SOL     OW16465   4.220   5.222   6.697
 5189SOL    HW116466   4.122   5.202   6.702
 5189SOL    HW216467   4.235   5.300   6.636
 5190SOL     OW16468   2.002   3.105   3.158
 5190SOL    HW116469   1.923   3.154   3.195
 5190SOL    HW216470   1.999   3.010   3.188
 5191SOL     OW16471   4.662   0.970   2.223
 5191SOL    HW116472   4.574   1.018   2.227
 5191SOL    HW216473   4.650   0.884   2.174
 5192SOL     OW16474   5.900   4.550   2.003
 5192SOL    HW116475   5.888   4.499   2.089
 5192SOL    HW216476   5.928   4.643   2.024
 5193SOL     OW16477   4.858   4.019   2.477
 5193SOL    HW116478   4.849   3.931   2.523
 5193SOL    HW216479   4.791   4.083   2.513
 5194SOL     OW16480   5.192   1.864   6.753
 5194SOL    HW116481   5.236   1.873   6.842
 5194SOL    HW216482   5.141   1.947   6.732
 5195SOL     OW16483   6.427   6.113   5.262
 5195SOL    HW116484   6.447   6.100   5.359
 5195SOL    HW216485   6.328   6.109   5.247
 5196SOL     OW16486   0.706   3.252   1.677
 5196SOL    HW116487   0.665   3.339   1.652
 5196SOL    HW216488   0.687   3.233   1.773
 5197SOL     OW16489   3.662   6.006   5.351
 5197SOL    HW116490   3.597   5.933   5.332
 5197SOL    HW216491   3.736   5.971   5.408
 5198SOL     OW16492   4.136   0.395   5.742
 5198SOL    HW116493   4.123   0.440   5.830
 5198SOL    HW216494   4.051   0.399   5.690
 5199SOL     OW16495   0.140   5.205   1.726
 5199SOL    HW116496   0.042   5.207   1.707
 5199SOL    HW216497   0.168   5.111   1.748
 5200SOL     OW16498   7.019   6.841   5.137
 5200SOL    HW116499   7.024   6.854   5.038
 5200SOL    HW216500   6.928   6.868   5.169
 5201SOL     OW16501   5.951   4.558   5.110
 5201SOL    HW116502   6.021   4.523   5.048
 5201SOL    HW216503   5.869   4.582   5.058
 5202SOL     OW16504   3.476   3.118   5.820
 5202SOL    HW116505   3.414   3.077   5.887
 5202SOL    HW216506   3.423   3.176   5.757
 5203SOL     OW16507   1.297   0.496   6.357
 5203SOL    HW116508   1.225   0.501   6.426
 5203SOL    HW216509   1.349   0.581   6.357
 5204SOL     OW16510   2.220   0.634   0.604
 5204SOL    HW116511   2.258   0.646   0.695
 5204SOL    HW216512   2.293   0.640   0.536
 5205SOL     OW16513   6.899   6.663   1.545
 5205SOL    HW116514   6.833   6.734   1.521
 5205SOL    HW216515   6.852   6.589   1.594
 5206SOL     OW16516   1.189   4.682   3.502
 5206SOL    HW116517   1.136   4.608   3.462
 5206SOL    HW216518   1.286   4.657   3.503
 5207SOL     OW16519   5.737   6.728   4.796
 5207SOL    HW116520   5.775   6.725   4.888
 5207SOL    HW216521   5.683   6.645   4.779
 5208SOL     OW16522   6.474   2.031   0.480
 5208SOL    HW116523   6.525   1.992   0.404
 5208SOL    HW216524   6.426   2.114   0.449
 5209SOL     OW16525   5.428   6.606   3.188
 5209SOL    HW116526   5.483   6.659   3.253
 5209SOL    HW216527   5.474   6.520   3.168
 5210SOL     OW16528   5.573   4.650   0.828
 5210SOL    HW116529   5.616   4.738   0.806
 5210SOL    HW216530   5.506   4.663   0.901
 5211SOL     OW16531   5.210   2.344   4.733
 5211SOL    HW116532   5.226   2.322   4.829
 5211SOL    HW216533   5.144   2.419   4.727
 5212SOL     OW16534   6.963   4.178   0.679
 5212SOL    HW116535   6.913   4.093   0.663
 5212SOL    HW216536   6.949   4.241   0.603
 5213SOL     OW16537   4.082   3.641   3.095
 5213SOL    HW116538   4.103   3.615   3.189
 5213SOL    HW216539   4.054   3.737   3.093
 5214SOL     OW16540   5.587   3.323   5.412
 5214SOL    HW116541   5.635   3.397   5.365
 5214SOL    HW216542   5.522   3.280   5.349
 5215SOL     OW16543   0.525   5.142   4.937
 5215SOL    HW116544   0.606   5.182   4.894
 5215SOL    HW216545   0.443   5.186   4.901
 5216SOL     OW16546   5.514   4.790   1.462
 5216SOL    HW116547   5.560   4.702   1.462
 5216SOL    HW216548   5.459   4.799   1.545
 5217SOL     OW16549   4.898   6.710   2.898
 5217SOL    HW116550   4.818   6.704   2.958
 5217SOL    HW216551   4.977   6.668   2.942
 5218SOL     OW16552   6.116   0.203   0.365
 5218SOL    HW116553   6.016   0.198   0.367
 5218SOL    HW216554   6.145   0.297   0.346
 5219SOL     OW16555   3.270   0.880   5.732
 5219SOL    HW116556   3.345   0.823   5.763
 5219SOL    HW216557   3.187   0.825   5.722
 5220SOL     OW16558   1.733   5.242   4.582
 5220SOL    HW116559   1.715   5.191   4.498
 5220SOL    HW216560   1.771   5.181   4.651
 5221SOL     OW16561   5.690   6.173   1.454
 5221SOL    HW116562   5.690   6.176   1.354
 5221SOL    HW216563   5.763   6.112   1.485
 5222SOL     OW16564   6.889   3.561   1.829
 5222SOL    HW116565   6.870   3.573   1.926
 5222SOL    HW216566   6.880   3.464   1.804
 5223SOL     OW16567   6.258   2.919   0.472
 5223SOL    HW116568   6.321   2.873   0.535
 5223SOL    HW216569   6.285   2.899   0.378
 5224SOL     OW16570   0.720   1.288   5.198
 5224SOL    HW116571   0.768   1.351   5.137
 5224SOL    HW216572   0.622   1.294   5.181
 5225SOL     OW16573   6.891   1.591   4.735
 5225SOL    HW116574   6.889   1.661   4.664
 5225SOL    HW216575   6.838   1.621   4.814
 5226SOL     OW16576   0.439   6.498   4.423
 5226SOL    HW116577   0.387   6.446   4.355
 5226SOL    HW216578   0.530   6.518   4.387
 5227SOL     OW16579   0.742   3.898   5.897
 5227SOL    HW116580   0.791   3.863   5.817
 5227SOL    HW216581   0.791   3.977   5.934
 5228SOL     OW16582   0.792   1.860   5.348
 5228SOL    HW116583   0.791   1.793   5.422
 5228SOL    HW216584   0.819   1.815   5.263
 5229SOL     OW16585   3.154   1.558   5.898
 5229SOL    HW116586   3.253   1.550   5.902
 5229SOL    HW216587   3.119   1.503   5.822
 5230SOL     OW16588   6.777   0.124   2.531
 5230SOL    HW116589   6.863   0.167   2.557
 5230SOL    HW216590   6.706   0.194   2.522
 5231SOL     OW16591   6.184   3.556   2.262
 5231SOL    HW116592   6.255   3.569   2.192
 5231SOL    HW216593   6.161   3.644   2.303
 5232SOL     OW16594   1.610   2.272   5.864
 5232SOL    HW116595   1.518   2.234   5.876
 5232SOL    HW216596   1.662   2.213   5.802
 5233SOL     OW16597   3.900   6.560   2.335
 5233SOL    HW116598   3.978   6.524   2.284
 5233SOL    HW216599   3.908   6.535   2.431
 5234SOL     OW16600   3.070   2.133   6.034
 5234SOL    HW116601   3.109   2.192   5.964
 5234SOL    HW216602   3.051   2.043   5.996
 5235SOL     OW16603   2.869   1.792   1.601
 5235SOL    HW116604   2.853   1.859   1.529
 5235SOL    HW216605   2.791   1.730   1.607
 5236SOL     OW16606   3.271   5.227   1.776
 5236SOL    HW116607   3.265   5.278   1.862
 5236SOL    HW216608   3.270   5.129   1.795
 5237SOL     OW16609   1.968   1.788   1.998
 5237SOL    HW116610   1.972   1.832   1.908
 5237SOL    HW216611   1.908   1.708   1.993
 5238SOL     OW16612   0.292   0.567   3.280
 5238SOL    HW116613   0.336   0.608   3.200
 5238SOL    HW216614   0.338   0.600   3.363
 5239SOL     OW16615   2.684   4.437   1.133
 5239SOL    HW116616   2.717   4.352   1.093
 5239SOL    HW216617   2.605   4.417   1.191
 5240SOL     OW16618   2.033   4.352   5.393
 5240SOL    HW116619   2.080   4.308   5.317
 5240SOL    HW216620   2.014   4.283   5.464
 5241SOL     OW16621   1.821   6.314   2.779
 5241SOL    HW116622   1.826   6.397   2.835
 5241SOL    HW216623   1.877   6.243   2.821
 5242SOL     OW16624   3.595   6.828   6.093
 5242SOL    HW116625   3.526   6.879   6.041
 5242SOL    HW216626   3.684   6.835   6.047
 5243SOL     OW16627   2.608   6.419   2.377
 5243SOL    HW116628   2.614   6.448   2.472
 5243SOL    HW216629   2.634   6.322   2.370
 5244SOL     OW16630   4.228   1.246   0.047
 5244SOL    HW116631   4.298   1.205   0.105
 5244SOL    HW216632   4.266   1.324   7.023
 5245SOL     OW16633   3.359   4.244   1.531
 5245SOL    HW116634   3.330   4.228   1.437
 5245SOL    HW216635   3.296   4.308   1.575
 5246SOL     OW16636   5.916   4.154   6.766
 5246SOL    HW116637   5.844   4.131   6.831
 5246SOL    HW216638   5.876   4.167   6.675
 5247SOL     OW16639   4.773   1.626   6.540
 5247SOL    HW116640   4.687   1.654   6.582
 5247SOL    HW216641   4.775   1.657   6.445
 5248SOL     OW16642   5.227   0.896   4.018
 5248SOL    HW116643   5.144   0.840   4.025
 5248SOL    HW216644   5.211   0.984   4.062
 5249SOL     OW16645   0.007   5.105   0.935
 5249SOL    HW116646   6.971   5.177   0.904
 5249SOL    HW216647   6.992   5.060   1.015
 5250SOL     OW16648   2.614   5.814   1.348
 5250SOL    HW116649   2.534   5.780   1.297
 5250SOL    HW216650   2.672   5.866   1.285
 5251SOL     OW16651   0.451   4.825   0.401
 5251SOL    HW116652   0.469   4.923   0.414
 5251SOL    HW216653   0.362   4.802   0.440
 5252SOL     OW16654   3.930   5.784   2.672
 5252SOL    HW116655   3.977   5.707   2.630
 5252SOL    HW216656   3.929   5.773   2.772
 5253SOL     OW16657   6.927   6.038   4.697
 5253SOL    HW116658   6.911   6.008   4.603
 5253SOL    HW216659   0.000   6.036   4.716
 5254SOL     OW16660   4.959   5.837   3.094
 5254SOL    HW116661   5.019   5.811   3.018
 5254SOL    HW216662   5.008   5.897   3.157
 5255SOL     OW16663   6.527   1.740   5.411
 5255SOL    HW116664   6.548   1.836   5.428
 5255SOL    HW216665   6.525   1.690   5.498
 5256SOL     OW16666   6.213   2.070   2.415
 5256SOL    HW116667   6.123   2.115   2.412
 5256SOL    HW216668   6.221   2.005   2.340
 5257SOL     OW16669   4.253   1.882   6.277
 5257SOL    HW116670   4.321   1.810   6.267
 5257SOL    HW216671   4.191   1.881   6.199
 5258SOL     OW16672   4.950   1.543   4.437
 5258SOL    HW116673   4.852   1.559   4.422
 5258SOL    HW216674   4.964   1.505   4.529
 5259SOL     OW16675   6.153   5.069   3.611
 5259SOL    HW116676   6.078   5.009   3.639
 5259SOL    HW216677   6.192   5.037   3.525
 5260SOL     OW16678   1.894   6.771   1.503
 5260SOL    HW116679   1.967   6.814   1.450
 5260SOL    HW216680   1.918   6.676   1.523
 5261SOL     OW16681   5.542   4.514   6.624
 5261SOL    HW116682   5.630   4.558   6.607
 5261SOL    HW216683   5.497   4.558   6.701
 5262SOL     OW16684   1.506   0.986   1.605
 5262SOL    HW116685   1.541   0.893   1.589
 5262SOL    HW216686   1.511   1.006   1.703
 5263SOL     OW16687   1.660   6.092   2.772
 5263SOL    HW116688   1.663   6.058   2.866
 5263SOL    HW216689   1.707   6.180   2.766
 5264SOL     OW16690   6.872   2.164   1.847
 5264SOL    HW116691   6.828   2.177   1.936
 5264SOL    HW216692   6.894   2.067   1.835
 5265SOL     OW16693   6.627   5.617   5.483
 5265SOL    HW116694   6.614   5.545   5.551
 5265SOL    HW216695   6.725   5.637   5.474
 5266SOL     OW16696   1.523   7.001   6.972
 5266SOL    HW116697   1.438   0.025   6.950
 5266SOL    HW216698   1.583   7.002   6.893
 5267SOL     OW16699   5.402   2.164   3.790
 5267SOL    HW116700   5.365   2.091   3.732
 5267SOL    HW216701   5.469   2.217   3.738
 5268SOL     OW16702   5.563   0.214   6.671
 5268SOL    HW116703   5.635   0.145   6.682
 5268SOL    HW216704   5.594   0.301   6.709
 5269SOL     OW16705   1.257   0.179   3.920
 5269SOL    HW116706   1.174   0.180   3.864
 5269SOL    HW216707   1.314   0.257   3.896
 5270SOL     OW16708   0.520   1.823   6.334
 5270SOL    HW116709   0.540   1.877   6.252
 5270SOL    HW216710   0.450   1.755   6.313
 5271SOL     OW16711   1.164   4.777   3.215
 5271SOL    HW116712   1.240   4.756   3.276
 5271SOL    HW216713   1.085   4.805   3.270
 5272SOL     OW16714   4.132   0.740   6.910
 5272SOL    HW116715   4.064   0.764   6.840
 5272SOL    HW216716   4.132   0.641   6.923
 5273SOL     OW16717   2.684   1.795   2.843
 5273SOL    HW116718   2.678   1.745   2.930
 5273SOL    HW216719   2.614   1.866   2.840
 5274SOL     OW16720   5.644   5.002   1.600
 5274SOL    HW116721   5.619   4.914   1.559
 5274SOL    HW216722   5.673   5.065   1.528
 5275SOL     OW16723   4.593   1.867   6.591
 5275SOL    HW116724   4.493   1.871   6.583
 5275SOL    HW216725   4.634   1.911   6.511
 5276SOL     OW16726   4.379   6.718   1.685
 5276SOL    HW116727   4.370   6.799   1.629
 5276SOL    HW216728   4.291   6.670   1.689
 5277SOL     OW16729   1.948   2.319   2.104
 5277SOL    HW116730   1.933   2.417   2.100
 5277SOL    HW216731   1.888   2.273   2.038
 5278SOL     OW16732   4.139   3.581   2.058
 5278SOL    HW116733   4.232   3.582   2.095
 5278SOL    HW216734   4.140   3.621   1.966
 5279SOL     OW16735   1.747   6.037   2.071
 5279SOL    HW116736   1.839   6.056   2.106
 5279SOL    HW216737   1.703   6.122   2.045
 5280SOL     OW16738   3.675   0.552   4.900
 5280SOL    HW116739   3.775   0.553   4.901
 5280SOL    HW216740   3.642   0.508   4.816
 5281SOL     OW16741   0.187   2.584   3.438
 5281SOL    HW116742   0.146   2.571   3.348
 5281SOL    HW216743   0.275   2.537   3.442
 5282SOL     OW16744   4.771   1.423   1.277
 5282SOL    HW116745   4.683   1.383   1.302
 5282SOL    HW216746   4.845   1.370   1.319
 5283SOL     OW16747   4.962   4.828   5.987
 5283SOL    HW116748   4.906   4.872   5.916
 5283SOL    HW216749   5.022   4.896   6.029
 5284SOL     OW16750   4.904   2.879   3.214
 5284SOL    HW116751   4.888   2.939   3.292
 5284SOL    HW216752   4.986   2.909   3.165
 5285SOL     OW16753   4.351   6.224   2.662
 5285SOL    HW116754   4.256   6.218   2.691
 5285SOL    HW216755   4.364   6.173   2.577
 5286SOL     OW16756   2.613   5.494   2.620
 5286SOL    HW116757   2.606   5.444   2.534
 5286SOL    HW216758   2.524   5.534   2.643
 5287SOL     OW16759   0.324   1.465   2.279
 5287SOL    HW116760   0.304   1.481   2.182
 5287SOL    HW216761   0.297   1.546   2.332
 5288SOL     OW16762   4.461   0.613   0.820
 5288SOL    HW116763   4.486   0.675   0.746
 5288SOL    HW216764   4.534   0.611   0.889
 5289SOL     OW16765   1.789   5.839   0.993
 5289SOL    HW116766   1.879   5.875   1.016
 5289SOL    HW216767   1.770   5.856   0.896
 5290SOL     OW16768   5.458   6.058   0.530
 5290SOL    HW116769   5.388   6.116   0.573
 5290SOL    HW216770   5.446   6.060   0.431
 5291SOL     OW16771   0.962   5.509   6.484
 5291SOL    HW116772   0.937   5.538   6.576
 5291SOL    HW216773   1.034   5.440   6.489
 5292SOL     OW16774   5.303   2.018   0.538
 5292SOL    HW116775   5.209   1.991   0.560
 5292SOL    HW216776   5.308   2.117   0.527
 5293SOL     OW16777   1.422   1.477   3.935
 5293SOL    HW116778   1.398   1.561   3.984
 5293SOL    HW216779   1.490   1.497   3.865
 5294SOL     OW16780   4.549   2.602   5.597
 5294SOL    HW116781   4.610   2.604   5.676
 5294SOL    HW216782   4.602   2.610   5.513
 5295SOL     OW16783   6.110   1.203   2.262
 5295SOL    HW116784   6.112   1.264   2.340
 5295SOL    HW216785   6.151   1.249   2.183
 5296SOL     OW16786   0.417   3.256   0.222
 5296SOL    HW116787   0.447   3.351   0.224
 5296SOL    HW216788   0.404   3.227   0.127
 5297SOL     OW16789   1.656   3.086   1.933
 5297SOL    HW116790   1.728   3.079   2.001
 5297SOL    HW216791   1.587   3.152   1.964
 5298SOL     OW16792   1.063   4.791   1.866
 5298SOL    HW116793   1.096   4.745   1.948
 5298SOL    HW216794   1.134   4.788   1.795
 5299SOL     OW16795   3.241   0.528   1.168
 5299SOL    HW116796   3.179   0.534   1.246
 5299SOL    HW216797   3.191   0.497   1.087
 5300SOL     OW16798   0.337   5.087   3.811
 5300SOL    HW116799   0.248   5.047   3.833
 5300SOL    HW216800   0.336   5.121   3.717
 5301SOL     OW16801   4.768   0.661   0.473
 5301SOL    HW116802   4.830   0.729   0.435
 5301SOL    HW216803   4.685   0.706   0.505
 5302SOL     OW16804   6.346   4.269   3.312
 5302SOL    HW116805   6.430   4.220   3.336
 5302SOL    HW216806   6.269   4.228   3.360
 5303SOL     OW16807   1.447   5.103   2.772
 5303SOL    HW116808   1.523   5.164   2.795
 5303SOL    HW216809   1.363   5.136   2.815
 5304SOL     OW16810   4.750   2.432   5.372
 5304SOL    HW116811   4.718   2.515   5.326
 5304SOL    HW216812   4.725   2.352   5.318
 5305SOL     OW16813   3.016   1.459   3.872
 5305SOL    HW116814   2.987   1.379   3.819
 5305SOL    HW216815   3.070   1.519   3.813
 5306SOL     OW16816   2.677   6.494   4.924
 5306SOL    HW116817   2.579   6.510   4.934
 5306SOL    HW216818   2.727   6.564   4.976
 5307SOL     OW16819   3.801   6.831   0.342
 5307SOL    HW116820   3.735   6.906   0.354
 5307SOL    HW216821   3.752   6.743   0.343
 5308SOL     OW16822   0.062   1.076   2.181
 5308SOL    HW116823   0.151   1.120   2.191
 5308SOL    HW216824   0.069   1.000   2.116
 5309SOL     OW16825   3.318   3.651   4.652
 5309SOL    HW116826   3.341   3.707   4.572
 5309SOL    HW216827   3.391   3.659   4.720
 5310SOL     OW16828   5.835   2.817   0.328
 5310SOL    HW116829   5.912   2.794   0.388
 5310SOL    HW216830   5.815   2.915   0.336
 5311SOL     OW16831   0.944   6.444   6.555
 5311SOL    HW116832   0.971   6.378   6.485
 5311SOL    HW216833   0.844   6.452   6.557
 5312SOL     OW16834   0.628   3.142   1.922
 5312SOL    HW116835   0.724   3.171   1.930
 5312SOL    HW216836   0.585   3.143   2.012
 5313SOL     OW16837   0.961   6.354   0.583
 5313SOL    HW116838   0.927   6.424   0.646
 5313SOL    HW216839   0.972   6.393   0.492
 5314SOL     OW16840   3.760   5.714   1.280
 5314SOL    HW116841   3.679   5.664   1.311
 5314SOL    HW216842   3.835   5.651   1.264
 5315SOL     OW16843   5.651   2.607   1.925
 5315SOL    HW116844   5.678   2.697   1.890
 5315SOL    HW216845   5.718   2.539   1.895
 5316SOL     OW16846   5.560   5.408   4.381
 5316SOL    HW116847   5.511   5.327   4.415
 5316SOL    HW216848   5.596   5.389   4.290
 5317SOL     OW16849   6.850   5.605   2.788
 5317SOL    HW116850   6.843   5.597   2.888
 5317SOL    HW216851   6.788   5.675   2.756
 5318SOL     OW16852   0.186   2.507   4.388
 5318SOL    HW116853   0.087   2.504   4.374
 5318SOL    HW216854   0.210   2.588   4.441
 5319SOL     OW16855   3.933   6.808   2.063
 5319SOL    HW116856   3.929   6.712   2.035
 5319SOL    HW216857   3.984   6.816   2.148
 5320SOL     OW16858   6.375   3.257   6.162
 5320SOL    HW116859   6.407   3.338   6.112
 5320SOL    HW216860   6.447   3.189   6.165
 5321SOL     OW16861   2.078   4.593   5.526
 5321SOL    HW116862   2.057   4.496   5.513
 5321SOL    HW216863   2.088   4.612   5.624
 5322SOL     OW16864   2.413   6.279   0.822
 5322SOL    HW116865   2.478   6.343   0.781
 5322SOL    HW216866   2.367   6.323   0.899
 5323SOL     OW16867   5.133   3.277   0.545
 5323SOL    HW116868   5.164   3.326   0.627
 5323SOL    HW216869   5.201   3.286   0.473
 5324SOL     OW16870   3.851   3.593   1.401
 5324SOL    HW116871   3.861   3.560   1.494
 5324SOL    HW216872   3.928   3.562   1.346
 5325SOL     OW16873   4.183   6.162   4.815
 5325SOL    HW116874   4.233   6.232   4.764
 5325SOL    HW216875   4.191   6.075   4.767
 5326SOL     OW16876   7.005   0.201   2.784
 5326SOL    HW116877   6.950   0.122   2.812
 5326SOL    HW216878   0.055   0.213   2.848
 5327SOL     OW16879   0.379   0.519   3.749
 5327SOL    HW116880   0.294   0.499   3.798
 5327SOL    HW216881   0.358   0.571   3.666
 5328SOL     OW16882   3.634   4.975   0.005
 5328SOL    HW116883   3.585   4.888   0.019
 5328SOL    HW216884   3.724   4.956   6.991
 5329SOL     OW16885   0.269   5.650   0.270
 5329SOL    HW116886   0.348   5.705   0.295
 5329SOL    HW216887   0.189   5.709   0.260
 5330SOL     OW16888   3.447   4.201   0.283
 5330SOL    HW116889   3.499   4.215   0.367
 5330SOL    HW216890   3.506   4.158   0.215
 5331SOL     OW16891   5.136   1.591   6.856
 5331SOL    HW116892   5.036   1.593   6.859
 5331SOL    HW216893   5.170   1.677   6.819
 5332SOL     OW16894   5.743   3.086   7.014
 5332SOL    HW116895   5.659   3.073   0.041
 5332SOL    HW216896   5.762   3.005   6.959
 5333SOL     OW16897   1.418   0.956   4.422
 5333SOL    HW116898   1.390   0.861   4.441
 5333SOL    HW216899   1.482   0.957   4.346
 5334SOL     OW16900   3.194   6.144   2.185
 5334SOL    HW116901   3.270   6.142   2.250
 5334SOL    HW216902   3.207   6.075   2.114
 5335SOL     OW16903   0.428   4.414   1.801
 5335SOL    HW116904   0.341   4.452   1.834
 5335SOL    HW216905   0.461   4.469   1.724
 5336SOL     OW16906   1.806   3.230   5.392
 5336SOL    HW116907   1.777   3.162   5.324
 5336SOL    HW216908   1.810   3.320   5.349
 5337SOL     OW16909   0.017   3.565   1.596
 5337SOL    HW116910   0.021   3.478   1.546
 5337SOL    HW216911   6.983   3.554   1.676
 5338SOL     OW16912   6.772   3.519   0.819
 5338SOL    HW116913   6.752   3.440   0.875
 5338SOL    HW216914   6.821   3.491   0.737
 5339SOL     OW16915   5.565   2.947   2.552
 5339SOL    HW116916   5.469   2.965   2.532
 5339SOL    HW216917   5.575   2.924   2.648
 5340SOL     OW16918   4.578   3.375   1.629
 5340SOL    HW116919   4.642   3.424   1.688
 5340SOL    HW216920   4.523   3.313   1.685
 5341SOL     OW16921   4.834   4.915   3.519
 5341SOL    HW116922   4.848   4.834   3.462
 5341SOL    HW216923   4.769   4.976   3.475
 5342SOL     OW16924   6.264   5.571   5.050
 5342SOL    HW116925   6.171   5.592   5.019
 5342SOL    HW216926   6.262   5.548   5.147
 5343SOL     OW16927   3.772   3.275   6.481
 5343SOL    HW116928   3.856   3.310   6.521
 5343SOL    HW216929   3.696   3.288   6.546
 5344SOL     OW16930   6.824   1.323   6.827
 5344SOL    HW116931   6.847   1.378   6.747
 5344SOL    HW216932   6.907   1.309   6.882
 5345SOL     OW16933   4.293   1.287   6.715
 5345SOL    HW116934   4.224   1.220   6.744
 5345SOL    HW216935   4.375   1.239   6.685
 5346SOL     OW16936   3.422   6.241   3.387
 5346SOL    HW116937   3.505   6.192   3.359
 5346SOL    HW216938   3.447   6.330   3.424
 5347SOL     OW16939   5.344   1.462   4.628
 5347SOL    HW116940   5.296   1.379   4.601
 5347SOL    HW216941   5.278   1.532   4.654
 5348SOL     OW16942   4.879   3.061   5.000
 5348SOL    HW116943   4.818   3.000   5.052
 5348SOL    HW216944   4.873   3.154   5.037
 5349SOL     OW16945   0.832   4.112   1.177
 5349SOL    HW116946   0.761   4.170   1.215
 5349SOL    HW216947   0.880   4.064   1.250
 5350SOL     OW16948   0.735   6.942   6.079
 5350SOL    HW116949   0.780   6.894   6.154
 5350SOL    HW216950   0.804   6.980   6.017
 5351SOL     OW16951   0.576   6.403   3.069
 5351SOL    HW116952   0.619   6.342   3.003
 5351SOL    HW216953   0.642   6.426   3.141
 5352SOL     OW16954   1.329   2.740   6.021
 5352SOL    HW116955   1.422   2.707   6.030
 5352SOL    HW216956   1.300   2.731   5.925
 5353SOL     OW16957   3.533   5.757   3.481
 5353SOL    HW116958   3.445   5.778   3.437
 5353SOL    HW216959   3.519   5.687   3.551
 5354SOL     OW16960   3.946   6.178   1.128
 5354SOL    HW116961   3.962   6.191   1.226
 5354SOL    HW216962   3.871   6.237   1.098
 5355SOL     OW16963   4.980   5.923   5.163
 5355SOL    HW116964   5.021   5.949   5.251
 5355SOL    HW216965   5.038   5.856   5.118
 5356SOL     OW16966   1.318   6.205   1.513
 5356SOL    HW116967   1.347   6.187   1.419
 5356SOL    HW216968   1.319   6.119   1.565
 5357SOL     OW16969   6.245   2.998   3.195
 5357SOL    HW116970   6.166   3.034   3.147
 5357SOL    HW216971   6.326   3.006   3.138
 5358SOL     OW16972   6.298   0.515   6.540
 5358SOL    HW116973   6.373   0.501   6.476
 5358SOL    HW216974   6.333   0.558   6.623
 5359SOL     OW16975   3.035   2.483   0.271
 5359SOL    HW116976   2.950   2.448   0.312
 5359SOL    HW216977   3.064   2.565   0.320
 5360SOL     OW16978   5.218   5.660   3.694
 5360SOL    HW116979   5.166   5.668   3.779
 5360SOL    HW216980   5.235   5.751   3.656
 5361SOL     OW16981   1.412   4.427   3.204
 5361SOL    HW116982   1.399   4.398   3.109
 5361SOL    HW216983   1.468   4.359   3.251
 5362SOL     OW16984   6.449   1.276   2.528
 5362SOL    HW116985   6.432   1.301   2.432
 5362SOL    HW216986   6.543   1.242   2.537
 5363SOL     OW16987   5.693   5.934   4.089
 5363SOL    HW116988   5.689   5.966   4.184
 5363SOL    HW216989   5.788   5.912   4.066
 5364SOL     OW16990   4.525   2.514   2.258
 5364SOL    HW116991   4.531   2.415   2.247
 5364SOL    HW216992   4.558   2.559   2.175
 5365SOL     OW16993   3.044   3.807   5.224
 5365SOL    HW116994   3.056   3.709   5.207
 5365SOL    HW216995   2.948   3.826   5.240
 5366SOL     OW16996   6.740   5.280   3.452
 5366SOL    HW116997   6.775   5.365   3.412
 5366SOL    HW216998   6.717   5.295   3.548
 5367SOL     OW16999   6.153   6.192   1.364
 5367SOL    HW117000   6.155   6.237   1.275
 5367SOL    HW217001   6.243   6.201   1.408
 5368SOL     OW17002   0.381   5.868   4.725
 5368SOL    HW117003   0.400   5.858   4.823
 5368SOL    HW217004   0.463   5.900   4.678
 5369SOL     OW17005   4.375   6.649   2.650
 5369SOL    HW117006   4.393   6.591   2.729
 5369SOL    HW217007   4.297   6.612   2.599
 5370SOL     OW17008   1.796   3.002   0.201
 5370SOL    HW117009   1.788   2.999   0.301
 5370SOL    HW217010   1.830   2.915   0.167
 5371SOL     OW17011   6.676   5.680   4.226
 5371SOL    HW117012   6.599   5.618   4.212
 5371SOL    HW217013   6.644   5.775   4.218
 5372SOL     OW17014   2.328   6.590   3.400
 5372SOL    HW117015   2.336   6.516   3.465
 5372SOL    HW217016   2.305   6.553   3.309
 5373SOL     OW17017   3.136   0.855   6.443
 5373SOL    HW117018   3.045   0.813   6.442
 5373SOL    HW217019   3.181   0.836   6.530
 5374SOL     OW17020   1.230   3.951   1.291
 5374SOL    HW117021   1.293   3.889   1.337
 5374SOL    HW217022   1.280   4.031   1.258
 5375SOL     OW17023   2.343   4.528   4.481
 5375SOL    HW117024   2.339   4.449   4.420
 5375SOL    HW217025   2.384   4.501   4.568
 5376SOL     OW17026   0.795   0.237   0.719
 5376SOL    HW117027   0.885   0.194   0.722
 5376SOL    HW217028   0.802   0.333   0.746
 5377SOL     OW17029   1.213   1.887   2.459
 5377SOL    HW117030   1.177   1.867   2.368
 5377SOL    HW217031   1.137   1.909   2.521
 5378SOL     OW17032   4.887   6.927   2.403
 5378SOL    HW117033   4.821   6.851   2.399
 5378SOL    HW217034   4.845   7.009   2.364
 5379SOL     OW17035   2.206   1.894   3.057
 5379SOL    HW117036   2.179   1.990   3.056
 5379SOL    HW217037   2.163   1.846   2.981
 5380SOL     OW17038   5.212   6.281   0.953
 5380SOL    HW117039   5.171   6.308   1.040
 5380SOL    HW217040   5.237   6.185   0.957
 5381SOL     OW17041   3.839   2.084   3.152
 5381SOL    HW117042   3.794   1.994   3.147
 5381SOL    HW217043   3.775   2.151   3.189
 5382SOL     OW17044   3.832   1.103   2.640
 5382SOL    HW117045   3.862   1.010   2.663
 5382SOL    HW217046   3.910   1.155   2.605
 5383SOL     OW17047   2.160   3.314   5.063
 5383SOL    HW117048   2.188   3.238   5.122
 5383SOL    HW217049   2.088   3.284   5.001
 5384SOL     OW17050   5.204   6.111   6.163
 5384SOL    HW117051   5.149   6.095   6.244
 5384SOL    HW217052   5.230   6.207   6.158
 5385SOL     OW17053   3.961   3.550   0.060
 5385SOL    HW117054   3.932   3.642   0.088
 5385SOL    HW217055   3.880   3.495   0.037
 5386SOL     OW17056   4.560   5.129   3.747
 5386SOL    HW117057   4.522   5.044   3.711
 5386SOL    HW217058   4.571   5.195   3.672
 5387SOL     OW17059   1.077   2.350   4.431
 5387SOL    HW117060   1.066   2.401   4.516
 5387SOL    HW217061   0.998   2.290   4.417
 5388SOL     OW17062   6.546   6.368   4.139
 5388SOL    HW117063   6.556   6.449   4.081
 5388SOL    HW217064   6.452   6.332   4.130
 5389SOL     OW17065   5.281   1.303   4.978
 5389SOL    HW117066   5.243   1.316   5.070
 5389SOL    HW217067   5.222   1.241   4.926
 5390SOL     OW17068   5.595   3.902   2.859
 5390SOL    HW117069   5.556   3.882   2.769
 5390SOL    HW217070   5.533   3.867   2.930
 5391SOL     OW17071   4.021   2.512   1.326
 5391SOL    HW117072   4.101   2.558   1.287
 5391SOL    HW217073   4.029   2.509   1.425
 5392SOL     OW17074   5.338   0.141   4.481
 5392SOL    HW117075   5.377   0.231   4.459
 5392SOL    HW217076   5.317   0.092   4.397
 5393SOL     OW17077   4.507   1.118   3.718
 5393SOL    HW117078   4.469   1.040   3.669
 5393SOL    HW217079   4.461   1.202   3.690
 5394SOL     OW17080   0.222   3.209   2.237
 5394SOL    HW117081   0.158   3.137   2.262
 5394SOL    HW217082   0.180   3.267   2.167
 5395SOL     OW17083   0.485   1.523   1.213
 5395SOL    HW117084   0.502   1.524   1.311
 5395SOL    HW217085   0.529   1.601   1.170
 5396SOL     OW17086   3.466   2.885   1.020
 5396SOL    HW117087   3.419   2.797   1.025
 5396SOL    HW217088   3.419   2.946   0.956
 5397SOL     OW17089   7.019   0.426   2.345
 5397SOL    HW117090   6.988   0.412   2.439
 5397SOL    HW217091   0.050   0.348   2.317
 5398SOL     OW17092   6.808   2.621   3.582
 5398SOL    HW117093   6.898   2.664   3.579
 5398SOL    HW217094   6.749   2.669   3.647
 5399SOL     OW17095   2.345   3.064   1.123
 5399SOL    HW117096   2.267   3.076   1.061
 5399SOL    HW217097   2.421   3.021   1.073
 5400SOL     OW17098   4.878   3.058   1.273
 5400SOL    HW117099   4.948   3.090   1.337
 5400SOL    HW217100   4.909   3.072   1.179
 5401SOL     OW17101   5.446   2.983   1.229
 5401SOL    HW117102   5.529   2.988   1.174
 5401SOL    HW217103   5.415   2.888   1.234
 5402SOL     OW17104   1.242   6.891   1.925
 5402SOL    HW117105   1.250   6.925   1.831
 5402SOL    HW217106   1.299   6.809   1.935
 5403SOL     OW17107   5.397   1.904   5.659
 5403SOL    HW117108   5.387   1.914   5.560
 5403SOL    HW217109   5.437   1.987   5.697
 5404SOL     OW17110   5.033   6.506   0.311
 5404SOL    HW117111   5.056   6.445   0.386
 5404SOL    HW217112   5.100   6.494   0.237
 5405SOL     OW17113   0.262   5.160   0.154
 5405SOL    HW117114   0.215   5.243   0.184
 5405SOL    HW217115   0.205   5.081   0.173
 5406SOL     OW17116   2.751   1.540   5.746
 5406SOL    HW117117   2.737   1.586   5.834
 5406SOL    HW217118   2.841   1.565   5.709
 5407SOL     OW17119   1.332   6.485   3.491
 5407SOL    HW117120   1.286   6.516   3.408
 5407SOL    HW217121   1.352   6.387   3.485
 5408SOL     OW17122   2.373   2.341   3.977
 5408SOL    HW117123   2.320   2.298   3.904
 5408SOL    HW217124   2.429   2.272   4.022
 5409SOL     OW17125   0.752   2.658   2.804
 5409SOL    HW117126   0.766   2.744   2.852
 5409SOL    HW217127   0.780   2.582   2.863
 5410SOL     OW17128   6.702   2.905   0.608
 5410SOL    HW117129   6.663   2.814   0.591
 5410SOL    HW217130   6.645   2.953   0.675
 5411SOL     OW17131   3.860   5.447   1.031
 5411SOL    HW117132   3.909   5.512   1.089
 5411SOL    HW217133   3.813   5.496   0.958
 5412SOL     OW17134   1.237   2.342   5.502
 5412SOL    HW117135   1.257   2.389   5.416
 5412SOL    HW217136   1.315   2.351   5.564
 5413SOL     OW17137   0.265   5.237   5.715
 5413SOL    HW117138   0.276   5.165   5.784
 5413SOL    HW217139   0.233   5.196   5.630
 5414SOL     OW17140   5.428   4.796   5.942
 5414SOL    HW117141   5.501   4.858   5.915
 5414SOL    HW217142   5.467   4.709   5.972
 5415SOL     OW17143   1.716   1.972   6.009
 5415SOL    HW117144   1.687   2.004   6.099
 5415SOL    HW217145   1.677   1.882   5.992
 5416SOL     OW17146   3.050   6.275   6.927
 5416SOL    HW117147   2.951   6.268   6.928
 5416SOL    HW217148   3.083   6.278   6.832
 5417SOL     OW17149   6.235   0.490   2.976
 5417SOL    HW117150   6.234   0.398   3.015
 5417SOL    HW217151   6.204   0.486   2.881
 5418SOL     OW17152   6.927   3.905   5.627
 5418SOL    HW117153   7.008   3.851   5.648
 5418SOL    HW217154   6.954   3.998   5.603
 5419SOL     OW17155   3.509   1.783   6.512
 5419SOL    HW117156   3.513   1.872   6.557
 5419SOL    HW217157   3.592   1.771   6.457
 5420SOL     OW17158   1.547   2.014   1.625
 5420SOL    HW117159   1.471   2.013   1.560
 5420SOL    HW217160   1.522   1.962   1.706
 5421SOL     OW17161   4.054   5.539   1.784
 5421SOL    HW117162   4.064   5.441   1.800
 5421SOL    HW217163   4.101   5.565   1.700
 5422SOL     OW17164   2.493   5.490   3.641
 5422SOL    HW117165   2.423   5.453   3.701
 5422SOL    HW217166   2.486   5.590   3.638
 5423SOL     OW17167   4.745   6.807   1.315
 5423SOL    HW117168   4.663   6.864   1.311
 5423SOL    HW217169   4.825   6.863   1.296
 5424SOL     OW17170   4.472   3.267   5.533
 5424SOL    HW117171   4.494   3.276   5.630
 5424SOL    HW217172   4.484   3.356   5.488
 5425SOL     OW17173   1.526   5.346   5.845
 5425SOL    HW117174   1.445   5.405   5.846
 5425SOL    HW217175   1.593   5.381   5.910
 5426SOL     OW17176   6.593   4.169   1.010
 5426SOL    HW117177   6.526   4.231   0.970
 5426SOL    HW217178   6.685   4.195   0.980
 5427SOL     OW17179   4.933   2.716   0.612
 5427SOL    HW117180   4.841   2.682   0.634
 5427SOL    HW217181   4.931   2.816   0.607
 5428SOL     OW17182   4.604   5.572   2.975
 5428SOL    HW117183   4.610   5.657   2.922
 5428SOL    HW217184   4.534   5.583   3.046
 5429SOL     OW17185   3.035   6.960   4.198
 5429SOL    HW117186   2.962   7.017   4.161
 5429SOL    HW217187   3.108   6.950   4.130
 5430SOL     OW17188   1.664   4.002   5.512
 5430SOL    HW117189   1.619   3.990   5.600
 5430SOL    HW217190   1.762   4.016   5.526
 5431SOL     OW17191   4.978   4.826   0.391
 5431SOL    HW117192   4.897   4.793   0.439
 5431SOL    HW217193   5.004   4.915   0.427
 5432SOL     OW17194   0.171   5.173   6.493
 5432SOL    HW117195   0.254   5.199   6.543
 5432SOL    HW217196   0.108   5.250   6.490
 5433SOL     OW17197   3.662   6.776   1.387
 5433SOL    HW117198   3.668   6.835   1.306
 5433SOL    HW217199   3.744   6.718   1.391
 5434SOL     OW17200   4.896   6.145   4.283
 5434SOL    HW117201   4.819   6.088   4.254
 5434SOL    HW217202   4.936   6.191   4.204
 5435SOL     OW17203   6.706   4.500   6.945
 5435SOL    HW117204   6.712   4.450   6.859
 5435SOL    HW217205   6.616   4.543   6.953
 5436SOL     OW17206   2.095   4.305   2.342
 5436SOL    HW117207   2.047   4.283   2.427
 5436SOL    HW217208   2.037   4.282   2.264
 5437SOL     OW17209   3.065   6.243   0.938
 5437SOL    HW117210   2.989   6.270   0.997
 5437SOL    HW217211   3.032   6.180   0.868
 5438SOL     OW17212   4.593   6.594   2.208
 5438SOL    HW117213   4.584   6.664   2.279
 5438SOL    HW217214   4.689   6.588   2.180
 5439SOL     OW17215   1.376   3.749   1.467
 5439SOL    HW117216   1.304   3.684   1.490
 5439SOL    HW217217   1.454   3.735   1.528
 5440SOL     OW17218   5.673   6.810   3.983
 5440SOL    HW117219   5.721   6.816   3.896
 5440SOL    HW217220   5.690   6.720   4.024
 5441SOL     OW17221   5.759   2.308   4.643
 5441SOL    HW117222   5.826   2.236   4.665
 5441SOL    HW217223   5.696   2.274   4.573
 5442SOL     OW17224   2.558   0.411   6.908
 5442SOL    HW117225   2.569   0.337   6.842
 5442SOL    HW217226   2.570   0.499   6.863
 5443SOL     OW17227   6.099   0.503   2.728
 5443SOL    HW117228   6.046   0.418   2.738
 5443SOL    HW217229   6.136   0.508   2.636
 5444SOL     OW17230   0.661   1.397   6.219
 5444SOL    HW117231   0.636   1.463   6.290
 5444SOL    HW217232   0.685   1.445   6.135
 5445SOL     OW17233   5.820   6.453   5.327
 5445SOL    HW117234   5.810   6.547   5.295
 5445SOL    HW217235   5.749   6.395   5.286
 5446SOL     OW17236   1.038   4.484   6.194
 5446SOL    HW117237   0.966   4.452   6.132
 5446SOL    HW217238   1.068   4.408   6.251
 5447SOL     OW17239   6.558   1.953   1.594
 5447SOL    HW117240   6.577   2.051   1.603
 5447SOL    HW217241   6.560   1.928   1.497
 5448SOL     OW17242   6.228   4.959   1.969
 5448SOL    HW117243   6.216   4.955   1.870
 5448SOL    HW217244   6.158   5.018   2.009
 5449SOL     OW17245   2.189   0.508   1.574
 5449SOL    HW117246   2.230   0.417   1.582
 5449SOL    HW217247   2.095   0.505   1.607
 5450SOL     OW17248   4.396   5.736   1.282
 5450SOL    HW117249   4.469   5.715   1.217
 5450SOL    HW217250   4.309   5.706   1.244
 5451SOL     OW17251   0.321   6.378   4.000
 5451SOL    HW117252   0.308   6.386   4.099
 5451SOL    HW217253   0.318   6.470   3.959
 5452SOL     OW17254   2.507   4.458   2.529
 5452SOL    HW117255   2.571   4.512   2.473
 5452SOL    HW217256   2.514   4.488   2.624
 5453SOL     OW17257   6.059   4.898   3.981
 5453SOL    HW117258   6.010   4.821   3.940
 5453SOL    HW217259   5.998   4.978   3.985
 5454SOL     OW17260   5.462   4.144   2.501
 5454SOL    HW117261   5.442   4.047   2.516
 5454SOL    HW217262   5.410   4.199   2.567
 5455SOL     OW17263   2.827   1.933   3.461
 5455SOL    HW117264   2.903   1.996   3.444
 5455SOL    HW217265   2.750   1.984   3.499
 5456SOL     OW17266   6.112   2.303   0.420
 5456SOL    HW117267   6.061   2.322   0.336
 5456SOL    HW217268   6.071   2.355   0.495
 5457SOL     OW17269   6.237   0.942   7.002
 5457SOL    HW117270   6.175   1.017   6.982
 5457SOL    HW217271   6.330   0.978   7.015
 5458SOL     OW17272   5.183   4.658   6.427
 5458SOL    HW117273   5.233   4.595   6.487
 5458SOL    HW217274   5.138   4.728   6.483
 5459SOL     OW17275   2.296   2.740   5.090
 5459SOL    HW117276   2.299   2.685   5.006
 5459SOL    HW217277   2.334   2.830   5.071
 5460SOL     OW17278   0.475   0.637   1.185
 5460SOL    HW117279   0.386   0.680   1.169
 5460SOL    HW217280   0.502   0.651   1.280
 5461SOL     OW17281   5.658   1.626   6.200
 5461SOL    HW117282   5.639   1.588   6.109
 5461SOL    HW217283   5.580   1.681   6.231
 5462SOL     OW17284   4.983   5.603   6.089
 5462SOL    HW117285   4.884   5.589   6.087
 5462SOL    HW217286   5.005   5.669   6.160
 5463SOL     OW17287   1.506   4.624   5.891
 5463SOL    HW117288   1.409   4.643   5.906
 5463SOL    HW217289   1.546   4.588   5.975
 5464SOL     OW17290   1.875   5.183   5.030
 5464SOL    HW117291   1.867   5.090   4.995
 5464SOL    HW217292   1.922   5.182   5.118
 5465SOL     OW17293   0.641   0.004   5.293
 5465SOL    HW117294   0.701   0.025   5.370
 5465SOL    HW217295   0.569   0.073   5.287
 5466SOL     OW17296   5.380   1.811   5.030
 5466SOL    HW117297   5.354   1.887   4.971
 5466SOL    HW217298   5.426   1.741   4.975
 5467SOL     OW17299   5.072   2.889   4.342
 5467SOL    HW117300   5.014   2.813   4.313
 5467SOL    HW217301   5.017   2.958   4.388
 5468SOL     OW17302   6.832   2.495   1.414
 5468SOL    HW117303   6.833   2.424   1.344
 5468SOL    HW217304   6.798   2.457   1.500
 5469SOL     OW17305   3.577   1.459   4.469
 5469SOL    HW117306   3.605   1.375   4.422
 5469SOL    HW217307   3.556   1.529   4.401
 5470SOL     OW17308   4.075   5.373   3.799
 5470SOL    HW117309   4.173   5.358   3.816
 5470SOL    HW217310   4.022   5.322   3.867
 5471SOL     OW17311   5.295   0.425   2.524
 5471SOL    HW117312   5.384   0.469   2.510
 5471SOL    HW217313   5.238   0.440   2.444
 5472SOL     OW17314   2.420   3.932   0.264
 5472SOL    HW117315   2.455   3.859   0.206
 5472SOL    HW217316   2.490   3.961   0.329
 5473SOL     OW17317   3.089   4.847   2.242
 5473SOL    HW117318   3.147   4.786   2.189
 5473SOL    HW217319   2.993   4.831   2.218
 5474SOL     OW17320   1.657   4.839   2.063
 5474SOL    HW117321   1.588   4.834   2.135
 5474SOL    HW217322   1.676   4.747   2.029
 5475SOL     OW17323   1.354   1.411   5.123
 5475SOL    HW117324   1.302   1.327   5.106
 5475SOL    HW217325   1.446   1.402   5.085
 5476SOL     OW17326   1.983   0.258   4.771
 5476SOL    HW117327   1.891   0.270   4.734
 5476SOL    HW217328   1.978   0.206   4.856
 5477SOL     OW17329   2.202   3.270   3.579
 5477SOL    HW117330   2.241   3.192   3.529
 5477SOL    HW217331   2.170   3.339   3.513
 5478SOL     OW17332   5.236   4.444   5.447
 5478SOL    HW117333   5.180   4.504   5.504
 5478SOL    HW217334   5.331   4.449   5.477
 5479SOL     OW17335   5.477   2.848   4.490
 5479SOL    HW117336   5.510   2.848   4.396
 5479SOL    HW217337   5.394   2.793   4.497
 5480SOL     OW17338   1.218   3.547   4.536
 5480SOL    HW117339   1.144   3.524   4.599
 5480SOL    HW217340   1.264   3.630   4.567
 5481SOL     OW17341   3.265   1.272   6.597
 5481SOL    HW117342   3.252   1.364   6.634
 5481SOL    HW217343   3.355   1.266   6.554
 5482SOL     OW17344   5.506   3.368   1.869
 5482SOL    HW117345   5.441   3.346   1.795
 5482SOL    HW217346   5.599   3.355   1.836
 5483SOL     OW17347   6.863   3.196   0.012
 5483SOL    HW117348   6.943   3.249   7.009
 5483SOL    HW217349   6.846   3.209   0.109
 5484SOL     OW17350   6.473   0.455   4.942
 5484SOL    HW117351   6.453   0.434   5.038
 5484SOL    HW217352   6.511   0.548   4.936
 5485SOL     OW17353   3.252   0.597   4.959
 5485SOL    HW117354   3.166   0.554   4.931
 5485SOL    HW217355   3.248   0.694   4.937
 5486SOL     OW17356   1.294   0.805   4.141
 5486SOL    HW117357   1.387   0.792   4.175
 5486SOL    HW217358   1.244   0.719   4.147
 5487SOL     OW17359   4.183   5.172   0.916
 5487SOL    HW117360   4.129   5.192   0.834
 5487SOL    HW217361   4.123   5.170   0.996
 5488SOL     OW17362   5.108   1.323   5.897
 5488SOL    HW117363   5.180   1.289   5.837
 5488SOL    HW217364   5.021   1.322   5.849
 5489SOL     OW17365   6.482   3.850   3.298
 5489SOL    HW117366   6.471   3.855   3.199
 5489SOL    HW217367   6.532   3.767   3.322
 5490SOL     OW17368   2.261   2.181   5.967
 5490SOL    HW117369   2.179   2.206   5.917
 5490SOL    HW217370   2.236   2.136   6.053
 5491SOL     OW17371   0.029   6.112   2.158
 5491SOL    HW117372   0.012   6.159   2.071
 5491SOL    HW217373   0.021   6.014   2.144
 5492SOL     OW17374   1.103   1.039   4.689
 5492SOL    HW117375   1.146   0.989   4.765
 5492SOL    HW217376   1.023   1.088   4.723
 5493SOL     OW17377   3.027   2.176   0.363
 5493SOL    HW117378   3.102   2.113   0.346
 5493SOL    HW217379   3.030   2.207   0.459
 5494SOL     OW17380   6.015   3.369   2.241
 5494SOL    HW117381   6.079   3.445   2.239
 5494SOL    HW217382   6.048   3.298   2.302
 5495SOL     OW17383   3.820   2.987   3.459
 5495SOL    HW117384   3.876   3.048   3.402
 5495SOL    HW217385   3.769   2.924   3.401
 5496SOL     OW17386   4.381   5.288   1.820
 5496SOL    HW117387   4.392   5.386   1.804
 5496SOL    HW217388   4.414   5.237   1.741
 5497SOL     OW17389   5.812   0.119   1.059
 5497SOL    HW117390   5.809   0.102   1.158
 5497SOL    HW217391   5.899   0.161   1.035
 5498SOL     OW17392   4.132   0.232   4.810
 5498SOL    HW117393   4.121   0.270   4.719
 5498SOL    HW217394   4.198   0.287   4.862
 5499SOL     OW17395   0.901   1.372   5.554
 5499SOL    HW117396   0.922   1.469   5.567
 5499SOL    HW217397   0.985   1.322   5.535
 5500SOL     OW17398   2.036   5.584   0.828
 5500SOL    HW117399   2.038   5.505   0.889
 5500SOL    HW217400   2.013   5.553   0.735
 5501SOL     OW17401   2.977   0.371   2.782
 5501SOL    HW117402   2.952   0.418   2.867
 5501SOL    HW217403   2.928   0.284   2.777
 5502SOL     OW17404   4.414   3.373   0.705
 5502SOL    HW117405   4.395   3.467   0.735
 5502SOL    HW217406   4.418   3.371   0.605
 5503SOL     OW17407   0.724   6.571   4.594
 5503SOL    HW117408   0.675   6.619   4.521
 5503SOL    HW217409   0.696   6.610   4.682
 5504SOL     OW17410   3.374   2.125   4.483
 5504SOL    HW117411   3.365   2.028   4.509
 5504SOL    HW217412   3.428   2.172   4.552
 5505SOL     OW17413   3.514   4.646   6.834
 5505SOL    HW117414   3.487   4.562   6.786
 5505SOL    HW217415   3.448   4.667   6.906
 5506SOL     OW17416   0.077   6.678   5.545
 5506SOL    HW117417   0.149   6.637   5.602
 5506SOL    HW217418   0.106   6.677   5.450
 5507SOL     OW17419   3.849   6.068   4.604
 5507SOL    HW117420   3.925   6.004   4.593
 5507SOL    HW217421   3.876   6.141   4.667
 5508SOL     OW17422   1.887   0.498   6.057
 5508SOL    HW117423   1.936   0.548   5.986
 5508SOL    HW217424   1.816   0.556   6.096
 5509SOL     OW17425   6.094   6.516   6.853
 5509SOL    HW117426   6.133   6.424   6.845
 5509SOL    HW217427   6.122   6.571   6.774
 5510SOL     OW17428   6.248   0.724   6.225
 5510SOL    HW117429   6.165   0.747   6.175
 5510SOL    HW217430   6.278   0.632   6.201
 5511SOL     OW17431   6.974   2.257   1.320
 5511SOL    HW117432   6.979   2.209   1.232
 5511SOL    HW217433   6.968   2.189   1.394
 5512SOL     OW17434   0.311   0.240   0.528
 5512SOL    HW117435   0.299   0.339   0.531
 5512SOL    HW217436   0.299   0.201   0.619
 5513SOL     OW17437   3.512   5.533   4.897
 5513SOL    HW117438   3.547   5.440   4.903
 5513SOL    HW217439   3.530   5.569   4.805
 5514SOL     OW17440   5.998   5.508   3.889
 5514SOL    HW117441   6.046   5.487   3.974
 5514SOL    HW217442   5.905   5.538   3.911
 5515SOL     OW17443   6.660   3.308   2.941
 5515SOL    HW117444   6.595   3.359   2.885
 5515SOL    HW217445   6.644   3.328   3.038
 5516SOL     OW17446   1.424   3.303   6.646
 5516SOL    HW117447   1.503   3.246   6.625
 5516SOL    HW217448   1.340   3.251   6.628
 5517SOL     OW17449   2.205   1.321   1.631
 5517SOL    HW117450   2.193   1.238   1.685
 5517SOL    HW217451   2.181   1.302   1.536
 5518SOL     OW17452   5.534   4.906   5.176
 5518SOL    HW117453   5.590   4.963   5.116
 5518SOL    HW217454   5.538   4.942   5.270
 5519SOL     OW17455   5.320   3.862   3.401
 5519SOL    HW117456   5.336   3.896   3.494
 5519SOL    HW217457   5.398   3.885   3.343
 5520SOL     OW17458   1.969   3.028   0.830
 5520SOL    HW117459   1.932   3.053   0.740
 5520SOL    HW217460   2.013   2.939   0.824
 5521SOL     OW17461   4.994   5.534   1.098
 5521SOL    HW117462   4.911   5.579   1.132
 5521SOL    HW217463   5.031   5.586   1.022
 5522SOL     OW17464   2.094   3.144   2.140
 5522SOL    HW117465   2.119   3.107   2.050
 5522SOL    HW217466   2.059   3.237   2.129
 5523SOL     OW17467   3.045   0.627   1.785
 5523SOL    HW117468   3.090   0.649   1.872
 5523SOL    HW217469   3.102   0.564   1.733
 5524SOL     OW17470   5.817   5.887   6.060
 5524SOL    HW117471   5.728   5.888   6.015
 5524SOL    HW217472   5.836   5.978   6.098
 5525SOL     OW17473   6.827   6.113   4.295
 5525SOL    HW117474   6.800   6.023   4.328
 5525SOL    HW217475   6.815   6.180   4.369
 5526SOL     OW17476   5.275   2.986   4.718
 5526SOL    HW117477   5.374   2.999   4.710
 5526SOL    HW217478   5.246   2.912   4.657
 5527SOL     OW17479   2.401   3.222   0.701
 5527SOL    HW117480   2.333   3.219   0.774
 5527SOL    HW217481   2.385   3.146   0.638
 5528SOL     OW17482   6.974   3.593   2.886
 5528SOL    HW117483   0.023   3.629   2.942
 5528SOL    HW217484   6.972   3.493   2.893
 5529SOL     OW17485   1.433   1.341   4.753
 5529SOL    HW117486   1.479   1.309   4.836
 5529SOL    HW217487   1.404   1.263   4.698
 5530SOL     OW17488   0.315   3.475   0.490
 5530SOL    HW117489   0.335   3.533   0.570
 5530SOL    HW217490   0.399   3.464   0.436
 5531SOL     OW17491   1.295   2.620   6.445
 5531SOL    HW117492   1.297   2.568   6.360
 5531SOL    HW217493   1.345   2.706   6.432
 5532SOL     OW17494   2.406   2.190   0.839
 5532SOL    HW117495   2.497   2.176   0.877
 5532SOL    HW217496   2.341   2.129   0.885
 5533SOL     OW17497   3.891   0.080   1.015
 5533SOL    HW117498   3.916   0.128   1.099
 5533SOL    HW217499   3.829   0.137   0.961
 5534SOL     OW17500   6.846   4.876   4.850
 5534SOL    HW117501   6.879   4.861   4.943
 5534SOL    HW217502   6.773   4.812   4.829
 5535SOL     OW17503   5.823   3.218   3.627
 5535SOL    HW117504   5.910   3.171   3.643
 5535SOL    HW217505   5.761   3.199   3.703
 5536SOL     OW17506   2.560   0.607   4.342
 5536SOL    HW117507   2.598   0.636   4.430
 5536SOL    HW217508   2.512   0.520   4.353
 5537SOL     OW17509   4.367   1.422   4.760
 5537SOL    HW117510   4.275   1.390   4.781
 5537SOL    HW217511   4.395   1.490   4.828
 5538SOL     OW17512   5.513   2.709   1.440
 5538SOL    HW117513   5.583   2.705   1.369
 5538SOL    HW217514   5.439   2.646   1.417
 5539SOL     OW17515   2.410   6.905   0.646
 5539SOL    HW117516   2.439   6.989   0.692
 5539SOL    HW217517   2.314   6.914   0.618
 5540SOL     OW17518   5.195   0.575   6.794
 5540SOL    HW117519   5.271   0.516   6.821
 5540SOL    HW217520   5.222   0.631   6.715
 5541SOL     OW17521   4.737   3.132   6.934
 5541SOL    HW117522   4.763   3.220   6.894
 5541SOL    HW217523   4.710   3.069   6.861
 5542SOL     OW17524   4.063   4.219   6.997
 5542SOL    HW117525   4.071   4.317   6.980
 5542SOL    HW217526   4.104   4.169   6.922
 5543SOL     OW17527   1.983   0.091   0.321
 5543SOL    HW117528   1.914   0.130   0.381
 5543SOL    HW217529   1.994   0.151   0.241
 5544SOL     OW17530   3.885   5.358   6.597
 5544SOL    HW117531   3.911   5.262   6.601
 5544SOL    HW217532   3.832   5.375   6.514
 5545SOL     OW17533   4.918   0.895   3.352
 5545SOL    HW117534   4.864   0.880   3.269
 5545SOL    HW217535   4.997   0.835   3.351
 5546SOL     OW17536   0.561   5.365   4.509
 5546SOL    HW117537   0.618   5.402   4.436
 5546SOL    HW217538   0.616   5.308   4.570
 5547SOL     OW17539   4.888   1.440   4.997
 5547SOL    HW117540   4.790   1.442   5.016
 5547SOL    HW217541   4.935   1.388   5.068
 5548SOL     OW17542   0.342   4.324   4.462
 5548SOL    HW117543   0.303   4.335   4.371
 5548SOL    HW217544   0.330   4.229   4.492
 5549SOL     OW17545   4.618   3.215   0.277
 5549SOL    HW117546   4.587   3.189   0.186
 5549SOL    HW217547   4.664   3.137   0.320
 5550SOL     OW17548   2.101   4.450   1.472
 5550SOL    HW117549   2.054   4.366   1.444
 5550SOL    HW217550   2.120   4.506   1.392
 5551SOL     OW17551   1.600   5.334   3.493
 5551SOL    HW117552   1.635   5.401   3.429
 5551SOL    HW217553   1.676   5.288   3.539
 5552SOL     OW17554   0.287   6.319   6.871
 5552SOL    HW117555   0.264   6.222   6.860
 5552SOL    HW217556   0.236   6.357   6.948
 5553SOL     OW17557   5.134   0.215   6.866
 5553SOL    HW117558   5.185   0.148   6.920
 5553SOL    HW217559   5.195   0.255   6.797
 5554SOL     OW17560   6.058   1.944   1.469
 5554SOL    HW117561   6.125   1.958   1.396
 5554SOL    HW217562   5.967   1.930   1.429
 5555SOL     OW17563   1.721   4.955   2.853
 5555SOL    HW117564   1.755   4.875   2.803
 5555SOL    HW217565   1.626   4.973   2.828
 5556SOL     OW17566   0.811   0.876   4.606
 5556SOL    HW117567   0.901   0.878   4.562
 5556SOL    HW217568   0.742   0.848   4.541
 5557SOL     OW17569   3.354   5.723   3.240
 5557SOL    HW117570   3.277   5.786   3.246
 5557SOL    HW217571   3.323   5.630   3.261
 5558SOL     OW17572   4.442   4.042   6.689
 5558SOL    HW117573   4.499   4.094   6.752
 5558SOL    HW217574   4.410   4.102   6.615
 5559SOL     OW17575   2.977   1.079   2.548
 5559SOL    HW117576   3.061   1.028   2.531
 5559SOL    HW217577   2.935   1.106   2.461
 5560SOL     OW17578   0.763   5.639   3.379
 5560SOL    HW117579   0.757   5.606   3.285
 5560SOL    HW217580   0.720   5.573   3.441
 5561SOL     OW17581   3.848   6.553   3.272
 5561SOL    HW117582   3.933   6.599   3.294
 5561SOL    HW217583   3.772   6.597   3.320
 5562SOL     OW17584   3.356   3.766   1.126
 5562SOL    HW117585   3.375   3.774   1.028
 5562SOL    HW217586   3.391   3.678   1.160
 5563SOL     OW17587   2.340   4.252   2.578
 5563SOL    HW117588   2.430   4.294   2.568
 5563SOL    HW217589   2.273   4.322   2.603
 5564SOL     OW17590   5.386   0.864   6.226
 5564SOL    HW117591   5.472   0.813   6.229
 5564SOL    HW217592   5.401   0.957   6.259
 5565SOL     OW17593   3.288   1.870   6.297
 5565SOL    HW117594   3.230   1.928   6.241
 5565SOL    HW217595   3.336   1.925   6.366
 5566SOL     OW17596   1.491   3.795   0.028
 5566SOL    HW117597   1.424   3.732   7.015
 5566SOL    HW217598   1.506   3.871   6.989
 5567SOL     OW17599   0.174   4.063   0.776
 5567SOL    HW117600   0.132   3.981   0.813
 5567SOL    HW217601   0.103   4.127   0.746
 5568SOL     OW17602   4.717   5.085   1.779
 5568SOL    HW117603   4.705   5.167   1.835
 5568SOL    HW217604   4.696   5.107   1.684
 5569SOL     OW17605   2.028   2.842   3.247
 5569SOL    HW117606   2.103   2.781   3.221
 5569SOL    HW217607   1.941   2.804   3.216
 5570SOL     OW17608   0.182   3.760   2.670
 5570SOL    HW117609   0.107   3.728   2.728
 5570SOL    HW217610   0.194   3.858   2.683
 5571SOL     OW17611   6.099   4.482   1.832
 5571SOL    HW117612   6.054   4.512   1.748
 5571SOL    HW217613   6.045   4.510   1.911
 5572SOL     OW17614   1.952   4.169   4.566
 5572SOL    HW117615   1.937   4.101   4.494
 5572SOL    HW217616   1.903   4.142   4.648
 5573SOL     OW17617   3.579   5.407   3.875
 5573SOL    HW117618   3.528   5.424   3.960
 5573SOL    HW217619   3.635   5.325   3.887
 5574SOL     OW17620   0.530   2.603   5.871
 5574SOL    HW117621   0.511   2.523   5.815
 5574SOL    HW217622   0.620   2.594   5.914
 5575SOL     OW17623   0.170   6.872   2.012
 5575SOL    HW117624   0.085   6.889   1.963
 5575SOL    HW217625   0.224   6.805   1.961
 5576SOL     OW17626   0.996   4.987   3.290
 5576SOL    HW117627   1.035   4.997   3.381
 5576SOL    HW217628   1.001   5.075   3.242
 5577SOL     OW17629   1.964   2.589   5.715
 5577SOL    HW117630   1.962   2.660   5.644
 5577SOL    HW217631   2.045   2.601   5.772
 5578SOL     OW17632   3.813   3.771   3.717
 5578SOL    HW117633   3.769   3.845   3.666
 5578SOL    HW217634   3.910   3.767   3.693
 5579SOL     OW17635   0.214   3.372   1.999
 5579SOL    HW117636   0.311   3.395   2.002
 5579SOL    HW217637   0.161   3.448   2.038
 5580SOL     OW17638   5.330   1.594   5.325
 5580SOL    HW117639   5.386   1.596   5.242
 5580SOL    HW217640   5.291   1.503   5.337
 5581SOL     OW17641   1.330   2.345   6.938
 5581SOL    HW117642   1.401   2.415   6.939
 5581SOL    HW217643   1.258   2.372   6.874
 5582SOL     OW17644   2.335   2.855   6.501
 5582SOL    HW117645   2.335   2.902   6.589
 5582SOL    HW217646   2.420   2.804   6.491
 5583SOL     OW17647   5.359   0.664   2.225
 5583SOL    HW117648   5.352   0.635   2.129
 5583SOL    HW217649   5.440   0.721   2.237
 5584SOL     OW17650   1.489   3.651   4.745
 5584SOL    HW117651   1.509   3.679   4.839
 5584SOL    HW217652   1.524   3.559   4.729
 5585SOL     OW17653   4.974   4.708   2.160
 5585SOL    HW117654   5.026   4.774   2.214
 5585SOL    HW217655   4.984   4.617   2.199
 5586SOL     OW17656   6.347   3.674   6.872
 5586SOL    HW117657   6.303   3.700   6.786
 5586SOL    HW217658   6.329   3.743   6.941
 5587SOL     OW17659   5.909   0.888   6.186
 5587SOL    HW117660   5.867   0.843   6.107
 5587SOL    HW217661   5.991   0.936   6.156
 5588SOL     OW17662   3.471   6.529   0.916
 5588SOL    HW117663   3.483   6.440   0.873
 5588SOL    HW217664   3.394   6.527   0.979
 5589SOL     OW17665   5.820   4.880   5.707
 5589SOL    HW117666   5.909   4.845   5.680
 5589SOL    HW217667   5.749   4.817   5.677
 5590SOL     OW17668   6.078   6.065   3.834
 5590SOL    HW117669   6.091   6.162   3.811
 5590SOL    HW217670   6.164   6.016   3.823
 5591SOL     OW17671   5.599   0.954   1.824
 5591SOL    HW117672   5.656   0.890   1.876
 5591SOL    HW217673   5.596   0.925   1.728
 5592SOL     OW17674   0.521   3.480   3.237
 5592SOL    HW117675   0.424   3.490   3.263
 5592SOL    HW217676   0.533   3.395   3.186
 5593SOL     OW17677   7.005   3.566   0.136
 5593SOL    HW117678   0.055   3.608   0.186
 5593SOL    HW217679   6.926   3.553   0.197
 5594SOL     OW17680   5.439   2.309   5.639
 5594SOL    HW117681   5.498   2.389   5.633
 5594SOL    HW217682   5.474   2.236   5.580
 5595SOL     OW17683   0.487   2.671   5.413
 5595SOL    HW117684   0.450   2.763   5.420
 5595SOL    HW217685   0.516   2.654   5.319
 5596SOL     OW17686   3.773   6.440   3.046
 5596SOL    HW117687   3.677   6.426   3.068
 5596SOL    HW217688   3.817   6.490   3.121
 5597SOL     OW17689   5.172   2.965   2.703
 5597SOL    HW117690   5.176   3.065   2.700
 5597SOL    HW217691   5.218   2.927   2.622
 5598SOL     OW17692   5.573   1.989   4.653
 5598SOL    HW117693   5.571   2.042   4.568
 5598SOL    HW217694   5.582   2.052   4.731
 5599SOL     OW17695   0.885   0.975   3.888
 5599SOL    HW117696   0.882   0.905   3.959
 5599SOL    HW217697   0.930   1.057   3.923
 5600SOL     OW17698   1.533   2.017   4.355
 5600SOL    HW117699   1.624   1.978   4.345
 5600SOL    HW217700   1.489   1.978   4.437
 5601SOL     OW17701   2.410   0.849   5.925
 5601SOL    HW117702   2.407   0.860   5.826
 5601SOL    HW217703   2.348   0.776   5.952
 5602SOL     OW17704   1.430   1.537   0.150
 5602SOL    HW117705   1.397   1.562   0.059
 5602SOL    HW217706   1.426   1.617   0.210
 5603SOL     OW17707   5.830   3.548   6.476
 5603SOL    HW117708   5.795   3.630   6.520
 5603SOL    HW217709   5.840   3.565   6.378
 5604SOL     OW17710   6.587   1.676   6.131
 5604SOL    HW117711   6.661   1.713   6.075
 5604SOL    HW217712   6.572   1.737   6.210
 5605SOL     OW17713   0.863   2.161   5.283
 5605SOL    HW117714   0.800   2.224   5.328
 5605SOL    HW217715   0.843   2.067   5.312
 5606SOL     OW17716   5.342   0.198   2.262
 5606SOL    HW117717   5.300   0.288   2.271
 5606SOL    HW217718   5.272   0.127   2.267
 5607SOL     OW17719   5.980   0.928   1.723
 5607SOL    HW117720   6.051   0.985   1.765
 5607SOL    HW217721   6.023   0.853   1.673
 5608SOL     OW17722   4.355   6.784   4.922
 5608SOL    HW117723   4.421   6.722   4.966
 5608SOL    HW217724   4.271   6.786   4.975
 5609SOL     OW17725   2.389   5.847   5.692
 5609SOL    HW117726   2.396   5.754   5.728
 5609SOL    HW217727   2.347   5.907   5.760
 5610SOL     OW17728   4.812   0.228   6.581
 5610SOL    HW117729   4.896   0.278   6.601
 5610SOL    HW217730   4.738   0.263   6.638
 5611SOL     OW17731   1.526   4.782   3.050
 5611SOL    HW117732   1.587   4.704   3.036
 5611SOL    HW217733   1.514   4.798   3.148
 5612SOL     OW17734   2.446   0.511   5.623
 5612SOL    HW117735   2.439   0.485   5.527
 5612SOL    HW217736   2.541   0.536   5.643
 5613SOL     OW17737   3.845   4.971   1.772
 5613SOL    HW117738   3.828   5.049   1.832
 5613SOL    HW217739   3.937   4.979   1.733
 5614SOL     OW17740   4.167   2.137   3.621
 5614SOL    HW117741   4.195   2.174   3.532
 5614SOL    HW217742   4.229   2.062   3.647
 5615SOL     OW17743   1.073   1.503   1.281
 5615SOL    HW117744   1.172   1.496   1.274
 5615SOL    HW217745   1.046   1.600   1.283
 5616SOL     OW17746   2.825   0.473   4.745
 5616SOL    HW117747   2.896   0.445   4.679
 5616SOL    HW217748   2.756   0.401   4.752
 5617SOL     OW17749   1.541   1.067   5.186
 5617SOL    HW117750   1.528   0.970   5.208
 5617SOL    HW217751   1.607   1.107   5.249
 5618SOL     OW17752   6.587   4.425   2.970
 5618SOL    HW117753   6.683   4.403   2.988
 5618SOL    HW217754   6.571   4.522   2.988
 5619SOL     OW17755   2.104   3.568   4.937
 5619SOL    HW117756   2.155   3.595   4.855
 5619SOL    HW217757   2.118   3.471   4.955
 5620SOL     OW17758   3.806   2.018   6.366
 5620SOL    HW117759   3.709   2.038   6.353
 5620SOL    HW217760   3.820   1.919   6.361
 5621SOL     OW17761   1.980   2.358   6.086
 5621SOL    HW117762   2.043   2.360   6.164
 5621SOL    HW217763   1.933   2.270   6.083
 5622SOL     OW17764   6.052   0.756   5.900
 5622SOL    HW117765   6.067   0.854   5.889
 5622SOL    HW217766   6.048   0.712   5.810
 5623SOL     OW17767   0.537   5.932   0.170
 5623SOL    HW117768   0.546   5.858   0.103
 5623SOL    HW217769   0.440   5.950   0.187
 5624SOL     OW17770   1.181   3.866   3.125
 5624SOL    HW117771   1.186   3.776   3.082
 5624SOL    HW217772   1.134   3.858   3.213
 5625SOL     OW17773   6.656   2.308   5.785
 5625SOL    HW117774   6.633   2.236   5.720
 5625SOL    HW217775   6.725   2.368   5.745
 5626SOL     OW17776   4.152   0.318   4.282
 5626SOL    HW117777   4.210   0.237   4.268
 5626SOL    HW217778   4.056   0.290   4.277
 5627SOL     OW17779   0.859   5.928   0.422
 5627SOL    HW117780   0.834   5.933   0.325
 5627SOL    HW217781   0.945   5.877   0.432
 5628SOL     OW17782   1.576   0.764   4.165
 5628SOL    HW117783   1.654   0.709   4.134
 5628SOL    HW217784   1.608   0.855   4.193
 5629SOL     OW17785   3.647   3.551   2.990
 5629SOL    HW117786   3.647   3.648   3.015
 5629SOL    HW217787   3.737   3.512   3.009
 5630SOL     OW17788   7.010   4.401   1.963
 5630SOL    HW117789   6.973   4.344   1.889
 5630SOL    HW217790   6.987   4.359   2.051
 5631SOL     OW17791   4.803   0.567   6.956
 5631SOL    HW117792   4.734   0.585   6.885
 5631SOL    HW217793   4.817   0.468   6.963
 5632SOL     OW17794   3.705   3.631   0.237
 5632SOL    HW117795   3.785   3.685   0.208
 5632SOL    HW217796   3.632   3.643   0.170
 5633SOL     OW17797   6.182   2.798   4.685
 5633SOL    HW117798   6.238   2.836   4.612
 5633SOL    HW217799   6.162   2.702   4.664
 5634SOL     OW17800   4.293   5.951   4.620
 5634SOL    HW117801   4.362   5.981   4.555
 5634SOL    HW217802   4.204   5.943   4.574
 5635SOL     OW17803   3.230   2.022   5.158
 5635SOL    HW117804   3.192   2.113   5.173
 5635SOL    HW217805   3.186   1.957   5.219
 5636SOL     OW17806   3.534   6.043   4.057
 5636SOL    HW117807   3.496   5.952   4.039
 5636SOL    HW217808   3.472   6.113   4.024
 5637SOL     OW17809   5.679   0.064   3.509
 5637SOL    HW117810   5.582   0.051   3.489
 5637SOL    HW217811   5.689   0.137   3.577
 5638SOL     OW17812   4.900   3.620   6.400
 5638SOL    HW117813   4.919   3.522   6.387
 5638SOL    HW217814   4.985   3.667   6.423
 5639SOL     OW17815   2.714   0.657   6.092
 5639SOL    HW117816   2.787   0.720   6.120
 5639SOL    HW217817   2.665   0.695   6.014
 5640SOL     OW17818   2.714   6.990   3.836
 5640SOL    HW117819   2.657   6.908   3.838
 5640SOL    HW217820   2.689   0.021   3.757
 5641SOL     OW17821   5.684   5.668   4.699
 5641SOL    HW117822   5.648   5.596   4.757
 5641SOL    HW217823   5.618   5.743   4.694
 5642SOL     OW17824   1.467   2.201   6.503
 5642SOL    HW117825   1.464   2.131   6.575
 5642SOL    HW217826   1.502   2.160   6.418
 5643SOL     OW17827   5.928   2.389   5.198
 5643SOL    HW117828   5.844   2.363   5.246
 5643SOL    HW217829   5.908   2.464   5.135
 5644SOL     OW17830   3.068   0.096   6.052
 5644SOL    HW117831   3.133   0.130   6.121
 5644SOL    HW217832   2.996   0.044   6.098
 5645SOL     OW17833   4.957   3.066   4.512
 5645SOL    HW117834   4.981   3.155   4.552
 5645SOL    HW217835   4.890   3.020   4.570
 5646SOL     OW17836   1.758   4.087   2.490
 5646SOL    HW117837   1.777   4.185   2.499
 5646SOL    HW217838   1.660   4.071   2.508
 5647SOL     OW17839   7.004   6.434   2.525
 5647SOL    HW117840   0.030   6.348   2.517
 5647SOL    HW217841   0.041   6.511   2.514
 5648SOL     OW17842   4.959   6.460   3.305
 5648SOL    HW117843   4.921   6.453   3.398
 5648SOL    HW217844   4.942   6.374   3.256
 5649SOL     OW17845   0.999   6.328   4.239
 5649SOL    HW117846   0.938   6.322   4.160
 5649SOL    HW217847   1.056   6.246   4.243
 5650SOL     OW17848   6.418   4.512   6.961
 5650SOL    HW117849   6.412   4.413   6.949
 5650SOL    HW217850   6.330   4.548   6.991
 5651SOL     OW17851   2.247   0.809   1.610
 5651SOL    HW117852   2.218   0.716   1.588
 5651SOL    HW217853   2.258   0.861   1.525
 5652SOL     OW17854   0.882   5.727   1.469
 5652SOL    HW117855   0.942   5.740   1.391
 5652SOL    HW217856   0.825   5.809   1.482
 5653SOL     OW17857   0.061   0.296   1.849
 5653SOL    HW117858   0.098   0.386   1.872
 5653SOL    HW217859   0.113   0.225   1.898
 5654SOL     OW17860   3.364   5.287   4.254
 5654SOL    HW117861   3.264   5.285   4.250
 5654SOL    HW217862   3.392   5.300   4.349
 5655SOL     OW17863   6.347   2.543   5.094
 5655SOL    HW117864   6.445   2.546   5.113
 5655SOL    HW217865   6.304   2.474   5.152
 5656SOL     OW17866   6.657   3.758   0.196
 5656SOL    HW117867   6.749   3.790   0.218
 5656SOL    HW217868   6.590   3.811   0.249
 5657SOL     OW17869   5.270   5.660   5.295
 5657SOL    HW117870   5.341   5.590   5.299
 5657SOL    HW217871   5.196   5.636   5.358
 5658SOL     OW17872   2.227   2.970   6.234
 5658SOL    HW117873   2.280   2.966   6.149
 5658SOL    HW217874   2.285   2.944   6.311
 5659SOL     OW17875   2.900   3.662   6.589
 5659SOL    HW117876   2.929   3.751   6.554
 5659SOL    HW217877   2.934   3.590   6.528
 5660SOL     OW17878   4.444   0.412   6.339
 5660SOL    HW117879   4.367   0.364   6.380
 5660SOL    HW217880   4.496   0.459   6.410
 5661SOL     OW17881   1.300   5.040   5.803
 5661SOL    HW117882   1.219   5.089   5.769
 5661SOL    HW217883   1.321   5.071   5.896
 5662SOL     OW17884   2.803   6.613   1.063
 5662SOL    HW117885   2.856   6.631   1.146
 5662SOL    HW217886   2.845   6.662   0.986
 5663SOL     OW17887   1.340   3.125   6.406
 5663SOL    HW117888   1.330   3.222   6.428
 5663SOL    HW217889   1.427   3.110   6.358
 5664SOL     OW17890   4.553   4.848   4.618
 5664SOL    HW117891   4.481   4.803   4.671
 5664SOL    HW217892   4.610   4.778   4.575
 5665SOL     OW17893   1.388   1.771   0.871
 5665SOL    HW117894   1.317   1.767   0.942
 5665SOL    HW217895   1.405   1.867   0.847
 5666SOL     OW17896   5.784   1.832   4.762
 5666SOL    HW117897   5.707   1.886   4.727
 5666SOL    HW217898   5.817   1.770   4.690
 5667SOL     OW17899   2.364   4.770   4.388
 5667SOL    HW117900   2.353   4.687   4.442
 5667SOL    HW217901   2.462   4.791   4.379
 5668SOL     OW17902   4.974   4.199   3.780
 5668SOL    HW117903   5.049   4.264   3.768
 5668SOL    HW217904   4.901   4.220   3.716
 5669SOL     OW17905   6.046   4.052   5.538
 5669SOL    HW117906   6.064   3.959   5.573
 5669SOL    HW217907   5.977   4.096   5.596
 5670SOL     OW17908   0.953   2.076   3.192
 5670SOL    HW117909   0.860   2.087   3.227
 5670SOL    HW217910   1.006   2.020   3.255
 5671SOL     OW17911   0.316   6.764   3.659
 5671SOL    HW117912   0.284   6.735   3.569
 5671SOL    HW217913   0.277   6.706   3.730
 5672SOL     OW17914   5.215   2.763   4.541
 5672SOL    HW117915   5.182   2.689   4.600
 5672SOL    HW217916   5.142   2.791   4.479
 5673SOL     OW17917   0.536   1.376   0.836
 5673SOL    HW117918   0.524   1.277   0.839
 5673SOL    HW217919   0.633   1.398   0.830
 5674SOL     OW17920   2.430   4.785   4.717
 5674SOL    HW117921   2.497   4.770   4.791
 5674SOL    HW217922   2.463   4.858   4.657
 5675SOL     OW17923   2.748   1.847   0.826
 5675SOL    HW117924   2.794   1.827   0.740
 5675SOL    HW217925   2.754   1.767   0.886
 5676SOL     OW17926   2.292   1.439   2.078
 5676SOL    HW117927   2.235   1.368   2.119
 5676SOL    HW217928   2.292   1.519   2.137
 5677SOL     OW17929   6.565   1.606   0.420
 5677SOL    HW117930   6.629   1.682   0.415
 5677SOL    HW217931   6.544   1.585   0.515
 5678SOL     OW17932   3.280   1.917   2.144
 5678SOL    HW117933   3.202   1.976   2.124
 5678SOL    HW217934   3.258   1.823   2.121
 5679SOL     OW17935   6.370   3.421   4.931
 5679SOL    HW117936   6.332   3.512   4.918
 5679SOL    HW217937   6.349   3.388   5.023
 5680SOL     OW17938   1.037   6.198   4.980
 5680SOL    HW117939   1.006   6.273   4.920
 5680SOL    HW217940   1.103   6.141   4.931
 5681SOL     OW17941   1.041   3.537   4.308
 5681SOL    HW117942   1.016   3.612   4.248
 5681SOL    HW217943   1.099   3.571   4.383
 5682SOL     OW17944   2.443   4.411   1.665
 5682SOL    HW117945   2.489   4.438   1.750
 5682SOL    HW217946   2.372   4.343   1.686
 5683SOL     OW17947   6.368   0.965   6.028
 5683SOL    HW117948   6.417   0.978   5.942
 5683SOL    HW217949   6.433   0.945   6.101
 5684SOL     OW17950   2.096   2.555   4.959
 5684SOL    HW117951   2.010   2.513   4.930
 5684SOL    HW217952   2.164   2.484   4.975
 5685SOL     OW17953   2.422   1.851   2.260
 5685SOL    HW117954   2.488   1.926   2.266
 5685SOL    HW217955   2.413   1.822   2.165
 5686SOL     OW17956   4.230   5.440   6.040
 5686SOL    HW117957   4.171   5.361   6.055
 5686SOL    HW217958   4.176   5.524   6.047
 5687SOL     OW17959   2.142   6.419   6.370
 5687SOL    HW117960   2.185   6.506   6.348
 5687SOL    HW217961   2.093   6.427   6.456
 5688SOL     OW17962   1.604   2.087   2.942
 5688SOL    HW117963   1.682   2.031   2.915
 5688SOL    HW217964   1.557   2.120   2.861
 5689SOL     OW17965   0.296   2.635   1.964
 5689SOL    HW117966   0.278   2.541   1.935
 5689SOL    HW217967   0.220   2.693   1.937
 5690SOL     OW17968   1.746   4.991   6.754
 5690SOL    HW117969   1.829   5.005   6.699
 5690SOL    HW217970   1.736   5.066   6.819
 5691SOL     OW17971   3.562   1.400   3.179
 5691SOL    HW117972   3.655   1.375   3.207
 5691SOL    HW217973   3.563   1.428   3.083
 5692SOL     OW17974   5.013   5.077   1.959
 5692SOL    HW117975   5.026   5.165   2.004
 5692SOL    HW217976   4.919   5.071   1.924
 5693SOL     OW17977   4.306   0.970   1.158
 5693SOL    HW117978   4.207   0.984   1.150
 5693SOL    HW217979   4.346   0.958   1.067
 5694SOL     OW17980   0.990   6.798   1.704
 5694SOL    HW117981   1.035   6.871   1.653
 5694SOL    HW217982   1.058   6.749   1.759
 5695SOL     OW17983   2.493   0.438   1.687
 5695SOL    HW117984   2.456   0.516   1.738
 5695SOL    HW217985   2.420   0.370   1.674
 5696SOL     OW17986   1.541   0.238   4.243
 5696SOL    HW117987   1.477   0.208   4.314
 5696SOL    HW217988   1.550   0.167   4.174
 5697SOL     OW17989   6.320   3.311   0.986
 5697SOL    HW117990   6.281   3.301   0.894
 5697SOL    HW217991   6.318   3.407   1.013
 5698SOL     OW17992   3.291   2.170   4.131
 5698SOL    HW117993   3.197   2.194   4.108
 5698SOL    HW217994   3.313   2.206   4.222
 5699SOL     OW17995   1.833   3.002   2.462
 5699SOL    HW117996   1.895   3.077   2.486
 5699SOL    HW217997   1.746   3.014   2.509
 5700SOL     OW17998   6.421   0.350   3.205
 5700SOL    HW117999   6.350   0.282   3.188
 5700SOL    HW218000   6.475   0.363   3.122
 5701SOL     OW18001   0.231   0.374   1.107
 5701SOL    HW118002   0.320   0.360   1.064
 5701SOL    HW218003   0.244   0.395   1.204
 5702SOL     OW18004   2.415   6.901   4.973
 5702SOL    HW118005   2.407   6.958   5.055
 5702SOL    HW218006   2.337   6.919   4.912
 5703SOL     OW18007   0.445   3.087   6.361
 5703SOL    HW118008   0.443   2.991   6.390
 5703SOL    HW218009   0.364   3.134   6.397
 5704SOL     OW18010   4.198   5.655   4.421
 5704SOL    HW118011   4.226   5.581   4.360
 5704SOL    HW218012   4.154   5.727   4.368
 5705SOL     OW18013   6.164   0.392   5.647
 5705SOL    HW118014   6.084   0.348   5.688
 5705SOL    HW218015   6.140   0.484   5.619
 5706SOL     OW18016   4.906   2.125   7.004
 5706SOL    HW118017   4.949   2.105   0.068
 5706SOL    HW218018   4.977   2.149   6.938
 5707SOL     OW18019   5.285   5.800   1.826
 5707SOL    HW118020   5.194   5.842   1.828
 5707SOL    HW218021   5.283   5.720   1.766
 5708SOL     OW18022   4.763   6.244   2.438
 5708SOL    HW118023   4.663   6.244   2.440
 5708SOL    HW218024   4.796   6.338   2.431
 5709SOL     OW18025   0.291   2.473   2.688
 5709SOL    HW118026   0.212   2.534   2.679
 5709SOL    HW218027   0.260   2.384   2.724
 5710SOL     OW18028   3.447   2.367   1.068
 5710SOL    HW118029   3.542   2.394   1.083
 5710SOL    HW218030   3.418   2.305   1.141
 5711SOL     OW18031   5.471   1.726   3.130
 5711SOL    HW118032   5.462   1.732   3.030
 5711SOL    HW218033   5.435   1.809   3.172
 5712SOL     OW18034   6.312   0.423   0.878
 5712SOL    HW118035   6.277   0.343   0.829
 5712SOL    HW218036   6.288   0.415   0.975
 5713SOL     OW18037   2.505   0.976   0.757
 5713SOL    HW118038   2.543   1.060   0.797
 5713SOL    HW218039   2.443   1.000   0.682
 5714SOL     OW18040   5.935   0.255   0.654
 5714SOL    HW118041   5.875   0.199   0.711
 5714SOL    HW218042   5.894   0.346   0.643
 5715SOL     OW18043   0.349   0.095   1.610
 5715SOL    HW118044   0.377   0.007   1.650
 5715SOL    HW218045   0.401   0.169   1.653
 5716SOL     OW18046   6.120   4.473   4.932
 5716SOL    HW118047   6.079   4.404   4.872
 5716SOL    HW218048   6.218   4.477   4.915
 5717SOL     OW18049   1.635   5.117   3.252
 5717SOL    HW118050   1.610   5.198   3.305
 5717SOL    HW218051   1.552   5.063   3.233
 5718SOL     OW18052   1.090   3.286   6.857
 5718SOL    HW118053   1.143   3.307   6.939
 5718SOL    HW218054   0.993   3.284   6.880
 5719SOL     OW18055   2.042   3.430   0.889
 5719SOL    HW118056   2.002   3.426   0.981
 5719SOL    HW218057   1.993   3.497   0.834
 5720SOL     OW18058   2.775   4.977   5.798
 5720SOL    HW118059   2.795   4.916   5.874
 5720SOL    HW218060   2.717   5.052   5.829
 5721SOL     OW18061   1.868   3.263   6.822
 5721SOL    HW118062   1.847   3.324   6.746
 5721SOL    HW218063   1.966   3.245   6.825
 5722SOL     OW18064   1.346   0.586   6.740
 5722SOL    HW118065   1.409   0.664   6.731
 5722SOL    HW218066   1.393   0.509   6.783
 5723SOL     OW18067   3.908   3.075   0.757
 5723SOL    HW118068   3.856   3.048   0.837
 5723SOL    HW218069   4.000   3.103   0.784
 5724SOL     OW18070   5.332   1.910   5.392
 5724SOL    HW118071   5.260   1.979   5.399
 5724SOL    HW218072   5.292   1.825   5.358
 5725SOL     OW18073   0.461   4.479   4.654
 5725SOL    HW118074   0.425   4.413   4.589
 5725SOL    HW218075   0.384   4.521   4.704
 5726SOL     OW18076   5.842   4.088   2.659
 5726SOL    HW118077   5.833   4.136   2.572
 5726SOL    HW218078   5.751   4.076   2.699
 5727SOL     OW18079   0.420   2.065   5.362
 5727SOL    HW118080   0.510   2.109   5.366
 5727SOL    HW218081   0.432   1.966   5.372
 5728SOL     OW18082   4.968   6.910   5.081
 5728SOL    HW118083   4.871   6.914   5.105
 5728SOL    HW218084   4.990   6.817   5.051
 5729SOL     OW18085   2.799   2.234   4.392
 5729SOL    HW118086   2.747   2.161   4.438
 5729SOL    HW218087   2.866   2.271   4.455
 5730SOL     OW18088   0.182   4.254   4.800
 5730SOL    HW118089   0.181   4.284   4.896
 5730SOL    HW218090   0.219   4.162   4.795
 5731SOL     OW18091   1.255   6.848   2.799
 5731SOL    HW118092   1.330   6.889   2.851
 5731SOL    HW218093   1.279   6.845   2.702
 5732SOL     OW18094   0.473   0.118   3.179
 5732SOL    HW118095   0.386   0.165   3.193
 5732SOL    HW218096   0.543   0.183   3.150
 5733SOL     OW18097   3.135   6.879   5.711
 5733SOL    HW118098   3.124   6.945   5.636
 5733SOL    HW218099   3.048   6.868   5.758
 5734SOL     OW18100   1.809   6.659   3.833
 5734SOL    HW118101   1.766   6.600   3.765
 5734SOL    HW218102   1.747   6.671   3.910
 5735SOL     OW18103   3.066   0.952   1.956
 5735SOL    HW118104   3.071   0.881   1.886
 5735SOL    HW218105   3.030   1.036   1.915
 5736SOL     OW18106   1.650   5.446   6.686
 5736SOL    HW118107   1.731   5.453   6.744
 5736SOL    HW218108   1.647   5.355   6.645
 5737SOL     OW18109   5.516   4.414   0.699
 5737SOL    HW118110   5.563   4.424   0.612
 5737SOL    HW218111   5.545   4.487   0.762
 5738SOL     OW18112   1.154   3.894   6.206
 5738SOL    HW118113   1.098   3.934   6.279
 5738SOL    HW218114   1.098   3.832   6.151
 5739SOL     OW18115   1.219   1.769   1.660
 5739SOL    HW118116   1.319   1.769   1.661
 5739SOL    HW218117   1.185   1.725   1.743
 5740SOL     OW18118   3.879   5.844   6.414
 5740SOL    HW118119   3.924   5.922   6.457
 5740SOL    HW218120   3.883   5.765   6.476
 5741SOL     OW18121   6.700   4.562   2.638
 5741SOL    HW118122   6.755   4.564   2.555
 5741SOL    HW218123   6.637   4.640   2.638
 5742SOL     OW18124   6.828   6.321   4.481
 5742SOL    HW118125   6.825   6.301   4.579
 5742SOL    HW218126   6.756   6.386   4.458
 5743SOL     OW18127   1.765   6.345   4.151
 5743SOL    HW118128   1.758   6.310   4.057
 5743SOL    HW218129   1.675   6.379   4.180
 5744SOL     OW18130   5.748   0.030   2.078
 5744SOL    HW118131   5.836   7.011   2.090
 5744SOL    HW218132   5.679   6.987   2.053
 5745SOL     OW18133   1.379   2.311   3.622
 5745SOL    HW118134   1.297   2.325   3.677
 5745SOL    HW218135   1.455   2.361   3.663
 5746SOL     OW18136   6.258   4.969   6.741
 5746SOL    HW118137   6.244   5.010   6.831
 5746SOL    HW218138   6.307   4.882   6.751
 5747SOL     OW18139   0.698   6.313   2.698
 5747SOL    HW118140   0.626   6.382   2.697
 5747SOL    HW218141   0.767   6.336   2.629
 5748SOL     OW18142   2.360   6.332   3.536
 5748SOL    HW118143   2.268   6.299   3.557
 5748SOL    HW218144   2.418   6.255   3.508
 5749SOL     OW18145   2.661   1.332   2.762
 5749SOL    HW118146   2.614   1.409   2.718
 5749SOL    HW218147   2.747   1.364   2.802
 5750SOL     OW18148   6.129   5.762   2.411
 5750SOL    HW118149   6.103   5.724   2.499
 5750SOL    HW218150   6.054   5.817   2.374
 5751SOL     OW18151   1.101   2.721   6.253
 5751SOL    HW118152   1.149   2.750   6.170
 5751SOL    HW218153   1.140   2.770   6.332
 5752SOL     OW18154   0.381   1.401   0.174
 5752SOL    HW118155   0.328   1.486   0.172
 5752SOL    HW218156   0.458   1.409   0.112
 5753SOL     OW18157   4.500   2.043   0.740
 5753SOL    HW118158   4.504   1.956   0.790
 5753SOL    HW218159   4.520   2.027   0.643
 5754SOL     OW18160   6.541   5.128   1.018
 5754SOL    HW118161   6.485   5.080   1.085
 5754SOL    HW218162   6.591   5.062   0.962
 5755SOL     OW18163   3.181   3.521   1.358
 5755SOL    HW118164   3.114   3.580   1.312
 5755SOL    HW218165   3.162   3.426   1.335
 5756SOL     OW18166   6.749   6.688   4.786
 5756SOL    HW118167   6.822   6.651   4.843
 5756SOL    HW218168   6.777   6.684   4.690
 5757SOL     OW18169   0.181   6.563   2.152
 5757SOL    HW118170   0.180   6.653   2.108
 5757SOL    HW218171   0.107   6.506   2.116
 5758SOL     OW18172   1.909   1.045   5.781
 5758SOL    HW118173   1.875   1.011   5.868
 5758SOL    HW218174   2.006   1.023   5.772
 5759SOL     OW18175   6.585   1.657   5.669
 5759SOL    HW118176   6.499   1.649   5.719
 5759SOL    HW218177   6.661   1.627   5.727
 5760SOL     OW18178   1.358   5.480   1.850
 5760SOL    HW118179   1.359   5.380   1.860
 5760SOL    HW218180   1.265   5.513   1.863
 5761SOL     OW18181   5.409   0.780   4.321
 5761SOL    HW118182   5.505   0.761   4.340
 5761SOL    HW218183   5.400   0.826   4.233
 5762SOL     OW18184   5.794   6.367   1.747
 5762SOL    HW118185   5.776   6.269   1.754
 5762SOL    HW218186   5.891   6.382   1.728
 5763SOL     OW18187   0.937   1.578   1.660
 5763SOL    HW118188   1.000   1.613   1.591
 5763SOL    HW218189   0.894   1.654   1.708
 5764SOL     OW18190   4.448   2.891   5.888
 5764SOL    HW118191   4.493   2.926   5.806
 5764SOL    HW218192   4.513   2.835   5.940
 5765SOL     OW18193   6.361   5.283   0.470
 5765SOL    HW118194   6.420   5.203   0.481
 5765SOL    HW218195   6.387   5.333   0.388
 5766SOL     OW18196   3.188   1.130   3.399
 5766SOL    HW118197   3.251   1.181   3.341
 5766SOL    HW218198   3.240   1.080   3.469
 5767SOL     OW18199   6.242   0.658   0.736
 5767SOL    HW118200   6.281   0.703   0.656
 5767SOL    HW218201   6.295   0.576   0.758
 5768SOL     OW18202   6.165   0.959   2.068
 5768SOL    HW118203   6.102   1.007   2.007
 5768SOL    HW218204   6.170   1.007   2.156
 5769SOL     OW18205   1.933   5.576   3.556
 5769SOL    HW118206   1.846   5.622   3.576
 5769SOL    HW218207   2.007   5.642   3.563
 5770SOL     OW18208   5.867   1.440   1.586
 5770SOL    HW118209   5.953   1.453   1.536
 5770SOL    HW218210   5.791   1.476   1.532
 5771SOL     OW18211   0.279   1.134   1.509
 5771SOL    HW118212   0.218   1.151   1.432
 5771SOL    HW218213   0.374   1.146   1.481
 5772SOL     OW18214   6.951   4.295   6.398
 5772SOL    HW118215   6.968   4.218   6.459
 5772SOL    HW218216   6.946   4.379   6.451
 5773SOL     OW18217   5.105   6.066   4.737
 5773SOL    HW118218   5.121   6.064   4.836
 5773SOL    HW218219   5.077   5.975   4.706
 5774SOL     OW18220   3.038   4.850   2.992
 5774SOL    HW118221   3.019   4.836   3.089
 5774SOL    HW218222   3.004   4.940   2.964
 5775SOL     OW18223   0.707   0.694   0.584
 5775SOL    HW118224   0.766   0.703   0.504
 5775SOL    HW218225   0.611   0.693   0.554
 5776SOL     OW18226   4.718   0.903   5.777
 5776SOL    HW118227   4.662   0.949   5.708
 5776SOL    HW218228   4.711   0.804   5.765
 5777SOL     OW18229   5.427   0.906   5.710
 5777SOL    HW118230   5.470   0.956   5.634
 5777SOL    HW218231   5.352   0.961   5.748
 5778SOL     OW18232   2.833   6.671   4.015
 5778SOL    HW118233   2.883   6.754   3.992
 5778SOL    HW218234   2.895   6.604   4.055
 5779SOL     OW18235   4.615   0.420   1.067
 5779SOL    HW118236   4.599   0.382   0.976
 5779SOL    HW218237   4.709   0.454   1.073
 5780SOL     OW18238   5.885   3.404   0.840
 5780SOL    HW118239   5.920   3.367   0.926
 5780SOL    HW218240   5.791   3.372   0.825
 5781SOL     OW18241   3.045   4.696   5.362
 5781SOL    HW118242   2.989   4.655   5.290
 5781SOL    HW218243   3.131   4.646   5.369
 5782SOL     OW18244   4.195   1.936   3.318
 5782SOL    HW118245   4.153   1.985   3.243
 5782SOL    HW218246   4.125   1.888   3.371
 5783SOL     OW18247   2.540   6.944   1.796
 5783SOL    HW118248   2.528   6.853   1.836
 5783SOL    HW218249   2.488   6.950   1.711
 5784SOL     OW18250   1.293   5.710   6.996
 5784SOL    HW118251   1.248   5.643   0.030
 5784SOL    HW218252   1.333   5.782   0.027
 5785SOL     OW18253   2.119   1.535   6.874
 5785SOL    HW118254   2.201   1.480   6.891
 5785SOL    HW218255   2.132   1.589   6.791
 5786SOL     OW18256   0.615   2.714   6.327
 5786SOL    HW118257   0.706   2.724   6.288
 5786SOL    HW218258   0.600   2.785   6.396
 5787SOL     OW18259   6.932   3.092   5.586
 5787SOL    HW118260   6.879   3.013   5.555
 5787SOL    HW218261   6.937   3.093   5.686
 5788SOL     OW18262   1.193   2.571   1.987
 5788SOL    HW118263   1.095   2.550   1.984
 5788SOL    HW218264   1.232   2.558   1.895
 5789SOL     OW18265   2.772   4.894   6.656
 5789SOL    HW118266   2.726   4.936   6.734
 5789SOL    HW218267   2.844   4.833   6.689
 5790SOL     OW18268   6.759   6.418   2.885
 5790SOL    HW118269   6.822   6.487   2.919
 5790SOL    HW218270   6.739   6.435   2.789
 5791SOL     OW18271   4.039   0.988   1.094
 5791SOL    HW118272   4.041   0.956   0.999
 5791SOL    HW218273   3.961   0.948   1.141
 5792SOL     OW18274   4.343   1.870   2.729
 5792SOL    HW118275   4.313   1.803   2.661
 5792SOL    HW218276   4.278   1.872   2.805
 5793SOL     OW18277   3.636   2.071   0.224
 5793SOL    HW118278   3.673   2.042   0.312
 5793SOL    HW218279   3.577   1.999   0.187
 5794SOL     OW18280   3.500   6.006   6.855
 5794SOL    HW118281   3.539   6.093   6.826
 5794SOL    HW218282   3.573   5.938   6.861
 5795SOL     OW18283   1.114   6.986   1.522
 5795SOL    HW118284   1.095   0.055   1.494
 5795SOL    HW218285   1.210   6.965   1.503
 5796SOL     OW18286   4.791   0.871   6.658
 5796SOL    HW118287   4.869   0.900   6.713
 5796SOL    HW218288   4.804   0.776   6.630
 5797SOL     OW18289   0.055   2.722   0.157
 5797SOL    HW118290   0.046   2.662   0.236
 5797SOL    HW218291   7.002   2.784   0.153
 5798SOL     OW18292   1.711   2.971   4.096
 5798SOL    HW118293   1.693   2.882   4.137
 5798SOL    HW218294   1.810   2.987   4.094
 5799SOL     OW18295   2.700   0.127   3.589
 5799SOL    HW118296   2.708   0.212   3.536
 5799SOL    HW218297   2.779   0.068   3.568
 5800SOL     OW18298   1.375   7.002   2.348
 5800SOL    HW118299   1.290   7.014   2.297
 5800SOL    HW218300   1.442   6.954   2.291
 5801SOL     OW18301   1.944   1.346   2.867
 5801SOL    HW118302   1.876   1.279   2.839
 5801SOL    HW218303   2.004   1.306   2.937
 5802SOL     OW18304   1.058   6.937   2.961
 5802SOL    HW118305   1.099   6.980   3.041
 5802SOL    HW218306   1.126   6.928   2.889
 5803SOL     OW18307   0.498   6.424   4.761
 5803SOL    HW118308   0.581   6.376   4.734
 5803SOL    HW218309   0.422   6.359   4.765
 5804SOL     OW18310   6.447   2.206   3.250
 5804SOL    HW118311   6.440   2.302   3.221
 5804SOL    HW218312   6.532   2.194   3.302
 5805SOL     OW18313   1.237   2.420   1.519
 5805SOL    HW118314   1.278   2.476   1.590
 5805SOL    HW218315   1.218   2.328   1.555
 5806SOL     OW18316   6.453   3.843   2.378
 5806SOL    HW118317   6.486   3.935   2.399
 5806SOL    HW218318   6.452   3.788   2.462
 5807SOL     OW18319   1.304   1.258   2.140
 5807SOL    HW118320   1.217   1.295   2.109
 5807SOL    HW218321   1.308   1.160   2.119
 5808SOL     OW18322   0.241   0.547   5.452
 5808SOL    HW118323   0.310   0.563   5.523
 5808SOL    HW218324   0.168   0.490   5.489
 5809SOL     OW18325   0.217   3.739   4.395
 5809SOL    HW118326   0.234   3.826   4.349
 5809SOL    HW218327   0.291   3.719   4.458
 5810SOL     OW18328   2.337   6.568   5.425
 5810SOL    HW118329   2.299   6.480   5.451
 5810SOL    HW218330   2.369   6.564   5.330
 5811SOL     OW18331   4.067   4.484   6.886
 5811SOL    HW118332   4.113   4.560   6.841
 5811SOL    HW218333   3.982   4.516   6.928
 5812SOL     OW18334   5.833   2.930   6.641
 5812SOL    HW118335   5.775   2.901   6.718
 5812SOL    HW218336   5.915   2.973   6.677
 5813SOL     OW18337   5.232   4.473   0.642
 5813SOL    HW118338   5.326   4.463   0.674
 5813SOL    HW218339   5.216   4.568   0.614
 5814SOL     OW18340   6.327   1.030   2.325
 5814SOL    HW118341   6.276   0.998   2.404
 5814SOL    HW218342   6.303   1.125   2.305
 5815SOL     OW18343   6.517   3.265   4.759
 5815SOL    HW118344   6.563   3.353   4.748
 5815SOL    HW218345   6.479   3.259   4.852
 5816SOL     OW18346   6.839   3.955   1.597
 5816SOL    HW118347   6.783   4.011   1.537
 5816SOL    HW218348   6.802   3.862   1.600
 5817SOL     OW18349   6.631   2.992   4.011
 5817SOL    HW118350   6.606   3.009   4.106
 5817SOL    HW218351   6.658   3.077   3.967
 5818SOL     OW18352   2.916   0.699   4.915
 5818SOL    HW118353   2.863   0.631   4.864
 5818SOL    HW218354   2.985   0.739   4.855
 5819SOL     OW18355   4.326   4.287   0.855
 5819SOL    HW118356   4.372   4.237   0.782
 5819SOL    HW218357   4.393   4.313   0.925
 5820SOL     OW18358   6.613   6.917   3.232
 5820SOL    HW118359   6.620   6.847   3.161
 5820SOL    HW218360   6.555   6.884   3.307
 5821SOL     OW18361   6.590   6.785   1.985
 5821SOL    HW118362   6.631   6.697   1.963
 5821SOL    HW218363   6.611   6.809   2.080
 5822SOL     OW18364   0.575   4.002   2.406
 5822SOL    HW118365   0.583   3.920   2.463
 5822SOL    HW218366   0.485   4.003   2.362
 5823SOL     OW18367   2.432   6.660   4.874
 5823SOL    HW118368   2.453   6.755   4.898
 5823SOL    HW218369   2.361   6.658   4.804
 5824SOL     OW18370   2.283   6.490   2.596
 5824SOL    HW118371   2.204   6.481   2.535
 5824SOL    HW218372   2.337   6.406   2.593
 5825SOL     OW18373   4.466   1.620   4.948
 5825SOL    HW118374   4.513   1.707   4.957
 5825SOL    HW218375   4.385   1.619   5.008
 5826SOL     OW18376   1.632   6.494   5.085
 5826SOL    HW118377   1.688   6.412   5.094
 5826SOL    HW218378   1.598   6.522   5.174
 5827SOL     OW18379   2.146   3.597   2.994
 5827SOL    HW118380   2.143   3.638   3.085
 5827SOL    HW218381   2.185   3.662   2.929
 5828SOL     OW18382   4.851   0.388   5.786
 5828SOL    HW118383   4.797   0.307   5.808
 5828SOL    HW218384   4.931   0.393   5.846
 5829SOL     OW18385   2.487   0.367   3.263
 5829SOL    HW118386   2.405   0.316   3.237
 5829SOL    HW218387   2.526   0.327   3.346
 5830SOL     OW18388   4.079   5.189   4.474
 5830SOL    HW118389   4.172   5.218   4.495
 5830SOL    HW218390   4.026   5.182   4.558
 5831SOL     OW18391   2.250   2.677   4.474
 5831SOL    HW118392   2.221   2.588   4.510
 5831SOL    HW218393   2.337   2.704   4.515
 5832SOL     OW18394   2.857   5.978   3.232
 5832SOL    HW118395   2.803   5.896   3.244
 5832SOL    HW218396   2.802   6.058   3.255
 5833SOL     OW18397   3.390   5.520   0.491
 5833SOL    HW118398   3.355   5.583   0.560
 5833SOL    HW218399   3.465   5.466   0.530
 5834SOL     OW18400   6.661   2.931   6.469
 5834SOL    HW118401   6.627   2.974   6.385
 5834SOL    HW218402   6.583   2.901   6.525
 5835SOL     OW18403   4.395   1.560   3.289
 5835SOL    HW118404   4.483   1.606   3.276
 5835SOL    HW218405   4.389   1.481   3.228
 5836SOL     OW18406   4.664   6.269   1.233
 5836SOL    HW118407   4.598   6.194   1.224
 5836SOL    HW218408   4.635   6.329   1.307
 5837SOL     OW18409   3.124   4.523   6.856
 5837SOL    HW118410   3.209   4.473   6.876
 5837SOL    HW218411   3.047   4.475   6.898
 5838SOL     OW18412   3.443   3.371   6.912
 5838SOL    HW118413   3.357   3.334   6.947
 5838SOL    HW218414   3.460   3.461   6.951
 5839SOL     OW18415   2.017   1.745   0.540
 5839SOL    HW118416   2.113   1.764   0.559
 5839SOL    HW218417   2.004   1.735   0.441
 5840SOL     OW18418   1.049   3.448   3.088
 5840SOL    HW118419   1.135   3.412   3.124
 5840SOL    HW218420   0.990   3.475   3.164
 5841SOL     OW18421   5.412   1.817   0.418
 5841SOL    HW118422   5.375   1.904   0.452
 5841SOL    HW218423   5.488   1.835   0.356
 5842SOL     OW18424   3.226   2.110   1.863
 5842SOL    HW118425   3.296   2.178   1.840
 5842SOL    HW218426   3.233   2.032   1.801
 5843SOL     OW18427   3.420   3.286   0.337
 5843SOL    HW118428   3.418   3.382   0.310
 5843SOL    HW218429   3.445   3.229   0.259
 5844SOL     OW18430   0.741   5.846   5.405
 5844SOL    HW118431   0.753   5.842   5.306
 5844SOL    HW218432   0.830   5.838   5.450
 5845SOL     OW18433   2.051   0.053   2.805
 5845SOL    HW118434   2.137   0.104   2.802
 5845SOL    HW218435   1.975   0.115   2.786
 5846SOL     OW18436   0.539   4.541   5.411
 5846SOL    HW118437   0.451   4.576   5.444
 5846SOL    HW218438   0.524   4.453   5.366
 5847SOL     OW18439   1.657   4.300   6.671
 5847SOL    HW118440   1.725   4.270   6.739
 5847SOL    HW218441   1.702   4.312   6.582
 5848SOL     OW18442   2.390   6.903   1.577
 5848SOL    HW118443   2.411   6.976   1.512
 5848SOL    HW218444   2.290   6.895   1.587
 5849SOL     OW18445   2.891   5.703   6.658
 5849SOL    HW118446   2.886   5.639   6.581
 5849SOL    HW218447   2.802   5.746   6.671
 5850SOL     OW18448   6.915   1.480   1.694
 5850SOL    HW118449   6.991   1.487   1.630
 5850SOL    HW218450   6.950   1.481   1.788
 5851SOL     OW18451   6.981   3.567   4.636
 5851SOL    HW118452   6.935   3.585   4.722
 5851SOL    HW218453   0.055   3.575   4.648
 5852SOL     OW18454   4.751   4.274   2.578
 5852SOL    HW118455   4.718   4.270   2.672
 5852SOL    HW218456   4.687   4.325   2.521
 5853SOL     OW18457   4.612   4.746   0.059
 5853SOL    HW118458   4.577   4.839   0.066
 5853SOL    HW218459   4.699   4.747   0.010
 5854SOL     OW18460   3.297   4.640   5.596
 5854SOL    HW118461   3.248   4.721   5.627
 5854SOL    HW218462   3.231   4.571   5.565
 5855SOL     OW18463   2.588   2.494   3.824
 5855SOL    HW118464   2.586   2.456   3.916
 5855SOL    HW218465   2.495   2.511   3.793
 5856SOL     OW18466   1.461   0.203   2.992
 5856SOL    HW118467   1.379   0.251   3.024
 5856SOL    HW218468   1.540   0.233   3.045
 5857SOL     OW18469   5.556   4.815   6.783
 5857SOL    HW118470   5.650   4.820   6.817
 5857SOL    HW218471   5.506   4.744   6.834
 5858SOL     OW18472   2.334   1.449   2.426
 5858SOL    HW118473   2.256   1.389   2.407
 5858SOL    HW218474   2.328   1.532   2.371
 5859SOL     OW18475   5.011   5.376   1.690
 5859SOL    HW118476   5.102   5.336   1.707
 5859SOL    HW218477   4.993   5.447   1.758
 5860SOL     OW18478   0.797   3.683   2.694
 5860SOL    HW118479   0.866   3.726   2.752
 5860SOL    HW218480   0.823   3.692   2.598
 5861SOL     OW18481   5.391   0.641   5.619
 5861SOL    HW118482   5.321   0.600   5.561
 5861SOL    HW218483   5.400   0.738   5.596
 5862SOL     OW18484   6.826   4.783   3.379
 5862SOL    HW118485   6.778   4.750   3.460
 5862SOL    HW218486   6.919   4.810   3.404
 5863SOL     OW18487   4.126   6.692   5.996
 5863SOL    HW118488   4.126   6.782   5.953
 5863SOL    HW218489   4.167   6.626   5.934
 5864SOL     OW18490   4.086   3.532   2.394
 5864SOL    HW118491   4.111   3.471   2.319
 5864SOL    HW218492   4.127   3.499   2.479
 5865SOL     OW18493   6.720   6.965   0.723
 5865SOL    HW118494   6.750   6.958   0.628
 5865SOL    HW218495   6.630   7.008   0.727
 5866SOL     OW18496   3.762   3.311   2.878
 5866SOL    HW118497   3.838   3.352   2.929
 5866SOL    HW218498   3.756   3.354   2.787
 5867SOL     OW18499   3.277   1.594   1.346
 5867SOL    HW118500   3.193   1.603   1.399
 5867SOL    HW218501   3.356   1.608   1.407
 5868SOL     OW18502   1.266   0.795   0.735
 5868SOL    HW118503   1.241   0.882   0.693
 5868SOL    HW218504   1.331   0.746   0.676
 5869SOL     OW18505   1.288   5.632   2.972
 5869SOL    HW118506   1.203   5.632   2.919
 5869SOL    HW218507   1.366   5.645   2.911
 5870SOL     OW18508   4.322   0.325   3.867
 5870SOL    HW118509   4.407   0.278   3.844
 5870SOL    HW218510   4.315   0.334   3.967
 5871SOL     OW18511   4.120   3.363   4.434
 5871SOL    HW118512   4.073   3.288   4.480
 5871SOL    HW218513   4.111   3.351   4.335
 5872SOL     OW18514   4.516   6.049   1.174
 5872SOL    HW118515   4.431   6.008   1.208
 5872SOL    HW218516   4.548   5.997   1.095
 5873SOL     OW18517   3.836   6.044   2.045
 5873SOL    HW118518   3.742   6.037   2.012
 5873SOL    HW218519   3.858   5.965   2.102
 5874SOL     OW18520   0.945   4.489   5.162
 5874SOL    HW118521   0.979   4.555   5.229
 5874SOL    HW218522   0.881   4.534   5.100
 5875SOL     OW18523   3.828   1.761   0.791
 5875SOL    HW118524   3.734   1.778   0.762
 5875SOL    HW218525   3.855   1.668   0.766
 5876SOL     OW18526   3.172   3.502   2.032
 5876SOL    HW118527   3.210   3.422   2.078
 5876SOL    HW218528   3.108   3.472   1.961
 5877SOL     OW18529   5.381   4.325   1.626
 5877SOL    HW118530   5.290   4.365   1.630
 5877SOL    HW218531   5.385   4.258   1.551
 5878SOL     OW18532   1.804   3.578   2.536
 5878SOL    HW118533   1.798   3.611   2.630
 5878SOL    HW218534   1.890   3.531   2.522
 5879SOL     OW18535   1.368   3.855   4.113
 5879SOL    HW118536   1.269   3.865   4.107
 5879SOL    HW218537   1.398   3.782   4.051
 5880SOL     OW18538   3.558   6.033   0.271
 5880SOL    HW118539   3.638   6.063   0.218
 5880SOL    HW218540   3.518   5.952   0.227
 5881SOL     OW18541   1.158   6.101   4.260
 5881SOL    HW118542   1.200   6.105   4.169
 5881SOL    HW218543   1.103   6.018   4.267
 5882SOL     OW18544   5.544   0.616   2.730
 5882SOL    HW118545   5.529   0.600   2.632
 5882SOL    HW218546   5.497   0.547   2.783
 5883SOL     OW18547   0.808   3.564   5.499
 5883SOL    HW118548   0.726   3.621   5.506
 5883SOL    HW218549   0.812   3.503   5.578
 5884SOL     OW18550   1.018   0.436   3.256
 5884SOL    HW118551   1.043   0.521   3.302
 5884SOL    HW218552   0.923   0.413   3.277
 5885SOL     OW18553   5.957   6.289   1.077
 5885SOL    HW118554   5.914   6.353   1.014
 5885SOL    HW218555   5.927   6.308   1.170
 5886SOL     OW18556   6.878   1.611   6.243
 5886SOL    HW118557   6.788   1.597   6.285
 5886SOL    HW218558   6.900   1.709   6.243
 5887SOL     OW18559   3.888   5.804   3.181
 5887SOL    HW118560   3.795   5.788   3.150
 5887SOL    HW218561   3.887   5.826   3.279
 5888SOL     OW18562   0.081   0.554   2.998
 5888SOL    HW118563   0.124   0.545   3.088
 5888SOL    HW218564   7.010   0.526   3.004
 5889SOL     OW18565   2.284   0.040   6.630
 5889SOL    HW118566   2.365   7.009   6.615
 5889SOL    HW218567   2.262   0.089   6.546
 5890SOL     OW18568   3.702   4.539   6.086
 5890SOL    HW118569   3.703   4.639   6.084
 5890SOL    HW218570   3.638   4.505   6.018
 5891SOL     OW18571   2.177   3.472   6.319
 5891SOL    HW118572   2.167   3.393   6.258
 5891SOL    HW218573   2.229   3.444   6.400
 5892SOL     OW18574   2.215   6.253   2.399
 5892SOL    HW118575   2.243   6.226   2.307
 5892SOL    HW218576   2.289   6.234   2.464
 5893SOL     OW18577   1.898   1.631   3.228
 5893SOL    HW118578   1.993   1.600   3.233
 5893SOL    HW218579   1.892   1.727   3.254
 5894SOL     OW18580   0.766   3.135   3.574
 5894SOL    HW118581   0.813   3.065   3.628
 5894SOL    HW218582   0.807   3.225   3.592
 5895SOL     OW18583   5.733   4.121   3.387
 5895SOL    HW118584   5.769   4.189   3.322
 5895SOL    HW218585   5.806   4.058   3.413
 5896SOL     OW18586   5.280   2.853   5.396
 5896SOL    HW118587   5.373   2.821   5.413
 5896SOL    HW218588   5.280   2.922   5.324
 5897SOL     OW18589   4.706   5.287   0.986
 5897SOL    HW118590   4.684   5.192   1.010
 5897SOL    HW218591   4.764   5.326   1.058
 5898SOL     OW18592   2.945   6.332   3.183
 5898SOL    HW118593   2.988   6.279   3.256
 5898SOL    HW218594   2.960   6.430   3.199
 5899SOL     OW18595   5.594   0.467   3.555
 5899SOL    HW118596   5.591   0.504   3.648
 5899SOL    HW218597   5.680   0.493   3.511
 5900SOL     OW18598   3.697   5.248   2.451
 5900SOL    HW118599   3.720   5.256   2.548
 5900SOL    HW218600   3.701   5.152   2.423
 5901SOL     OW18601   2.935   6.364   4.936
 5901SOL    HW118602   2.935   6.314   4.850
 5901SOL    HW218603   2.846   6.409   4.949
 5902SOL     OW18604   5.850   2.469   6.910
 5902SOL    HW118605   5.872   2.534   6.837
 5902SOL    HW218606   5.764   2.422   6.888
 5903SOL     OW18607   0.126   3.497   6.481
 5903SOL    HW118608   0.074   3.498   6.566
 5903SOL    HW218609   0.064   3.479   6.404
 5904SOL     OW18610   0.936   3.476   2.426
 5904SOL    HW118611   0.979   3.564   2.450
 5904SOL    HW218612   0.942   3.463   2.327
 5905SOL     OW18613   6.883   4.812   2.543
 5905SOL    HW118614   6.936   4.827   2.459
 5905SOL    HW218615   6.785   4.808   2.520
 5906SOL     OW18616   0.981   0.993   2.978
 5906SOL    HW118617   1.050   0.924   2.959
 5906SOL    HW218618   0.915   0.996   2.903
 5907SOL     OW18619   2.181   0.264   2.174
 5907SOL    HW118620   2.095   0.315   2.165
 5907SOL    HW218621   2.250   0.303   2.112
 5908SOL     OW18622   0.132   3.236   5.946
 5908SOL    HW118623   0.142   3.330   5.977
 5908SOL    HW218624   0.204   3.180   5.988
 5909SOL     OW18625   6.067   4.476   0.661
 5909SOL    HW118626   6.159   4.492   0.695
 5909SOL    HW218627   6.030   4.560   0.623
 5910SOL     OW18628   1.633   1.684   3.329
 5910SOL    HW118629   1.707   1.617   3.330
 5910SOL    HW218630   1.637   1.737   3.244
 5911SOL     OW18631   6.502   5.757   6.751
 5911SOL    HW118632   6.498   5.669   6.798
 5911SOL    HW218633   6.494   5.742   6.652
 5912SOL     OW18634   0.728   0.176   3.741
 5912SOL    HW118635   0.739   0.101   3.807
 5912SOL    HW218636   0.657   0.239   3.773
 5913SOL     OW18637   6.046   2.050   0.323
 5913SOL    HW118638   5.948   2.066   0.315
 5913SOL    HW218639   6.092   2.136   0.347
 5914SOL     OW18640   0.994   6.416   0.333
 5914SOL    HW118641   0.920   6.458   0.281
 5914SOL    HW218642   1.065   6.385   0.271
 5915SOL     OW18643   3.618   1.518   6.020
 5915SOL    HW118644   3.553   1.550   5.951
 5915SOL    HW218645   3.656   1.597   6.069
 5916SOL     OW18646   1.118   7.011   2.161
 5916SOL    HW118647   1.186   6.952   2.117
 5916SOL    HW218648   1.027   6.970   2.152
 5917SOL     OW18649   3.381   3.525   0.216
 5917SOL    HW118650   3.282   3.534   0.220
 5917SOL    HW218651   3.418   3.585   0.146
 5918SOL     OW18652   3.084   0.165   4.827
 5918SOL    HW118653   3.083   0.118   4.915
 5918SOL    HW218654   3.010   0.130   4.770
 5919SOL     OW18655   3.371   3.381   4.609
 5919SOL    HW118656   3.339   3.469   4.574
 5919SOL    HW218657   3.293   3.323   4.630
 5920SOL     OW18658   0.040   7.017   5.440
 5920SOL    HW118659   6.995   6.962   5.394
 5920SOL    HW218660   0.044   6.992   5.537
 5921SOL     OW18661   2.776   4.248   6.767
 5921SOL    HW118662   2.736   4.320   6.710
 5921SOL    HW218663   2.762   4.159   6.725
 5922SOL     OW18664   5.315   3.056   2.483
 5922SOL    HW118665   5.294   3.018   2.393
 5922SOL    HW218666   5.280   3.149   2.489
 5923SOL     OW18667   6.142   1.083   3.530
 5923SOL    HW118668   6.174   1.176   3.512
 5923SOL    HW218669   6.042   1.080   3.527
 5924SOL     OW18670   5.325   6.380   3.710
 5924SOL    HW118671   5.227   6.361   3.718
 5924SOL    HW218672   5.354   6.370   3.615
 5925SOL     OW18673   4.608   1.499   0.818
 5925SOL    HW118674   4.661   1.508   0.734
 5925SOL    HW218675   4.519   1.542   0.806
 5926SOL     OW18676   5.546   3.939   3.253
 5926SOL    HW118677   5.604   3.949   3.334
 5926SOL    HW218678   5.593   3.882   3.185
 5927SOL     OW18679   0.515   5.257   2.307
 5927SOL    HW118680   0.432   5.254   2.250
 5927SOL    HW218681   0.576   5.328   2.271
 5928SOL     OW18682   2.584   6.679   0.016
 5928SOL    HW118683   2.664   6.684   0.076
 5928SOL    HW218684   2.503   6.709   0.066
 5929SOL     OW18685   0.860   0.762   0.362
 5929SOL    HW118686   0.903   0.674   0.338
 5929SOL    HW218687   0.909   0.836   0.318
 5930SOL     OW18688   1.779   3.969   1.838
 5930SOL    HW118689   1.825   3.962   1.927
 5930SOL    HW218690   1.791   3.884   1.788
 5931SOL     OW18691   5.357   6.641   2.899
 5931SOL    HW118692   5.417   6.717   2.877
 5931SOL    HW218693   5.366   6.618   2.996
 5932SOL     OW18694   2.958   0.159   0.020
 5932SOL    HW118695   2.931   0.066   7.020
 5932SOL    HW218696   2.975   0.213   6.962
 5933SOL     OW18697   5.753   6.350   4.290
 5933SOL    HW118698   5.662   6.311   4.272
 5933SOL    HW218699   5.753   6.395   4.379
 5934SOL     OW18700   2.457   3.448   0.286
 5934SOL    HW118701   2.408   3.533   0.264
 5934SOL    HW218702   2.533   3.436   0.221
 5935SOL     OW18703   1.295   0.037   5.700
 5935SOL    HW118704   1.262   6.972   5.672
 5935SOL    HW218705   1.395   0.039   5.695
 5936SOL     OW18706   3.363   2.901   2.310
 5936SOL    HW118707   3.386   2.929   2.403
 5936SOL    HW218708   3.387   2.805   2.296
 5937SOL     OW18709   0.098   2.819   1.359
 5937SOL    HW118710   0.083   2.723   1.381
 5937SOL    HW218711   0.132   2.867   1.439
 5938SOL     OW18712   0.053   4.162   4.138
 5938SOL    HW118713   7.020   4.190   4.214
 5938SOL    HW218714   0.069   4.241   4.078
 5939SOL     OW18715   3.771   1.524   5.807
 5939SOL    HW118716   3.774   1.622   5.788
 5939SOL    HW218717   3.719   1.508   5.892
 5940SOL     OW18718   4.809   5.585   1.436
 5940SOL    HW118719   4.795   5.605   1.339
 5940SOL    HW218720   4.893   5.629   1.468
 5941SOL     OW18721   0.144   2.292   3.409
 5941SOL    HW118722   0.107   2.381   3.434
 5941SOL    HW218723   0.079   2.220   3.435
 5942SOL     OW18724   5.078   2.818   6.214
 5942SOL    HW118725   5.096   2.917   6.215
 5942SOL    HW218726   5.011   2.797   6.143
 5943SOL     OW18727   2.480   4.676   1.569
 5943SOL    HW118728   2.467   4.585   1.608
 5943SOL    HW218729   2.570   4.711   1.595
 5944SOL     OW18730   6.463   3.265   5.600
 5944SOL    HW118731   6.448   3.320   5.682
 5944SOL    HW218732   6.414   3.305   5.523
 5945SOL     OW18733   6.524   6.506   4.820
 5945SOL    HW118734   6.603   6.559   4.852
 5945SOL    HW218735   6.483   6.552   4.742
 5946SOL     OW18736   2.053   3.776   6.619
 5946SOL    HW118737   1.989   3.756   6.694
 5946SOL    HW218738   2.038   3.711   6.545
 5947SOL     OW18739   3.737   3.559   4.610
 5947SOL    HW118740   3.648   3.531   4.647
 5947SOL    HW218741   3.724   3.633   4.544
 5948SOL     OW18742   5.087   3.368   1.354
 5948SOL    HW118743   5.183   3.383   1.329
 5948SOL    HW218744   5.080   3.289   1.415
 5949SOL     OW18745   0.556   4.301   3.385
 5949SOL    HW118746   0.552   4.369   3.312
 5949SOL    HW218747   0.464   4.270   3.407
 5950SOL     OW18748   3.599   0.203   4.574
 5950SOL    HW118749   3.558   0.121   4.615
 5950SOL    HW218750   3.646   0.255   4.645
 5951SOL     OW18751   6.585   4.312   6.690
 5951SOL    HW118752   6.508   4.289   6.629
 5951SOL    HW218753   6.562   4.288   6.784
 5952SOL     OW18754   4.338   4.516   1.617
 5952SOL    HW118755   4.385   4.543   1.700
 5952SOL    HW218756   4.241   4.501   1.637
 5953SOL     OW18757   0.193   3.290   5.214
 5953SOL    HW118758   0.179   3.252   5.123
 5953SOL    HW218759   0.272   3.245   5.257
 5954SOL     OW18760   2.010   5.578   4.099
 5954SOL    HW118761   2.052   5.537   4.180
 5954SOL    HW218762   1.916   5.547   4.089
 5955SOL     OW18763   4.972   3.518   0.421
 5955SOL    HW118764   5.004   3.447   0.484
 5955SOL    HW218765   4.887   3.558   0.456
 5956SOL     OW18766   5.278   2.835   4.980
 5956SOL    HW118767   5.348   2.884   5.032
 5956SOL    HW218768   5.260   2.885   4.895
 5957SOL     OW18769   6.662   1.170   3.431
 5957SOL    HW118770   6.706   1.147   3.518
 5957SOL    HW218771   6.566   1.193   3.447
 5958SOL     OW18772   3.134   6.237   3.346
 5958SOL    HW118773   3.232   6.223   3.353
 5958SOL    HW218774   3.098   6.270   3.433
 5959SOL     OW18775   5.296   2.434   3.264
 5959SOL    HW118776   5.221   2.480   3.312
 5959SOL    HW218777   5.268   2.342   3.238
 5960SOL     OW18778   3.920   0.851   6.037
 5960SOL    HW118779   3.898   0.894   6.125
 5960SOL    HW218780   4.010   0.808   6.042
 5961SOL     OW18781   2.946   2.228   3.518
 5961SOL    HW118782   2.855   2.265   3.537
 5961SOL    HW218783   2.975   2.255   3.427
 5962SOL     OW18784   4.739   5.309   0.213
 5962SOL    HW118785   4.641   5.291   0.226
 5962SOL    HW218786   4.787   5.222   0.198
 5963SOL     OW18787   2.419   4.090   0.695
 5963SOL    HW118788   2.321   4.096   0.713
 5963SOL    HW218789   2.435   4.085   0.596
 5964SOL     OW18790   2.398   6.652   2.857
 5964SOL    HW118791   2.354   6.723   2.802
 5964SOL    HW218792   2.484   6.626   2.814
 5965SOL     OW18793   2.890   0.455   0.550
 5965SOL    HW118794   2.836   0.377   0.518
 5965SOL    HW218795   2.882   0.530   0.485
 5966SOL     OW18796   2.796   1.520   5.407
 5966SOL    HW118797   2.739   1.592   5.365
 5966SOL    HW218798   2.835   1.555   5.492
 5967SOL     OW18799   4.545   1.865   5.025
 5967SOL    HW118800   4.598   1.923   4.962
 5967SOL    HW218801   4.519   1.918   5.105
 5968SOL     OW18802   5.966   2.684   1.954
 5968SOL    HW118803   6.034   2.709   1.885
 5968SOL    HW218804   5.933   2.592   1.935
 5969SOL     OW18805   5.215   0.575   0.581
 5969SOL    HW118806   5.121   0.560   0.550
 5969SOL    HW218807   5.234   0.516   0.660
 5970SOL     OW18808   0.289   3.395   0.799
 5970SOL    HW118809   0.256   3.353   0.714
 5970SOL    HW218810   0.304   3.323   0.867
 5971SOL     OW18811   6.906   6.492   3.902
 5971SOL    HW118812   6.973   6.490   3.828
 5971SOL    HW218813   6.918   6.411   3.960
 5972SOL     OW18814   6.103   5.164   0.454
 5972SOL    HW118815   6.195   5.202   0.455
 5972SOL    HW218816   6.037   5.236   0.433
 5973SOL     OW18817   2.759   1.397   2.387
 5973SOL    HW118818   2.835   1.430   2.442
 5973SOL    HW218819   2.736   1.304   2.414
 5974SOL     OW18820   5.514   1.610   4.858
 5974SOL    HW118821   5.451   1.544   4.817
 5974SOL    HW218822   5.592   1.623   4.797
 5975SOL     OW18823   4.234   5.066   1.531
 5975SOL    HW118824   4.237   4.988   1.593
 5975SOL    HW218825   4.188   5.039   1.446
 5976SOL     OW18826   1.775   3.784   5.382
 5976SOL    HW118827   1.701   3.721   5.358
 5976SOL    HW218828   1.740   3.855   5.443
 5977SOL     OW18829   6.806   4.673   0.595
 5977SOL    HW118830   6.791   4.617   0.676
 5977SOL    HW218831   6.872   4.745   0.616
 5978SOL     OW18832   2.939   3.605   6.223
 5978SOL    HW118833   3.005   3.647   6.161
 5978SOL    HW218834   2.848   3.641   6.204
 5979SOL     OW18835   6.318   0.431   1.393
 5979SOL    HW118836   6.243   0.481   1.437
 5979SOL    HW218837   6.383   0.400   1.463
 5980SOL     OW18838   2.742   2.929   1.107
 5980SOL    HW118839   2.696   2.893   1.026
 5980SOL    HW218840   2.797   2.857   1.149
 5981SOL     OW18841   2.616   1.373   0.752
 5981SOL    HW118842   2.655   1.355   0.842
 5981SOL    HW218843   2.516   1.376   0.759
 5982SOL     OW18844   5.117   2.846   1.075
 5982SOL    HW118845   5.116   2.938   1.037
 5982SOL    HW218846   5.024   2.809   1.078
 5983SOL     OW18847   0.224   0.937   3.535
 5983SOL    HW118848   0.303   0.984   3.496
 5983SOL    HW218849   0.141   0.966   3.486
 5984SOL     OW18850   6.374   6.134   4.347
 5984SOL    HW118851   6.275   6.146   4.354
 5984SOL    HW218852   6.419   6.223   4.351
 5985SOL     OW18853   6.399   3.340   2.303
 5985SOL    HW118854   6.472   3.327   2.370
 5985SOL    HW218855   6.363   3.432   2.310
 5986SOL     OW18856   3.888   3.367   3.947
 5986SOL    HW118857   3.806   3.423   3.960
 5986SOL    HW218858   3.894   3.340   3.851
 5987SOL     OW18859   0.287   5.997   5.580
 5987SOL    HW118860   0.341   5.959   5.504
 5987SOL    HW218861   0.348   6.047   5.642
 5988SOL     OW18862   0.804   2.838   0.107
 5988SOL    HW118863   0.710   2.819   0.079
 5988SOL    HW218864   0.868   2.806   0.037
 5989SOL     OW18865   0.697   6.441   6.030
 5989SOL    HW118866   0.690   6.342   6.029
 5989SOL    HW218867   0.723   6.472   6.121
 5990SOL     OW18868   2.626   4.645   1.858
 5990SOL    HW118869   2.723   4.635   1.880
 5990SOL    HW218870   2.571   4.616   1.936
 5991SOL     OW18871   5.059   0.309   0.470
 5991SOL    HW118872   5.074   0.222   0.516
 5991SOL    HW218873   5.023   0.375   0.536
 5992SOL     OW18874   3.882   6.055   2.663
 5992SOL    HW118875   3.896   5.957   2.680
 5992SOL    HW218876   3.800   6.068   2.608
 5993SOL     OW18877   5.598   1.878   0.217
 5993SOL    HW118878   5.545   1.861   0.134
 5993SOL    HW218879   5.656   1.798   0.237
 5994SOL     OW18880   6.555   3.553   0.007
 5994SOL    HW118881   6.517   3.608   6.957
 5994SOL    HW218882   6.574   3.613   0.086
 5995SOL     OW18883   5.061   3.628   1.341
 5995SOL    HW118884   5.023   3.661   1.428
 5995SOL    HW218885   5.062   3.528   1.341
 5996SOL     OW18886   2.571   6.409   1.657
 5996SOL    HW118887   2.557   6.507   1.648
 5996SOL    HW218888   2.668   6.390   1.675
 5997SOL     OW18889   6.534   0.318   3.882
 5997SOL    HW118890   6.555   0.411   3.851
 5997SOL    HW218891   6.589   0.253   3.830
 5998SOL     OW18892   6.257   5.879   6.852
 5998SOL    HW118893   6.345   5.830   6.848
 5998SOL    HW218894   6.225   5.880   6.947
 5999SOL     OW18895   5.433   3.185   1.405
 5999SOL    HW118896   5.431   3.268   1.350
 5999SOL    HW218897   5.428   3.105   1.345
 6000SOL     OW18898   0.687   3.823   1.214
 6000SOL    HW118899   0.647   3.875   1.289
 6000SOL    HW218900   0.672   3.725   1.230
 6001SOL     OW18901   5.588   5.347   5.900
 6001SOL    HW118902   5.590   5.302   5.990
 6001SOL    HW218903   5.521   5.301   5.842
 6002SOL     OW18904   5.652   4.638   5.379
 6002SOL    HW118905   5.736   4.689   5.361
 6002SOL    HW218906   5.612   4.606   5.293
 6003SOL     OW18907   2.475   2.469   4.659
 6003SOL    HW118908   2.556   2.423   4.695
 6003SOL    HW218909   2.393   2.429   4.701
 6004SOL     OW18910   5.517   2.724   4.782
 6004SOL    HW118911   5.525   2.708   4.880
 6004SOL    HW218912   5.470   2.647   4.739
 6005SOL     OW18913   4.056   4.206   6.450
 6005SOL    HW118914   4.125   4.208   6.522
 6005SOL    HW218915   4.080   4.272   6.378
 6006SOL     OW18916   3.303   5.932   0.003
 6006SOL    HW118917   3.253   6.013   0.032
 6006SOL    HW218918   3.378   5.958   6.967
 6007SOL     OW18919   2.152   5.951   4.668
 6007SOL    HW118920   2.139   5.988   4.760
 6007SOL    HW218921   2.070   5.967   4.614
 6008SOL     OW18922   2.519   3.881   6.553
 6008SOL    HW118923   2.478   3.790   6.557
 6008SOL    HW218924   2.451   3.949   6.583
 6009SOL     OW18925   4.218   5.156   2.788
 6009SOL    HW118926   4.157   5.177   2.712
 6009SOL    HW218927   4.175   5.185   2.874
 6010SOL     OW18928   0.413   4.552   4.350
 6010SOL    HW118929   0.359   4.556   4.434
 6010SOL    HW218930   0.384   4.475   4.294
 6011SOL     OW18931   5.859   1.974   2.664
 6011SOL    HW118932   5.924   1.902   2.636
 6011SOL    HW218933   5.836   2.031   2.585
 6012SOL     OW18934   6.735   0.280   5.752
 6012SOL    HW118935   6.644   0.248   5.724
 6012SOL    HW218936   6.804   0.234   5.696
 6013SOL     OW18937   6.147   1.434   1.824
 6013SOL    HW118938   6.070   1.498   1.827
 6013SOL    HW218939   6.217   1.469   1.762
 6014SOL     OW18940   2.870   3.366   3.667
 6014SOL    HW118941   2.897   3.413   3.752
 6014SOL    HW218942   2.771   3.365   3.660
 6015SOL     OW18943   5.889   0.499   3.460
 6015SOL    HW118944   5.958   0.569   3.442
 6015SOL    HW218945   5.894   0.428   3.390
 6016SOL     OW18946   4.444   2.007   4.293
 6016SOL    HW118947   4.406   1.995   4.384
 6016SOL    HW218948   4.522   1.946   4.281
 6017SOL     OW18949   1.162   1.128   5.686
 6017SOL    HW118950   1.214   1.047   5.710
 6017SOL    HW218951   1.199   1.169   5.603
 6018SOL     OW18952   2.796   1.070   4.148
 6018SOL    HW118953   2.834   1.152   4.106
 6018SOL    HW218954   2.781   1.086   4.246
 6019SOL     OW18955   6.527   4.478   6.372
 6019SOL    HW118956   6.602   4.531   6.412
 6019SOL    HW218957   6.448   4.479   6.433
 6020SOL     OW18958   0.772   5.023   6.106
 6020SOL    HW118959   0.833   4.977   6.042
 6020SOL    HW218960   0.738   4.958   6.173
 6021SOL     OW18961   6.026   6.771   3.547
 6021SOL    HW118962   6.100   6.757   3.612
 6021SOL    HW218963   6.000   6.867   3.546
 6022SOL     OW18964   6.326   2.568   1.852
 6022SOL    HW118965   6.419   2.577   1.815
 6022SOL    HW218966   6.324   2.603   1.946
 6023SOL     OW18967   4.287   6.771   1.932
 6023SOL    HW118968   4.196   6.802   1.908
 6023SOL    HW218969   4.339   6.751   1.849
 6024SOL     OW18970   1.258   6.002   6.820
 6024SOL    HW118971   1.282   5.906   6.806
 6024SOL    HW218972   1.336   6.050   6.861
 6025SOL     OW18973   2.677   0.641   5.082
 6025SOL    HW118974   2.734   0.680   5.010
 6025SOL    HW218975   2.659   0.544   5.062
 6026SOL     OW18976   5.427   6.390   4.478
 6026SOL    HW118977   5.457   6.334   4.401
 6026SOL    HW218978   5.414   6.331   4.558
 6027SOL     OW18979   5.184   4.963   6.107
 6027SOL    HW118980   5.185   5.015   6.021
 6027SOL    HW218981   5.268   4.909   6.114
 6028SOL     OW18982   5.812   4.950   6.116
 6028SOL    HW118983   5.831   4.859   6.152
 6028SOL    HW218984   5.835   5.019   6.185
 6029SOL     OW18985   3.030   1.158   2.822
 6029SOL    HW118986   3.007   1.084   2.885
 6029SOL    HW218987   3.002   1.134   2.729
 6030SOL     OW18988   5.955   3.177   4.230
 6030SOL    HW118989   6.014   3.106   4.269
 6030SOL    HW218990   5.862   3.166   4.264
 6031SOL     OW18991   0.219   6.296   5.317
 6031SOL    HW118992   0.150   6.285   5.389
 6031SOL    HW218993   0.205   6.384   5.271
 6032SOL     OW18994   3.596   6.765   3.693
 6032SOL    HW118995   3.596   6.809   3.603
 6032SOL    HW218996   3.595   6.835   3.765
 6033SOL     OW18997   1.417   1.360   2.371
 6033SOL    HW118998   1.357   1.350   2.291
 6033SOL    HW218999   1.424   1.457   2.395
 6034SOL     OW19000   0.641   6.577   1.151
 6034SOL    HW119001   0.594   6.496   1.187
 6034SOL    HW219002   0.591   6.659   1.177
 6035SOL     OW19003   2.728   0.346   2.526
 6035SOL    HW119004   2.701   0.263   2.575
 6035SOL    HW219005   2.785   0.321   2.448
 6036SOL     OW19006   6.369   3.474   1.257
 6036SOL    HW119007   6.356   3.379   1.286
 6036SOL    HW219008   6.286   3.508   1.214
 6037SOL     OW19009   4.627   1.188   5.982
 6037SOL    HW119010   4.588   1.206   6.072
 6037SOL    HW219011   4.653   1.091   5.975
 6038SOL     OW19012   1.404   1.347   6.181
 6038SOL    HW119013   1.341   1.321   6.108
 6038SOL    HW219014   1.497   1.325   6.154
 6039SOL     OW19015   3.599   3.596   3.693
 6039SOL    HW119016   3.687   3.644   3.689
 6039SOL    HW219017   3.528   3.652   3.650
 6040SOL     OW19018   0.228   1.740   0.515
 6040SOL    HW119019   0.224   1.839   0.528
 6040SOL    HW219020   0.171   1.695   0.583
 6041SOL     OW19021   2.002   3.734   5.930
 6041SOL    HW119022   2.078   3.725   5.994
 6041SOL    HW219023   1.977   3.643   5.895
 6042SOL     OW19024   3.203   5.772   4.220
 6042SOL    HW119025   3.129   5.721   4.176
 6042SOL    HW219026   3.214   5.741   4.314
 6043SOL     OW19027   2.526   0.227   2.954
 6043SOL    HW119028   2.551   0.146   3.007
 6043SOL    HW219029   2.549   0.213   2.858
 6044SOL     OW19030   0.325   3.331   1.074
 6044SOL    HW119031   0.328   3.268   1.152
 6044SOL    HW219032   0.355   3.421   1.104
 6045SOL     OW19033   5.658   1.670   3.358
 6045SOL    HW119034   5.731   1.734   3.380
 6045SOL    HW219035   5.635   1.679   3.261
 6046SOL     OW19036   3.301   2.898   2.826
 6046SOL    HW119037   3.368   2.838   2.870
 6046SOL    HW219038   3.262   2.960   2.894
 6047SOL     OW19039   0.060   1.617   0.722
 6047SOL    HW119040   0.000   1.663   0.787
 6047SOL    HW219041   0.022   1.528   0.698
 6048SOL     OW19042   5.786   5.774   3.152
 6048SOL    HW119043   5.833   5.840   3.210
 6048SOL    HW219044   5.712   5.821   3.102
 6049SOL     OW19045   4.484   4.628   6.286
 6049SOL    HW119046   4.434   4.556   6.238
 6049SOL    HW219047   4.560   4.659   6.228
 6050SOL     OW19048   2.771   6.050   2.492
 6050SOL    HW119049   2.831   6.038   2.571
 6050SOL    HW219050   2.820   6.022   2.409
 6051SOL     OW19051   0.442   1.657   2.931
 6051SOL    HW119052   0.511   1.585   2.925
 6051SOL    HW219053   0.357   1.625   2.889
 6052SOL     OW19054   5.402   5.486   0.973
 6052SOL    HW119055   5.477   5.497   0.908
 6052SOL    HW219056   5.435   5.440   1.055
 6053SOL     OW19057   4.562   2.704   6.075
 6053SOL    HW119058   4.612   2.622   6.048
 6053SOL    HW219059   4.465   2.682   6.083
 6054SOL     OW19060   4.084   4.264   0.710
 6054SOL    HW119061   4.170   4.302   0.742
 6054SOL    HW219062   4.008   4.317   0.748
 6055SOL     OW19063   2.780   3.898   0.936
 6055SOL    HW119064   2.686   3.905   0.903
 6055SOL    HW219065   2.781   3.904   1.036
 6056SOL     OW19066   5.377   5.910   3.125
 6056SOL    HW119067   5.413   5.944   3.212
 6056SOL    HW219068   5.296   5.854   3.142
 6057SOL     OW19069   5.193   0.736   4.472
 6057SOL    HW119070   5.143   0.651   4.458
 6057SOL    HW219071   5.273   0.737   4.412
 6058SOL     OW19072   6.701   2.835   6.069
 6058SOL    HW119073   6.774   2.902   6.056
 6058SOL    HW219074   6.740   2.748   6.099
 6059SOL     OW19075   4.183   2.532   0.247
 6059SOL    HW119076   4.241   2.494   0.319
 6059SOL    HW219077   4.198   2.631   0.241
 6060SOL     OW19078   2.331   3.250   0.025
 6060SOL    HW119079   2.288   3.276   0.111
 6060SOL    HW219080   2.406   3.186   0.043
 6061SOL     OW19081   3.455   4.365   6.711
 6061SOL    HW119082   3.390   4.354   6.786
 6061SOL    HW219083   3.481   4.275   6.676
 6062SOL     OW19084   2.220   2.109   6.437
 6062SOL    HW119085   2.184   2.026   6.394
 6062SOL    HW219086   2.185   2.189   6.388
 6063SOL     OW19087   4.130   3.714   6.219
 6063SOL    HW119088   4.197   3.660   6.167
 6063SOL    HW219089   4.140   3.693   6.317
 6064SOL     OW19090   6.126   5.343   0.922
 6064SOL    HW119091   6.163   5.367   0.832
 6064SOL    HW219092   6.201   5.319   0.984
 6065SOL     OW19093   1.721   6.869   1.868
 6065SOL    HW119094   1.753   6.934   1.799
 6065SOL    HW219095   1.788   6.865   1.943
 6066SOL     OW19096   5.229   5.728   3.268
 6066SOL    HW119097   5.150   5.673   3.294
 6066SOL    HW219098   5.299   5.721   3.338
 6067SOL     OW19099   6.643   6.165   5.826
 6067SOL    HW119100   6.598   6.161   5.737
 6067SOL    HW219101   6.688   6.254   5.837
 6068SOL     OW19102   4.498   2.500   4.238
 6068SOL    HW119103   4.532   2.558   4.164
 6068SOL    HW219104   4.479   2.409   4.203
 6069SOL     OW19105   6.974   4.130   5.943
 6069SOL    HW119106   6.953   4.042   5.986
 6069SOL    HW219107   0.044   4.130   5.912
 6070SOL     OW19108   2.053   1.715   1.035
 6070SOL    HW119109   2.063   1.813   1.047
 6070SOL    HW219110   1.961   1.686   1.062
 6071SOL     OW19111   6.448   1.059   5.710
 6071SOL    HW119112   6.377   1.065   5.639
 6071SOL    HW219113   6.437   1.135   5.774
 6072SOL     OW19114   0.042   3.289   6.894
 6072SOL    HW119115   7.025   3.313   6.807
 6072SOL    HW219116   0.088   3.369   6.932
 6073SOL     OW19117   5.071   3.794   0.137
 6073SOL    HW119118   5.080   3.707   0.089
 6073SOL    HW219119   5.056   3.777   0.234
 6074SOL     OW19120   1.467   6.463   2.637
 6074SOL    HW119121   1.505   6.371   2.641
 6074SOL    HW219122   1.537   6.527   2.606
 6075SOL     OW19123   5.824   0.336   6.727
 6075SOL    HW119124   5.853   0.295   6.640
 6075SOL    HW219125   5.901   0.335   6.792
 6076SOL     OW19126   0.987   5.871   2.550
 6076SOL    HW119127   0.957   5.807   2.621
 6076SOL    HW219128   0.908   5.900   2.496
 6077SOL     OW19129   5.517   6.437   2.728
 6077SOL    HW119130   5.461   6.484   2.796
 6077SOL    HW219131   5.467   6.431   2.642
 6078SOL     OW19132   4.487   4.131   0.329
 6078SOL    HW119133   4.529   4.214   0.366
 6078SOL    HW219134   4.544   4.052   0.352
 6079SOL     OW19135   2.580   2.655   0.641
 6079SOL    HW119136   2.669   2.690   0.612
 6079SOL    HW219137   2.550   2.584   0.577
 6080SOL     OW19138   6.822   4.018   6.386
 6080SOL    HW119139   6.727   4.000   6.408
 6080SOL    HW219140   6.829   4.105   6.336
 6081SOL     OW19141   1.566   3.915   3.462
 6081SOL    HW119142   1.545   3.827   3.503
 6081SOL    HW219143   1.495   3.981   3.486
 6082SOL     OW19144   5.051   1.524   1.559
 6082SOL    HW119145   5.004   1.479   1.636
 6082SOL    HW219146   5.012   1.615   1.545
 6083SOL     OW19147   4.538   0.579   6.509
 6083SOL    HW119148   4.625   0.551   6.550
 6083SOL    HW219149   4.528   0.678   6.516
 6084SOL     OW19150   0.125   5.650   2.414
 6084SOL    HW119151   0.095   5.572   2.468
 6084SOL    HW219152   0.116   5.734   2.468
 6085SOL     OW19153   0.554   6.670   0.175
 6085SOL    HW119154   0.509   6.583   0.153
 6085SOL    HW219155   0.620   6.655   0.249
 6086SOL     OW19156   3.501   3.954   7.006
 6086SOL    HW119157   3.536   3.960   6.913
 6086SOL    HW219158   3.553   4.015   0.040
 6087SOL     OW19159   4.794   0.187   0.651
 6087SOL    HW119160   4.866   0.206   0.717
 6087SOL    HW219161   4.831   0.193   0.558
 6088SOL     OW19162   5.093   5.699   2.881
 6088SOL    HW119163   5.040   5.775   2.842
 6088SOL    HW219164   5.166   5.675   2.817
 6089SOL     OW19165   5.818   3.828   3.986
 6089SOL    HW119166   5.886   3.793   3.921
 6089SOL    HW219167   5.737   3.858   3.936
 6090SOL     OW19168   3.924   5.736   4.331
 6090SOL    HW119169   3.853   5.795   4.291
 6090SOL    HW219170   3.885   5.646   4.350
 6091SOL     OW19171   1.500   1.498   1.481
 6091SOL    HW119172   1.504   1.582   1.535
 6091SOL    HW219173   1.437   1.433   1.523
 6092SOL     OW19174   2.570   6.530   1.231
 6092SOL    HW119175   2.557   6.603   1.298
 6092SOL    HW219176   2.664   6.533   1.196
 6093SOL     OW19177   2.495   2.449   2.788
 6093SOL    HW119178   2.458   2.430   2.697
 6093SOL    HW219179   2.593   2.466   2.781
 6094SOL     OW19180   0.358   6.154   4.947
 6094SOL    HW119181   0.449   6.123   4.918
 6094SOL    HW219182   0.333   6.106   5.031
 6095SOL     OW19183   4.777   4.810   1.762
 6095SOL    HW119184   4.753   4.907   1.775
 6095SOL    HW219185   4.869   4.794   1.797
 6096SOL     OW19186   5.542   5.746   2.952
 6096SOL    HW119187   5.471   5.678   2.970
 6096SOL    HW219188   5.529   5.823   3.015
 6097SOL     OW19189   2.286   4.722   2.608
 6097SOL    HW119190   2.191   4.718   2.576
 6097SOL    HW219191   2.314   4.817   2.615
 6098SOL     OW19192   6.941   0.621   4.799
 6098SOL    HW119193   6.938   0.719   4.819
 6098SOL    HW219194   6.926   0.606   4.701
 6099SOL     OW19195   3.135   0.489   6.162
 6099SOL    HW119196   3.147   0.423   6.237
 6099SOL    HW219197   3.042   0.482   6.127
 6100SOL     OW19198   0.452   5.820   4.963
 6100SOL    HW119199   0.519   5.892   4.981
 6100SOL    HW219200   0.480   5.736   5.010
 6101SOL     OW19201   6.870   3.749   2.099
 6101SOL    HW119202   6.913   3.808   2.031
 6101SOL    HW219203   6.790   3.795   2.137
 6102SOL     OW19204   3.783   0.192   2.523
 6102SOL    HW119205   3.738   0.260   2.580
 6102SOL    HW219206   3.765   0.101   2.559
 6103SOL     OW19207   6.628   1.449   1.977
 6103SOL    HW119208   6.631   1.384   1.901
 6103SOL    HW219209   6.573   1.528   1.952
 6104SOL     OW19210   6.960   0.552   4.476
 6104SOL    HW119211   7.011   0.600   4.406
 6104SOL    HW219212   7.011   0.471   4.505
 6105SOL     OW19213   3.001   4.400   5.800
 6105SOL    HW119214   2.991   4.496   5.771
 6105SOL    HW219215   3.003   4.342   5.719
 6106SOL     OW19216   5.880   4.792   5.268
 6106SOL    HW119217   5.859   4.730   5.192
 6106SOL    HW219218   5.916   4.878   5.232
 6107SOL     OW19219   5.748   5.540   5.085
 6107SOL    HW119220   5.780   5.627   5.124
 6107SOL    HW219221   5.774   5.465   5.146
 6108SOL     OW19222   1.839   1.447   7.009
 6108SOL    HW119223   1.939   1.436   7.007
 6108SOL    HW219224   1.810   1.501   6.930
 6109SOL     OW19225   0.044   0.004   3.671
 6109SOL    HW119226   0.037   6.974   3.587
 6109SOL    HW219227   0.035   6.969   3.750
 6110SOL     OW19228   2.031   1.503   3.997
 6110SOL    HW119229   2.088   1.535   3.921
 6110SOL    HW219230   2.087   1.493   4.079
 6111SOL     OW19231   1.979   4.129   1.292
 6111SOL    HW119232   1.930   4.113   1.378
 6111SOL    HW219233   2.070   4.086   1.297
 6112SOL     OW19234   5.165   6.225   3.460
 6112SOL    HW119235   5.076   6.214   3.503
 6112SOL    HW219236   5.197   6.319   3.472
 6113SOL     OW19237   2.672   5.426   1.092
 6113SOL    HW119238   2.664   5.330   1.117
 6113SOL    HW219239   2.602   5.448   1.024
 6114SOL     OW19240   5.399   2.147   0.201
 6114SOL    HW119241   5.452   2.120   0.121
 6114SOL    HW219242   5.326   2.082   0.217
 6115SOL     OW19243   0.838   0.671   6.074
 6115SOL    HW119244   0.794   0.730   6.141
 6115SOL    HW219245   0.793   0.682   5.985
 6116SOL     OW19246   5.518   2.957   6.408
 6116SOL    HW119247   5.491   2.880   6.466
 6116SOL    HW219248   5.575   3.019   6.461
 6117SOL     OW19249   2.168   2.107   1.203
 6117SOL    HW119250   2.207   2.057   1.126
 6117SOL    HW219251   2.085   2.060   1.235
 6118SOL     OW19252   5.775   0.730   1.483
 6118SOL    HW119253   5.867   0.768   1.495
 6118SOL    HW219254   5.770   0.641   1.528
 6119SOL     OW19255   6.952   1.745   0.110
 6119SOL    HW119256   7.020   1.672   0.102
 6119SOL    HW219257   6.999   1.831   0.130
 6120SOL     OW19258   2.965   0.620   4.326
 6120SOL    HW119259   3.057   0.619   4.364
 6120SOL    HW219260   2.955   0.699   4.265
 6121SOL     OW19261   1.477   2.232   5.249
 6121SOL    HW119262   1.533   2.168   5.195
 6121SOL    HW219263   1.510   2.325   5.235
 6122SOL     OW19264   5.047   4.498   5.198
 6122SOL    HW119265   5.051   4.595   5.173
 6122SOL    HW219266   5.096   4.484   5.284
 6123SOL     OW19267   5.617   1.369   5.432
 6123SOL    HW119268   5.579   1.301   5.370
 6123SOL    HW219269   5.681   1.427   5.382
 6124SOL     OW19270   2.567   6.311   4.173
 6124SOL    HW119271   2.665   6.293   4.167
 6124SOL    HW219272   2.548   6.364   4.256
 6125SOL     OW19273   3.005   2.171   6.284
 6125SOL    HW119274   2.913   2.138   6.304
 6125SOL    HW219275   3.027   2.153   6.188
 6126SOL     OW19276   5.819   2.822   5.573
 6126SOL    HW119277   5.821   2.723   5.588
 6126SOL    HW219278   5.879   2.867   5.640
 6127SOL     OW19279   4.552   2.245   2.188
 6127SOL    HW119280   4.635   2.234   2.133
 6127SOL    HW219281   4.472   2.246   2.128
 6128SOL     OW19282   5.598   5.649   6.989
 6128SOL    HW119283   5.620   5.680   0.056
 6128SOL    HW219284   5.682   5.629   6.940
 6129SOL     OW19285   1.619   5.728   2.286
 6129SOL    HW119286   1.707   5.733   2.333
 6129SOL    HW219287   1.631   5.684   2.196
 6130SOL     OW19288   5.799   2.537   0.150
 6130SOL    HW119289   5.810   2.538   0.050
 6130SOL    HW219290   5.702   2.541   0.173
 6131SOL     OW19291   6.595   1.936   2.800
 6131SOL    HW119292   6.547   1.977   2.878
 6131SOL    HW219293   6.568   1.840   2.792
 6132SOL     OW19294   3.670   1.230   6.101
 6132SOL    HW119295   3.633   1.322   6.087
 6132SOL    HW219296   3.762   1.224   6.062
 6133SOL     OW19297   0.984   2.248   2.991
 6133SOL    HW119298   0.923   2.212   2.920
 6133SOL    HW219299   0.979   2.190   3.071
 6134SOL     OW19300   0.010   6.900   5.760
 6134SOL    HW119301   0.083   6.921   5.825
 6134SOL    HW219302   0.031   6.814   5.713
 6135SOL     OW19303   0.209   6.807   6.999
 6135SOL    HW119304   0.283   6.807   6.931
 6135SOL    HW219305   0.149   6.885   6.982
 6136SOL     OW19306   0.762   2.852   2.364
 6136SOL    HW119307   0.847   2.902   2.377
 6136SOL    HW219308   0.767   2.765   2.413
 6137SOL     OW19309   6.694   4.269   2.253
 6137SOL    HW119310   6.624   4.291   2.186
 6137SOL    HW219311   6.784   4.271   2.210
 6138SOL     OW19312   4.561   0.405   1.873
 6138SOL    HW119313   4.511   0.357   1.945
 6138SOL    HW219314   4.599   0.339   1.808
 6139SOL     OW19315   1.431   0.780   5.075
 6139SOL    HW119316   1.482   0.718   5.015
 6139SOL    HW219317   1.337   0.749   5.082
 6140SOL     OW19318   2.012   0.397   2.930
 6140SOL    HW119319   2.023   0.453   3.013
 6140SOL    HW219320   2.098   0.351   2.910
 6141SOL     OW19321   0.505   0.967   6.302
 6141SOL    HW119322   0.438   0.928   6.238
 6141SOL    HW219323   0.462   0.979   6.392
 6142SOL     OW19324   6.903   0.124   1.422
 6142SOL    HW119325   6.952   0.178   1.491
 6142SOL    HW219326   6.939   0.145   1.332
 6143SOL     OW19327   6.997   3.726   5.416
 6143SOL    HW119328   6.938   3.780   5.475
 6143SOL    HW219329   7.013   3.775   5.330
 6144SOL     OW19330   4.467   5.273   2.812
 6144SOL    HW119331   4.377   5.234   2.794
 6144SOL    HW219332   4.515   5.216   2.879
 6145SOL     OW19333   4.880   3.532   3.997
 6145SOL    HW119334   4.840   3.618   3.968
 6145SOL    HW219335   4.980   3.537   3.989
 6146SOL     OW19336   5.851   0.461   5.158
 6146SOL    HW119337   5.838   0.489   5.253
 6146SOL    HW219338   5.864   0.361   5.155
 6147SOL     OW19339   1.576   2.599   4.977
 6147SOL    HW119340   1.503   2.535   5.000
 6147SOL    HW219341   1.546   2.693   4.996
 6148SOL     OW19342   3.491   5.364   7.003
 6148SOL    HW119343   3.415   5.333   0.035
 6148SOL    HW219344   3.552   5.422   0.031
 6149SOL     OW19345   3.022   1.079   1.373
 6149SOL    HW119346   2.943   1.139   1.386
 6149SOL    HW219347   3.006   0.992   1.420
 6150SOL     OW19348   0.944   4.114   5.844
 6150SOL    HW119349   0.876   4.178   5.808
 6150SOL    HW219350   1.031   4.129   5.798
 6151SOL     OW19351   4.640   5.352   3.614
 6151SOL    HW119352   4.684   5.297   3.543
 6151SOL    HW219353   4.685   5.442   3.620
 6152SOL     OW19354   1.713   4.038   4.424
 6152SOL    HW119355   1.657   3.975   4.371
 6152SOL    HW219356   1.752   3.991   4.503
 6153SOL     OW19357   5.164   5.318   1.168
 6153SOL    HW119358   5.115   5.384   1.112
 6153SOL    HW219359   5.118   5.307   1.256
 6154SOL     OW19360   4.928   3.470   2.262
 6154SOL    HW119361   4.901   3.415   2.183
 6154SOL    HW219362   4.863   3.546   2.273
 6155SOL     OW19363   1.569   1.510   3.080
 6155SOL    HW119364   1.567   1.607   3.103
 6155SOL    HW219365   1.642   1.464   3.132
 6156SOL     OW19366   5.243   4.638   1.505
 6156SOL    HW119367   5.282   4.624   1.414
 6156SOL    HW219368   5.307   4.692   1.561
 6157SOL     OW19369   0.937   2.434   1.967
 6157SOL    HW119370   0.877   2.418   2.046
 6157SOL    HW219371   0.881   2.454   1.886
 6158SOL     OW19372   3.085   2.041   4.887
 6158SOL    HW119373   3.066   2.127   4.934
 6158SOL    HW219374   3.172   2.047   4.840
 6159SOL     OW19375   6.562   3.147   1.020
 6159SOL    HW119376   6.492   3.219   1.027
 6159SOL    HW219377   6.611   3.139   1.106
 6160SOL     OW19378   1.676   0.751   0.899
 6160SOL    HW119379   1.601   0.685   0.886
 6160SOL    HW219380   1.746   0.736   0.829
 6161SOL     OW19381   4.237   3.193   6.508
 6161SOL    HW119382   4.193   3.127   6.448
 6161SOL    HW219383   4.312   3.237   6.459
 6162SOL     OW19384   6.145   5.237   2.699
 6162SOL    HW119385   6.205   5.267   2.773
 6162SOL    HW219386   6.192   5.168   2.644
 6163SOL     OW19387   5.770   6.192   3.659
 6163SOL    HW119388   5.721   6.191   3.746
 6163SOL    HW219389   5.855   6.244   3.668
 6164SOL     OW19390   2.926   3.535   4.535
 6164SOL    HW119391   2.958   3.597   4.607
 6164SOL    HW219392   2.893   3.450   4.576
 6165SOL     OW19393   3.696   1.731   6.806
 6165SOL    HW119394   3.775   1.746   6.865
 6165SOL    HW219395   3.692   1.803   6.737
 6166SOL     OW19396   2.069   3.271   6.527
 6166SOL    HW119397   2.094   3.244   6.620
 6166SOL    HW219398   2.083   3.369   6.515
 6167SOL     OW19399   1.756   3.468   3.273
 6167SOL    HW119400   1.791   3.375   3.267
 6167SOL    HW219401   1.762   3.500   3.367
 6168SOL     OW19402   0.665   3.882   3.989
 6168SOL    HW119403   0.671   3.981   3.971
 6168SOL    HW219404   0.572   3.850   3.968
 6169SOL     OW19405   2.003   0.828   6.983
 6169SOL    HW119406   2.102   0.817   6.998
 6169SOL    HW219407   1.981   0.925   6.972
 6170SOL     OW19408   3.007   4.023   0.278
 6170SOL    HW119409   2.916   4.014   0.238
 6170SOL    HW219410   3.076   4.014   0.207
 6171SOL     OW19411   1.945   3.916   2.085
 6171SOL    HW119412   1.879   3.874   2.147
 6171SOL    HW219413   1.995   3.844   2.036
 6172SOL     OW19414   2.112   5.553   2.626
 6172SOL    HW119415   2.051   5.507   2.690
 6172SOL    HW219416   2.107   5.507   2.537
 6173SOL     OW19417   1.351   5.718   2.117
 6173SOL    HW119418   1.351   5.654   2.041
 6173SOL    HW219419   1.427   5.698   2.179
 6174SOL     OW19420   5.485   4.984   2.459
 6174SOL    HW119421   5.413   4.939   2.512
 6174SOL    HW219422   5.548   4.915   2.423
 6175SOL     OW19423   5.204   0.325   2.973
 6175SOL    HW119424   5.288   0.333   3.027
 6175SOL    HW219425   5.178   0.415   2.938
 6176SOL     OW19426   6.513   3.010   5.852
 6176SOL    HW119427   6.511   3.107   5.877
 6176SOL    HW219428   6.491   2.955   5.933
 6177SOL     OW19429   6.879   2.850   0.945
 6177SOL    HW119430   6.780   2.840   0.951
 6177SOL    HW219431   6.913   2.896   1.028
 6178SOL     OW19432   6.027   3.025   1.284
 6178SOL    HW119433   6.110   3.013   1.338
 6178SOL    HW219434   5.989   3.116   1.302
 6179SOL     OW19435   0.640   2.009   5.758
 6179SOL    HW119436   0.690   2.047   5.681
 6179SOL    HW219437   0.575   2.078   5.793
 6180SOL     OW19438   3.604   6.774   6.898
 6180SOL    HW119439   3.576   6.736   6.809
 6180SOL    HW219440   3.584   6.872   6.900
 6181SOL     OW19441   5.173   5.743   6.870
 6181SOL    HW119442   5.194   5.793   6.954
 6181SOL    HW219443   5.094   5.787   6.825
 6182SOL     OW19444   4.264   6.522   6.690
 6182SOL    HW119445   4.232   6.511   6.596
 6182SOL    HW219446   4.191   6.560   6.746
 6183SOL     OW19447   3.067   0.383   3.234
 6183SOL    HW119448   3.063   0.319   3.311
 6183SOL    HW219449   3.157   0.377   3.191
 6184SOL     OW19450   0.153   0.511   6.948
 6184SOL    HW119451   0.155   0.476   6.854
 6184SOL    HW219452   0.136   0.434   7.011
 6185SOL     OW19453   1.005   3.722   6.027
 6185SOL    HW119454   0.937   3.735   5.955
 6185SOL    HW219455   1.093   3.700   5.985
 6186SOL     OW19456   6.175   6.982   4.588
 6186SOL    HW119457   6.100   0.023   4.589
 6186SOL    HW219458   6.227   6.992   4.503
 6187SOL     OW19459   4.145   4.920   4.359
 6187SOL    HW119460   4.220   4.934   4.296
 6187SOL    HW219461   4.123   5.007   4.404
 6188SOL     OW19462   2.976   6.619   1.274
 6188SOL    HW119463   3.029   6.534   1.280
 6188SOL    HW219464   3.039   6.697   1.278
 6189SOL     OW19465   5.875   4.826   3.260
 6189SOL    HW119466   5.840   4.920   3.268
 6189SOL    HW219467   5.841   4.785   3.176
 6190SOL     OW19468   5.403   2.752   0.083
 6190SOL    HW119469   5.469   2.765   0.157
 6190SOL    HW219470   5.452   2.727   7.025
 6191SOL     OW19471   6.514   2.438   6.886
 6191SOL    HW119472   6.449   2.381   6.937
 6191SOL    HW219473   6.579   2.379   6.838
 6192SOL     OW19474   3.234   2.914   0.137
 6192SOL    HW119475   3.260   2.865   0.054
 6192SOL    HW219476   3.310   2.910   0.203
 6193SOL     OW19477   6.266   0.108   0.967
 6193SOL    HW119478   6.264   0.172   1.044
 6193SOL    HW219479   6.185   0.120   0.911
 6194SOL     OW19480   2.556   0.438   0.388
 6194SOL    HW119481   2.470   0.392   0.364
 6194SOL    HW219482   2.617   0.437   0.309
 6195SOL     OW19483   3.240   6.869   6.226
 6195SOL    HW119484   3.281   6.811   6.296
 6195SOL    HW219485   3.145   6.887   6.249
 6196SOL     OW19486   0.077   1.328   6.973
 6196SOL    HW119487   0.074   1.238   6.929
 6196SOL    HW219488   0.040   1.320   0.041
 6197SOL     OW19489   2.086   3.357   0.531
 6197SOL    HW119490   2.171   3.406   0.553
 6197SOL    HW219491   2.009   3.421   0.535
 6198SOL     OW19492   4.441   4.973   2.450
 6198SOL    HW119493   4.361   4.967   2.390
 6198SOL    HW219494   4.456   5.068   2.476
 6199SOL     OW19495   1.592   0.287   6.501
 6199SOL    HW119496   1.644   0.340   6.568
 6199SOL    HW219497   1.495   0.288   6.525
 6200SOL     OW19498   3.939   0.043   5.863
 6200SOL    HW119499   3.871   0.067   5.794
 6200SOL    HW219500   3.972   0.126   5.907
 6201SOL     OW19501   2.104   4.597   4.589
 6201SOL    HW119502   2.023   4.569   4.537
 6201SOL    HW219503   2.186   4.570   4.538
 6202SOL     OW19504   3.353   2.161   1.270
 6202SOL    HW119505   3.332   2.220   1.348
 6202SOL    HW219506   3.370   2.068   1.302
 6203SOL     OW19507   4.458   1.683   5.461
 6203SOL    HW119508   4.493   1.591   5.446
 6203SOL    HW219509   4.508   1.726   5.536
 6204SOL     OW19510   1.522   6.486   5.723
 6204SOL    HW119511   1.485   6.526   5.807
 6204SOL    HW219512   1.532   6.557   5.654
 6205SOL     OW19513   5.340   5.778   0.135
 6205SOL    HW119514   5.426   5.818   0.103
 6205SOL    HW219515   5.360   5.698   0.192
 6206SOL     OW19516   5.334   0.448   3.250
 6206SOL    HW119517   5.288   0.491   3.327
 6206SOL    HW219518   5.372   0.518   3.190
 6207SOL     OW19519   1.914   3.935   4.791
 6207SOL    HW119520   1.999   3.973   4.829
 6207SOL    HW219521   1.849   4.009   4.776
 6208SOL     OW19522   5.560   6.806   5.792
 6208SOL    HW119523   5.522   6.891   5.755
 6208SOL    HW219524   5.634   6.827   5.855
 6209SOL     OW19525   3.288   5.519   1.101
 6209SOL    HW119526   3.257   5.609   1.134
 6209SOL    HW219527   3.329   5.469   1.177
 6210SOL     OW19528   6.033   4.265   3.841
 6210SOL    HW119529   6.059   4.322   3.919
 6210SOL    HW219530   5.935   4.247   3.844
 6211SOL     OW19531   2.628   0.379   5.023
 6211SOL    HW119532   2.646   0.334   4.936
 6211SOL    HW219533   2.530   0.395   5.032
 6212SOL     OW19534   0.075   6.462   3.269
 6212SOL    HW119535   0.042   6.540   3.215
 6212SOL    HW219536   0.154   6.422   3.224
 6213SOL     OW19537   0.222   6.296   6.274
 6213SOL    HW119538   0.237   6.371   6.339
 6213SOL    HW219539   0.298   6.291   6.210
 6214SOL     OW19540   6.547   5.013   2.988
 6214SOL    HW119541   6.575   5.026   3.084
 6214SOL    HW219542   6.491   4.931   2.981
 6215SOL     OW19543   2.911   4.060   0.749
 6215SOL    HW119544   2.875   3.977   0.792
 6215SOL    HW219545   2.836   4.122   0.729
 6216SOL     OW19546   6.079   1.804   2.612
 6216SOL    HW119547   6.125   1.761   2.690
 6216SOL    HW219548   6.060   1.735   2.542
 6217SOL     OW19549   5.341   3.251   1.670
 6217SOL    HW119550   5.368   3.223   1.578
 6217SOL    HW219551   5.241   3.247   1.678
 6218SOL     OW19552   3.615   5.238   5.474
 6218SOL    HW119553   3.588   5.162   5.533
 6218SOL    HW219554   3.539   5.262   5.414
 6219SOL     OW19555   1.178   1.873   4.534
 6219SOL    HW119556   1.086   1.862   4.571
 6219SOL    HW219557   1.172   1.898   4.437
 6220SOL     OW19558   1.848   4.204   5.081
 6220SOL    HW119559   1.812   4.270   5.147
 6220SOL    HW219560   1.874   4.120   5.128
 6221SOL     OW19561   3.906   4.965   4.954
 6221SOL    HW119562   3.880   4.935   5.045
 6221SOL    HW219563   4.004   4.954   4.941
 6222SOL     OW19564   6.688   1.378   0.861
 6222SOL    HW119565   6.647   1.287   0.870
 6222SOL    HW219566   6.784   1.374   0.889
 6223SOL     OW19567   4.999   3.396   4.688
 6223SOL    HW119568   5.038   3.310   4.721
 6223SOL    HW219569   5.038   3.472   4.740
 6224SOL     OW19570   2.514   1.050   5.364
 6224SOL    HW119571   2.418   1.049   5.391
 6224SOL    HW219572   2.534   0.971   5.307
 6225SOL     OW19573   3.950   2.420   0.126
 6225SOL    HW119574   3.954   2.324   0.153
 6225SOL    HW219575   4.018   2.472   0.177
 6226SOL     OW19576   5.873   0.229   4.789
 6226SOL    HW119577   5.952   0.200   4.843
 6226SOL    HW219578   5.892   0.317   4.746
 6227SOL     OW19579   3.314   4.869   6.246
 6227SOL    HW119580   3.270   4.846   6.333
 6227SOL    HW219581   3.303   4.793   6.182
 6228SOL     OW19582   6.877   0.589   3.754
 6228SOL    HW119583   6.810   0.620   3.687
 6228SOL    HW219584   6.969   0.599   3.717
 6229SOL     OW19585   2.201   2.764   2.106
 6229SOL    HW119586   2.123   2.710   2.073
 6229SOL    HW219587   2.286   2.717   2.081
 6230SOL     OW19588   2.362   2.145   3.369
 6230SOL    HW119589   2.305   2.151   3.287
 6230SOL    HW219590   2.456   2.123   3.343
 6231SOL     OW19591   0.183   4.651   1.805
 6231SOL    HW119592   0.164   4.734   1.857
 6231SOL    HW219593   0.242   4.672   1.727
 6232SOL     OW19594   1.059   1.204   6.646
 6232SOL    HW119595   0.985   1.266   6.670
 6232SOL    HW219596   1.139   1.258   6.617
 6233SOL     OW19597   4.719   2.274   0.072
 6233SOL    HW119598   4.778   2.345   0.110
 6233SOL    HW219599   4.773   2.215   0.012
 6234SOL     OW19600   2.568   2.065   3.608
 6234SOL    HW119601   2.564   1.990   3.674
 6234SOL    HW219602   2.475   2.095   3.586
 6235SOL     OW19603   2.550   6.527   3.711
 6235SOL    HW119604   2.476   6.472   3.673
 6235SOL    HW219605   2.560   6.507   3.808
 6236SOL     OW19606   6.683   4.343   0.588
 6236SOL    HW119607   6.673   4.246   0.567
 6236SOL    HW219608   6.768   4.377   0.550
 6237SOL     OW19609   4.359   7.010   0.777
 6237SOL    HW119610   4.292   6.945   0.740
 6237SOL    HW219611   4.424   0.010   0.705
 6238SOL     OW19612   4.718   4.313   1.230
 6238SOL    HW119613   4.728   4.340   1.326
 6238SOL    HW219614   4.754   4.385   1.171
 6239SOL     OW19615   2.872   0.534   3.558
 6239SOL    HW119616   2.797   0.569   3.615
 6239SOL    HW219617   2.845   0.448   3.516
 6240SOL     OW19618   2.119   3.802   1.081
 6240SOL    HW119619   2.215   3.784   1.103
 6240SOL    HW219620   2.105   3.792   0.983
 6241SOL     OW19621   4.852   0.456   1.322
 6241SOL    HW119622   4.790   0.510   1.378
 6241SOL    HW219623   4.911   0.516   1.269
 6242SOL     OW19624   4.304   1.925   3.713
 6242SOL    HW119625   4.297   1.934   3.812
 6242SOL    HW219626   4.365   1.848   3.691
 6243SOL     OW19627   6.292   5.601   3.452
 6243SOL    HW119628   6.337   5.669   3.511
 6243SOL    HW219629   6.314   5.509   3.485
 6244SOL     OW19630   2.256   1.636   2.249
 6244SOL    HW119631   2.317   1.715   2.259
 6244SOL    HW219632   2.164   1.667   2.226
 6245SOL     OW19633   2.373   4.673   0.438
 6245SOL    HW119634   2.405   4.620   0.516
 6245SOL    HW219635   2.286   4.716   0.460
 6246SOL     OW19636   2.537   1.055   6.061
 6246SOL    HW119637   2.544   1.137   6.004
 6246SOL    HW219638   2.501   0.979   6.007
 6247SOL     OW19639   0.178   6.324   2.795
 6247SOL    HW119640   0.160   6.242   2.850
 6247SOL    HW219641   0.211   6.296   2.705
 6248SOL     OW19642   0.426   4.597   1.277
 6248SOL    HW119643   0.494   4.667   1.298
 6248SOL    HW219644   0.337   4.641   1.261
 6249SOL     OW19645   5.174   3.689   6.390
 6249SOL    HW119646   5.253   3.744   6.420
 6249SOL    HW219647   5.189   3.593   6.415
 6250SOL     OW19648   5.154   5.678   6.436
 6250SOL    HW119649   5.194   5.609   6.496
 6250SOL    HW219650   5.220   5.752   6.420
 6251SOL     OW19651   4.265   1.830   0.928
 6251SOL    HW119652   4.280   1.841   1.026
 6251SOL    HW219653   4.169   1.851   0.907
 6252SOL     OW19654   2.247   6.223   5.298
 6252SOL    HW119655   2.329   6.234   5.355
 6252SOL    HW219656   2.244   6.130   5.262
 6253SOL     OW19657   1.572   3.752   1.118
 6253SOL    HW119658   1.598   3.689   1.044
 6253SOL    HW219659   1.493   3.806   1.088
 6254SOL     OW19660   5.382   0.564   0.316
 6254SOL    HW119661   5.316   0.566   0.392
 6254SOL    HW219662   5.424   0.654   0.306
 6255SOL     OW19663   0.670   1.274   2.513
 6255SOL    HW119664   0.664   1.297   2.610
 6255SOL    HW219665   0.624   1.345   2.459
 6256SOL     OW19666   3.221   5.074   3.074
 6256SOL    HW119667   3.133   5.091   3.030
 6256SOL    HW219668   3.207   5.031   3.163
 6257SOL     OW19669   5.060   2.714   6.507
 6257SOL    HW119670   5.065   2.755   6.416
 6257SOL    HW219671   4.965   2.706   6.535
 6258SOL     OW19672   5.358   1.723   2.737
 6258SOL    HW119673   5.442   1.775   2.717
 6258SOL    HW219674   5.283   1.786   2.756
 6259SOL     OW19675   3.068   2.572   1.733
 6259SOL    HW119676   3.038   2.495   1.789
 6259SOL    HW219677   3.011   2.578   1.651
 6260SOL     OW19678   3.768   3.365   0.012
 6260SOL    HW119679   3.738   3.278   7.000
 6260SOL    HW219680   3.777   3.357   0.112
 6261SOL     OW19681   3.984   0.774   0.257
 6261SOL    HW119682   4.001   0.676   0.266
 6261SOL    HW219683   4.071   0.823   0.248
 6262SOL     OW19684   0.486   5.422   5.940
 6262SOL    HW119685   0.511   5.327   5.958
 6262SOL    HW219686   0.436   5.427   5.854
 6263SOL     OW19687   6.029   0.651   0.903
 6263SOL    HW119688   5.964   0.690   0.839
 6263SOL    HW219689   6.122   0.658   0.865
 6264SOL     OW19690   2.348   1.555   0.410
 6264SOL    HW119691   2.327   1.605   0.494
 6264SOL    HW219692   2.315   1.461   0.418
 6265SOL     OW19693   3.733   2.987   0.972
 6265SOL    HW119694   3.634   3.002   0.978
 6265SOL    HW219695   3.757   2.904   1.023
 6266SOL     OW19696   2.583   0.146   2.702
 6266SOL    HW119697   2.508   0.177   2.642
 6266SOL    HW219698   2.558   0.058   2.743
 6267SOL     OW19699   2.519   6.919   6.600
 6267SOL    HW119700   2.543   6.920   6.503
 6267SOL    HW219701   2.482   6.829   6.624
 6268SOL     OW19702   3.323   4.879   2.905
 6268SOL    HW119703   3.245   4.820   2.927
 6268SOL    HW219704   3.320   4.961   2.961
 6269SOL     OW19705   6.371   4.556   0.700
 6269SOL    HW119706   6.434   4.619   0.746
 6269SOL    HW219707   6.413   4.523   0.615
 6270SOL     OW19708   0.426   1.116   4.487
 6270SOL    HW119709   0.485   1.050   4.442
 6270SOL    HW219710   0.448   1.121   4.584
 6271SOL     OW19711   5.752   1.674   0.953
 6271SOL    HW119712   5.779   1.762   0.913
 6271SOL    HW219713   5.669   1.641   0.909
 6272SOL     OW19714   1.491   2.363   3.273
 6272SOL    HW119715   1.491   2.463   3.273
 6272SOL    HW219716   1.579   2.329   3.307
 6273SOL     OW19717   3.671   0.937   1.436
 6273SOL    HW119718   3.693   0.841   1.420
 6273SOL    HW219719   3.751   0.984   1.473
 6274SOL     OW19720   3.773   6.668   6.610
 6274SOL    HW119721   3.842   6.737   6.589
 6274SOL    HW219722   3.723   6.644   6.527
 6275SOL     OW19723   2.723   1.064   4.409
 6275SOL    HW119724   2.820   1.058   4.432
 6275SOL    HW219725   2.672   0.997   4.463
 6276SOL     OW19726   1.381   5.362   3.855
 6276SOL    HW119727   1.308   5.327   3.796
 6276SOL    HW219728   1.398   5.296   3.929
 6277SOL     OW19729   5.423   3.172   2.904
 6277SOL    HW119730   5.509   3.217   2.878
 6277SOL    HW219731   5.353   3.193   2.836
 6278SOL     OW19732   5.304   0.491   4.168
 6278SOL    HW119733   5.255   0.536   4.094
 6278SOL    HW219734   5.402   0.511   4.161
 6279SOL     OW19735   4.983   1.470   0.109
 6279SOL    HW119736   4.940   1.535   0.046
 6279SOL    HW219737   4.986   1.380   0.066
 6280SOL     OW19738   0.370   4.677   5.827
 6280SOL    HW119739   0.357   4.578   5.820
 6280SOL    HW219740   0.456   4.697   5.875
 6281SOL     OW19741   2.728   0.014   5.567
 6281SOL    HW119742   2.732   0.113   5.559
 6281SOL    HW219743   2.780   6.997   5.493
 6282SOL     OW19744   1.960   6.823   3.658
 6282SOL    HW119745   1.930   6.911   3.694
 6282SOL    HW219746   1.906   6.750   3.701
 6283SOL     OW19747   0.095   2.245   4.760
 6283SOL    HW119748   0.122   2.214   4.851
 6283SOL    HW219749   0.173   2.287   4.714
 6284SOL     OW19750   2.101   4.387   5.785
 6284SOL    HW119751   2.099   4.483   5.813
 6284SOL    HW219752   2.195   4.358   5.767
 6285SOL     OW19753   1.760   4.314   2.283
 6285SOL    HW119754   1.745   4.392   2.345
 6285SOL    HW219755   1.857   4.291   2.282
 6286SOL     OW19756   5.592   0.563   4.230
 6286SOL    HW119757   5.596   0.587   4.133
 6286SOL    HW219758   5.645   0.630   4.282
 6287SOL     OW19759   4.727   4.355   1.890
 6287SOL    HW119760   4.632   4.326   1.906
 6287SOL    HW219761   4.788   4.302   1.949
 6288SOL     OW19762   5.017   3.381   0.869
 6288SOL    HW119763   4.935   3.390   0.812
 6288SOL    HW219764   5.010   3.444   0.946
 6289SOL     OW19765   1.641   0.795   3.036
 6289SOL    HW119766   1.593   0.878   3.009
 6289SOL    HW219767   1.710   0.772   2.968
 6290SOL     OW19768   5.783   3.838   3.140
 6290SOL    HW119769   5.838   3.900   3.084
 6290SOL    HW219770   5.745   3.766   3.083
 6291SOL     OW19771   3.657   4.084   2.996
 6291SOL    HW119772   3.562   4.114   3.006
 6291SOL    HW219773   3.676   4.066   2.900
 6292SOL     OW19774   1.231   2.114   1.880
 6292SOL    HW119775   1.153   2.122   1.942
 6292SOL    HW219776   1.200   2.084   1.790
 6293SOL     OW19777   5.086   6.444   0.582
 6293SOL    HW119778   5.043   6.370   0.634
 6293SOL    HW219779   5.051   6.532   0.615
 6294SOL     OW19780   4.411   5.259   2.201
 6294SOL    HW119781   4.391   5.183   2.139
 6294SOL    HW219782   4.397   5.230   2.296
 6295SOL     OW19783   5.776   6.756   5.957
 6295SOL    HW119784   5.814   6.794   6.042
 6295SOL    HW219785   5.739   6.665   5.976
 6296SOL     OW19786   6.086   1.309   2.506
 6296SOL    HW119787   6.029   1.338   2.583
 6296SOL    HW219788   6.182   1.307   2.535
 6297SOL     OW19789   5.160   0.429   5.794
 6297SOL    HW119790   5.146   0.461   5.701
 6297SOL    HW219791   5.215   0.496   5.845
 6298SOL     OW19792   1.460   1.881   4.610
 6298SOL    HW119793   1.374   1.852   4.568
 6298SOL    HW219794   1.441   1.918   4.701
 6299SOL     OW19795   6.424   3.110   6.829
 6299SOL    HW119796   6.366   3.120   6.909
 6299SOL    HW219797   6.513   3.153   6.846
 6300SOL     OW19798   5.221   0.577   3.943
 6300SOL    HW119799   5.254   0.497   3.892
 6300SOL    HW219800   5.193   0.648   3.879
 6301SOL     OW19801   3.026   6.939   0.669
 6301SOL    HW119802   3.088   7.017   0.658
 6301SOL    HW219803   3.042   6.872   0.598
 6302SOL     OW19804   1.100   0.624   3.422
 6302SOL    HW119805   1.182   0.615   3.479
 6302SOL    HW219806   1.041   0.696   3.460
 6303SOL     OW19807   2.456   6.173   5.504
 6303SOL    HW119808   2.550   6.201   5.485
 6303SOL    HW219809   2.448   6.074   5.492
 6304SOL     OW19810   3.066   1.145   6.458
 6304SOL    HW119811   3.092   1.058   6.417
 6304SOL    HW219812   3.135   1.172   6.526
 6305SOL     OW19813   5.613   1.204   1.370
 6305SOL    HW119814   5.541   1.265   1.404
 6305SOL    HW219815   5.682   1.191   1.442
 6306SOL     OW19816   5.693   2.859   4.168
 6306SOL    HW119817   5.750   2.782   4.197
 6306SOL    HW219818   5.696   2.865   4.068
 6307SOL     OW19819   2.748   4.847   0.827
 6307SOL    HW119820   2.658   4.841   0.784
 6307SOL    HW219821   2.817   4.868   0.758
 6308SOL     OW19822   3.029   2.227   5.385
 6308SOL    HW119823   2.936   2.259   5.404
 6308SOL    HW219824   3.064   2.274   5.304
 6309SOL     OW19825   5.922   1.676   4.574
 6309SOL    HW119826   5.899   1.738   4.499
 6309SOL    HW219827   6.000   1.712   4.624
 6310SOL     OW19828   1.477   4.657   4.750
 6310SOL    HW119829   1.522   4.659   4.660
 6310SOL    HW219830   1.383   4.625   4.739
 6311SOL     OW19831   6.236   6.767   4.788
 6311SOL    HW119832   6.334   6.762   4.807
 6311SOL    HW219833   6.219   6.841   4.723
 6312SOL     OW19834   4.756   4.660   6.124
 6312SOL    HW119835   4.695   4.659   6.045
 6312SOL    HW219836   4.833   4.721   6.106
 6313SOL     OW19837   2.874   5.098   3.425
 6313SOL    HW119838   2.929   5.116   3.506
 6313SOL    HW219839   2.910   5.151   3.348
 6314SOL     OW19840   3.088   6.127   3.647
 6314SOL    HW119841   3.161   6.062   3.670
 6314SOL    HW219842   3.122   6.220   3.662
 6315SOL     OW19843   3.042   3.524   0.605
 6315SOL    HW119844   2.959   3.472   0.624
 6315SOL    HW219845   3.122   3.466   0.620
 6316SOL     OW19846   5.352   1.586   6.182
 6316SOL    HW119847   5.272   1.624   6.228
 6316SOL    HW219848   5.344   1.602   6.083
 6317SOL     OW19849   6.293   5.904   3.873
 6317SOL    HW119850   6.283   5.845   3.954
 6317SOL    HW219851   6.372   5.965   3.886
 6318SOL     OW19852   2.617   2.053   4.526
 6318SOL    HW119853   2.653   1.983   4.589
 6318SOL    HW219854   2.522   2.073   4.549
 6319SOL     OW19855   0.632   1.468   2.977
 6319SOL    HW119856   0.724   1.450   3.010
 6319SOL    HW219857   0.613   1.410   2.897
 6320SOL     OW19858   6.952   2.923   3.505
 6320SOL    HW119859   6.917   2.993   3.568
 6320SOL    HW219860   6.979   2.842   3.558
 6321SOL     OW19861   2.070   3.632   0.249
 6321SOL    HW119862   2.050   3.725   0.217
 6321SOL    HW219863   1.990   3.574   0.234
 6322SOL     OW19864   1.065   1.139   6.973
 6322SOL    HW119865   1.101   1.092   6.893
 6322SOL    HW219866   1.007   1.215   6.943
 6323SOL     OW19867   3.768   1.777   1.361
 6323SOL    HW119868   3.766   1.757   1.263
 6323SOL    HW219869   3.860   1.760   1.396
 6324SOL     OW19870   4.222   1.299   6.450
 6324SOL    HW119871   4.190   1.274   6.541
 6324SOL    HW219872   4.171   1.247   6.381
 6325SOL     OW19873   1.623   2.513   1.833
 6325SOL    HW119874   1.633   2.424   1.788
 6325SOL    HW219875   1.666   2.509   1.924
 6326SOL     OW19876   5.142   6.087   1.242
 6326SOL    HW119877   5.062   6.147   1.228
 6326SOL    HW219878   5.131   6.037   1.327
 6327SOL     OW19879   4.862   5.168   5.993
 6327SOL    HW119880   4.939   5.224   6.021
 6327SOL    HW219881   4.888   5.111   5.915
 6328SOL     OW19882   2.947   4.039   6.206
 6328SOL    HW119883   2.994   4.111   6.155
 6328SOL    HW219884   2.848   4.058   6.207
 6329SOL     OW19885   1.298   1.662   3.475
 6329SOL    HW119886   1.367   1.716   3.522
 6329SOL    HW219887   1.266   1.711   3.394
 6330SOL     OW19888   3.100   1.691   0.365
 6330SOL    HW119889   3.123   1.637   0.446
 6330SOL    HW219890   3.134   1.644   0.283
 6331SOL     OW19891   5.722   3.342   1.716
 6331SOL    HW119892   5.791   3.414   1.726
 6331SOL    HW219893   5.766   3.253   1.717
 6332SOL     OW19894   5.627   6.392   2.079
 6332SOL    HW119895   5.666   6.428   1.995
 6332SOL    HW219896   5.530   6.419   2.085
 6333SOL     OW19897   2.295   4.912   3.380
 6333SOL    HW119898   2.368   4.884   3.443
 6333SOL    HW219899   2.333   4.928   3.289
 6334SOL     OW19900   2.487   1.501   2.638
 6334SOL    HW119901   2.564   1.561   2.615
 6334SOL    HW219902   2.433   1.484   2.556
 6335SOL     OW19903   6.582   1.224   0.427
 6335SOL    HW119904   6.484   1.218   0.442
 6335SOL    HW219905   6.601   1.288   0.352
 6336SOL     OW19906   0.551   2.631   5.161
 6336SOL    HW119907   0.641   2.624   5.119
 6336SOL    HW219908   0.481   2.615   5.091
 6337SOL     OW19909   6.633   4.684   4.852
 6337SOL    HW119910   6.597   4.652   4.939
 6337SOL    HW219911   6.595   4.629   4.778
 6338SOL     OW19912   4.017   1.149   3.744
 6338SOL    HW119913   4.079   1.155   3.822
 6338SOL    HW219914   4.069   1.150   3.659
 6339SOL     OW19915   6.795   2.146   4.763
 6339SOL    HW119916   6.797   2.237   4.722
 6339SOL    HW219917   6.876   2.133   4.819
 6340SOL     OW19918   1.833   5.267   4.256
 6340SOL    HW119919   1.932   5.254   4.246
 6340SOL    HW219920   1.798   5.202   4.323
 6341SOL     OW19921   6.540   4.226   2.790
 6341SOL    HW119922   6.551   4.297   2.859
 6341SOL    HW219923   6.618   4.227   2.728
 6342SOL     OW19924   1.594   2.714   0.883
 6342SOL    HW119925   1.542   2.719   0.968
 6342SOL    HW219926   1.546   2.657   0.817
 6343SOL     OW19927   3.644   1.333   0.371
 6343SOL    HW119928   3.565   1.390   0.397
 6343SOL    HW219929   3.681   1.366   0.284
 6344SOL     OW19930   0.267   4.370   4.185
 6344SOL    HW119931   0.187   4.427   4.205
 6344SOL    HW219932   0.236   4.280   4.152
 6345SOL     OW19933   2.895   2.265   2.342
 6345SOL    HW119934   2.899   2.300   2.248
 6345SOL    HW219935   2.984   2.229   2.368
 6346SOL     OW19936   0.876   5.251   4.018
 6346SOL    HW119937   0.871   5.237   3.919
 6346SOL    HW219938   0.820   5.183   4.065
 6347SOL     OW19939   3.517   0.506   1.615
 6347SOL    HW119940   3.574   0.588   1.621
 6347SOL    HW219941   3.528   0.464   1.525
 6348SOL     OW19942   1.323   2.667   4.341
 6348SOL    HW119943   1.418   2.662   4.311
 6348SOL    HW219944   1.269   2.598   4.292
 6349SOL     OW19945   2.183   6.976   0.451
 6349SOL    HW119946   2.118   0.012   0.405
 6349SOL    HW219947   2.132   6.901   0.493
 6350SOL     OW19948   1.225   6.135   2.512
 6350SOL    HW119949   1.230   6.046   2.559
 6350SOL    HW219950   1.255   6.123   2.417
 6351SOL     OW19951   0.253   1.548   2.786
 6351SOL    HW119952   0.161   1.520   2.816
 6351SOL    HW219953   0.300   1.469   2.747
 6352SOL     OW19954   6.879   6.211   2.346
 6352SOL    HW119955   6.933   6.152   2.286
 6352SOL    HW219956   6.841   6.287   2.293
 6353SOL     OW19957   0.129   6.814   2.339
 6353SOL    HW119958   0.203   6.831   2.274
 6353SOL    HW219959   0.049   6.780   2.290
 6354SOL     OW19960   0.558   6.530   3.574
 6354SOL    HW119961   0.652   6.520   3.542
 6354SOL    HW219962   0.554   6.512   3.673
 6355SOL     OW19963   1.781   2.443   2.953
 6355SOL    HW119964   1.690   2.485   2.957
 6355SOL    HW219965   1.829   2.474   2.871
 6356SOL     OW19966   3.314   3.425   0.905
 6356SOL    HW119967   3.219   3.398   0.922
 6356SOL    HW219968   3.375   3.359   0.948
 6357SOL     OW19969   4.732   2.137   0.325
 6357SOL    HW119970   4.704   2.166   0.234
 6357SOL    HW219971   4.824   2.098   0.321
 6358SOL     OW19972   0.576   2.422   3.980
 6358SOL    HW119973   0.531   2.487   4.042
 6358SOL    HW219974   0.674   2.420   3.999
 6359SOL     OW19975   0.041   1.057   6.879
 6359SOL    HW119976   0.071   0.969   6.842
 6359SOL    HW219977   6.966   1.056   6.888
 6360SOL     OW19978   3.169   6.040   4.290
 6360SOL    HW119979   3.077   6.037   4.328
 6360SOL    HW219980   3.196   5.948   4.260
 6361SOL     OW19981   4.135   6.219   6.036
 6361SOL    HW119982   4.127   6.147   6.105
 6361SOL    HW219983   4.094   6.304   6.070
 6362SOL     OW19984   6.189   5.222   6.282
 6362SOL    HW119985   6.234   5.135   6.303
 6362SOL    HW219986   6.228   5.260   6.198
 6363SOL     OW19987   0.611   6.171   4.089
 6363SOL    HW119988   0.649   6.081   4.112
 6363SOL    HW219989   0.512   6.170   4.102
 6364SOL     OW19990   1.883   2.859   6.218
 6364SOL    HW119991   1.910   2.789   6.284
 6364SOL    HW219992   1.852   2.941   6.267
 6365SOL     OW19993   5.058   5.829   2.533
 6365SOL    HW119994   5.007   5.898   2.482
 6365SOL    HW219995   5.156   5.847   2.525
 6366SOL     OW19996   0.019   4.821   6.224
 6366SOL    HW119997   6.988   4.889   6.270
 6366SOL    HW219998   0.028   4.739   6.282
 6367SOL     OW19999   6.213   6.196   2.828
 6367SOL    HW120000   6.178   6.200   2.735
 6367SOL    HW220001   6.233   6.289   2.861
 6368SOL     OW20002   2.666   0.540   3.939
 6368SOL    HW120003   2.647   0.444   3.960
 6368SOL    HW220004   2.610   0.598   3.998
 6369SOL     OW20005   2.112   5.322   4.661
 6369SOL    HW120006   2.172   5.246   4.687
 6369SOL    HW220007   2.068   5.359   4.743
 6370SOL     OW20008   6.305   2.775   2.082
 6370SOL    HW120009   6.211   2.774   2.115
 6370SOL    HW220010   6.368   2.772   2.160
 6371SOL     OW20011   5.175   2.198   3.205
 6371SOL    HW120012   5.145   2.127   3.269
 6371SOL    HW220013   5.096   2.239   3.161
 6372SOL     OW20014   2.665   6.318   2.670
 6372SOL    HW120015   2.713   6.232   2.650
 6372SOL    HW220016   2.731   6.384   2.706
 6373SOL     OW20017   3.593   4.480   0.119
 6373SOL    HW120018   3.647   4.561   0.099
 6373SOL    HW220019   3.615   4.408   0.054
 6374SOL     OW20020   3.087   3.275   2.604
 6374SOL    HW120021   3.150   3.304   2.532
 6374SOL    HW220022   3.027   3.203   2.568
 6375SOL     OW20023   1.843   6.359   2.523
 6375SOL    HW120024   1.800   6.319   2.442
 6375SOL    HW220025   1.805   6.316   2.605
 6376SOL     OW20026   0.763   2.607   6.031
 6376SOL    HW120027   0.720   2.536   6.087
 6376SOL    HW220028   0.744   2.697   6.072
 6377SOL     OW20029   0.525   0.928   4.302
 6377SOL    HW120030   0.505   0.842   4.349
 6377SOL    HW220031   0.623   0.934   4.285
 6378SOL     OW20032   4.753   4.482   3.657
 6378SOL    HW120033   4.660   4.509   3.678
 6378SOL    HW220034   4.753   4.391   3.616
 6379SOL     OW20035   2.307   4.391   3.235
 6379SOL    HW120036   2.396   4.434   3.248
 6379SOL    HW220037   2.234   4.458   3.249
 6380SOL     OW20038   0.799   0.500   5.660
 6380SOL    HW120039   0.879   0.522   5.605
 6380SOL    HW220040   0.810   0.408   5.699
 6381SOL     OW20041   3.172   3.785   2.412
 6381SOL    HW120042   3.224   3.863   2.376
 6381SOL    HW220043   3.105   3.755   2.344
 6382SOL     OW20044   1.093   3.855   4.995
 6382SOL    HW120045   1.112   3.907   4.912
 6382SOL    HW220046   1.179   3.826   5.037
 6383SOL     OW20047   3.901   1.370   4.280
 6383SOL    HW120048   3.950   1.453   4.306
 6383SOL    HW220049   3.966   1.296   4.264
 6384SOL     OW20050   6.296   4.455   3.111
 6384SOL    HW120051   6.207   4.423   3.078
 6384SOL    HW220052   6.332   4.390   3.178
 6385SOL     OW20053   0.607   6.054   4.926
 6385SOL    HW120054   0.672   6.023   4.857
 6385SOL    HW220055   0.655   6.089   5.006
 6386SOL     OW20056   3.016   5.549   1.691
 6386SOL    HW120057   2.945   5.589   1.634
 6386SOL    HW220058   3.101   5.543   1.639
 6387SOL     OW20059   6.275   1.442   5.062
 6387SOL    HW120060   6.246   1.385   4.986
 6387SOL    HW220061   6.221   1.526   5.063
 6388SOL     OW20062   2.461   4.605   2.763
 6388SOL    HW120063   2.519   4.685   2.774
 6388SOL    HW220064   2.376   4.632   2.717
 6389SOL     OW20065   1.176   4.844   2.414
 6389SOL    HW120066   1.110   4.768   2.411
 6389SOL    HW220067   1.268   4.808   2.429
 6390SOL     OW20068   0.613   3.592   4.245
 6390SOL    HW120069   0.610   3.681   4.290
 6390SOL    HW220070   0.533   3.583   4.184
 6391SOL     OW20071   3.403   1.199   7.007
 6391SOL    HW120072   3.491   1.173   6.968
 6391SOL    HW220073   3.329   1.167   6.948
 6392SOL     OW20074   1.305   6.133   4.026
 6392SOL    HW120075   1.405   6.139   4.032
 6392SOL    HW220076   1.280   6.056   3.968
 6393SOL     OW20077   5.507   0.734   0.656
 6393SOL    HW120078   5.505   0.712   0.753
 6393SOL    HW220079   5.424   0.700   0.612
 6394SOL     OW20080   3.485   4.674   1.429
 6394SOL    HW120081   3.422   4.623   1.489
 6394SOL    HW220082   3.436   4.702   1.346
 6395SOL     OW20083   5.682   1.256   1.011
 6395SOL    HW120084   5.623   1.296   1.080
 6395SOL    HW220085   5.711   1.327   0.947
 6396SOL     OW20086   5.695   3.894   5.564
 6396SOL    HW120087   5.626   3.856   5.626
 6396SOL    HW220088   5.698   3.840   5.480
 6397SOL     OW20089   6.997   0.771   0.703
 6397SOL    HW120090   0.066   0.773   0.670
 6397SOL    HW220091   6.966   0.864   0.721
 6398SOL     OW20092   3.773   1.504   1.566
 6398SOL    HW120093   3.811   1.419   1.601
 6398SOL    HW220094   3.680   1.488   1.534
 6399SOL     OW20095   2.714   5.412   0.114
 6399SOL    HW120096   2.672   5.501   0.130
 6399SOL    HW220097   2.811   5.424   0.091
 6400SOL     OW20098   2.685   5.446   3.904
 6400SOL    HW120099   2.685   5.413   3.810
 6400SOL    HW220100   2.601   5.415   3.950
 6401SOL     OW20101   0.853   4.701   3.795
 6401SOL    HW120102   0.950   4.719   3.779
 6401SOL    HW220103   0.814   4.657   3.714
 6402SOL     OW20104   1.656   2.060   3.223
 6402SOL    HW120105   1.564   2.029   3.249
 6402SOL    HW220106   1.667   2.050   3.124
 6403SOL     OW20107   0.309   5.842   1.284
 6403SOL    HW120108   0.358   5.895   1.215
 6403SOL    HW220109   0.257   5.769   1.240
 6404SOL     OW20110   5.042   0.612   3.115
 6404SOL    HW120111   5.097   0.659   3.184
 6404SOL    HW220112   4.947   0.642   3.122
 6405SOL     OW20113   3.024   1.289   2.127
 6405SOL    HW120114   3.036   1.363   2.193
 6405SOL    HW220115   2.987   1.325   2.042
 6406SOL     OW20116   2.537   1.854   3.777
 6406SOL    HW120117   2.520   1.767   3.729
 6406SOL    HW220118   2.526   1.840   3.875
 6407SOL     OW20119   4.290   5.257   6.347
 6407SOL    HW120120   4.218   5.321   6.322
 6407SOL    HW220121   4.338   5.291   6.429
 6408SOL     OW20122   6.206   1.914   0.046
 6408SOL    HW120123   6.216   1.990   0.110
 6408SOL    HW220124   6.109   1.889   0.039
 6409SOL     OW20125   0.936   4.702   2.333
 6409SOL    HW120126   0.879   4.756   2.271
 6409SOL    HW220127   0.878   4.640   2.386
 6410SOL     OW20128   1.135   1.659   1.928
 6410SOL    HW120129   1.189   1.718   1.989
 6410SOL    HW220130   1.039   1.662   1.955
 6411SOL     OW20131   2.086   0.529   3.689
 6411SOL    HW120132   2.118   0.624   3.686
 6411SOL    HW220133   2.163   0.467   3.679
 6412SOL     OW20134   0.204   1.841   4.745
 6412SOL    HW120135   0.140   1.894   4.689
 6412SOL    HW220136   0.265   1.789   4.686
 6413SOL     OW20137   0.178   4.407   0.492
 6413SOL    HW120138   0.198   4.468   0.569
 6413SOL    HW220139   0.229   4.322   0.503
 6414SOL     OW20140   6.330   6.829   2.376
 6414SOL    HW120141   6.236   6.798   2.387
 6414SOL    HW220142   6.363   6.868   2.462
 6415SOL     OW20143   1.610   1.900   2.159
 6415SOL    HW120144   1.604   1.932   2.254
 6415SOL    HW220145   1.646   1.807   2.158
 6416SOL     OW20146   1.940   6.820   6.669
 6416SOL    HW120147   1.958   6.809   6.572
 6416SOL    HW220148   2.026   6.835   6.718
 6417SOL     OW20149   0.872   6.731   3.167
 6417SOL    HW120150   0.831   6.641   3.185
 6417SOL    HW220151   0.824   6.800   3.221
 6418SOL     OW20152   6.719   5.853   2.699
 6418SOL    HW120153   6.730   5.828   2.602
 6418SOL    HW220154   6.762   5.942   2.715
 6419SOL     OW20155   2.803   4.980   1.520
 6419SOL    HW120156   2.891   4.935   1.535
 6419SOL    HW220157   2.740   4.956   1.594
 6420SOL     OW20158   0.602   3.469   0.041
 6420SOL    HW120159   0.548   3.449   6.984
 6420SOL    HW220160   0.663   3.547   0.023
 6421SOL     OW20161   5.483   1.959   0.910
 6421SOL    HW120162   5.471   2.026   0.983
 6421SOL    HW220163   5.576   1.964   0.874
 6422SOL     OW20164   6.195   1.730   3.681
 6422SOL    HW120165   6.237   1.796   3.619
 6422SOL    HW220166   6.132   1.671   3.630
 6423SOL     OW20167   5.027   3.995   1.018
 6423SOL    HW120168   4.971   3.919   1.051
 6423SOL    HW220169   5.121   3.965   1.005
 6424SOL     OW20170   6.672   5.302   5.065
 6424SOL    HW120171   6.768   5.328   5.073
 6424SOL    HW220172   6.660   5.243   4.985
 6425SOL     OW20173   0.039   4.841   1.378
 6425SOL    HW120174   0.107   4.784   1.332
 6425SOL    HW220175   7.023   4.790   1.453
 6426SOL     OW20176   6.599   3.087   3.642
 6426SOL    HW120177   6.694   3.100   3.671
 6426SOL    HW220178   6.597   3.043   3.552
 6427SOL     OW20179   1.235   3.223   5.848
 6427SOL    HW120180   1.315   3.211   5.789
 6427SOL    HW220181   1.158   3.171   5.811
 6428SOL     OW20182   6.338   2.888   2.768
 6428SOL    HW120183   6.349   2.821   2.695
 6428SOL    HW220184   6.310   2.842   2.852
 6429SOL     OW20185   0.966   0.581   4.493
 6429SOL    HW120186   1.009   0.668   4.518
 6429SOL    HW220187   0.921   0.542   4.574
 6430SOL     OW20188   5.997   3.600   0.496
 6430SOL    HW120189   6.045   3.665   0.437
 6430SOL    HW220190   6.019   3.619   0.591
 6431SOL     OW20191   5.461   0.599   3.068
 6431SOL    HW120192   5.495   0.520   3.018
 6431SOL    HW220193   5.493   0.683   3.023
 6432SOL     OW20194   5.882   3.274   0.108
 6432SOL    HW120195   5.839   3.194   0.067
 6432SOL    HW220196   5.811   3.338   0.139
 6433SOL     OW20197   2.626   3.923   1.629
 6433SOL    HW120198   2.694   3.976   1.579
 6433SOL    HW220199   2.557   3.984   1.669
 6434SOL     OW20200   2.096   5.235   0.266
 6434SOL    HW120201   2.025   5.299   0.296
 6434SOL    HW220202   2.057   5.172   0.198
 6435SOL     OW20203   4.718   4.071   0.510
 6435SOL    HW120204   4.794   4.126   0.543
 6435SOL    HW220205   4.753   3.989   0.465
 6436SOL     OW20206   1.566   3.005   2.521
 6436SOL    HW120207   1.588   2.911   2.549
 6436SOL    HW220208   1.471   3.025   2.544
 6437SOL     OW20209   0.679   0.858   0.092
 6437SOL    HW120210   0.757   0.852   0.155
 6437SOL    HW220211   0.692   0.794   0.016
 6438SOL     OW20212   1.081   3.310   3.440
 6438SOL    HW120213   1.102   3.318   3.538
 6438SOL    HW220214   1.012   3.378   3.415
 6439SOL     OW20215   0.065   0.106   2.319
 6439SOL    HW120216   7.002   0.107   2.272
 6439SOL    HW220217   0.058   0.053   2.404
 6440SOL     OW20218   0.826   1.048   2.501
 6440SOL    HW120219   0.759   1.121   2.515
 6440SOL    HW220220   0.857   1.049   2.406
 6441SOL     OW20221   3.636   1.102   3.526
 6441SOL    HW120222   3.543   1.073   3.501
 6441SOL    HW220223   3.631   1.187   3.578
 6442SOL     OW20224   3.274   0.782   3.683
 6442SOL    HW120225   3.285   0.687   3.713
 6442SOL    HW220226   3.177   0.805   3.682
 6443SOL     OW20227   2.577   1.278   0.507
 6443SOL    HW120228   2.602   1.316   0.596
 6443SOL    HW220229   2.651   1.296   0.441
 6444SOL     OW20230   0.729   0.958   3.394
 6444SOL    HW120231   0.673   0.982   3.473
 6444SOL    HW220232   0.792   0.885   3.418
 6445SOL     OW20233   4.011   3.180   5.307
 6445SOL    HW120234   4.022   3.203   5.404
 6445SOL    HW220235   3.959   3.096   5.299
 6446SOL     OW20236   6.069   1.932   0.565
 6446SOL    HW120237   6.050   1.990   0.485
 6446SOL    HW220238   6.053   1.836   0.541
 6447SOL     OW20239   1.875   0.713   2.759
 6447SOL    HW120240   1.824   0.760   2.687
 6447SOL    HW220241   1.841   0.619   2.768
 6448SOL     OW20242   6.083   2.414   2.666
 6448SOL    HW120243   6.046   2.356   2.738
 6448SOL    HW220244   6.164   2.371   2.626
 6449SOL     OW20245   3.488   3.217   1.080
 6449SOL    HW120246   3.436   3.171   1.008
 6449SOL    HW220247   3.456   3.187   1.170
 6450SOL     OW20248   6.825   3.500   6.900
 6450SOL    HW120249   6.739   3.494   6.950
 6450SOL    HW220250   6.896   3.539   6.959
 6451SOL     OW20251   2.013   6.855   4.368
 6451SOL    HW120252   2.060   6.771   4.395
 6451SOL    HW220253   2.062   6.934   4.406
 6452SOL     OW20254   4.339   6.252   3.289
 6452SOL    HW120255   4.281   6.332   3.275
 6452SOL    HW220256   4.313   6.181   3.223
 6453SOL     OW20257   2.091   4.302   6.190
 6453SOL    HW120258   2.024   4.303   6.115
 6453SOL    HW220259   2.048   4.338   6.272
 6454SOL     OW20260   3.217   1.699   4.501
 6454SOL    HW120261   3.195   1.638   4.425
 6454SOL    HW220262   3.186   1.657   4.586
 6455SOL     OW20263   6.773   2.896   5.482
 6455SOL    HW120264   6.721   2.915   5.399
 6455SOL    HW220265   6.740   2.811   5.523
 6456SOL     OW20266   6.868   1.030   4.286
 6456SOL    HW120267   6.888   0.974   4.206
 6456SOL    HW220268   6.873   0.974   4.369
 6457SOL     OW20269   6.412   3.264   2.039
 6457SOL    HW120270   6.503   3.285   2.003
 6457SOL    HW220271   6.404   3.298   2.132
 6458SOL     OW20272   1.542   5.491   2.556
 6458SOL    HW120273   1.579   5.437   2.632
 6458SOL    HW220274   1.606   5.489   2.479
 6459SOL     OW20275   4.763   4.697   0.568
 6459SOL    HW120276   4.771   4.603   0.601
 6459SOL    HW220277   4.786   4.760   0.642
 6460SOL     OW20278   3.449   5.089   6.604
 6460SOL    HW120279   3.470   5.117   6.697
 6460SOL    HW220280   3.372   5.143   6.569
 6461SOL     OW20281   3.569   5.509   4.630
 6461SOL    HW120282   3.655   5.460   4.645
 6461SOL    HW220283   3.582   5.578   4.559
 6462SOL     OW20284   1.797   3.318   3.907
 6462SOL    HW120285   1.834   3.321   3.814
 6462SOL    HW220286   1.873   3.320   3.973
 6463SOL     OW20287   1.346   4.343   5.203
 6463SOL    HW120288   1.323   4.260   5.152
 6463SOL    HW220289   1.370   4.319   5.297
 6464SOL     OW20290   0.894   5.375   2.486
 6464SOL    HW120291   0.873   5.395   2.581
 6464SOL    HW220292   0.881   5.278   2.468
 6465SOL     OW20293   6.383   0.716   2.568
 6465SOL    HW120294   6.459   0.741   2.507
 6465SOL    HW220295   6.328   0.645   2.524
 6466SOL     OW20296   0.618   2.286   5.300
 6466SOL    HW120297   0.628   2.307   5.202
 6466SOL    HW220298   0.606   2.371   5.351
 6467SOL     OW20299   2.549   0.822   6.536
 6467SOL    HW120300   2.523   0.898   6.477
 6467SOL    HW220301   2.518   0.736   6.496
 6468SOL     OW20302   4.825   4.512   1.064
 6468SOL    HW120303   4.745   4.565   1.092
 6468SOL    HW220304   4.902   4.573   1.049
 6469SOL     OW20305   7.018   1.281   5.579
 6469SOL    HW120306   6.927   1.322   5.580
 6469SOL    HW220307   0.061   1.352   5.599
 6470SOL     OW20308   6.721   6.108   5.535
 6470SOL    HW120309   6.623   6.126   5.529
 6470SOL    HW220310   6.771   6.195   5.531
 6471SOL     OW20311   5.415   5.173   6.103
 6471SOL    HW120312   5.384   5.232   6.178
 6471SOL    HW220313   5.415   5.078   6.133
 6472SOL     OW20314   0.969   5.715   0.709
 6472SOL    HW120315   1.009   5.743   0.622
 6472SOL    HW220316   0.970   5.792   0.773
 6473SOL     OW20317   2.480   1.402   5.507
 6473SOL    HW120318   2.474   1.497   5.537
 6473SOL    HW220319   2.540   1.351   5.568
 6474SOL     OW20320   2.303   3.443   5.304
 6474SOL    HW120321   2.238   3.414   5.374
 6474SOL    HW220322   2.257   3.447   5.215
 6475SOL     OW20323   4.091   6.670   3.967
 6475SOL    HW120324   4.164   6.734   3.942
 6475SOL    HW220325   4.129   6.578   3.978
 6476SOL     OW20326   4.854   5.212   2.807
 6476SOL    HW120327   4.846   5.311   2.792
 6476SOL    HW220328   4.763   5.174   2.824
 6477SOL     OW20329   0.085   5.928   6.553
 6477SOL    HW120330   0.147   6.006   6.563
 6477SOL    HW220331   0.121   5.851   6.605
 6478SOL     OW20332   4.992   6.661   0.703
 6478SOL    HW120333   4.947   6.748   0.684
 6478SOL    HW220334   5.004   6.650   0.802
 6479SOL     OW20335   3.979   5.698   2.916
 6479SOL    HW120336   3.973   5.743   3.006
 6479SOL    HW220337   4.074   5.671   2.900
 6480SOL     OW20338   3.111   2.089   0.069
 6480SOL    HW120339   3.037   2.025   0.089
 6480SOL    HW220340   3.198   2.041   0.072
 6481SOL     OW20341   4.615   1.197   1.122
 6481SOL    HW120342   4.568   1.285   1.116
 6481SOL    HW220343   4.567   1.138   1.187
 6482SOL     OW20344   0.186   0.871   0.068
 6482SOL    HW120345   0.168   0.823   7.008
 6482SOL    HW220346   0.169   0.969   0.057
 6483SOL     OW20347   1.945   6.141   2.285
 6483SOL    HW120348   2.005   6.165   2.361
 6483SOL    HW220349   1.850   6.154   2.312
 6484SOL     OW20350   5.682   6.089   3.424
 6484SOL    HW120351   5.709   6.129   3.511
 6484SOL    HW220352   5.763   6.054   3.377
 6485SOL     OW20353   0.862   2.491   2.975
 6485SOL    HW120354   0.907   2.402   2.967
 6485SOL    HW220355   0.835   2.507   3.070
 6486SOL     OW20356   1.796   2.731   3.182
 6486SOL    HW120357   1.817   2.733   3.084
 6486SOL    HW220358   1.735   2.806   3.205
 6487SOL     OW20359   6.050   5.937   3.552
 6487SOL    HW120360   6.011   5.993   3.625
 6487SOL    HW220361   6.039   5.840   3.575
 6488SOL     OW20362   3.675   5.084   6.168
 6488SOL    HW120363   3.590   5.105   6.216
 6488SOL    HW220364   3.694   5.156   6.101
 6489SOL     OW20365   2.044   2.102   5.537
 6489SOL    HW120366   2.033   2.199   5.519
 6489SOL    HW220367   2.138   2.085   5.569
 6490SOL     OW20368   3.290   1.264   0.233
 6490SOL    HW120369   3.330   1.247   0.143
 6490SOL    HW220370   3.331   1.201   0.299
 6491SOL     OW20371   3.368   1.475   6.164
 6491SOL    HW120372   3.345   1.386   6.203
 6491SOL    HW220373   3.316   1.546   6.210
 6492SOL     OW20374   5.886   5.591   6.917
 6492SOL    HW120375   5.861   5.518   6.853
 6492SOL    HW220376   5.922   5.669   6.866
 6493SOL     OW20377   1.021   6.379   6.055
 6493SOL    HW120378   1.051   6.322   5.979
 6493SOL    HW220379   0.938   6.342   6.095
 6494SOL     OW20380   1.598   6.837   3.597
 6494SOL    HW120381   1.644   6.921   3.569
 6494SOL    HW220382   1.506   6.859   3.630
 6495SOL     OW20383   5.277   4.863   2.602
 6495SOL    HW120384   5.268   4.900   2.694
 6495SOL    HW220385   5.305   4.767   2.607
 6496SOL     OW20386   2.313   6.580   3.102
 6496SOL    HW120387   2.249   6.651   3.131
 6496SOL    HW220388   2.348   6.603   3.011
 6497SOL     OW20389   0.349   4.781   6.819
 6497SOL    HW120390   0.338   4.876   6.793
 6497SOL    HW220391   0.392   4.776   6.909
 6498SOL     OW20392   1.402   4.441   3.857
 6498SOL    HW120393   1.427   4.376   3.929
 6498SOL    HW220394   1.341   4.510   3.894
 6499SOL     OW20395   6.112   1.440   3.977
 6499SOL    HW120396   6.046   1.371   3.948
 6499SOL    HW220397   6.079   1.531   3.952
 6500SOL     OW20398   5.718   4.621   3.702
 6500SOL    HW120399   5.708   4.672   3.616
 6500SOL    HW220400   5.633   4.572   3.721
 6501SOL     OW20401   0.068   3.860   0.913
 6501SOL    HW120402   0.104   3.768   0.904
 6501SOL    HW220403   6.993   3.858   0.913
 6502SOL     OW20404   1.686   4.885   2.446
 6502SOL    HW120405   1.679   4.979   2.478
 6502SOL    HW220406   1.603   4.861   2.395
 6503SOL     OW20407   4.089   0.366   4.551
 6503SOL    HW120408   4.045   0.456   4.551
 6503SOL    HW220409   4.123   0.346   4.459
 6504SOL     OW20410   2.612   1.045   1.156
 6504SOL    HW120411   2.568   0.955   1.161
 6504SOL    HW220412   2.549   1.111   1.116
 6505SOL     OW20413   5.535   5.040   0.916
 6505SOL    HW120414   5.622   4.997   0.891
 6505SOL    HW220415   5.502   5.000   1.002
 6506SOL     OW20416   1.962   2.386   0.790
 6506SOL    HW120417   1.909   2.302   0.785
 6506SOL    HW220418   1.930   2.450   0.720
 6507SOL     OW20419   2.802   0.588   2.128
 6507SOL    HW120420   2.872   0.519   2.141
 6507SOL    HW220421   2.833   0.675   2.168
 6508SOL     OW20422   2.083   1.623   2.536
 6508SOL    HW120423   2.108   1.564   2.613
 6508SOL    HW220424   2.151   1.696   2.526
 6509SOL     OW20425   0.686   2.277   4.677
 6509SOL    HW120426   0.734   2.364   4.689
 6509SOL    HW220427   0.747   2.202   4.699
 6510SOL     OW20428   5.438   4.913   6.221
 6510SOL    HW120429   5.435   4.818   6.253
 6510SOL    HW220430   5.499   4.966   6.280
 6511SOL     OW20431   6.435   6.176   5.554
 6511SOL    HW120432   6.396   6.267   5.541
 6511SOL    HW220433   6.373   6.121   5.611
 6512SOL     OW20434   5.244   6.491   3.445
 6512SOL    HW120435   5.309   6.553   3.489
 6512SOL    HW220436   5.271   6.475   3.350
 6513SOL     OW20437   2.936   6.897   2.901
 6513SOL    HW120438   2.955   6.833   2.826
 6513SOL    HW220439   2.931   6.990   2.866
 6514SOL     OW20440   3.655   6.696   3.341
 6514SOL    HW120441   3.595   6.729   3.267
 6514SOL    HW220442   3.664   6.767   3.411
 6515SOL     OW20443   1.359   1.132   4.598
 6515SOL    HW120444   1.376   1.081   4.513
 6515SOL    HW220445   1.278   1.094   4.644
 6516SOL     OW20446   1.407   1.371   5.806
 6516SOL    HW120447   1.406   1.330   5.714
 6516SOL    HW220448   1.313   1.379   5.839
 6517SOL     OW20449   1.444   2.091   6.905
 6517SOL    HW120450   1.399   2.181   6.905
 6517SOL    HW220451   1.407   2.036   6.830
 6518SOL     OW20452   6.046   6.154   0.861
 6518SOL    HW120453   6.121   6.208   0.821
 6518SOL    HW220454   6.008   6.202   0.939
 6519SOL     OW20455   2.015   2.044   3.479
 6519SOL    HW120456   2.021   2.136   3.442
 6519SOL    HW220457   2.104   2.015   3.513
 6520SOL     OW20458   5.376   5.192   1.936
 6520SOL    HW120459   5.335   5.104   1.911
 6520SOL    HW220460   5.386   5.197   2.036
 6521SOL     OW20461   0.976   1.673   5.551
 6521SOL    HW120462   0.882   1.687   5.582
 6521SOL    HW220463   1.017   1.761   5.528
 6522SOL     OW20464   2.229   5.292   5.419
 6522SOL    HW120465   2.274   5.380   5.433
 6522SOL    HW220466   2.281   5.238   5.352
 6523SOL     OW20467   1.442   2.494   6.622
 6523SOL    HW120468   1.373   2.549   6.577
 6523SOL    HW220469   1.491   2.439   6.554
 6524SOL     OW20470   3.536   3.874   4.258
 6524SOL    HW120471   3.554   3.857   4.161
 6524SOL    HW220472   3.509   3.970   4.270
 6525SOL     OW20473   0.510   2.614   4.577
 6525SOL    HW120474   0.495   2.713   4.585
 6525SOL    HW220475   0.464   2.568   4.652
 6526SOL     OW20476   1.890   6.027   4.507
 6526SOL    HW120477   1.875   5.968   4.427
 6526SOL    HW220478   1.906   6.121   4.477
 6527SOL     OW20479   2.138   1.282   4.255
 6527SOL    HW120480   2.109   1.197   4.211
 6527SOL    HW220481   2.201   1.260   4.330
 6528SOL     OW20482   6.809   6.811   3.460
 6528SOL    HW120483   6.783   6.870   3.537
 6528SOL    HW220484   6.792   6.859   3.375
 6529SOL     OW20485   6.586   2.546   1.781
 6529SOL    HW120486   6.651   2.617   1.753
 6529SOL    HW220487   6.565   2.487   1.703
 6530SOL     OW20488   6.938   2.170   0.806
 6530SOL    HW120489   6.990   2.236   0.751
 6530SOL    HW220490   6.978   2.079   0.795
 6531SOL     OW20491   5.179   2.678   4.070
 6531SOL    HW120492   5.261   2.710   4.119
 6531SOL    HW220493   5.103   2.670   4.135
 6532SOL     OW20494   0.469   1.872   6.609
 6532SOL    HW120495   0.462   1.880   6.509
 6532SOL    HW220496   0.564   1.884   6.637
 6533SOL     OW20497   5.041   1.371   0.689
 6533SOL    HW120498   5.087   1.378   0.600
 6533SOL    HW220499   5.090   1.427   0.756
 6534SOL     OW20500   1.883   3.569   0.656
 6534SOL    HW120501   1.790   3.540   0.630
 6534SOL    HW220502   1.912   3.643   0.595
 6535SOL     OW20503   2.100   3.376   5.543
 6535SOL    HW120504   2.032   3.448   5.534
 6535SOL    HW220505   2.066   3.305   5.605
 6536SOL     OW20506   0.015   2.320   6.997
 6536SOL    HW120507   6.949   2.277   6.992
 6536SOL    HW220508   0.034   2.345   0.066
 6537SOL     OW20509   0.473   6.984   6.882
 6537SOL    HW120510   0.515   0.030   6.937
 6537SOL    HW220511   0.407   7.025   6.818
 6538SOL     OW20512   1.705   3.255   5.918
 6538SOL    HW120513   1.665   3.235   5.828
 6538SOL    HW220514   1.633   3.260   5.986
 6539SOL     OW20515   2.353   1.615   6.685
 6539SOL    HW120516   2.344   1.527   6.637
 6539SOL    HW220517   2.424   1.669   6.641
 6540SOL     OW20518   3.644   1.273   4.286
 6540SOL    HW120519   3.634   1.228   4.197
 6540SOL    HW220520   3.726   1.330   4.285
 6541SOL     OW20521   2.634   2.593   5.406
 6541SOL    HW120522   2.657   2.626   5.498
 6541SOL    HW220523   2.577   2.661   5.360
 6542SOL     OW20524   5.653   4.427   3.455
 6542SOL    HW120525   5.723   4.436   3.526
 6542SOL    HW220526   5.692   4.386   3.373
 6543SOL     OW20527   6.908   5.756   6.851
 6543SOL    HW120528   6.855   5.840   6.855
 6543SOL    HW220529   6.971   5.759   6.773
 6544SOL     OW20530   6.286   6.241   4.079
 6544SOL    HW120531   6.217   6.190   4.130
 6544SOL    HW220532   6.251   6.265   3.989
 6545SOL     OW20533   5.243   2.634   5.709
 6545SOL    HW120534   5.162   2.683   5.741
 6545SOL    HW220535   5.280   2.681   5.628
 6546SOL     OW20536   3.222   4.434   5.972
 6546SOL    HW120537   3.147   4.418   5.907
 6546SOL    HW220538   3.203   4.516   6.025
 6547SOL     OW20539   4.823   1.352   6.558
 6547SOL    HW120540   4.784   1.329   6.648
 6547SOL    HW220541   4.799   1.447   6.536
 6548SOL     OW20542   6.366   4.743   5.243
 6548SOL    HW120543   6.327   4.827   5.208
 6548SOL    HW220544   6.452   4.763   5.291
 6549SOL     OW20545   3.214   1.331   1.277
 6549SOL    HW120546   3.280   1.403   1.298
 6549SOL    HW220547   3.167   1.302   1.360
 6550SOL     OW20548   0.322   5.509   3.384
 6550SOL    HW120549   0.338   5.429   3.326
 6550SOL    HW220550   0.348   5.592   3.336
 6551SOL     OW20551   2.258   5.219   2.391
 6551SOL    HW120552   2.265   5.177   2.301
 6551SOL    HW220553   2.202   5.302   2.385
 6552SOL     OW20554   4.247   4.725   6.308
 6552SOL    HW120555   4.182   4.655   6.277
 6552SOL    HW220556   4.337   4.684   6.320
 6553SOL     OW20557   0.102   2.781   2.848
 6553SOL    HW120558   0.189   2.816   2.812
 6553SOL    HW220559   0.073   2.836   2.926
 6554SOL     OW20560   0.469   2.964   5.147
 6554SOL    HW120561   0.383   2.983   5.193
 6554SOL    HW220562   0.542   2.954   5.215
 6555SOL     OW20563   0.590   1.393   2.278
 6555SOL    HW120564   0.493   1.417   2.269
 6555SOL    HW220565   0.602   1.295   2.260
 6556SOL     OW20566   3.384   0.332   4.268
 6556SOL    HW120567   3.343   0.386   4.194
 6556SOL    HW220568   3.346   0.239   4.266
 6557SOL     OW20569   6.223   6.283   1.118
 6557SOL    HW120570   6.125   6.281   1.096
 6557SOL    HW220571   6.263   6.194   1.094
 6558SOL     OW20572   6.281   5.431   6.450
 6558SOL    HW120573   6.237   5.354   6.405
 6558SOL    HW220574   6.342   5.398   6.522
 6559SOL     OW20575   3.409   3.096   0.827
 6559SOL    HW120576   3.353   3.018   0.798
 6559SOL    HW220577   3.461   3.130   0.749
 6560SOL     OW20578   3.964   2.077   0.363
 6560SOL    HW120579   3.896   2.122   0.421
 6560SOL    HW220580   3.969   1.980   0.387
 6561SOL     OW20581   3.915   4.048   4.397
 6561SOL    HW120582   3.986   4.118   4.406
 6561SOL    HW220583   3.827   4.087   4.423
 6562SOL     OW20584   5.710   3.601   5.528
 6562SOL    HW120585   5.788   3.659   5.555
 6562SOL    HW220586   5.725   3.566   5.435
 6563SOL     OW20587   1.938   4.851   2.366
 6563SOL    HW120588   1.838   4.844   2.369
 6563SOL    HW220589   1.968   4.922   2.428
 6564SOL     OW20590   1.453   5.652   2.763
 6564SOL    HW120591   1.467   5.558   2.730
 6564SOL    HW220592   1.532   5.708   2.739
 6565SOL     OW20593   6.030   3.238   5.105
 6565SOL    HW120594   5.996   3.329   5.129
 6565SOL    HW220595   6.053   3.235   5.008
 6566SOL     OW20596   3.883   6.897   0.810
 6566SOL    HW120597   3.813   6.825   0.810
 6566SOL    HW220598   3.867   6.960   0.886
 6567SOL     OW20599   6.213   3.005   1.467
 6567SOL    HW120600   6.200   3.012   1.566
 6567SOL    HW220601   6.267   2.923   1.447
 6568SOL     OW20602   4.063   4.414   1.700
 6568SOL    HW120603   3.988   4.382   1.643
 6568SOL    HW220604   4.117   4.336   1.732
 6569SOL     OW20605   0.856   4.594   6.548
 6569SOL    HW120606   0.828   4.502   6.520
 6569SOL    HW220607   0.808   4.620   6.631
 6570SOL     OW20608   6.142   2.930   0.946
 6570SOL    HW120609   6.144   3.029   0.958
 6570SOL    HW220610   6.056   2.904   0.901
 6571SOL     OW20611   2.871   6.252   3.827
 6571SOL    HW120612   2.947   6.192   3.852
 6571SOL    HW220613   2.847   6.309   3.905
 6572SOL     OW20614   0.900   3.392   6.673
 6572SOL    HW120615   0.960   3.367   6.750
 6572SOL    HW220616   0.945   3.369   6.587
 6573SOL     OW20617   1.867   1.893   2.271
 6573SOL    HW120618   1.879   1.898   2.171
 6573SOL    HW220619   1.903   1.806   2.305
 6574SOL     OW20620   2.201   4.629   3.244
 6574SOL    HW120621   2.182   4.669   3.333
 6574SOL    HW220622   2.240   4.698   3.184
 6575SOL     OW20623   1.290   1.036   2.784
 6575SOL    HW120624   1.345   1.117   2.766
 6575SOL    HW220625   1.211   1.035   2.723
 6576SOL     OW20626   1.244   6.272   5.160
 6576SOL    HW120627   1.241   6.235   5.253
 6576SOL    HW220628   1.167   6.237   5.107
 6577SOL     OW20629   6.327   2.369   4.520
 6577SOL    HW120630   6.378   2.339   4.601
 6577SOL    HW220631   6.253   2.305   4.502
 6578SOL     OW20632   6.675   5.372   3.074
 6578SOL    HW120633   6.655   5.350   3.170
 6578SOL    HW220634   6.723   5.295   3.031
 6579SOL     OW20635   0.576   3.774   2.551
 6579SOL    HW120636   0.623   3.723   2.479
 6579SOL    HW220637   0.619   3.756   2.639
 6580SOL     OW20638   6.220   2.485   1.483
 6580SOL    HW120639   6.136   2.514   1.437
 6580SOL    HW220640   6.198   2.446   1.573
 6581SOL     OW20641   2.546   2.189   5.403
 6581SOL    HW120642   2.517   2.111   5.348
 6581SOL    HW220643   2.476   2.260   5.400
 6582SOL     OW20644   0.188   0.245   2.959
 6582SOL    HW120645   0.158   0.252   3.054
 6582SOL    HW220646   0.253   0.318   2.938
 6583SOL     OW20647   5.558   1.589   5.126
 6583SOL    HW120648   5.633   1.526   5.145
 6583SOL    HW220649   5.545   1.596   5.027
 6584SOL     OW20650   5.270   1.749   6.504
 6584SOL    HW120651   5.241   1.792   6.589
 6584SOL    HW220652   5.196   1.753   6.437
 6585SOL     OW20653   2.078   0.902   0.633
 6585SOL    HW120654   2.143   0.843   0.585
 6585SOL    HW220655   2.085   0.995   0.597
 6586SOL     OW20656   0.074   2.185   6.764
 6586SOL    HW120657   0.049   2.093   6.794
 6586SOL    HW220658   0.061   2.250   6.839
 6587SOL     OW20659   2.348   6.773   2.574
 6587SOL    HW120660   2.314   6.790   2.482
 6587SOL    HW220661   2.327   6.680   2.601
 6588SOL     OW20662   2.367   2.936   6.778
 6588SOL    HW120663   2.466   2.933   6.787
 6588SOL    HW220664   2.333   3.028   6.799
 6589SOL     OW20665   4.865   1.694   5.342
 6589SOL    HW120666   4.810   1.683   5.259
 6589SOL    HW220667   4.889   1.604   5.379
 6590SOL     OW20668   6.428   1.338   5.313
 6590SOL    HW120669   6.513   1.382   5.284
 6590SOL    HW220670   6.364   1.335   5.236
 6591SOL     OW20671   5.833   0.915   2.167
 6591SOL    HW120672   5.898   0.867   2.226
 6591SOL    HW220673   5.859   1.012   2.161
 6592SOL     OW20674   5.019   5.616   4.887
 6592SOL    HW120675   5.084   5.653   4.954
 6592SOL    HW220676   5.000   5.684   4.817
 6593SOL     OW20677   4.077   0.931   2.656
 6593SOL    HW120678   4.169   0.960   2.684
 6593SOL    HW220679   4.068   0.939   2.556
 6594SOL     OW20680   5.350   0.584   6.339
 6594SOL    HW120681   5.311   0.611   6.426
 6594SOL    HW220682   5.373   0.665   6.285
 6595SOL     OW20683   1.355   3.615   0.709
 6595SOL    HW120684   1.281   3.668   0.667
 6595SOL    HW220685   1.354   3.628   0.808
 6596SOL     OW20686   3.591   6.698   5.039
 6596SOL    HW120687   3.635   6.611   5.016
 6596SOL    HW220688   3.501   6.680   5.080
 6597SOL     OW20689   6.966   4.774   5.964
 6597SOL    HW120690   0.016   4.792   5.902
 6597SOL    HW220691   6.997   4.786   6.058
 6598SOL     OW20692   1.848   5.946   5.392
 6598SOL    HW120693   1.946   5.932   5.409
 6598SOL    HW220694   1.837   5.996   5.306
 6599SOL     OW20695   4.576   3.762   6.142
 6599SOL    HW120696   4.572   3.798   6.235
 6599SOL    HW220697   4.664   3.715   6.128
 6600SOL     OW20698   4.531   5.954   4.469
 6600SOL    HW120699   4.557   6.008   4.389
 6600SOL    HW220700   4.534   5.856   4.445
 6601SOL     OW20701   1.125   0.232   1.486
 6601SOL    HW120702   1.111   0.282   1.401
 6601SOL    HW220703   1.103   0.291   1.564
 6602SOL     OW20704   6.585   1.770   1.382
 6602SOL    HW120705   6.636   1.695   1.425
 6602SOL    HW220706   6.507   1.731   1.331
 6603SOL     OW20707   2.165   2.807   2.975
 6603SOL    HW120708   2.179   2.905   2.965
 6603SOL    HW220709   2.240   2.768   3.029
 6604SOL     OW20710   3.707   6.082   3.271
 6604SOL    HW120711   3.731   6.169   3.314
 6604SOL    HW220712   3.739   6.007   3.328
 6605SOL     OW20713   5.914   6.516   0.040
 6605SOL    HW120714   5.919   6.445   0.110
 6605SOL    HW220715   6.000   6.517   7.014
 6606SOL     OW20716   6.000   1.396   2.753
 6606SOL    HW120717   6.098   1.399   2.733
 6606SOL    HW220718   5.986   1.350   2.841
 6607SOL     OW20719   1.087   2.387   3.452
 6607SOL    HW120720   1.178   2.421   3.474
 6607SOL    HW220721   1.040   2.455   3.395
 6608SOL     OW20722   5.433   3.685   4.620
 6608SOL    HW120723   5.474   3.596   4.640
 6608SOL    HW220724   5.498   3.741   4.569
 6609SOL     OW20725   5.562   1.942   6.551
 6609SOL    HW120726   5.480   1.903   6.510
 6609SOL    HW220727   5.643   1.895   6.516
 6610SOL     OW20728   2.783   1.164   0.194
 6610SOL    HW120729   2.840   1.195   0.118
 6610SOL    HW220730   2.763   1.241   0.254
 6611SOL     OW20731   5.681   3.228   2.796
 6611SOL    HW120732   5.729   3.154   2.841
 6611SOL    HW220733   5.671   3.208   2.698
 6612SOL     OW20734   1.414   6.031   6.466
 6612SOL    HW120735   1.469   5.978   6.402
 6612SOL    HW220736   1.391   5.974   6.545
 6613SOL     OW20737   5.037   5.299   1.426
 6613SOL    HW120738   5.009   5.345   1.510
 6613SOL    HW220739   5.029   5.200   1.438
 6614SOL     OW20740   5.155   6.136   5.894
 6614SOL    HW120741   5.180   6.155   5.989
 6614SOL    HW220742   5.236   6.108   5.843
 6615SOL     OW20743   0.981   4.368   5.545
 6615SOL    HW120744   1.021   4.441   5.490
 6615SOL    HW220745   0.896   4.338   5.503
 6616SOL     OW20746   4.461   0.440   4.715
 6616SOL    HW120747   4.409   0.514   4.672
 6616SOL    HW220748   4.505   0.385   4.645
 6617SOL     OW20749   4.925   0.078   4.855
 6617SOL    HW120750   4.951   0.006   4.918
 6617SOL    HW220751   4.882   0.038   4.774
 6618SOL     OW20752   0.962   4.579   1.636
 6618SOL    HW120753   1.061   4.592   1.643
 6618SOL    HW220754   0.929   4.526   1.714
 6619SOL     OW20755   5.987   6.106   2.327
 6619SOL    HW120756   5.966   6.009   2.328
 6619SOL    HW220757   5.925   6.154   2.265
 6620SOL     OW20758   3.684   2.894   5.783
 6620SOL    HW120759   3.741   2.917   5.705
 6620SOL    HW220760   3.673   2.975   5.841
 6621SOL     OW20761   2.763   3.988   0.163
 6621SOL    HW120762   2.746   4.084   0.142
 6621SOL    HW220763   2.676   3.942   0.179
 6622SOL     OW20764   6.178   6.824   0.166
 6622SOL    HW120765   6.217   6.914   0.144
 6622SOL    HW220766   6.109   6.833   0.237
 6623SOL     OW20767   3.610   3.771   2.612
 6623SOL    HW120768   3.681   3.806   2.675
 6623SOL    HW220769   3.641   3.782   2.518
 6624SOL     OW20770   4.344   4.962   4.194
 6624SOL    HW120771   4.376   5.027   4.124
 6624SOL    HW220772   4.401   4.970   4.275
 6625SOL     OW20773   6.025   0.471   0.207
 6625SOL    HW120774   5.928   0.452   0.189
 6625SOL    HW220775   6.069   0.503   0.123
 6626SOL     OW20776   3.408   4.900   3.713
 6626SOL    HW120777   3.420   4.998   3.696
 6626SOL    HW220778   3.409   4.883   3.811
 6627SOL     OW20779   2.102   6.281   1.554
 6627SOL    HW120780   2.080   6.215   1.626
 6627SOL    HW220781   2.202   6.291   1.547
 6628SOL     OW20782   4.097   6.069   3.301
 6628SOL    HW120783   4.038   6.100   3.227
 6628SOL    HW220784   4.113   6.144   3.365
 6629SOL     OW20785   3.281   4.333   0.425
 6629SOL    HW120786   3.226   4.262   0.469
 6629SOL    HW220787   3.339   4.292   0.355
 6630SOL     OW20788   2.957   2.439   5.767
 6630SOL    HW120789   2.907   2.494   5.702
 6630SOL    HW220790   2.955   2.482   5.857
 6631SOL     OW20791   4.026   0.739   2.185
 6631SOL    HW120792   3.934   0.738   2.148
 6631SOL    HW220793   4.037   0.665   2.251
 6632SOL     OW20794   6.831   2.529   2.425
 6632SOL    HW120795   6.856   2.432   2.424
 6632SOL    HW220796   6.851   2.568   2.515
 6633SOL     OW20797   0.368   6.892   1.034
 6633SOL    HW120798   0.316   6.919   1.115
 6633SOL    HW220799   0.454   6.850   1.061
 6634SOL     OW20800   0.090   3.031   6.357
 6634SOL    HW120801   0.035   3.024   6.441
 6634SOL    HW220802   0.119   2.939   6.329
 6635SOL     OW20803   4.290   4.631   3.529
 6635SOL    HW120804   4.255   4.537   3.531
 6635SOL    HW220805   4.237   4.686   3.466
 6636SOL     OW20806   1.395   2.732   3.847
 6636SOL    HW120807   1.450   2.662   3.894
 6636SOL    HW220808   1.390   2.710   3.750
 6637SOL     OW20809   6.821   1.028   1.578
 6637SOL    HW120810   6.879   1.044   1.498
 6637SOL    HW220811   6.740   1.086   1.573
 6638SOL     OW20812   2.528   6.008   6.378
 6638SOL    HW120813   2.502   5.979   6.470
 6638SOL    HW220814   2.463   6.078   6.346
 6639SOL     OW20815   5.407   5.607   6.755
 6639SOL    HW120816   5.321   5.645   6.788
 6639SOL    HW220817   5.477   5.616   6.827
 6640SOL     OW20818   6.166   3.121   3.527
 6640SOL    HW120819   6.110   3.048   3.489
 6640SOL    HW220820   6.262   3.091   3.532
 6641SOL     OW20821   1.873   4.219   6.833
 6641SOL    HW120822   1.803   4.148   6.846
 6641SOL    HW220823   1.958   4.191   6.877
 6642SOL     OW20824   0.140   6.373   0.076
 6642SOL    HW120825   0.172   6.465   0.100
 6642SOL    HW220826   0.185   6.305   0.133
 6643SOL     OW20827   4.434   5.434   0.062
 6643SOL    HW120828   4.446   5.522   0.016
 6643SOL    HW220829   4.351   5.390   0.028
 6644SOL     OW20830   2.818   4.847   2.141
 6644SOL    HW120831   2.796   4.921   2.077
 6644SOL    HW220832   2.824   4.760   2.092
 6645SOL     OW20833   6.380   5.078   4.895
 6645SOL    HW120834   6.423   5.061   4.983
 6645SOL    HW220835   6.449   5.074   4.823
 6646SOL     OW20836   1.749   5.990   3.475
 6646SOL    HW120837   1.703   5.904   3.496
 6646SOL    HW220838   1.848   5.977   3.483
 6647SOL     OW20839   3.674   2.090   2.224
 6647SOL    HW120840   3.662   2.090   2.125
 6647SOL    HW220841   3.593   2.129   2.268
 6648SOL     OW20842   4.943   6.039   2.405
 6648SOL    HW120843   4.999   6.039   2.323
 6648SOL    HW220844   4.877   6.115   2.400
 6649SOL     OW20845   3.552   2.073   6.345
 6649SOL    HW120846   3.523   2.151   6.290
 6649SOL    HW220847   3.513   2.080   6.437
 6650SOL     OW20848   3.009   2.202   3.229
 6650SOL    HW120849   2.961   2.224   3.144
 6650SOL    HW220850   3.077   2.131   3.211
 6651SOL     OW20851   1.176   2.716   0.120
 6651SOL    HW120852   1.187   2.815   0.122
 6651SOL    HW220853   1.218   2.680   0.036
 6652SOL     OW20854   0.274   5.145   3.052
 6652SOL    HW120855   0.185   5.174   3.088
 6652SOL    HW220856   0.331   5.111   3.127
 6653SOL     OW20857   3.003   3.481   3.453
 6653SOL    HW120858   2.966   3.527   3.373
 6653SOL    HW220859   2.928   3.442   3.507
 6654SOL     OW20860   2.165   3.523   1.671
 6654SOL    HW120861   2.085   3.476   1.709
 6654SOL    HW220862   2.239   3.522   1.739
 6655SOL     OW20863   2.051   0.428   0.669
 6655SOL    HW120864   2.115   0.397   0.740
 6655SOL    HW220865   2.087   0.511   0.626
 6656SOL     OW20866   6.617   2.258   1.347
 6656SOL    HW120867   6.635   2.199   1.269
 6656SOL    HW220868   6.651   2.215   1.430
 6657SOL     OW20869   2.683   5.551   5.947
 6657SOL    HW120870   2.701   5.649   5.959
 6657SOL    HW220871   2.664   5.510   6.036
 6658SOL     OW20872   4.973   0.711   5.895
 6658SOL    HW120873   4.897   0.730   5.957
 6658SOL    HW220874   5.033   0.791   5.889
 6659SOL     OW20875   1.073   3.284   6.457
 6659SOL    HW120876   1.059   3.250   6.364
 6659SOL    HW220877   1.127   3.217   6.509
 6660SOL     OW20878   0.278   6.836   3.310
 6660SOL    HW120879   0.367   6.827   3.265
 6660SOL    HW220880   0.217   6.890   3.253
 6661SOL     OW20881   0.043   5.900   3.689
 6661SOL    HW120882   0.052   5.804   3.664
 6661SOL    HW220883   0.126   5.950   3.663
 6662SOL     OW20884   0.706   3.574   5.851
 6662SOL    HW120885   0.730   3.617   5.938
 6662SOL    HW220886   0.773   3.601   5.781
 6663SOL     OW20887   0.182   5.889   1.903
 6663SOL    HW120888   0.111   5.858   1.966
 6663SOL    HW220889   0.271   5.884   1.949
 6664SOL     OW20890   0.954   1.708   3.139
 6664SOL    HW120891   0.979   1.629   3.083
 6664SOL    HW220892   1.026   1.724   3.207
 6665SOL     OW20893   2.828   6.664   2.478
 6665SOL    HW120894   2.895   6.696   2.545
 6665SOL    HW220895   2.872   6.601   2.414
 6666SOL     OW20896   6.254   0.022   0.499
 6666SOL    HW120897   6.204   0.087   0.442
 6666SOL    HW220898   6.340   7.023   0.454
 6667SOL     OW20899   6.870   5.767   4.402
 6667SOL    HW120900   6.956   5.742   4.357
 6667SOL    HW220901   6.795   5.713   4.364
 6668SOL     OW20902   0.526   5.815   1.903
 6668SOL    HW120903   0.565   5.905   1.920
 6668SOL    HW220904   0.492   5.810   1.809
 6669SOL     OW20905   1.646   5.359   2.759
 6669SOL    HW120906   1.742   5.332   2.751
 6669SOL    HW220907   1.620   5.363   2.856
 6670SOL     OW20908   3.408   4.709   0.549
 6670SOL    HW120909   3.403   4.670   0.458
 6670SOL    HW220910   3.444   4.641   0.613
 6671SOL     OW20911   0.235   2.423   5.261
 6671SOL    HW120912   0.292   2.485   5.315
 6671SOL    HW220913   0.249   2.329   5.292
 6672SOL     OW20914   1.585   0.754   5.304
 6672SOL    HW120915   1.528   0.793   5.377
 6672SOL    HW220916   1.539   0.767   5.216
 6673SOL     OW20917   4.953   4.776   1.412
 6673SOL    HW120918   5.019   4.712   1.451
 6673SOL    HW220919   4.861   4.736   1.417
 6674SOL     OW20920   1.040   0.033   4.236
 6674SOL    HW120921   0.987   0.009   4.317
 6674SOL    HW220922   1.106   6.986   4.216
 6675SOL     OW20923   6.505   5.960   0.522
 6675SOL    HW120924   6.566   5.886   0.552
 6675SOL    HW220925   6.444   5.926   0.451
 6676SOL     OW20926   1.120   2.603   6.638
 6676SOL    HW120927   1.166   2.640   6.557
 6676SOL    HW220928   1.021   2.603   6.623
 6677SOL     OW20929   6.745   4.120   0.242
 6677SOL    HW120930   6.753   4.212   0.205
 6677SOL    HW220931   6.710   4.125   0.336
 6678SOL     OW20932   1.123   2.948   5.136
 6678SOL    HW120933   1.078   3.026   5.093
 6678SOL    HW220934   1.196   2.915   5.076
 6679SOL     OW20935   1.777   2.230   4.470
 6679SOL    HW120936   1.714   2.307   4.480
 6679SOL    HW220937   1.828   2.239   4.385
 6680SOL     OW20938   2.420   6.683   6.762
 6680SOL    HW120939   2.422   6.592   6.721
 6680SOL    HW220940   2.458   6.679   6.854
 6681SOL     OW20941   5.822   5.402   0.406
 6681SOL    HW120942   5.882   5.428   0.482
 6681SOL    HW220943   5.863   5.429   0.320
 6682SOL     OW20944   0.101   5.979   2.612
 6682SOL    HW120945   0.029   5.993   2.544
 6682SOL    HW220946   0.068   5.921   2.686
 6683SOL     OW20947   5.259   1.630   3.936
 6683SOL    HW120948   5.166   1.606   3.964
 6683SOL    HW220949   5.267   1.729   3.928
 6684SOL     OW20950   2.372   6.961   2.116
 6684SOL    HW120951   2.431   0.016   2.126
 6684SOL    HW220952   2.280   6.991   2.090
 6685SOL     OW20953   4.894   3.324   6.330
 6685SOL    HW120954   4.839   3.281   6.403
 6685SOL    HW220955   4.979   3.274   6.319
 6686SOL     OW20956   5.805   4.258   4.103
 6686SOL    HW120957   5.719   4.215   4.129
 6686SOL    HW220958   5.798   4.293   4.010
 6687SOL     OW20959   1.277   1.378   0.379
 6687SOL    HW120960   1.356   1.318   0.369
 6687SOL    HW220961   1.308   1.471   0.395
 6688SOL     OW20962   0.581   4.715   3.256
 6688SOL    HW120963   0.607   4.634   3.307
 6688SOL    HW220964   0.649   4.787   3.271
 6689SOL     OW20965   4.719   5.210   6.956
 6689SOL    HW120966   4.801   5.186   7.007
 6689SOL    HW220967   4.723   5.307   6.931
 6690SOL     OW20968   1.679   2.227   0.814
 6690SOL    HW120969   1.653   2.259   0.905
 6690SOL    HW220970   1.714   2.133   0.820
 6691SOL     OW20971   2.028   5.370   1.002
 6691SOL    HW120972   2.111   5.348   1.053
 6691SOL    HW220973   1.979   5.285   0.980
 6692SOL     OW20974   3.239   4.110   6.005
 6692SOL    HW120975   3.246   4.143   5.911
 6692SOL    HW220976   3.331   4.100   6.043
 6693SOL     OW20977   3.655   4.110   4.851
 6693SOL    HW120978   3.577   4.158   4.891
 6693SOL    HW220979   3.642   4.101   4.752
 6694SOL     OW20980   2.837   6.630   0.422
 6694SOL    HW120981   2.776   6.695   0.376
 6694SOL    HW220982   2.826   6.638   0.521
 6695SOL     OW20983   1.410   1.650   6.890
 6695SOL    HW120984   1.503   1.640   6.854
 6695SOL    HW220985   1.358   1.567   6.871
 6696SOL     OW20986   2.001   3.370   1.987
 6696SOL    HW120987   2.085   3.423   1.992
 6696SOL    HW220988   1.960   3.380   1.896
 6697SOL     OW20989   5.154   1.368   2.978
 6697SOL    HW120990   5.090   1.442   2.999
 6697SOL    HW220991   5.238   1.382   3.029
 6698SOL     OW20992   3.995   3.737   0.608
 6698SOL    HW120993   3.995   3.739   0.708
 6698SOL    HW220994   3.974   3.644   0.576
 6699SOL     OW20995   1.245   3.529   0.014
 6699SOL    HW120996   1.339   3.499   0.001
 6699SOL    HW220997   1.224   3.604   6.976
 6700SOL     OW20998   6.117   6.651   6.591
 6700SOL    HW120999   6.212   6.658   6.561
 6700SOL    HW221000   6.063   6.606   6.520
 6701SOL     OW21001   0.943   2.442   0.654
 6701SOL    HW121002   0.993   2.527   0.641
 6701SOL    HW221003   0.999   2.377   0.705
 6702SOL     OW21004   2.063   2.387   1.239
 6702SOL    HW121005   2.133   2.442   1.192
 6702SOL    HW221006   2.062   2.295   1.201
 6703SOL     OW21007   0.421   2.274   6.491
 6703SOL    HW121008   0.512   2.237   6.475
 6703SOL    HW221009   0.391   2.252   6.583
 6704SOL     OW21010   5.416   1.986   3.220
 6704SOL    HW121011   5.343   2.050   3.198
 6704SOL    HW221012   5.504   2.028   3.201
 6705SOL     OW21013   6.085   1.313   0.438
 6705SOL    HW121014   6.014   1.259   0.393
 6705SOL    HW221015   6.152   1.343   0.371
 6706SOL     OW21016   0.478   5.123   6.351
 6706SOL    HW121017   0.543   5.088   6.418
 6706SOL    HW221018   0.433   5.047   6.305
 6707SOL     OW21019   1.478   5.989   2.067
 6707SOL    HW121020   1.476   5.905   2.013
 6707SOL    HW221021   1.573   6.020   2.076
 6708SOL     OW21022   2.179   6.112   1.145
 6708SOL    HW121023   2.186   6.086   1.241
 6708SOL    HW221024   2.082   6.122   1.120
 6709SOL     OW21025   5.676   1.191   2.765
 6709SOL    HW121026   5.685   1.124   2.839
 6709SOL    HW221027   5.591   1.242   2.777
 6710SOL     OW21028   2.451   2.601   1.336
 6710SOL    HW121029   2.519   2.528   1.335
 6710SOL    HW221030   2.389   2.590   1.258
 6711SOL     OW21031   3.907   3.808   0.170
 6711SOL    HW121032   3.902   3.872   0.093
 6711SOL    HW221033   3.954   3.852   0.247
 6712SOL     OW21034   3.501   5.827   0.872
 6712SOL    HW121035   3.489   5.912   0.822
 6712SOL    HW221036   3.504   5.845   0.970
 6713SOL     OW21037   1.911   1.440   1.933
 6713SOL    HW121038   1.899   1.365   1.867
 6713SOL    HW221039   1.969   1.409   2.009
 6714SOL     OW21040   6.730   0.264   3.702
 6714SOL    HW121041   6.728   0.360   3.675
 6714SOL    HW221042   6.817   0.244   3.747
 6715SOL     OW21043   0.526   2.028   0.973
 6715SOL    HW121044   0.456   2.092   1.001
 6715SOL    HW221045   0.512   2.003   0.877
 6716SOL     OW21046   2.676   5.457   0.411
 6716SOL    HW121047   2.738   5.386   0.444
 6716SOL    HW221048   2.696   5.477   0.315
 6717SOL     OW21049   3.728   1.718   6.373
 6717SOL    HW121050   3.827   1.728   6.378
 6717SOL    HW221051   3.705   1.623   6.352
 6718SOL     OW21052   3.544   0.096   0.147
 6718SOL    HW121053   3.519   0.188   0.115
 6718SOL    HW221054   3.483   0.029   0.105
 6719SOL     OW21055   0.571   0.372   5.145
 6719SOL    HW121056   0.530   0.310   5.212
 6719SOL    HW221057   0.552   0.339   5.052
 6720SOL     OW21058   2.044   4.800   1.717
 6720SOL    HW121059   2.001   4.712   1.736
 6720SOL    HW221060   2.111   4.789   1.643
 6721SOL     OW21061   6.659   6.474   3.659
 6721SOL    HW121062   6.727   6.512   3.596
 6721SOL    HW221063   6.697   6.394   3.705
 6722SOL     OW21064   4.866   4.055   6.928
 6722SOL    HW121065   4.956   4.090   6.902
 6722SOL    HW221066   4.800   4.077   6.856
 6723SOL     OW21067   4.093   6.904   1.816
 6723SOL    HW121068   4.071   6.994   1.780
 6723SOL    HW221069   4.062   6.897   1.911
 6724SOL     OW21070   3.386   4.551   5.329
 6724SOL    HW121071   3.391   4.566   5.428
 6724SOL    HW221072   3.370   4.455   5.310
 6725SOL     OW21073   0.626   4.718   2.611
 6725SOL    HW121074   0.571   4.647   2.655
 6725SOL    HW221075   0.687   4.677   2.544
 6726SOL     OW21076   2.376   2.550   2.293
 6726SOL    HW121077   2.347   2.460   2.260
 6726SOL    HW221078   2.413   2.603   2.217
 6727SOL     OW21079   3.882   4.017   7.005
 6727SOL    HW121080   3.948   4.092   6.999
 6727SOL    HW221081   3.852   3.991   6.914
 6728SOL     OW21082   4.724   1.162   3.925
 6728SOL    HW121083   4.808   1.197   3.884
 6728SOL    HW221084   4.646   1.187   3.867
 6729SOL     OW21085   6.260   6.422   2.956
 6729SOL    HW121086   6.328   6.444   3.025
 6729SOL    HW221087   6.291   6.454   2.867
 6730SOL     OW21088   1.311   0.012   1.249
 6730SOL    HW121089   1.331   6.949   1.291
 6730SOL    HW221090   1.371   0.082   1.288
 6731SOL     OW21091   2.299   4.800   2.012
 6731SOL    HW121092   2.216   4.788   2.067
 6731SOL    HW221093   2.356   4.718   2.020
 6732SOL     OW21094   1.483   4.847   0.952
 6732SOL    HW121095   1.562   4.787   0.960
 6732SOL    HW221096   1.512   4.937   0.922
 6733SOL     OW21097   5.526   5.847   5.614
 6733SOL    HW121098   5.542   5.932   5.565
 6733SOL    HW221099   5.530   5.770   5.550
 6734SOL     OW21100   2.523   3.630   5.360
 6734SOL    HW121101   2.472   3.548   5.387
 6734SOL    HW221102   2.461   3.707   5.351
 6735SOL     OW21103   6.990   5.259   6.255
 6735SOL    HW121104   6.982   5.317   6.336
 6735SOL    HW221105   6.904   5.211   6.241
 6736SOL     OW21106   2.048   3.517   2.447
 6736SOL    HW121107   2.090   3.554   2.364
 6736SOL    HW221108   2.106   3.444   2.483
 6737SOL     OW21109   2.150   0.836   1.155
 6737SOL    HW121110   2.121   0.740   1.158
 6737SOL    HW221111   2.121   0.877   1.069
 6738SOL     OW21112   3.997   1.262   2.462
 6738SOL    HW121113   4.074   1.325   2.450
 6738SOL    HW221114   3.916   1.314   2.489
 6739SOL     OW21115   4.380   0.007   4.752
 6739SOL    HW121116   4.434   0.060   4.817
 6739SOL    HW221117   4.322   6.967   4.802
 6740SOL     OW21118   5.884   3.006   4.583
 6740SOL    HW121119   5.850   2.931   4.639
 6740SOL    HW221120   5.813   3.077   4.576
 6741SOL     OW21121   6.665   6.966   5.590
 6741SOL    HW121122   6.741   6.920   5.542
 6741SOL    HW221123   6.605   7.008   5.523
 6742SOL     OW21124   6.299   6.033   5.758
 6742SOL    HW121125   6.373   5.965   5.763
 6742SOL    HW221126   6.214   5.992   5.788
 6743SOL     OW21127   4.778   3.343   0.714
 6743SOL    HW121128   4.740   3.411   0.777
 6743SOL    HW221129   4.749   3.364   0.621
 6744SOL     OW21130   5.367   5.460   5.671
 6744SOL    HW121131   5.462   5.489   5.658
 6744SOL    HW221132   5.353   5.371   5.629
 6745SOL     OW21133   0.408   3.813   3.758
 6745SOL    HW121134   0.484   3.877   3.741
 6745SOL    HW221135   0.430   3.724   3.719
 6746SOL     OW21136   6.687   1.319   1.248
 6746SOL    HW121137   6.686   1.247   1.318
 6746SOL    HW221138   6.598   1.365   1.248
 6747SOL     OW21139   5.299   6.364   6.125
 6747SOL    HW121140   5.291   6.455   6.164
 6747SOL    HW221141   5.391   6.352   6.087
 6748SOL     OW21142   0.053   6.433   1.933
 6748SOL    HW121143   0.082   6.470   1.845
 6748SOL    HW221144   7.018   6.354   1.918
 6749SOL     OW21145   3.325   5.638   0.853
 6749SOL    HW121146   3.348   5.577   0.928
 6749SOL    HW221147   3.390   5.714   0.850
 6750SOL     OW21148   2.489   3.279   5.413
 6750SOL    HW121149   2.429   3.336   5.357
 6750SOL    HW221150   2.492   3.186   5.376
 6751SOL     OW21151   3.235   2.216   5.544
 6751SOL    HW121152   3.142   2.184   5.524
 6751SOL    HW221153   3.287   2.221   5.459
 6752SOL     OW21154   6.369   2.271   0.385
 6752SOL    HW121155   6.413   2.345   0.436
 6752SOL    HW221156   6.270   2.275   0.400
 6753SOL     OW21157   5.587   1.161   6.110
 6753SOL    HW121158   5.586   1.070   6.067
 6753SOL    HW221159   5.544   1.155   6.201
 6754SOL     OW21160   5.062   1.314   0.408
 6754SOL    HW121161   5.074   1.247   0.335
 6754SOL    HW221162   5.023   1.398   0.370
 6755SOL     OW21163   5.455   1.345   2.837
 6755SOL    HW121164   5.451   1.417   2.907
 6755SOL    HW221165   5.365   1.337   2.794
 6756SOL     OW21166   4.978   4.452   3.499
 6756SOL    HW121167   5.027   4.528   3.457
 6756SOL    HW221168   4.896   4.488   3.544
 6757SOL     OW21169   5.144   4.893   2.287
 6757SOL    HW121170   5.241   4.876   2.273
 6757SOL    HW221171   5.127   4.991   2.293
 6758SOL     OW21172   6.181   1.912   2.956
 6758SOL    HW121173   6.213   1.820   2.933
 6758SOL    HW221174   6.248   1.957   3.015
 6759SOL     OW21175   0.978   4.307   3.285
 6759SOL    HW121176   1.003   4.252   3.205
 6759SOL    HW221177   1.058   4.354   3.321
 6760SOL     OW21178   0.200   4.346   5.069
 6760SOL    HW121179   0.179   4.291   5.150
 6760SOL    HW221180   0.299   4.353   5.059
 6761SOL     OW21181   6.044   3.407   6.596
 6761SOL    HW121182   6.073   3.464   6.673
 6761SOL    HW221183   5.983   3.460   6.536
 6762SOL     OW21184   5.694   4.763   3.487
 6762SOL    HW121185   5.629   4.837   3.475
 6762SOL    HW221186   5.774   4.779   3.429
 6763SOL     OW21187   6.096   6.366   5.349
 6763SOL    HW121188   6.004   6.400   5.329
 6763SOL    HW221189   6.101   6.268   5.329
 6764SOL     OW21190   2.256   3.278   0.332
 6764SOL    HW121191   2.341   3.328   0.348
 6764SOL    HW221192   2.190   3.300   0.404
 6765SOL     OW21193   5.125   5.092   2.822
 6765SOL    HW121194   5.039   5.140   2.802
 6765SOL    HW221195   5.199   5.159   2.830
 6766SOL     OW21196   1.470   1.824   5.397
 6766SOL    HW121197   1.471   1.762   5.475
 6766SOL    HW221198   1.498   1.774   5.315
 6767SOL     OW21199   0.959   2.737   5.553
 6767SOL    HW121200   0.920   2.812   5.607
 6767SOL    HW221201   0.986   2.662   5.615
 6768SOL     OW21202   0.451   0.197   5.326
 6768SOL    HW121203   0.464   0.222   5.422
 6768SOL    HW221204   0.355   0.175   5.310
 6769SOL     OW21205   0.936   2.820   6.885
 6769SOL    HW121206   0.934   2.822   6.785
 6769SOL    HW221207   1.031   2.831   6.916
 6770SOL     OW21208   6.615   1.173   4.185
 6770SOL    HW121209   6.596   1.246   4.250
 6770SOL    HW221210   6.707   1.136   4.202
 6771SOL     OW21211   4.290   1.819   2.139
 6771SOL    HW121212   4.378   1.780   2.109
 6771SOL    HW221213   4.299   1.853   2.232
 6772SOL     OW21214   1.254   0.870   1.599
 6772SOL    HW121215   1.215   0.925   1.525
 6772SOL    HW221216   1.333   0.917   1.639
 6773SOL     OW21217   1.095   0.624   1.909
 6773SOL    HW121218   1.167   0.584   1.966
 6773SOL    HW221219   1.005   0.595   1.943
 6774SOL     OW21220   2.899   1.075   5.989
 6774SOL    HW121221   2.993   1.085   5.955
 6774SOL    HW221222   2.862   1.166   6.011
 6775SOL     OW21223   1.571   3.695   5.011
 6775SOL    HW121224   1.578   3.631   5.087
 6775SOL    HW221225   1.644   3.762   5.017
 6776SOL     OW21226   2.985   3.826   3.096
 6776SOL    HW121227   2.998   3.893   3.023
 6776SOL    HW221228   3.038   3.743   3.075
 6777SOL     OW21229   0.422   6.988   6.345
 6777SOL    HW121230   0.433   6.980   6.246
 6777SOL    HW221231   0.444   0.056   6.374
 6778SOL     OW21232   6.550   6.069   2.512
 6778SOL    HW121233   6.505   6.129   2.445
 6778SOL    HW221234   6.503   5.981   2.515
 6779SOL     OW21235   4.549   4.622   6.771
 6779SOL    HW121236   4.548   4.720   6.793
 6779SOL    HW221237   4.499   4.572   6.841
 6780SOL     OW21238   3.948   0.890   2.932
 6780SOL    HW121239   3.971   0.964   2.869
 6780SOL    HW221240   3.899   0.927   3.011
 6781SOL     OW21241   6.365   2.666   3.182
 6781SOL    HW121242   6.361   2.710   3.271
 6781SOL    HW221243   6.293   2.596   3.176
 6782SOL     OW21244   0.458   1.495   3.197
 6782SOL    HW121245   0.501   1.537   3.276
 6782SOL    HW221246   0.495   1.535   3.113
 6783SOL     OW21247   0.460   6.212   6.152
 6783SOL    HW121248   0.510   6.162   6.223
 6783SOL    HW221249   0.468   6.162   6.066
 6784SOL     OW21250   1.729   4.603   0.972
 6784SOL    HW121251   1.776   4.601   0.884
 6784SOL    HW221252   1.641   4.557   0.963
 6785SOL     OW21253   5.551   4.949   3.103
 6785SOL    HW121254   5.503   4.863   3.091
 6785SOL    HW221255   5.567   4.991   3.014
 6786SOL     OW21256   6.397   2.070   5.980
 6786SOL    HW121257   6.407   2.037   5.886
 6786SOL    HW221258   6.324   2.019   6.026
 6787SOL     OW21259   3.048   1.328   0.646
 6787SOL    HW121260   2.961   1.377   0.656
 6787SOL    HW221261   3.044   1.269   0.566
 6788SOL     OW21262   0.680   4.319   1.510
 6788SOL    HW121263   0.594   4.293   1.554
 6788SOL    HW221264   0.755   4.269   1.552
 6789SOL     OW21265   5.999   4.464   2.602
 6789SOL    HW121266   5.932   4.520   2.651
 6789SOL    HW221267   6.082   4.457   2.657
 6790SOL     OW21268   0.758   6.165   1.371
 6790SOL    HW121269   0.842   6.214   1.348
 6790SOL    HW221270   0.683   6.199   1.314
 6791SOL     OW21271   2.602   6.215   3.818
 6791SOL    HW121272   2.564   6.297   3.861
 6791SOL    HW221273   2.702   6.220   3.818
 6792SOL     OW21274   3.282   6.653   6.417
 6792SOL    HW121275   3.204   6.604   6.377
 6792SOL    HW221276   3.366   6.601   6.403
 6793SOL     OW21277   2.474   3.659   5.936
 6793SOL    HW121278   2.385   3.662   5.980
 6793SOL    HW221279   2.515   3.750   5.936
 6794SOL     OW21280   5.086   2.494   4.416
 6794SOL    HW121281   5.037   2.553   4.351
 6794SOL    HW221282   5.023   2.423   4.450
 6795SOL     OW21283   0.591   0.679   1.488
 6795SOL    HW121284   0.556   0.722   1.571
 6795SOL    HW221285   0.688   0.658   1.500
 6796SOL     OW21286   6.900   2.250   2.427
 6796SOL    HW121287   6.977   2.255   2.490
 6796SOL    HW221288   6.819   2.217   2.477
 6797SOL     OW21289   1.505   3.002   1.035
 6797SOL    HW121290   1.593   3.005   0.986
 6797SOL    HW221291   1.518   3.033   1.129
 6798SOL     OW21292   4.825   1.459   1.742
 6798SOL    HW121293   4.726   1.463   1.728
 6798SOL    HW221294   4.846   1.481   1.837
 6799SOL     OW21295   6.643   0.221   2.784
 6799SOL    HW121296   6.616   0.265   2.698
 6799SOL    HW221297   6.699   0.141   2.764
 6800SOL     OW21298   6.796   3.019   1.999
 6800SOL    HW121299   6.865   3.039   1.929
 6800SOL    HW221300   6.728   2.956   1.963
 6801SOL     OW21301   1.898   5.633   5.839
 6801SOL    HW121302   1.883   5.709   5.777
 6801SOL    HW221303   1.810   5.596   5.869
 6802SOL     OW21304   3.079   4.803   1.954
 6802SOL    HW121305   3.040   4.723   1.999
 6802SOL    HW221306   3.006   4.866   1.928
 6803SOL     OW21307   5.473   5.133   6.846
 6803SOL    HW121308   5.388   5.096   6.808
 6803SOL    HW221309   5.470   5.124   6.946
 6804SOL     OW21310   3.271   5.818   2.375
 6804SOL    HW121311   3.321   5.786   2.294
 6804SOL    HW221312   3.278   5.750   2.447
 6805SOL     OW21313   0.722   4.235   4.164
 6805SOL    HW121314   0.689   4.299   4.233
 6805SOL    HW221315   0.657   4.233   4.087
 6806SOL     OW21316   5.831   3.401   2.507
 6806SOL    HW121317   5.900   3.407   2.580
 6806SOL    HW221318   5.875   3.372   2.423
 6807SOL     OW21319   2.967   3.725   2.240
 6807SOL    HW121320   2.952   3.734   2.142
 6807SOL    HW221321   2.914   3.647   2.275
 6808SOL     OW21322   3.704   0.415   3.357
 6808SOL    HW121323   3.752   0.404   3.270
 6808SOL    HW221324   3.764   0.464   3.421
 6809SOL     OW21325   5.758   2.816   0.662
 6809SOL    HW121326   5.691   2.794   0.591
 6809SOL    HW221327   5.850   2.816   0.622
 6810SOL     OW21328   2.849   0.937   5.066
 6810SOL    HW121329   2.865   1.008   4.998
 6810SOL    HW221330   2.886   0.850   5.032
 6811SOL     OW21331   6.883   1.692   1.334
 6811SOL    HW121332   6.826   1.644   1.400
 6811SOL    HW221333   6.826   1.753   1.279
 6812SOL     OW21334   3.405   4.304   5.500
 6812SOL    HW121335   3.396   4.242   5.422
 6812SOL    HW221336   3.316   4.315   5.544
 6813SOL     OW21337   6.970   4.225   2.186
 6813SOL    HW121338   7.002   4.132   2.205
 6813SOL    HW221339   0.012   4.291   2.220
 6814SOL     OW21340   5.478   1.398   1.160
 6814SOL    HW121341   5.441   1.392   1.253
 6814SOL    HW221342   5.498   1.493   1.139
 6815SOL     OW21343   0.659   6.002   6.777
 6815SOL    HW121344   0.732   5.965   6.719
 6815SOL    HW221345   0.675   6.100   6.791
 6816SOL     OW21346   6.871   6.996   4.024
 6816SOL    HW121347   6.802   0.002   4.089
 6816SOL    HW221348   6.957   0.019   4.042
 6817SOL     OW21349   4.809   1.729   1.883
 6817SOL    HW121350   4.823   1.740   1.981
 6817SOL    HW221351   4.885   1.676   1.844
 6818SOL     OW21352   1.326   0.236   5.147
 6818SOL    HW121353   1.228   0.251   5.134
 6818SOL    HW221354   1.347   0.234   5.244
 6819SOL     OW21355   4.969   4.084   1.429
 6819SOL    HW121356   4.943   4.107   1.523
 6819SOL    HW221357   5.052   4.134   1.404
 6820SOL     OW21358   2.641   4.900   1.717
 6820SOL    HW121359   2.636   4.987   1.767
 6820SOL    HW221360   2.603   4.828   1.774
 6821SOL     OW21361   2.580   2.785   6.023
 6821SOL    HW121362   2.518   2.857   6.054
 6821SOL    HW221363   2.638   2.821   5.950
 6822SOL     OW21364   6.305   3.470   5.483
 6822SOL    HW121365   6.213   3.443   5.513
 6822SOL    HW221366   6.315   3.569   5.493
 6823SOL     OW21367   0.129   2.878   5.941
 6823SOL    HW121368   0.186   2.846   5.866
 6823SOL    HW221369   0.186   2.891   6.022
 6824SOL     OW21370   1.542   0.623   4.876
 6824SOL    HW121371   1.509   0.580   4.791
 6824SOL    HW221372   1.638   0.649   4.865
 6825SOL     OW21373   4.311   4.281   1.343
 6825SOL    HW121374   4.386   4.301   1.407
 6825SOL    HW221375   4.255   4.363   1.332
 6826SOL     OW21376   5.857   0.850   3.113
 6826SOL    HW121377   5.881   0.760   3.076
 6826SOL    HW221378   5.812   0.839   3.202
 6827SOL     OW21379   4.768   5.691   5.486
 6827SOL    HW121380   4.690   5.734   5.440
 6827SOL    HW221381   4.750   5.593   5.497
 6828SOL     OW21382   3.178   2.138   2.362
 6828SOL    HW121383   3.277   2.135   2.356
 6828SOL    HW221384   3.139   2.122   2.271
 6829SOL     OW21385   4.698   6.383   4.064
 6829SOL    HW121386   4.783   6.435   4.058
 6829SOL    HW221387   4.683   6.355   4.159
 6830SOL     OW21388   3.803   5.607   2.338
 6830SOL    HW121389   3.736   5.636   2.406
 6830SOL    HW221390   3.758   5.547   2.272
 6831SOL     OW21391   1.271   1.382   6.540
 6831SOL    HW121392   1.206   1.372   6.465
 6831SOL    HW221393   1.364   1.377   6.504
 6832SOL     OW21394   2.671   2.974   6.822
 6832SOL    HW121395   2.684   2.944   6.727
 6832SOL    HW221396   2.757   3.008   6.859
 6833SOL     OW21397   4.350   4.978   6.621
 6833SOL    HW121398   4.311   5.060   6.665
 6833SOL    HW221399   4.278   4.929   6.573
 6834SOL     OW21400   5.964   6.306   5.987
 6834SOL    HW121401   5.954   6.234   6.057
 6834SOL    HW221402   6.059   6.306   5.954
 6835SOL     OW21403   3.605   0.734   3.676
 6835SOL    HW121404   3.596   0.705   3.580
 6835SOL    HW221405   3.516   0.766   3.710
 6836SOL     OW21406   0.446   4.369   6.264
 6836SOL    HW121407   0.407   4.431   6.332
 6836SOL    HW221408   0.460   4.419   6.178
 6837SOL     OW21409   6.525   0.770   1.963
 6837SOL    HW121410   6.606   0.805   2.011
 6837SOL    HW221411   6.503   0.831   1.887
 6838SOL     OW21412   3.140   3.877   6.134
 6838SOL    HW121413   3.057   3.930   6.153
 6838SOL    HW221414   3.199   3.929   6.073
 6839SOL     OW21415   5.943   2.952   5.093
 6839SOL    HW121416   5.997   3.036   5.093
 6839SOL    HW221417   6.003   2.874   5.076
 6840SOL     OW21418   2.899   6.004   4.708
 6840SOL    HW121419   2.935   6.097   4.702
 6840SOL    HW221420   2.803   6.007   4.737
 6841SOL     OW21421   4.707   6.823   0.536
 6841SOL    HW121422   4.740   6.868   0.620
 6841SOL    HW221423   4.785   6.781   0.489
 6842SOL     OW21424   0.230   3.988   4.251
 6842SOL    HW121425   0.314   3.979   4.199
 6842SOL    HW221426   0.169   4.053   4.206
 6843SOL     OW21427   4.538   2.784   1.747
 6843SOL    HW121428   4.550   2.872   1.794
 6843SOL    HW221429   4.465   2.792   1.680
 6844SOL     OW21430   3.183   6.279   4.620
 6844SOL    HW121431   3.228   6.193   4.646
 6844SOL    HW221432   3.250   6.354   4.627
 6845SOL     OW21433   4.578   4.361   0.442
 6845SOL    HW121434   4.503   4.416   0.479
 6845SOL    HW221435   4.655   4.364   0.505
 6846SOL     OW21436   4.141   3.682   2.835
 6846SOL    HW121437   4.175   3.774   2.814
 6846SOL    HW221438   4.128   3.672   2.933
 6847SOL     OW21439   6.606   3.390   1.864
 6847SOL    HW121440   6.695   3.351   1.841
 6847SOL    HW221441   6.598   3.481   1.823
 6848SOL     OW21442   0.326   6.261   4.588
 6848SOL    HW121443   0.384   6.183   4.565
 6848SOL    HW221444   0.369   6.345   4.554
 6849SOL     OW21445   2.996   6.812   4.689
 6849SOL    HW121446   3.043   6.793   4.775
 6849SOL    HW221447   3.015   6.740   4.623
 6850SOL     OW21448   5.542   3.490   1.454
 6850SOL    HW121449   5.618   3.440   1.496
 6850SOL    HW221450   5.526   3.574   1.505
 6851SOL     OW21451   1.256   5.437   5.786
 6851SOL    HW121452   1.195   5.475   5.855
 6851SOL    HW221453   1.215   5.354   5.747
 6852SOL     OW21454   6.520   5.322   2.438
 6852SOL    HW121455   6.558   5.337   2.529
 6852SOL    HW221456   6.518   5.224   2.418
 6853SOL     OW21457   6.354   4.123   4.775
 6853SOL    HW121458   6.424   4.067   4.821
 6853SOL    HW221459   6.268   4.115   4.824
 6854SOL     OW21460   6.926   1.878   6.267
 6854SOL    HW121461   6.923   1.974   6.294
 6854SOL    HW221462   6.879   1.866   6.179
 6855SOL     OW21463   3.097   6.713   2.138
 6855SOL    HW121464   3.001   6.739   2.145
 6855SOL    HW221465   3.148   6.748   2.216
 6856SOL     OW21466   6.916   4.590   5.762
 6856SOL    HW121467   6.926   4.661   5.831
 6856SOL    HW221468   6.917   4.631   5.671
 6857SOL     OW21469   3.662   0.997   6.479
 6857SOL    HW121470   3.574   1.028   6.443
 6857SOL    HW221471   3.733   1.063   6.456
 6858SOL     OW21472   3.687   2.885   6.186
 6858SOL    HW121473   3.780   2.909   6.159
 6858SOL    HW221474   3.641   2.840   6.109
 6859SOL     OW21475   3.270   0.875   0.601
 6859SOL    HW121476   3.283   0.837   0.692
 6859SOL    HW221477   3.211   0.814   0.548
 6860SOL     OW21478   4.153   3.753   6.504
 6860SOL    HW121479   4.097   3.836   6.506
 6860SOL    HW221480   4.249   3.778   6.490
 6861SOL     OW21481   5.213   4.013   0.612
 6861SOL    HW121482   5.252   4.074   0.681
 6861SOL    HW221483   5.240   4.044   0.521
 6862SOL     OW21484   2.622   5.195   4.185
 6862SOL    HW121485   2.698   5.239   4.136
 6862SOL    HW221486   2.632   5.212   4.283
 6863SOL     OW21487   0.806   2.794   4.131
 6863SOL    HW121488   0.844   2.770   4.042
 6863SOL    HW221489   0.877   2.835   4.188
 6864SOL     OW21490   4.700   5.567   6.061
 6864SOL    HW121491   4.720   5.547   5.965
 6864SOL    HW221492   4.603   5.554   6.078
 6865SOL     OW21493   0.088   3.303   4.424
 6865SOL    HW121494   0.027   3.374   4.389
 6865SOL    HW221495   0.167   3.295   4.365
 6866SOL     OW21496   0.467   3.163   2.151
 6866SOL    HW121497   0.372   3.194   2.159
 6866SOL    HW221498   0.487   3.099   2.225
 6867SOL     OW21499   2.698   5.493   2.994
 6867SOL    HW121500   2.632   5.494   3.069
 6867SOL    HW221501   2.671   5.423   2.928
 6868SOL     OW21502   1.601   5.544   4.872
 6868SOL    HW121503   1.668   5.518   4.804
 6868SOL    HW221504   1.601   5.479   4.948
 6869SOL     OW21505   6.782   3.369   4.527
 6869SOL    HW121506   6.833   3.295   4.483
 6869SOL    HW221507   6.846   3.436   4.563
 6870SOL     OW21508   5.689   3.642   2.530
 6870SOL    HW121509   5.732   3.553   2.516
 6870SOL    HW221510   5.670   3.684   2.442
 6871SOL     OW21511   5.100   6.810   2.005
 6871SOL    HW121512   5.166   6.748   1.965
 6871SOL    HW221513   5.039   6.845   1.934
 6872SOL     OW21514   2.748   4.037   6.613
 6872SOL    HW121515   2.804   3.980   6.553
 6872SOL    HW221516   2.656   4.000   6.618
 6873SOL     OW21517   5.842   4.213   5.253
 6873SOL    HW121518   5.875   4.296   5.297
 6873SOL    HW221519   5.744   4.202   5.271
 6874SOL     OW21520   1.132   1.915   5.510
 6874SOL    HW121521   1.082   1.995   5.543
 6874SOL    HW221522   1.199   1.943   5.441
 6875SOL     OW21523   3.307   1.794   3.896
 6875SOL    HW121524   3.386   1.856   3.890
 6875SOL    HW221525   3.293   1.750   3.807
 6876SOL     OW21526   3.712   6.393   4.515
 6876SOL    HW121527   3.697   6.376   4.613
 6876SOL    HW221528   3.658   6.472   4.487
 6877SOL     OW21529   1.936   3.568   6.458
 6877SOL    HW121530   1.855   3.610   6.417
 6877SOL    HW221531   2.002   3.544   6.387
 6878SOL     OW21532   1.572   2.445   4.512
 6878SOL    HW121533   1.495   2.382   4.519
 6878SOL    HW221534   1.564   2.517   4.581
 6879SOL     OW21535   0.790   1.171   6.310
 6879SOL    HW121536   0.763   1.244   6.247
 6879SOL    HW221537   0.717   1.156   6.377
 6880SOL     OW21538   2.248   4.014   4.217
 6880SOL    HW121539   2.174   4.062   4.262
 6880SOL    HW221540   2.283   3.942   4.277
 6881SOL     OW21541   5.611   5.644   1.967
 6881SOL    HW121542   5.595   5.683   2.058
 6881SOL    HW221543   5.702   5.670   1.936
 6882SOL     OW21544   2.597   6.141   5.023
 6882SOL    HW121545   2.597   6.070   5.093
 6882SOL    HW221546   2.600   6.231   5.066
 6883SOL     OW21547   3.489   6.435   1.662
 6883SOL    HW121548   3.543   6.369   1.610
 6883SOL    HW221549   3.538   6.523   1.664
 6884SOL     OW21550   2.608   5.077   3.384
 6884SOL    HW121551   2.706   5.094   3.375
 6884SOL    HW221552   2.590   5.032   3.471
 6885SOL     OW21553   4.270   5.373   5.183
 6885SOL    HW121554   4.266   5.282   5.225
 6885SOL    HW221555   4.195   5.383   5.118
 6886SOL     OW21556   5.306   1.970   2.150
 6886SOL    HW121557   5.297   1.945   2.053
 6886SOL    HW221558   5.336   2.065   2.157
 6887SOL     OW21559   4.560   0.776   5.202
 6887SOL    HW121560   4.643   0.752   5.252
 6887SOL    HW221561   4.584   0.816   5.114
 6888SOL     OW21562   6.019   6.769   5.266
 6888SOL    HW121563   6.076   6.814   5.197
 6888SOL    HW221564   6.074   6.744   5.345
 6889SOL     OW21565   1.559   4.547   6.153
 6889SOL    HW121566   1.488   4.543   6.223
 6889SOL    HW221567   1.611   4.632   6.164
 6890SOL     OW21568   1.885   0.255   0.509
 6890SOL    HW121569   1.952   0.316   0.552
 6890SOL    HW221570   1.797   0.302   0.504
 6891SOL     OW21571   3.953   5.052   5.337
 6891SOL    HW121572   3.895   5.129   5.309
 6891SOL    HW221573   3.902   4.967   5.331
 6892SOL     OW21574   3.451   1.388   4.688
 6892SOL    HW121575   3.525   1.380   4.755
 6892SOL    HW221576   3.486   1.431   4.604
 6893SOL     OW21577   5.630   0.170   1.546
 6893SOL    HW121578   5.649   0.138   1.453
 6893SOL    HW221579   5.573   0.252   1.541
 6894SOL     OW21580   6.034   4.743   5.597
 6894SOL    HW121581   6.035   4.745   5.497
 6894SOL    HW221582   6.105   4.680   5.629
 6895SOL     OW21583   4.091   4.838   6.518
 6895SOL    HW121584   4.123   4.828   6.423
 6895SOL    HW221585   4.052   4.929   6.530
 6896SOL     OW21586   4.517   0.697   3.077
 6896SOL    HW121587   4.573   0.664   3.154
 6896SOL    HW221588   4.551   0.657   2.992
 6897SOL     OW21589   3.613   1.907   0.623
 6897SOL    HW121590   3.515   1.925   0.640
 6897SOL    HW221591   3.625   1.813   0.593
 6898SOL     OW21592   3.836   1.552   3.084
 6898SOL    HW121593   3.758   1.503   3.044
 6898SOL    HW221594   3.920   1.518   3.043
 6899SOL     OW21595   5.729   6.219   6.441
 6899SOL    HW121596   5.750   6.312   6.410
 6899SOL    HW221597   5.635   6.214   6.473
 6900SOL     OW21598   3.886   1.280   5.904
 6900SOL    HW121599   3.961   1.220   5.877
 6900SOL    HW221600   3.862   1.339   5.827
 6901SOL     OW21601   1.250   0.966   0.331
 6901SOL    HW121602   1.322   0.898   0.315
 6901SOL    HW221603   1.190   0.971   0.251
 6902SOL     OW21604   6.648   5.385   2.062
 6902SOL    HW121605   6.632   5.441   1.981
 6902SOL    HW221606   6.573   5.397   2.127
 6903SOL     OW21607   4.401   4.628   0.686
 6903SOL    HW121608   4.451   4.634   0.773
 6903SOL    HW221609   4.444   4.688   0.619
 6904SOL     OW21610   0.933   1.628   3.499
 6904SOL    HW121611   0.874   1.577   3.436
 6904SOL    HW221612   1.022   1.583   3.506
 6905SOL     OW21613   3.934   5.188   1.079
 6905SOL    HW121614   3.866   5.129   1.035
 6905SOL    HW221615   3.905   5.283   1.072
 6906SOL     OW21616   5.263   5.909   3.591
 6906SOL    HW121617   5.277   5.991   3.536
 6906SOL    HW221618   5.168   5.906   3.623
 6907SOL     OW21619   3.547   1.098   1.263
 6907SOL    HW121620   3.458   1.064   1.233
 6907SOL    HW221621   3.575   1.051   1.347
 6908SOL     OW21622   6.602   7.011   6.847
 6908SOL    HW121623   6.545   0.058   6.806
 6908SOL    HW221624   6.544   6.935   6.876
 6909SOL     OW21625   3.385   3.071   6.760
 6909SOL    HW121626   3.321   3.128   6.710
 6909SOL    HW221627   3.379   3.091   6.858
 6910SOL     OW21628   6.336   1.008   1.535
 6910SOL    HW121629   6.328   0.982   1.439
 6910SOL    HW221630   6.261   1.071   1.559
 6911SOL     OW21631   4.435   0.754   4.930
 6911SOL    HW121632   4.373   0.684   4.966
 6911SOL    HW221633   4.482   0.718   4.849
 6912SOL     OW21634   4.390   5.077   1.987
 6912SOL    HW121635   4.426   5.000   1.935
 6912SOL    HW221636   4.397   5.160   1.932
 6913SOL     OW21637   4.161   5.738   5.800
 6913SOL    HW121638   4.257   5.765   5.800
 6913SOL    HW221639   4.143   5.679   5.879
 6914SOL     OW21640   6.323   5.029   0.001
 6914SOL    HW121641   6.228   4.997   7.020
 6914SOL    HW221642   6.361   5.003   0.089
 6915SOL     OW21643   1.570   5.475   0.730
 6915SOL    HW121644   1.638   5.457   0.801
 6915SOL    HW221645   1.490   5.416   0.744
 6916SOL     OW21646   6.525   0.812   5.770
 6916SOL    HW121647   6.616   0.781   5.742
 6916SOL    HW221648   6.510   0.906   5.737
 6917SOL     OW21649   4.605   0.306   6.721
 6917SOL    HW121650   4.531   0.299   6.654
 6917SOL    HW221651   4.567   0.336   6.808
 6918SOL     OW21652   2.022   3.038   3.688
 6918SOL    HW121653   2.051   3.113   3.748
 6918SOL    HW221654   2.096   3.015   3.625
 6919SOL     OW21655   0.842   6.435   3.210
 6919SOL    HW121656   0.852   6.446   3.309
 6919SOL    HW221657   0.902   6.361   3.180
 6920SOL     OW21658   5.070   6.578   4.637
 6920SOL    HW121659   5.153   6.620   4.601
 6920SOL    HW221660   5.094   6.497   4.690
 6921SOL     OW21661   0.966   6.273   3.023
 6921SOL    HW121662   1.006   6.189   2.988
 6921SOL    HW221663   1.015   6.352   2.986
 6922SOL     OW21664   1.932   5.887   0.137
 6922SOL    HW121665   2.006   5.825   0.111
 6922SOL    HW221666   1.955   5.980   0.111
 6923SOL     OW21667   4.394   6.786   3.974
 6923SOL    HW121668   4.456   6.838   4.032
 6923SOL    HW221669   4.365   6.843   3.897
 6924SOL     OW21670   6.694   6.197   1.677
 6924SOL    HW121671   6.751   6.122   1.644
 6924SOL    HW221672   6.607   6.196   1.628
 6925SOL     OW21673   6.268   5.602   3.183
 6925SOL    HW121674   6.332   5.534   3.146
 6925SOL    HW221675   6.267   5.595   3.282
 6926SOL     OW21676   2.848   4.158   5.365
 6926SOL    HW121677   2.800   4.147   5.452
 6926SOL    HW221678   2.835   4.076   5.309
 6927SOL     OW21679   3.820   2.828   0.357
 6927SOL    HW121680   3.769   2.905   0.318
 6927SOL    HW221681   3.893   2.862   0.415
 6928SOL     OW21682   6.897   0.089   6.578
 6928SOL    HW121683   6.922   0.129   6.490
 6928SOL    HW221684   6.858   0.160   6.637
 6929SOL     OW21685   3.256   5.233   0.954
 6929SOL    HW121686   3.246   5.310   1.017
 6929SOL    HW221687   3.286   5.265   0.865
 6930SOL     OW21688   1.391   0.152   3.370
 6930SOL    HW121689   1.302   0.191   3.394
 6930SOL    HW221690   1.464   0.206   3.411
 6931SOL     OW21691   2.222   0.356   0.862
 6931SOL    HW121692   2.260   0.426   0.923
 6931SOL    HW221693   2.264   0.268   0.883
 6932SOL     OW21694   2.284   2.153   6.811
 6932SOL    HW121695   2.282   2.219   6.887
 6932SOL    HW221696   2.223   2.185   6.738
 6933SOL     OW21697   3.134   6.332   6.678
 6933SOL    HW121698   3.180   6.290   6.599
 6933SOL    HW221699   3.085   6.414   6.647
 6934SOL     OW21700   5.684   4.514   6.310
 6934SOL    HW121701   5.617   4.585   6.287
 6934SOL    HW221702   5.635   4.428   6.331
 6935SOL     OW21703   4.443   5.920   3.036
 6935SOL    HW121704   4.396   6.008   3.032
 6935SOL    HW221705   4.542   5.936   3.038
 6936SOL     OW21706   0.375   4.862   1.010
 6936SOL    HW121707   0.416   4.912   1.087
 6936SOL    HW221708   0.448   4.829   0.950
 6937SOL     OW21709   4.391   6.308   6.079
 6937SOL    HW121710   4.308   6.273   6.035
 6937SOL    HW221711   4.374   6.320   6.177
 6938SOL     OW21712   5.711   2.145   5.055
 6938SOL    HW121713   5.742   2.054   5.082
 6938SOL    HW221714   5.773   2.214   5.092
 6939SOL     OW21715   6.965   4.675   2.075
 6939SOL    HW121716   6.874   4.679   2.117
 6939SOL    HW221717   6.981   4.584   2.038
 6940SOL     OW21718   3.988   0.745   5.333
 6940SOL    HW121719   4.072   0.690   5.334
 6940SOL    HW221720   4.007   0.833   5.290
 6941SOL     OW21721   4.017   3.347   4.176
 6941SOL    HW121722   3.953   3.351   4.099
 6941SOL    HW221723   4.045   3.440   4.201
 6942SOL     OW21724   6.766   1.787   0.300
 6942SOL    HW121725   6.824   1.795   0.381
 6942SOL    HW221726   6.815   1.736   0.229
 6943SOL     OW21727   6.219   6.267   6.824
 6943SOL    HW121728   6.220   6.203   6.748
 6943SOL    HW221729   6.312   6.284   6.855
 6944SOL     OW21730   1.210   6.227   6.298
 6944SOL    HW121731   1.268   6.212   6.218
 6944SOL    HW221732   1.266   6.225   6.381
 6945SOL     OW21733   4.507   2.002   5.298
 6945SOL    HW121734   4.443   1.950   5.354
 6945SOL    HW221735   4.598   1.997   5.337
 6946SOL     OW21736   5.823   3.851   3.418
 6946SOL    HW121737   5.874   3.771   3.447
 6946SOL    HW221738   5.811   3.849   3.318
 6947SOL     OW21739   3.555   0.011   2.755
 6947SOL    HW121740   3.506   0.039   2.672
 6947SOL    HW221741   3.647   7.005   2.731
 6948SOL     OW21742   3.625   2.082   4.766
 6948SOL    HW121743   3.724   2.090   4.756
 6948SOL    HW221744   3.601   1.989   4.793
 6949SOL     OW21745   5.043   1.235   2.585
 6949SOL    HW121746   4.987   1.209   2.663
 6949SOL    HW221747   5.053   1.335   2.583
 6950SOL     OW21748   2.623   1.257   3.906
 6950SOL    HW121749   2.675   1.179   3.870
 6950SOL    HW221750   2.547   1.223   3.961
 6951SOL     OW21751   5.213   5.278   5.477
 6951SOL    HW121752   5.181   5.326   5.560
 6951SOL    HW221753   5.168   5.189   5.471
 6952SOL     OW21754   0.131   5.139   5.226
 6952SOL    HW121755   0.140   5.229   5.183
 6952SOL    HW221756   0.036   5.126   5.256
 6953SOL     OW21757   5.570   2.660   5.056
 6953SOL    HW121758   5.556   2.756   5.083
 6953SOL    HW221759   5.482   2.612   5.058
 6954SOL     OW21760   0.899   5.007   2.636
 6954SOL    HW121761   0.839   5.057   2.573
 6954SOL    HW221762   0.994   5.027   2.614
 6955SOL     OW21763   6.873   6.058   3.095
 6955SOL    HW121764   6.782   6.022   3.114
 6955SOL    HW221765   6.873   6.103   3.006
 6956SOL     OW21766   2.990   5.154   0.886
 6956SOL    HW121767   3.073   5.200   0.918
 6956SOL    HW221768   2.953   5.096   0.959
 6957SOL     OW21769   0.604   4.133   0.396
 6957SOL    HW121770   0.591   4.060   0.462
 6957SOL    HW221771   0.530   4.131   0.328
 6958SOL     OW21772   2.168   3.903   6.304
 6958SOL    HW121773   2.201   3.921   6.396
 6958SOL    HW221774   2.068   3.894   6.304
 6959SOL     OW21775   3.841   1.375   3.785
 6959SOL    HW121776   3.872   1.284   3.757
 6959SOL    HW221777   3.907   1.444   3.755
 6960SOL     OW21778   6.963   5.195   0.043
 6960SOL    HW121779   6.978   5.097   0.028
 6960SOL    HW221780   6.964   5.214   0.141
 6961SOL     OW21781   7.020   1.466   2.901
 6961SOL    HW121782   6.961   1.455   2.981
 6961SOL    HW221783   6.982   1.537   2.842
 6962SOL     OW21784   3.295   3.371   0.580
 6962SOL    HW121785   3.372   3.377   0.644
 6962SOL    HW221786   3.328   3.336   0.492
 6963SOL     OW21787   6.449   5.828   2.510
 6963SOL    HW121788   6.466   5.795   2.417
 6963SOL    HW221789   6.379   5.771   2.553
 6964SOL     OW21790   3.872   6.180   5.319
 6964SOL    HW121791   3.870   6.208   5.223
 6964SOL    HW221792   3.784   6.139   5.344
 6965SOL     OW21793   6.440   2.627   5.473
 6965SOL    HW121794   6.477   2.664   5.558
 6965SOL    HW221795   6.367   2.562   5.494
 6966SOL     OW21796   4.618   2.615   4.020
 6966SOL    HW121797   4.663   2.697   4.057
 6966SOL    HW221798   4.631   2.613   3.920
 6967SOL     OW21799   2.146   2.405   6.320
 6967SOL    HW121800   2.141   2.477   6.390
 6967SOL    HW221801   2.234   2.412   6.273
 6968SOL     OW21802   4.183   6.995   2.435
 6968SOL    HW121803   4.276   6.994   2.472
 6968SOL    HW221804   4.161   6.905   2.398
 6969SOL     OW21805   3.031   2.155   1.298
 6969SOL    HW121806   3.005   2.106   1.215
 6969SOL    HW221807   3.130   2.174   1.296
 6970SOL     OW21808   4.233   4.120   0.494
 6970SOL    HW121809   4.170   4.166   0.557
 6970SOL    HW221810   4.318   4.099   0.542
 6971SOL     OW21811   6.016   0.596   2.098
 6971SOL    HW121812   6.075   0.655   2.154
 6971SOL    HW221813   6.056   0.587   2.006
 6972SOL     OW21814   5.392   4.965   4.867
 6972SOL    HW121815   5.405   4.938   4.962
 6972SOL    HW221816   5.466   5.027   4.840
 6973SOL     OW21817   1.881   4.363   2.971
 6973SOL    HW121818   1.934   4.291   2.926
 6973SOL    HW221819   1.911   4.453   2.939
 6974SOL     OW21820   3.180   4.137   4.764
 6974SOL    HW121821   3.130   4.082   4.831
 6974SOL    HW221822   3.122   4.213   4.733
 6975SOL     OW21823   3.219   0.865   6.186
 6975SOL    HW121824   3.156   0.842   6.261
 6975SOL    HW221825   3.236   0.783   6.132
 6976SOL     OW21826   1.687   5.942   0.213
 6976SOL    HW121827   1.685   6.040   0.195
 6976SOL    HW221828   1.776   5.906   0.185
 6977SOL     OW21829   4.322   2.302   2.670
 6977SOL    HW121830   4.362   2.380   2.621
 6977SOL    HW221831   4.241   2.270   2.622
 6978SOL     OW21832   5.846   1.332   2.335
 6978SOL    HW121833   5.927   1.291   2.376
 6978SOL    HW221834   5.843   1.430   2.356
 6979SOL     OW21835   0.640   4.285   3.690
 6979SOL    HW121836   0.722   4.297   3.746
 6979SOL    HW221837   0.658   4.218   3.618
 6980SOL     OW21838   3.682   1.684   4.189
 6980SOL    HW121839   3.600   1.689   4.132
 6980SOL    HW221840   3.759   1.651   4.133
 6981SOL     OW21841   3.356   4.828   6.612
 6981SOL    HW121842   3.407   4.914   6.614
 6981SOL    HW221843   3.379   4.774   6.692
 6982SOL     OW21844   0.591   6.865   4.499
 6982SOL    HW121845   0.580   6.964   4.486
 6982SOL    HW221846   0.548   6.817   4.422
 6983SOL     OW21847   6.138   0.438   3.772
 6983SOL    HW121848   6.107   0.454   3.866
 6983SOL    HW221849   6.210   0.504   3.749
 6984SOL     OW21850   2.321   1.223   5.692
 6984SOL    HW121851   2.336   1.283   5.613
 6984SOL    HW221852   2.395   1.238   5.758
 6985SOL     OW21853   5.069   6.397   2.504
 6985SOL    HW121854   5.116   6.457   2.569
 6985SOL    HW221855   4.993   6.447   2.463
 6986SOL     OW21856   2.199   0.133   4.987
 6986SOL    HW121857   2.112   0.168   5.019
 6986SOL    HW221858   2.266   0.136   5.062
 6987SOL     OW21859   6.683   3.593   6.519
 6987SOL    HW121860   6.642   3.585   6.610
 6987SOL    HW221861   6.780   3.616   6.528
 6988SOL     OW21862   5.281   1.117   5.503
 6988SOL    HW121863   5.201   1.058   5.506
 6988SOL    HW221864   5.350   1.078   5.442
 6989SOL     OW21865   1.485   3.006   3.863
 6989SOL    HW121866   1.545   2.985   3.785
 6989SOL    HW221867   1.467   2.922   3.914
 6990SOL     OW21868   3.985   2.946   0.537
 6990SOL    HW121869   3.929   2.987   0.609
 6990SOL    HW221870   4.045   3.016   0.497
 6991SOL     OW21871   4.253   4.464   5.503
 6991SOL    HW121872   4.317   4.491   5.574
 6991SOL    HW221873   4.208   4.378   5.529
 6992SOL     OW21874   5.889   6.117   5.205
 6992SOL    HW121875   5.853   6.075   5.288
 6992SOL    HW221876   5.818   6.118   5.135
 6993SOL     OW21877   0.824   6.491   3.533
 6993SOL    HW121878   0.906   6.509   3.587
 6993SOL    HW221879   0.787   6.401   3.556
 6994SOL     OW21880   1.682   3.225   7.024
 6994SOL    HW121881   1.751   3.240   6.952
 6994SOL    HW221882   1.728   3.210   0.086
 6995SOL     OW21883   0.727   4.550   3.586
 6995SOL    HW121884   0.702   4.468   3.637
 6995SOL    HW221885   0.756   4.524   3.494
 6996SOL     OW21886   2.407   0.242   6.081
 6996SOL    HW121887   2.328   0.243   6.019
 6996SOL    HW221888   2.489   0.269   6.031
 6997SOL     OW21889   5.029   0.024   4.151
 6997SOL    HW121890   5.065   0.114   4.127
 6997SOL    HW221891   4.999   7.002   4.067
 6998SOL     OW21892   1.205   2.603   3.251
 6998SOL    HW121893   1.179   2.532   3.186
 6998SOL    HW221894   1.304   2.601   3.265
 6999SOL     OW21895   4.785   1.871   6.843
 6999SOL    HW121896   4.750   1.957   6.879
 6999SOL    HW221897   4.754   1.858   6.749
 7000SOL     OW21898   6.746   6.749   0.908
 7000SOL    HW121899   6.698   6.718   0.990
 7000SOL    HW221900   6.688   6.813   0.858
 7001SOL     OW21901   2.846   2.144   5.741
 7001SOL    HW121902   2.751   2.176   5.744
 7001SOL    HW221903   2.908   2.220   5.761
 7002SOL     OW21904   2.132   4.441   2.630
 7002SOL    HW121905   2.096   4.523   2.586
 7002SOL    HW221906   2.178   4.466   2.715
 7003SOL     OW21907   1.575   6.544   6.688
 7003SOL    HW121908   1.531   6.591   6.765
 7003SOL    HW221909   1.619   6.611   6.629
 7004SOL     OW21910   1.208   4.565   0.812
 7004SOL    HW121911   1.233   4.469   0.796
 7004SOL    HW221912   1.122   4.585   0.765
 7005SOL     OW21913   5.656   6.635   5.531
 7005SOL    HW121914   5.634   6.675   5.619
 7005SOL    HW221915   5.755   6.630   5.520
 7006SOL     OW21916   4.572   5.554   4.954
 7006SOL    HW121917   4.479   5.580   4.924
 7006SOL    HW221918   4.631   5.545   4.874
 7007SOL     OW21919   4.883   5.347   2.346
 7007SOL    HW121920   4.899   5.323   2.442
 7007SOL    HW221921   4.830   5.275   2.303
 7008SOL     OW21922   1.577   4.308   4.511
 7008SOL    HW121923   1.634   4.228   4.494
 7008SOL    HW221924   1.523   4.329   4.429
 7009SOL     OW21925   0.107   4.367   2.411
 7009SOL    HW121926   0.192   4.411   2.382
 7009SOL    HW221927   0.103   4.367   2.511
 7010SOL     OW21928   4.059   4.509   6.228
 7010SOL    HW121929   4.058   4.503   6.129
 7010SOL    HW221930   3.970   4.540   6.261
 7011SOL     OW21931   1.707   1.286   4.796
 7011SOL    HW121932   1.788   1.344   4.798
 7011SOL    HW221933   1.732   1.195   4.763
 7012SOL     OW21934   1.640   0.935   1.297
 7012SOL    HW121935   1.638   1.029   1.329
 7012SOL    HW221936   1.572   0.922   1.226
 7013SOL     OW21937   0.296   1.201   2.221
 7013SOL    HW121938   0.296   1.287   2.272
 7013SOL    HW221939   0.334   1.217   2.129
 7014SOL     OW21940   2.164   4.853   0.547
 7014SOL    HW121941   2.191   4.947   0.525
 7014SOL    HW221942   2.138   4.847   0.643
 7015SOL     OW21943   5.605   2.201   2.277
 7015SOL    HW121944   5.584   2.219   2.373
 7015SOL    HW221945   5.522   2.214   2.223
 7016SOL     OW21946   3.887   4.500   1.157
 7016SOL    HW121947   3.912   4.530   1.249
 7016SOL    HW221948   3.968   4.472   1.107
 7017SOL     OW21949   4.158   1.661   4.641
 7017SOL    HW121950   4.200   1.589   4.587
 7017SOL    HW221951   4.096   1.621   4.708
 7018SOL     OW21952   0.490   4.615   3.837
 7018SOL    HW121953   0.550   4.637   3.914
 7018SOL    HW221954   0.546   4.595   3.757
 7019SOL     OW21955   1.636   5.625   1.063
 7019SOL    HW121956   1.694   5.702   1.036
 7019SOL    HW221957   1.681   5.539   1.041
 7020SOL     OW21958   6.863   6.169   6.133
 7020SOL    HW121959   6.898   6.199   6.222
 7020SOL    HW221960   6.873   6.070   6.126
 7021SOL     OW21961   4.058   6.765   5.593
 7021SOL    HW121962   4.007   6.736   5.674
 7021SOL    HW221963   4.007   6.743   5.510
 7022SOL     OW21964   4.774   5.590   6.360
 7022SOL    HW121965   4.736   5.611   6.269
 7022SOL    HW221966   4.771   5.492   6.375
 7023SOL     OW21967   5.698   4.200   2.934
 7023SOL    HW121968   5.610   4.165   2.968
 7023SOL    HW221969   5.766   4.126   2.935
 7024SOL     OW21970   0.092   6.020   1.682
 7024SOL    HW121971   0.164   6.037   1.615
 7024SOL    HW221972   0.133   5.992   1.769
 7025SOL     OW21973   2.558   0.228   6.703
 7025SOL    HW121974   2.471   0.205   6.746
 7025SOL    HW221975   2.545   0.237   6.605
 7026SOL     OW21976   3.367   1.704   0.764
 7026SOL    HW121977   3.457   1.707   0.721
 7026SOL    HW221978   3.303   1.759   0.711
 7027SOL     OW21979   4.525   0.083   3.990
 7027SOL    HW121980   4.526   0.172   4.035
 7027SOL    HW221981   4.583   0.019   4.041
 7028SOL     OW21982   3.021   0.362   4.607
 7028SOL    HW121983   3.074   0.320   4.680
 7028SOL    HW221984   3.078   0.372   4.525
 7029SOL     OW21985   3.648   0.773   5.095
 7029SOL    HW121986   3.564   0.822   5.120
 7029SOL    HW221987   3.628   0.709   5.021
 7030SOL     OW21988   2.046   3.503   3.350
 7030SOL    HW121989   2.075   3.566   3.278
 7030SOL    HW221990   2.045   3.550   3.438
 7031SOL     OW21991   1.506   0.368   5.001
 7031SOL    HW121992   1.473   0.453   4.960
 7031SOL    HW221993   1.428   0.312   5.030
 7032SOL     OW21994   6.687   2.163   3.361
 7032SOL    HW121995   6.729   2.112   3.286
 7032SOL    HW221996   6.757   2.206   3.416
 7033SOL     OW21997   0.501   0.235   4.672
 7033SOL    HW121998   0.450   0.152   4.649
 7033SOL    HW221999   0.552   0.266   4.592
 7034SOL     OW22000   0.559   5.847   2.769
 7034SOL    HW122001   0.550   5.933   2.719
 7034SOL    HW222002   0.472   5.798   2.767
 7035SOL     OW22003   6.794   5.072   2.242
 7035SOL    HW122004   6.862   5.097   2.311
 7035SOL    HW222005   6.737   5.151   2.221
 7036SOL     OW22006   6.454   4.402   0.926
 7036SOL    HW122007   6.432   4.462   0.850
 7036SOL    HW222008   6.485   4.456   1.004
 7037SOL     OW22009   0.463   0.427   0.028
 7037SOL    HW122010   0.422   0.379   6.976
 7037SOL    HW222011   0.539   0.484   7.021
 7038SOL     OW22012   1.867   3.427   4.354
 7038SOL    HW122013   1.953   3.381   4.336
 7038SOL    HW222014   1.795   3.389   4.295
 7039SOL     OW22015   4.282   2.284   6.259
 7039SOL    HW122016   4.260   2.376   6.290
 7039SOL    HW222017   4.197   2.231   6.249
 7040SOL     OW22018   5.232   2.514   6.556
 7040SOL    HW122019   5.166   2.587   6.535
 7040SOL    HW222020   5.262   2.471   6.471
 7041SOL     OW22021   2.951   1.425   2.583
 7041SOL    HW122022   3.033   1.369   2.568
 7041SOL    HW222023   2.948   1.454   2.678
 7042SOL     OW22024   1.483   0.391   6.890
 7042SOL    HW122025   1.571   0.395   6.842
 7042SOL    HW222026   1.491   0.436   6.978
 7043SOL     OW22027   1.244   2.525   2.804
 7043SOL    HW122028   1.271   2.470   2.725
 7043SOL    HW222029   1.202   2.466   2.873
 7044SOL     OW22030   5.067   5.997   2.163
 7044SOL    HW122031   5.009   6.028   2.088
 7044SOL    HW222032   5.106   5.908   2.142
 7045SOL     OW22033   6.198   4.481   1.237
 7045SOL    HW122034   6.203   4.483   1.337
 7045SOL    HW222035   6.103   4.469   1.209
 7046SOL     OW22036   2.727   1.035   3.800
 7046SOL    HW122037   2.765   1.058   3.710
 7046SOL    HW222038   2.801   1.012   3.862
 7047SOL     OW22039   1.676   1.289   3.580
 7047SOL    HW122040   1.703   1.383   3.602
 7047SOL    HW222041   1.599   1.291   3.518
 7048SOL     OW22042   6.692   6.024   0.193
 7048SOL    HW122043   6.791   6.014   0.201
 7048SOL    HW222044   6.665   6.115   0.224
 7049SOL     OW22045   1.495   0.840   0.263
 7049SOL    HW122046   1.568   0.898   0.227
 7049SOL    HW222047   1.520   0.744   0.252
 7050SOL     OW22048   3.935   4.023   4.704
 7050SOL    HW122049   4.027   4.031   4.744
 7050SOL    HW222050   3.942   3.987   4.611
 7051SOL     OW22051   0.226   6.740   2.588
 7051SOL    HW122052   0.192   6.770   2.499
 7051SOL    HW222053   0.313   6.786   2.607
 7052SOL     OW22054   6.961   1.474   3.628
 7052SOL    HW122055   6.881   1.428   3.666
 7052SOL    HW222056   7.020   1.407   3.582
 7053SOL     OW22057   6.521   4.330   5.970
 7053SOL    HW122058   6.580   4.408   5.990
 7053SOL    HW222059   6.575   4.246   5.971
 7054SOL     OW22060   6.798   0.120   1.842
 7054SOL    HW122061   6.854   0.044   1.808
 7054SOL    HW222062   6.830   0.148   1.932
 7055SOL     OW22063   3.834   6.684   5.371
 7055SOL    HW122064   3.770   6.761   5.378
 7055SOL    HW222065   3.783   6.600   5.354
 7056SOL     OW22066   4.710   5.052   4.128
 7056SOL    HW122067   4.736   4.966   4.085
 7056SOL    HW222068   4.779   5.078   4.196
 7057SOL     OW22069   0.690   6.000   3.178
 7057SOL    HW122070   0.774   5.982   3.229
 7057SOL    HW222071   0.707   6.072   3.110
 7058SOL     OW22072   0.162   4.585   5.311
 7058SOL    HW122073   0.081   4.594   5.368
 7058SOL    HW222074   0.140   4.529   5.230
 7059SOL     OW22075   2.278   0.682   2.425
 7059SOL    HW122076   2.358   0.623   2.412
 7059SOL    HW222077   2.207   0.632   2.474
 7060SOL     OW22078   3.678   0.101   1.515
 7060SOL    HW122079   3.641   0.191   1.492
 7060SOL    HW222080   3.686   0.046   1.432
 7061SOL     OW22081   0.382   1.013   3.295
 7061SOL    HW122082   0.320   1.015   3.216
 7061SOL    HW222083   0.449   1.086   3.287
 7062SOL     OW22084   6.586   1.203   5.516
 7062SOL    HW122085   6.558   1.128   5.576
 7062SOL    HW222086   6.506   1.237   5.466
 7063SOL     OW22087   2.712   0.075   1.605
 7063SOL    HW122088   2.661   0.046   1.686
 7063SOL    HW222089   2.761   0.159   1.625
 7064SOL     OW22090   4.295   2.204   0.473
 7064SOL    HW122091   4.341   2.213   0.384
 7064SOL    HW222092   4.236   2.123   0.472
 7065SOL     OW22093   4.117   3.966   1.601
 7065SOL    HW122094   4.047   3.937   1.536
 7065SOL    HW222095   4.109   3.913   1.685
 7066SOL     OW22096   3.216   6.476   1.027
 7066SOL    HW122097   3.176   6.392   0.991
 7066SOL    HW222098   3.236   6.465   1.124
 7067SOL     OW22099   7.015   3.880   4.591
 7067SOL    HW122100   7.020   3.784   4.563
 7067SOL    HW222101   6.919   3.904   4.608
 7068SOL     OW22102   0.850   0.569   2.428
 7068SOL    HW122103   0.844   0.595   2.525
 7068SOL    HW222104   0.928   0.507   2.416
 7069SOL     OW22105   1.712   4.136   4.723
 7069SOL    HW122106   1.729   4.233   4.737
 7069SOL    HW222107   1.616   4.115   4.742
 7070SOL     OW22108   5.006   5.798   4.678
 7070SOL    HW122109   5.062   5.734   4.626
 7070SOL    HW222110   4.914   5.800   4.641
 7071SOL     OW22111   1.407   6.774   5.325
 7071SOL    HW122112   1.377   6.686   5.289
 7071SOL    HW222113   1.331   6.838   5.325
 7072SOL     OW22114   6.995   6.218   6.375
 7072SOL    HW122115   0.040   6.274   6.332
 7072SOL    HW222116   7.010   6.214   6.474
 7073SOL     OW22117   1.253   1.937   6.733
 7073SOL    HW122118   1.219   1.845   6.713
 7073SOL    HW222119   1.177   1.994   6.764
 7074SOL     OW22120   2.970   1.682   0.748
 7074SOL    HW122121   2.942   1.618   0.677
 7074SOL    HW222122   2.933   1.653   0.836
 7075SOL     OW22123   1.127   5.297   2.727
 7075SOL    HW122124   1.162   5.258   2.642
 7075SOL    HW222125   1.089   5.388   2.709
 7076SOL     OW22126   3.196   2.476   6.687
 7076SOL    HW122127   3.236   2.436   6.769
 7076SOL    HW222128   3.215   2.417   6.608
 7077SOL     OW22129   1.813   4.608   5.879
 7077SOL    HW122130   1.759   4.573   5.802
 7077SOL    HW222131   1.790   4.704   5.894
 7078SOL     OW22132   6.672   0.563   2.627
 7078SOL    HW122133   6.648   0.642   2.571
 7078SOL    HW222134   6.614   0.561   2.709
 7079SOL     OW22135   5.070   5.394   5.919
 7079SOL    HW122136   5.036   5.399   5.825
 7079SOL    HW222137   5.057   5.482   5.964
 7080SOL     OW22138   5.602   0.033   4.393
 7080SOL    HW122139   5.564   0.125   4.386
 7080SOL    HW222140   5.592   7.010   4.306
 7081SOL     OW22141   3.540   0.731   5.558
 7081SOL    HW122142   3.608   0.734   5.485
 7081SOL    HW222143   3.531   0.821   5.599
 7082SOL     OW22144   5.148   1.142   6.639
 7082SOL    HW122145   5.074   1.114   6.577
 7082SOL    HW222146   5.213   1.067   6.648
 7083SOL     OW22147   3.279   6.767   5.900
 7083SOL    HW122148   3.314   6.845   5.951
 7083SOL    HW222149   3.230   6.800   5.818
 7084SOL     OW22150   6.399   6.230   0.383
 7084SOL    HW122151   6.433   6.172   0.457
 7084SOL    HW222152   6.407   6.326   0.409
 7085SOL     OW22153   2.870   2.575   0.945
 7085SOL    HW122154   2.873   2.477   0.928
 7085SOL    HW222155   2.874   2.593   1.043
 7086SOL     OW22156   6.750   1.036   6.661
 7086SOL    HW122157   6.768   1.034   6.759
 7086SOL    HW222158   6.799   0.962   6.616
 7087SOL     OW22159   1.576   2.683   4.715
 7087SOL    HW122160   1.585   2.781   4.728
 7087SOL    HW222161   1.590   2.636   4.803
 7088SOL     OW22162   0.064   1.815   5.392
 7088SOL    HW122163   0.036   1.780   5.302
 7088SOL    HW222164   0.008   1.773   5.463
 7089SOL     OW22165   2.690   1.747   0.543
 7089SOL    HW122166   2.657   1.830   0.589
 7089SOL    HW222167   2.734   1.772   0.457
 7090SOL     OW22168   2.233   3.102   4.571
 7090SOL    HW122169   2.281   3.070   4.653
 7090SOL    HW222170   2.231   3.202   4.570
 7091SOL     OW22171   0.010   6.306   0.590
 7091SOL    HW122172   0.043   6.373   0.523
 7091SOL    HW222173   6.951   6.341   0.632
 7092SOL     OW22174   3.205   3.260   6.620
 7092SOL    HW122175   3.232   3.336   6.561
 7092SOL    HW222176   3.179   3.182   6.563
 7093SOL     OW22177   4.078   2.847   5.725
 7093SOL    HW122178   4.165   2.829   5.679
 7093SOL    HW222179   4.083   2.815   5.820
 7094SOL     OW22180   0.191   0.299   6.443
 7094SOL    HW122181   0.160   0.262   6.356
 7094SOL    HW222182   0.121   0.281   6.513
 7095SOL     OW22183   0.294   3.842   6.580
 7095SOL    HW122184   0.291   3.772   6.508
 7095SOL    HW222185   0.381   3.835   6.629
 7096SOL     OW22186   5.600   0.806   2.230
 7096SOL    HW122187   5.634   0.806   2.324
 7096SOL    HW222188   5.676   0.825   2.168
 7097SOL     OW22189   1.235   0.654   1.353
 7097SOL    HW122190   1.242   0.683   1.448
 7097SOL    HW222191   1.182   0.569   1.348
 7098SOL     OW22192   1.759   6.789   5.623
 7098SOL    HW122193   1.837   6.805   5.563
 7098SOL    HW222194   1.692   6.732   5.577
 7099SOL     OW22195   0.326   1.010   6.513
 7099SOL    HW122196   0.396   0.962   6.565
 7099SOL    HW222197   0.263   1.056   6.576
 7100SOL     OW22198   5.622   2.713   0.875
 7100SOL    HW122199   5.612   2.613   0.869
 7100SOL    HW222200   5.677   2.745   0.798
 7101SOL     OW22201   1.939   0.188   4.391
 7101SOL    HW122202   1.889   0.272   4.372
 7101SOL    HW222203   1.893   0.138   4.465
 7102SOL     OW22204   4.457   2.677   0.624
 7102SOL    HW122205   4.375   2.730   0.603
 7102SOL    HW222206   4.486   2.696   0.718
 7103SOL     OW22207   2.652   6.660   6.341
 7103SOL    HW122208   2.712   6.654   6.261
 7103SOL    HW222209   2.662   6.577   6.396
 7104SOL     OW22210   1.007   2.178   1.992
 7104SOL    HW122211   0.919   2.144   2.026
 7104SOL    HW222212   0.998   2.272   1.961
 7105SOL     OW22213   2.514   4.103   5.448
 7105SOL    HW122214   2.445   4.175   5.457
 7105SOL    HW222215   2.512   4.067   5.355
 7106SOL     OW22216   3.207   2.683   5.344
 7106SOL    HW122217   3.195   2.619   5.419
 7106SOL    HW222218   3.207   2.633   5.257
 7107SOL     OW22219   2.755   0.787   6.968
 7107SOL    HW122220   2.843   0.740   6.962
 7107SOL    HW222221   2.733   0.806   0.039
 7108SOL     OW22222   4.401   6.406   1.990
 7108SOL    HW122223   4.462   6.483   2.007
 7108SOL    HW222224   4.414   6.374   1.896
 7109SOL     OW22225   3.752   6.270   6.335
 7109SOL    HW122226   3.721   6.215   6.257
 7109SOL    HW222227   3.796   6.354   6.302
 7110SOL     OW22228   3.569   5.105   3.560
 7110SOL    HW122229   3.513   5.054   3.494
 7110SOL    HW222230   3.662   5.068   3.560
 7111SOL     OW22231   1.278   2.647   3.613
 7111SOL    HW122232   1.185   2.669   3.582
 7111SOL    HW222233   1.279   2.556   3.654
 7112SOL     OW22234   1.617   6.322   2.330
 7112SOL    HW122235   1.576   6.276   2.409
 7112SOL    HW222236   1.556   6.395   2.299
 7113SOL     OW22237   3.317   4.043   4.518
 7113SOL    HW122238   3.277   4.073   4.605
 7113SOL    HW222239   3.244   4.017   4.455
 7114SOL     OW22240   4.271   0.567   1.044
 7114SOL    HW122241   4.300   0.478   1.080
 7114SOL    HW222242   4.336   0.597   0.974
 7115SOL     OW22243   4.184   1.828   1.641
 7115SOL    HW122244   4.207   1.908   1.586
 7115SOL    HW222245   4.134   1.857   1.723
 7116SOL     OW22246   5.703   3.445   2.989
 7116SOL    HW122247   5.671   3.396   2.908
 7116SOL    HW222248   5.803   3.441   2.993
 7117SOL     OW22249   6.286   6.381   1.621
 7117SOL    HW122250   6.288   6.481   1.622
 7117SOL    HW222251   6.328   6.347   1.537
 7118SOL     OW22252   6.989   2.577   1.934
 7118SOL    HW122253   0.003   2.669   1.936
 7118SOL    HW222254   6.932   2.563   2.016
 7119SOL     OW22255   6.664   1.533   3.048
 7119SOL    HW122256   6.671   1.442   3.008
 7119SOL    HW222257   6.749   1.555   3.097
 7120SOL     OW22258   5.383   0.009   3.469
 7120SOL    HW122259   5.345   0.038   3.557
 7120SOL    HW222260   5.369   6.936   3.457
 7121SOL     OW22261   3.696   6.593   1.826
 7121SOL    HW122262   3.678   6.676   1.774
 7121SOL    HW222263   3.638   6.590   1.906
 7122SOL     OW22264   6.740   7.009   0.181
 7122SOL    HW122265   6.659   6.958   0.152
 7122SOL    HW222266   6.816   6.945   0.195
 7123SOL     OW22267   2.454   5.159   0.890
 7123SOL    HW122268   2.355   5.162   0.882
 7123SOL    HW222269   2.488   5.070   0.859
 7124SOL     OW22270   0.523   5.749   1.621
 7124SOL    HW122271   0.579   5.790   1.550
 7124SOL    HW222272   0.458   5.684   1.581
 7125SOL     OW22273   0.097   6.861   2.807
 7125SOL    HW122274   0.143   6.792   2.752
 7125SOL    HW222275   0.165   6.912   2.861
 7126SOL     OW22276   0.767   4.806   0.647
 7126SOL    HW122277   0.722   4.792   0.735
 7126SOL    HW222278   0.840   4.738   0.635
 7127SOL     OW22279   3.468   7.019   4.672
 7127SOL    HW122280   3.393   6.974   4.624
 7127SOL    HW222281   3.481   6.977   4.761
 7128SOL     OW22282   2.838   4.651   1.631
 7128SOL    HW122283   2.866   4.584   1.699
 7128SOL    HW222284   2.774   4.715   1.672
 7129SOL     OW22285   2.891   1.486   1.489
 7129SOL    HW122286   2.892   1.508   1.586
 7129SOL    HW222287   2.871   1.568   1.435
 7130SOL     OW22288   2.339   6.068   1.892
 7130SOL    HW122289   2.432   6.031   1.887
 7130SOL    HW222290   2.340   6.163   1.859
 7131SOL     OW22291   2.953   1.277   3.699
 7131SOL    HW122292   3.005   1.322   3.626
 7131SOL    HW222293   2.870   1.235   3.660
 7132SOL     OW22294   3.061   3.948   2.870
 7132SOL    HW122295   3.159   3.959   2.851
 7132SOL    HW222296   3.017   3.903   2.792
 7133SOL     OW22297   5.011   4.843   2.728
 7133SOL    HW122298   5.047   4.793   2.649
 7133SOL    HW222299   5.074   4.917   2.752
 7134SOL     OW22300   5.156   4.461   3.737
 7134SOL    HW122301   5.130   4.435   3.644
 7134SOL    HW222302   5.113   4.548   3.761
 7135SOL     OW22303   0.831   2.004   5.046
 7135SOL    HW122304   0.920   2.008   5.000
 7135SOL    HW222305   0.823   2.081   5.109
 7136SOL     OW22306   2.114   1.894   6.930
 7136SOL    HW122307   2.179   1.970   6.927
 7136SOL    HW222308   2.145   1.827   6.997
 7137SOL     OW22309   3.978   1.328   5.053
 7137SOL    HW122310   3.917   1.307   5.130
 7137SOL    HW222311   3.967   1.424   5.028
 7138SOL     OW22312   2.152   3.837   6.919
 7138SOL    HW122313   2.141   3.862   7.015
 7138SOL    HW222314   2.164   3.738   6.912
 7139SOL     OW22315   3.414   2.241   0.820
 7139SOL    HW122316   3.483   2.249   0.749
 7139SOL    HW222317   3.456   2.254   0.910
 7140SOL     OW22318   6.273   3.262   5.230
 7140SOL    HW122319   6.188   3.227   5.191
 7140SOL    HW222320   6.253   3.338   5.292
 7141SOL     OW22321   2.090   6.794   0.620
 7141SOL    HW122322   2.111   6.749   0.707
 7141SOL    HW222323   1.996   6.828   0.622
 7142SOL     OW22324   3.960   6.860   4.492
 7142SOL    HW122325   3.989   6.765   4.484
 7142SOL    HW222326   4.035   6.920   4.464
 7143SOL     OW22327   1.524   3.721   3.933
 7143SOL    HW122328   1.541   3.717   3.835
 7143SOL    HW222329   1.583   3.655   3.980
 7144SOL     OW22330   0.938   2.663   3.928
 7144SOL    HW122331   1.032   2.674   3.959
 7144SOL    HW222332   0.937   2.642   3.830
 7145SOL     OW22333   4.049   6.487   6.161
 7145SOL    HW122334   4.040   6.510   6.258
 7145SOL    HW222335   4.076   6.569   6.110
 7146SOL     OW22336   2.772   4.531   0.676
 7146SOL    HW122337   2.800   4.474   0.598
 7146SOL    HW222338   2.852   4.551   0.733
 7147SOL     OW22339   0.276   0.822   4.155
 7147SOL    HW122340   0.373   0.822   4.132
 7147SOL    HW222341   0.225   0.870   4.084
 7148SOL     OW22342   0.874   1.609   0.559
 7148SOL    HW122343   0.953   1.555   0.591
 7148SOL    HW222344   0.862   1.595   0.461
 7149SOL     OW22345   6.658   0.696   3.362
 7149SOL    HW122346   6.721   0.714   3.285
 7149SOL    HW222347   6.699   0.627   3.422
 7150SOL     OW22348   5.444   3.730   6.827
 7150SOL    HW122349   5.356   3.705   6.787
 7150SOL    HW222350   5.495   3.647   6.849
 7151SOL     OW22351   1.900   6.127   1.080
 7151SOL    HW122352   1.825   6.140   1.016
 7151SOL    HW222353   1.902   6.203   1.145
 7152SOL     OW22354   1.170   2.397   3.809
 7152SOL    HW122355   1.163   2.459   3.886
 7152SOL    HW222356   1.118   2.314   3.828
 7153SOL     OW22357   3.391   1.756   3.618
 7153SOL    HW122358   3.474   1.707   3.593
 7153SOL    HW222359   3.365   1.817   3.544
 7154SOL     OW22360   4.515   6.365   4.628
 7154SOL    HW122361   4.520   6.305   4.708
 7154SOL    HW222362   4.607   6.377   4.591
 7155SOL     OW22363   2.771   6.962   1.933
 7155SOL    HW122364   2.818   0.024   1.943
 7155SOL    HW222365   2.691   6.974   1.874
 7156SOL     OW22366   0.837   6.019   4.776
 7156SOL    HW122367   0.903   6.056   4.841
 7156SOL    HW222368   0.852   6.061   4.687
 7157SOL     OW22369   5.128   4.371   1.304
 7157SOL    HW122370   5.113   4.390   1.401
 7157SOL    HW222371   5.182   4.444   1.263
 7158SOL     OW22372   5.592   6.794   4.481
 7158SOL    HW122373   5.566   6.889   4.463
 7158SOL    HW222374   5.687   6.790   4.511
 7159SOL     OW22375   0.449   5.432   0.296
 7159SOL    HW122376   0.473   5.453   0.201
 7159SOL    HW222377   0.515   5.475   0.357
 7160SOL     OW22378   6.248   0.862   1.819
 7160SOL    HW122379   6.231   0.892   1.913
 7160SOL    HW222380   6.324   0.915   1.781
 7161SOL     OW22381   3.612   4.148   3.689
 7161SOL    HW122382   3.565   4.153   3.601
 7161SOL    HW222383   3.553   4.185   3.761
 7162SOL     OW22384   2.827   4.723   3.805
 7162SOL    HW122385   2.817   4.624   3.798
 7162SOL    HW222386   2.858   4.760   3.718
 7163SOL     OW22387   3.031   6.763   3.369
 7163SOL    HW122388   2.962   6.692   3.355
 7163SOL    HW222389   3.063   6.797   3.281
 7164SOL     OW22390   2.773   1.700   3.335
 7164SOL    HW122391   2.751   1.635   3.407
 7164SOL    HW222392   2.806   1.786   3.376
 7165SOL     OW22393   5.156   0.230   1.696
 7165SOL    HW122394   5.062   0.253   1.669
 7165SOL    HW222395   5.178   0.276   1.783
 7166SOL     OW22396   4.992   5.349   2.054
 7166SOL    HW122397   4.900   5.357   2.015
 7166SOL    HW222398   5.012   5.431   2.107
 7167SOL     OW22399   5.190   3.030   5.193
 7167SOL    HW122400   5.197   2.997   5.098
 7167SOL    HW222401   5.094   3.027   5.221
 7168SOL     OW22402   1.009   1.739   4.772
 7168SOL    HW122403   0.918   1.698   4.776
 7168SOL    HW222404   1.078   1.670   4.792
 7169SOL     OW22405   1.340   2.950   6.784
 7169SOL    HW122406   1.426   2.925   6.739
 7169SOL    HW222407   1.286   3.009   6.724
 7170SOL     OW22408   6.642   5.382   4.465
 7170SOL    HW122409   6.639   5.287   4.435
 7170SOL    HW222410   6.717   5.395   4.530
 7171SOL     OW22411   4.117   2.517   5.743
 7171SOL    HW122412   4.063   2.573   5.679
 7171SOL    HW222413   4.130   2.567   5.828
 7172SOL     OW22414   0.998   6.928   0.777
 7172SOL    HW122415   1.044   7.013   0.752
 7172SOL    HW222416   0.936   6.946   0.853
 7173SOL     OW22417   5.818   6.100   5.484
 7173SOL    HW122418   5.877   6.151   5.547
 7173SOL    HW222419   5.722   6.116   5.508
 7174SOL     OW22420   0.556   5.485   0.044
 7174SOL    HW122421   0.627   5.497   6.999
 7174SOL    HW222422   0.474   5.535   0.017
 7175SOL     OW22423   6.702   2.955   5.221
 7175SOL    HW122424   6.660   3.036   5.261
 7175SOL    HW222425   6.641   2.917   5.151
 7176SOL     OW22426   5.967   3.597   1.348
 7176SOL    HW122427   5.976   3.690   1.383
 7176SOL    HW222428   5.991   3.532   1.420
 7177SOL     OW22429   1.028   5.911   2.197
 7177SOL    HW122430   1.006   5.899   2.100
 7177SOL    HW222431   1.118   5.953   2.206
 7178SOL     OW22432   0.148   2.527   6.177
 7178SOL    HW122433   0.082   2.467   6.132
 7178SOL    HW222434   0.233   2.528   6.125
 7179SOL     OW22435   2.360   4.353   6.004
 7179SOL    HW122436   2.263   4.377   6.008
 7179SOL    HW222437   2.373   4.260   6.038
 7180SOL     OW22438   1.138   6.463   2.880
 7180SOL    HW122439   1.212   6.522   2.911
 7180SOL    HW222440   1.159   6.427   2.789
 7181SOL     OW22441   5.330   0.003   2.725
 7181SOL    HW122442   5.249   7.011   2.782
 7181SOL    HW222443   5.402   6.963   2.749
 7182SOL     OW22444   2.981   3.270   5.121
 7182SOL    HW122445   3.011   3.178   5.097
 7182SOL    HW222446   2.895   3.265   5.173
 7183SOL     OW22447   1.404   5.019   3.124
 7183SOL    HW122448   1.320   5.047   3.077
 7183SOL    HW222449   1.454   4.954   3.067
 7184SOL     OW22450   2.012   6.141   2.887
 7184SOL    HW122451   2.099   6.184   2.863
 7184SOL    HW222452   2.026   6.079   2.965
 7185SOL     OW22453   4.101   2.217   6.617
 7185SOL    HW122454   4.171   2.256   6.676
 7185SOL    HW222455   4.021   2.277   6.615
 7186SOL     OW22456   0.613   6.710   4.242
 7186SOL    HW122457   0.577   6.677   4.155
 7186SOL    HW222458   0.669   6.791   4.226
 7187SOL     OW22459   2.163   5.919   1.373
 7187SOL    HW122460   2.148   5.849   1.302
 7187SOL    HW222461   2.076   5.959   1.400
 7188SOL     OW22462   5.350   0.528   1.951
 7188SOL    HW122463   5.293   0.589   1.897
 7188SOL    HW222464   5.443   0.527   1.913
 7189SOL     OW22465   6.814   0.299   4.709
 7189SOL    HW122466   6.748   0.263   4.775
 7189SOL    HW222467   6.809   0.399   4.710
 7190SOL     OW22468   4.752   5.153   3.390
 7190SOL    HW122469   4.655   5.159   3.368
 7190SOL    HW222470   4.803   5.120   3.310
 7191SOL     OW22471   1.189   2.889   1.850
 7191SOL    HW122472   1.240   2.848   1.774
 7191SOL    HW222473   1.098   2.848   1.854
 7192SOL     OW22474   3.730   5.629   6.034
 7192SOL    HW122475   3.664   5.578   6.089
 7192SOL    HW222476   3.786   5.565   5.980
 7193SOL     OW22477   5.223   1.259   3.327
 7193SOL    HW122478   5.291   1.209   3.275
 7193SOL    HW222479   5.247   1.356   3.331
 7194SOL     OW22480   3.127   1.826   1.221
 7194SOL    HW122481   3.144   1.790   1.312
 7194SOL    HW222482   3.096   1.752   1.161
 7195SOL     OW22483   0.484   5.733   2.149
 7195SOL    HW122484   0.525   5.742   2.058
 7195SOL    HW222485   0.555   5.737   2.219
 7196SOL     OW22486   3.606   3.254   1.815
 7196SOL    HW122487   3.628   3.341   1.859
 7196SOL    HW222488   3.670   3.237   1.740
 7197SOL     OW22489   1.662   1.664   4.666
 7197SOL    HW122490   1.577   1.703   4.629
 7197SOL    HW222491   1.656   1.564   4.665
 7198SOL     OW22492   0.929   6.096   6.547
 7198SOL    HW122493   0.978   6.160   6.605
 7198SOL    HW222494   0.992   6.025   6.515
 7199SOL     OW22495   6.364   6.436   2.698
 7199SOL    HW122496   6.428   6.360   2.694
 7199SOL    HW222497   6.330   6.456   2.606
 7200SOL     OW22498   2.443   1.941   1.710
 7200SOL    HW122499   2.421   1.854   1.755
 7200SOL    HW222500   2.471   2.008   1.778
 7201SOL     OW22501   2.642   4.693   3.498
 7201SOL    HW122502   2.593   4.635   3.563
 7201SOL    HW222503   2.737   4.703   3.527
 7202SOL     OW22504   3.749   0.322   5.904
 7202SOL    HW122505   3.679   0.253   5.886
 7202SOL    HW222506   3.784   0.358   5.817
 7203SOL     OW22507   6.153   0.277   6.594
 7203SOL    HW122508   6.205   0.362   6.584
 7203SOL    HW222509   6.107   0.276   6.683
 7204SOL     OW22510   5.906   1.615   1.953
 7204SOL    HW122511   5.901   1.691   1.888
 7204SOL    HW222512   5.875   1.531   1.908
 7205SOL     OW22513   2.329   5.210   1.882
 7205SOL    HW122514   2.285   5.125   1.850
 7205SOL    HW222515   2.314   5.282   1.815
 7206SOL     OW22516   5.644   1.568   1.478
 7206SOL    HW122517   5.626   1.608   1.388
 7206SOL    HW222518   5.571   1.503   1.500
 7207SOL     OW22519   4.526   6.975   1.334
 7207SOL    HW122520   4.582   0.030   1.353
 7207SOL    HW222521   4.442   6.979   1.389
 7208SOL     OW22522   3.276   7.004   5.091
 7208SOL    HW122523   3.191   6.955   5.110
 7208SOL    HW222524   3.261   0.077   5.105
 7209SOL     OW22525   4.167   3.590   4.576
 7209SOL    HW122526   4.254   3.635   4.560
 7209SOL    HW222527   4.156   3.512   4.514
 7210SOL     OW22528   4.734   0.418   3.810
 7210SOL    HW122529   4.673   0.488   3.847
 7210SOL    HW222530   4.695   0.381   3.726
 7211SOL     OW22531   1.669   5.117   2.555
 7211SOL    HW122532   1.732   5.195   2.548
 7211SOL    HW222533   1.575   5.150   2.552
 7212SOL     OW22534   4.923   7.011   3.854
 7212SOL    HW122535   4.918   6.932   3.915
 7212SOL    HW222536   4.892   6.984   3.763
 7213SOL     OW22537   5.420   0.260   5.604
 7213SOL    HW122538   5.327   0.226   5.611
 7213SOL    HW222539   5.429   0.345   5.656
 7214SOL     OW22540   0.593   4.954   5.138
 7214SOL    HW122541   0.560   5.018   5.069
 7214SOL    HW222542   0.628   4.872   5.094
 7215SOL     OW22543   1.052   2.992   2.417
 7215SOL    HW122544   1.151   3.005   2.414
 7215SOL    HW222545   1.009   3.073   2.458
 7216SOL     OW22546   2.386   1.578   1.500
 7216SOL    HW122547   2.304   1.634   1.485
 7216SOL    HW222548   2.410   1.531   1.415
 7217SOL     OW22549   1.176   3.140   1.961
 7217SOL    HW122550   1.119   3.166   1.882
 7217SOL    HW222551   1.197   3.042   1.954
 7218SOL     OW22552   6.293   2.076   6.266
 7218SOL    HW122553   6.244   1.990   6.253
 7218SOL    HW222554   6.294   2.100   6.363
 7219SOL     OW22555   3.759   0.950   1.131
 7219SOL    HW122556   3.730   0.861   1.095
 7219SOL    HW222557   3.683   0.994   1.178
 7220SOL     OW22558   6.972   1.196   2.761
 7220SOL    HW122559   6.970   1.293   2.786
 7220SOL    HW222560   0.041   1.166   2.752
 7221SOL     OW22561   5.686   5.018   4.979
 7221SOL    HW122562   5.712   4.995   4.885
 7221SOL    HW222563   5.759   5.072   5.021
 7222SOL     OW22564   5.792   6.590   3.040
 7222SOL    HW122565   5.731   6.566   3.115
 7222SOL    HW222566   5.882   6.547   3.055
 7223SOL     OW22567   3.712   0.719   5.361
 7223SOL    HW122568   3.676   0.706   5.269
 7223SOL    HW222569   3.807   0.749   5.356
 7224SOL     OW22570   4.784   0.524   4.325
 7224SOL    HW122571   4.850   0.500   4.253
 7224SOL    HW222572   4.751   0.617   4.310
 7225SOL     OW22573   2.309   0.323   0.359
 7225SOL    HW122574   2.313   0.263   0.279
 7225SOL    HW222575   2.333   0.271   0.441
 7226SOL     OW22576   5.788   6.780   6.726
 7226SOL    HW122577   5.712   6.728   6.765
 7226SOL    HW222578   5.862   6.785   6.793
 7227SOL     OW22579   6.895   2.401   6.310
 7227SOL    HW122580   6.933   2.492   6.322
 7227SOL    HW222581   6.875   2.386   6.214
 7228SOL     OW22582   2.044   0.473   2.356
 7228SOL    HW122583   2.058   0.420   2.440
 7228SOL    HW222584   1.961   0.528   2.366
 7229SOL     OW22585   0.712   0.337   4.098
 7229SOL    HW122586   0.682   0.423   4.141
 7229SOL    HW222587   0.649   0.312   4.025
 7230SOL     OW22588   5.707   5.092   2.228
 7230SOL    HW122589   5.670   5.083   2.135
 7230SOL    HW222590   5.672   5.176   2.269
 7231SOL     OW22591   5.714   1.375   6.523
 7231SOL    HW122592   5.631   1.421   6.490
 7231SOL    HW222593   5.724   1.287   6.475
 7232SOL     OW22594   3.720   4.066   0.745
 7232SOL    HW122595   3.705   3.968   0.733
 7232SOL    HW222596   3.728   4.110   0.655
 7233SOL     OW22597   0.152   2.386   5.794
 7233SOL    HW122598   0.130   2.479   5.764
 7233SOL    HW222599   0.207   2.341   5.724
 7234SOL     OW22600   5.572   1.963   2.620
 7234SOL    HW122601   5.664   1.928   2.602
 7234SOL    HW222602   5.513   1.942   2.542
 7235SOL     OW22603   6.047   2.981   4.373
 7235SOL    HW122604   5.981   2.978   4.449
 7235SOL    HW222605   6.030   2.904   4.311
 7236SOL     OW22606   2.994   1.011   3.223
 7236SOL    HW122607   3.021   1.077   3.294
 7236SOL    HW222608   3.065   0.940   3.215
 7237SOL     OW22609   5.845   5.668   5.878
 7237SOL    HW122610   5.908   5.594   5.901
 7237SOL    HW222611   5.834   5.728   5.958
 7238SOL     OW22612   0.749   1.206   1.702
 7238SOL    HW122613   0.695   1.268   1.645
 7238SOL    HW222614   0.800   1.260   1.770
 7239SOL     OW22615   4.290   1.099   2.351
 7239SOL    HW122616   4.220   1.028   2.337
 7239SOL    HW222617   4.268   1.178   2.293
 7240SOL     OW22618   2.562   3.443   1.091
 7240SOL    HW122619   2.615   3.527   1.092
 7240SOL    HW222620   2.556   3.406   1.183
 7241SOL     OW22621   4.471   6.951   4.508
 7241SOL    HW122622   4.490   7.021   4.440
 7241SOL    HW222623   4.429   6.993   4.589
 7242SOL     OW22624   5.215   5.036   0.470
 7242SOL    HW122625   5.233   5.072   0.561
 7242SOL    HW222626   5.301   5.023   0.422
 7243SOL     OW22627   0.540   5.853   0.443
 7243SOL    HW122628   0.625   5.874   0.490
 7243SOL    HW222629   0.549   5.879   0.346
 7244SOL     OW22630   5.349   1.774   0.732
 7244SOL    HW122631   5.327   1.839   0.660
 7244SOL    HW222632   5.401   1.821   0.804
 7245SOL     OW22633   6.320   1.991   4.588
 7245SOL    HW122634   6.284   1.993   4.495
 7245SOL    HW222635   6.419   1.978   4.584
 7246SOL     OW22636   1.282   5.719   5.413
 7246SOL    HW122637   1.353   5.789   5.410
 7246SOL    HW222638   1.225   5.726   5.331
 7247SOL     OW22639   3.324   5.903   2.898
 7247SOL    HW122640   3.259   5.830   2.917
 7247SOL    HW222641   3.375   5.926   2.981
 7248SOL     OW22642   3.183   0.958   5.186
 7248SOL    HW122643   3.168   0.859   5.186
 7248SOL    HW222644   3.094   1.005   5.187
 7249SOL     OW22645   5.851   4.482   6.093
 7249SOL    HW122646   5.934   4.534   6.108
 7249SOL    HW222647   5.792   4.488   6.174
 7250SOL     OW22648   3.221   3.827   6.869
 7250SOL    HW122649   3.147   3.769   6.904
 7250SOL    HW222650   3.299   3.771   6.843
 7251SOL     OW22651   5.331   0.807   4.923
 7251SOL    HW122652   5.353   0.795   4.826
 7251SOL    HW222653   5.349   0.721   4.972
 7252SOL     OW22654   4.367   3.592   5.285
 7252SOL    HW122655   4.311   3.525   5.236
 7252SOL    HW222656   4.464   3.573   5.267
 7253SOL     OW22657   4.883   4.917   1.150
 7253SOL    HW122658   4.934   4.864   1.218
 7253SOL    HW222659   4.938   4.995   1.120
 7254SOL     OW22660   5.135   0.140   5.565
 7254SOL    HW122661   5.063   0.203   5.595
 7254SOL    HW222662   5.115   0.107   5.473
 7255SOL     OW22663   4.254   3.633   1.777
 7255SOL    HW122664   4.179   3.692   1.806
 7255SOL    HW222665   4.221   3.570   1.706
 7256SOL     OW22666   4.037   5.096   3.944
 7256SOL    HW122667   3.946   5.062   3.923
 7256SOL    HW222668   4.097   5.083   3.864
 7257SOL     OW22669   6.044   3.680   3.459
 7257SOL    HW122670   6.059   3.582   3.465
 7257SOL    HW222671   6.111   3.719   3.396
 7258SOL     OW22672   2.257   0.189   5.498
 7258SOL    HW122673   2.229   0.236   5.414
 7258SOL    HW222674   2.302   0.103   5.474
 7259SOL     OW22675   2.279   5.360   6.302
 7259SOL    HW122676   2.277   5.354   6.401
 7259SOL    HW222677   2.229   5.441   6.272
 7260SOL     OW22678   4.529   1.684   2.475
 7260SOL    HW122679   4.451   1.747   2.473
 7260SOL    HW222680   4.547   1.656   2.569
 7261SOL     OW22681   1.786   4.706   1.301
 7261SOL    HW122682   1.708   4.763   1.326
 7261SOL    HW222683   1.753   4.625   1.252
 7262SOL     OW22684   6.420   1.328   5.829
 7262SOL    HW122685   6.496   1.340   5.893
 7262SOL    HW222686   6.352   1.400   5.845
 7263SOL     OW22687   5.217   6.217   1.813
 7263SOL    HW122688   5.119   6.231   1.827
 7263SOL    HW222689   5.258   6.181   1.897
 7264SOL     OW22690   1.762   6.611   4.472
 7264SOL    HW122691   1.819   6.535   4.441
 7264SOL    HW222692   1.683   6.576   4.522
 7265SOL     OW22693   4.358   3.569   6.122
 7265SOL    HW122694   4.432   3.636   6.126
 7265SOL    HW222695   4.331   3.554   6.027
 7266SOL     OW22696   4.295   1.401   1.245
 7266SOL    HW122697   4.290   1.499   1.225
 7266SOL    HW222698   4.360   1.386   1.320
 7267SOL     OW22699   0.354   2.926   4.152
 7267SOL    HW122700   0.361   2.899   4.248
 7267SOL    HW222701   0.286   2.869   4.106
 7268SOL     OW22702   3.349   0.311   0.740
 7268SOL    HW122703   3.260   0.292   0.698
 7268SOL    HW222704   3.388   0.393   0.699
 7269SOL     OW22705   1.235   6.565   2.222
 7269SOL    HW122706   1.317   6.611   2.186
 7269SOL    HW222707   1.208   6.609   2.308
 7270SOL     OW22708   3.347   1.809   2.389
 7270SOL    HW122709   3.340   1.865   2.307
 7270SOL    HW222710   3.369   1.715   2.364
 7271SOL     OW22711   6.303   4.776   3.871
 7271SOL    HW122712   6.245   4.852   3.901
 7271SOL    HW222713   6.301   4.770   3.771
 7272SOL     OW22714   6.363   1.666   1.232
 7272SOL    HW122715   6.265   1.665   1.252
 7272SOL    HW222716   6.377   1.703   1.140
 7273SOL     OW22717   5.403   6.091   5.766
 7273SOL    HW122718   5.419   6.093   5.668
 7273SOL    HW222719   5.451   6.014   5.807
 7274SOL     OW22720   6.783   5.029   4.205
 7274SOL    HW122721   6.838   5.089   4.263
 7274SOL    HW222722   6.832   4.943   4.191
 7275SOL     OW22723   5.513   6.518   1.276
 7275SOL    HW122724   5.561   6.504   1.362
 7275SOL    HW222725   5.515   6.433   1.222
 7276SOL     OW22726   2.857   1.627   4.012
 7276SOL    HW122727   2.942   1.580   3.989
 7276SOL    HW222728   2.853   1.715   3.964
 7277SOL     OW22729   5.777   1.423   4.016
 7277SOL    HW122730   5.808   1.446   4.108
 7277SOL    HW222731   5.688   1.466   3.999
 7278SOL     OW22732   2.198   1.751   3.561
 7278SOL    HW122733   2.275   1.697   3.594
 7278SOL    HW222734   2.223   1.795   3.475
 7279SOL     OW22735   4.121   4.423   1.007
 7279SOL    HW122736   4.196   4.358   0.990
 7279SOL    HW222737   4.078   4.446   0.920
 7280SOL     OW22738   6.558   2.013   5.451
 7280SOL    HW122739   6.482   2.043   5.509
 7280SOL    HW222740   6.583   2.087   5.388
 7281SOL     OW22741   3.961   5.826   2.192
 7281SOL    HW122742   3.903   5.751   2.224
 7281SOL    HW222743   4.004   5.800   2.105
 7282SOL     OW22744   6.651   3.890   2.216
 7282SOL    HW122745   6.602   3.950   2.152
 7282SOL    HW222746   6.592   3.871   2.295
 7283SOL     OW22747   3.590   5.761   3.056
 7283SOL    HW122748   3.611   5.685   2.994
 7283SOL    HW222749   3.519   5.732   3.121
 7284SOL     OW22750   1.018   1.392   2.412
 7284SOL    HW122751   0.980   1.329   2.479
 7284SOL    HW222752   1.092   1.444   2.455
 7285SOL     OW22753   4.857   2.811   1.903
 7285SOL    HW122754   4.912   2.793   1.985
 7285SOL    HW222755   4.810   2.898   1.914
 7286SOL     OW22756   6.227   1.356   3.426
 7286SOL    HW122757   6.312   1.368   3.477
 7286SOL    HW222758   6.205   1.441   3.378
 7287SOL     OW22759   3.244   0.890   3.992
 7287SOL    HW122760   3.317   0.957   3.990
 7287SOL    HW222761   3.161   0.929   3.952
 7288SOL     OW22762   3.246   1.656   2.041
 7288SOL    HW122763   3.234   1.584   2.110
 7288SOL    HW222764   3.208   1.625   1.954
 7289SOL     OW22765   5.788   3.322   2.098
 7289SOL    HW122766   5.700   3.312   2.143
 7289SOL    HW222767   5.853   3.365   2.160
 7290SOL     OW22768   4.184   1.701   5.436
 7290SOL    HW122769   4.142   1.695   5.526
 7290SOL    HW222770   4.283   1.703   5.445
 7291SOL     OW22771   1.634   1.103   0.557
 7291SOL    HW122772   1.570   1.121   0.483
 7291SOL    HW222773   1.686   1.020   0.536
 7292SOL     OW22774   2.686   1.158   2.532
 7292SOL    HW122775   2.773   1.114   2.556
 7292SOL    HW222776   2.654   1.212   2.610
 7293SOL     OW22777   6.285   1.275   3.803
 7293SOL    HW122778   6.341   1.228   3.871
 7293SOL    HW222779   6.217   1.331   3.849
 7294SOL     OW22780   3.883   6.512   2.010
 7294SOL    HW122781   3.797   6.533   1.963
 7294SOL    HW222782   3.884   6.416   2.037
 7295SOL     OW22783   5.402   4.128   1.444
 7295SOL    HW122784   5.365   4.036   1.443
 7295SOL    HW222785   5.421   4.158   1.351
 7296SOL     OW22786   3.556   6.248   2.013
 7296SOL    HW122787   3.490   6.302   1.960
 7296SOL    HW222788   3.540   6.151   1.998
 7297SOL     OW22789   4.411   6.484   0.681
 7297SOL    HW122790   4.509   6.476   0.696
 7297SOL    HW222791   4.370   6.538   0.755
 7298SOL     OW22792   4.207   5.628   1.123
 7298SOL    HW122793   4.260   5.554   1.083
 7298SOL    HW222794   4.156   5.675   1.051
 7299SOL     OW22795   0.464   3.243   5.384
 7299SOL    HW122796   0.557   3.209   5.401
 7299SOL    HW222797   0.423   3.273   5.470
 7300SOL     OW22798   0.612   4.884   2.397
 7300SOL    HW122799   0.603   4.815   2.469
 7300SOL    HW222800   0.619   4.974   2.438
 7301SOL     OW22801   4.046   2.133   6.310
 7301SOL    HW122802   3.951   2.102   6.303
 7301SOL    HW222803   4.061   2.173   6.401
 7302SOL     OW22804   5.343   2.536   6.903
 7302SOL    HW122805   5.300   2.621   6.874
 7302SOL    HW222806   5.339   2.469   6.829
 7303SOL     OW22807   3.290   1.962   1.637
 7303SOL    HW122808   3.286   2.055   1.599
 7303SOL    HW222809   3.386   1.934   1.645
 7304SOL     OW22810   2.323   5.555   0.431
 7304SOL    HW122811   2.378   5.532   0.512
 7304SOL    HW222812   2.344   5.649   0.403
 7305SOL     OW22813   6.343   0.652   6.818
 7305SOL    HW122814   6.364   0.750   6.817
 7305SOL    HW222815   6.403   0.606   6.883
 7306SOL     OW22816   1.162   3.090   1.264
 7306SOL    HW122817   1.077   3.039   1.255
 7306SOL    HW222818   1.163   3.165   1.197
 7307SOL     OW22819   2.422   0.303   1.983
 7307SOL    HW122820   2.513   0.290   2.022
 7307SOL    HW222821   2.416   0.395   1.944
 7308SOL     OW22822   3.671   0.867   3.338
 7308SOL    HW122823   3.607   0.790   3.343
 7308SOL    HW222824   3.669   0.918   3.424
 7309SOL     OW22825   2.217   5.418   3.697
 7309SOL    HW122826   2.141   5.391   3.756
 7309SOL    HW222827   2.196   5.505   3.652
 7310SOL     OW22828   2.723   2.853   6.590
 7310SOL    HW122829   2.663   2.783   6.551
 7310SOL    HW222830   2.815   2.815   6.602
 7311SOL     OW22831   0.189   6.063   6.012
 7311SOL    HW122832   0.166   6.121   6.090
 7311SOL    HW222833   0.139   6.093   5.931
 7312SOL     OW22834   5.924   2.351   4.180
 7312SOL    HW122835   5.990   2.426   4.181
 7312SOL    HW222836   5.840   2.380   4.226
 7313SOL     OW22837   2.993   0.752   2.885
 7313SOL    HW122838   2.939   0.823   2.930
 7313SOL    HW222839   3.017   0.781   2.793
 7314SOL     OW22840   1.820   4.867   5.869
 7314SOL    HW122841   1.913   4.886   5.839
 7314SOL    HW222842   1.772   4.954   5.885
 7315SOL     OW22843   2.788   5.265   2.326
 7315SOL    HW122844   2.709   5.302   2.374
 7315SOL    HW222845   2.811   5.175   2.363
 7316SOL     OW22846   4.059   1.418   1.390
 7316SOL    HW122847   4.153   1.385   1.380
 7316SOL    HW222848   3.996   1.351   1.352
 7317SOL     OW22849   4.607   1.937   0.476
 7317SOL    HW122850   4.509   1.946   0.458
 7317SOL    HW222851   4.656   2.007   0.425
 7318SOL     OW22852   5.093   6.994   0.300
 7318SOL    HW122853   5.142   0.050   0.267
 7318SOL    HW222854   5.147   6.949   0.371
 7319SOL     OW22855   5.404   6.149   6.741
 7319SOL    HW122856   5.467   6.090   6.691
 7319SOL    HW222857   5.446   6.179   6.826
 7320SOL     OW22858   0.577   2.831   0.304
 7320SOL    HW122859   0.558   2.851   0.208
 7320SOL    HW222860   0.675   2.819   0.317
 7321SOL     OW22861   2.149   2.634   6.517
 7321SOL    HW122862   2.118   2.655   6.610
 7321SOL    HW222863   2.226   2.693   6.494
 7322SOL     OW22864   1.071   2.812   3.520
 7322SOL    HW122865   0.995   2.827   3.584
 7322SOL    HW222866   1.105   2.900   3.487
 7323SOL     OW22867   1.618   2.246   0.556
 7323SOL    HW122868   1.635   2.257   0.654
 7323SOL    HW222869   1.639   2.151   0.530
 7324SOL     OW22870   4.865   3.795   3.916
 7324SOL    HW122871   4.960   3.804   3.944
 7324SOL    HW222872   4.815   3.878   3.941
 7325SOL     OW22873   3.622   1.471   6.309
 7325SOL    HW122874   3.680   1.390   6.316
 7325SOL    HW222875   3.559   1.461   6.232
 7326SOL     OW22876   3.936   6.952   0.538
 7326SOL    HW122877   3.913   6.913   0.627
 7326SOL    HW222878   3.902   6.893   0.465
 7327SOL     OW22879   1.734   4.260   3.538
 7327SOL    HW122880   1.720   4.240   3.635
 7327SOL    HW222881   1.824   4.226   3.510
 7328SOL     OW22882   4.465   5.434   6.183
 7328SOL    HW122883   4.405   5.367   6.227
 7328SOL    HW222884   4.449   5.434   6.084
 7329SOL     OW22885   2.829   3.874   0.469
 7329SOL    HW122886   2.923   3.907   0.454
 7329SOL    HW222887   2.824   3.827   0.557
 7330SOL     OW22888   2.549   2.840   0.832
 7330SOL    HW122889   2.545   2.801   0.924
 7330SOL    HW222890   2.548   2.766   0.764
 7331SOL     OW22891   5.373   1.877   2.447
 7331SOL    HW122892   5.281   1.865   2.486
 7331SOL    HW222893   5.368   1.874   2.348
 7332SOL     OW22894   2.906   6.249   5.688
 7332SOL    HW122895   2.914   6.168   5.747
 7332SOL    HW222896   2.866   6.221   5.601
 7333SOL     OW22897   0.198   0.722   1.434
 7333SOL    HW122898   0.214   0.780   1.514
 7333SOL    HW222899   0.150   0.640   1.462
 7334SOL     OW22900   1.387   4.640   4.271
 7334SOL    HW122901   1.348   4.640   4.179
 7334SOL    HW222902   1.324   4.686   4.334
 7335SOL     OW22903   0.576   3.585   2.348
 7335SOL    HW122904   0.482   3.597   2.381
 7335SOL    HW222905   0.618   3.506   2.394
 7336SOL     OW22906   2.327   6.623   1.096
 7336SOL    HW122907   2.383   6.598   1.175
 7336SOL    HW222908   2.292   6.540   1.053
 7337SOL     OW22909   3.555   1.136   4.060
 7337SOL    HW122910   3.627   1.067   4.052
 7337SOL    HW222911   3.508   1.146   3.973
 7338SOL     OW22912   4.950   3.803   1.197
 7338SOL    HW122913   4.899   3.866   1.256
 7338SOL    HW222914   4.998   3.736   1.253
 7339SOL     OW22915   0.167   6.056   4.722
 7339SOL    HW122916   0.193   6.143   4.681
 7339SOL    HW222917   0.233   5.985   4.696
 7340SOL     OW22918   2.614   6.072   0.529
 7340SOL    HW122919   2.644   6.150   0.584
 7340SOL    HW222920   2.691   6.009   0.517
 7341SOL     OW22921   6.282   5.773   4.365
 7341SOL    HW122922   6.353   5.843   4.352
 7341SOL    HW222923   6.266   5.760   4.463
 7342SOL     OW22924   0.946   5.053   0.958
 7342SOL    HW122925   0.936   4.955   0.939
 7342SOL    HW222926   0.885   5.080   1.032
 7343SOL     OW22927   5.929   2.438   2.961
 7343SOL    HW122928   5.912   2.525   2.914
 7343SOL    HW222929   5.934   2.364   2.894
 7344SOL     OW22930   2.098   1.380   0.108
 7344SOL    HW122931   2.126   1.299   0.055
 7344SOL    HW222932   2.136   1.462   0.064
 7345SOL     OW22933   2.412   6.415   0.039
 7345SOL    HW122934   2.315   6.427   0.060
 7345SOL    HW222935   2.463   6.495   0.071
 7346SOL     OW22936   4.009   5.051   2.238
 7346SOL    HW122937   3.944   5.013   2.172
 7346SOL    HW222938   3.993   5.149   2.248
 7347SOL     OW22939   6.480   2.805   2.305
 7347SOL    HW122940   6.474   2.716   2.350
 7347SOL    HW222941   6.540   2.865   2.357
 7348SOL     OW22942   6.933   1.280   4.959
 7348SOL    HW122943   6.911   1.196   5.008
 7348SOL    HW222944   6.872   1.290   4.880
 7349SOL     OW22945   3.600   1.415   0.749
 7349SOL    HW122946   3.563   1.322   0.737
 7349SOL    HW222947   3.625   1.429   0.844
 7350SOL     OW22948   2.369   1.291   2.791
 7350SOL    HW122949   2.411   1.223   2.851
 7350SOL    HW222950   2.441   1.350   2.753
 7351SOL     OW22951   4.025   5.052   0.605
 7351SOL    HW122952   4.108   5.015   0.564
 7351SOL    HW222953   4.029   5.152   0.607
 7352SOL     OW22954   6.785   0.422   3.437
 7352SOL    HW122955   6.707   0.359   3.433
 7352SOL    HW222956   6.869   0.370   3.444
 7353SOL     OW22957   5.218   2.129   4.543
 7353SOL    HW122958   5.238   2.190   4.467
 7353SOL    HW222959   5.202   2.183   4.626
 7354SOL     OW22960   6.460   4.282   4.545
 7354SOL    HW122961   6.531   4.215   4.570
 7354SOL    HW222962   6.370   4.246   4.570
 7355SOL     OW22963   0.786   5.153   1.179
 7355SOL    HW122964   0.738   5.231   1.138
 7355SOL    HW222965   0.776   5.156   1.278
 7356SOL     OW22966   0.169   2.104   6.360
 7356SOL    HW122967   0.240   2.154   6.410
 7356SOL    HW222968   0.196   2.095   6.264
 7357SOL     OW22969   0.723   1.803   0.241
 7357SOL    HW122970   0.809   1.841   0.276
 7357SOL    HW222971   0.673   1.874   0.192
 7358SOL     OW22972   3.568   0.404   4.046
 7358SOL    HW122973   3.498   0.344   4.007
 7358SOL    HW222974   3.531   0.496   4.058
 7359SOL     OW22975   3.538   2.892   3.257
 7359SOL    HW122976   3.478   2.890   3.177
 7359SOL    HW222977   3.503   2.960   3.322
 7360SOL     OW22978   0.160   3.890   5.971
 7360SOL    HW122979   0.216   3.969   5.946
 7360SOL    HW222980   0.127   3.845   5.888
 7361SOL     OW22981   4.844   6.505   1.807
 7361SOL    HW122982   4.905   6.526   1.731
 7361SOL    HW222983   4.760   6.559   1.798
 7362SOL     OW22984   1.674   6.707   6.493
 7362SOL    HW122985   1.628   6.795   6.504
 7362SOL    HW222986   1.768   6.722   6.461
 7363SOL     OW22987   4.967   2.907   6.745
 7363SOL    HW122988   4.890   2.912   6.809
 7363SOL    HW222989   5.022   2.827   6.766
 7364SOL     OW22990   4.905   1.033   1.130
 7364SOL    HW122991   4.905   1.114   1.071
 7364SOL    HW222992   4.834   0.970   1.100
 7365SOL     OW22993   3.812   0.845   1.792
 7365SOL    HW122994   3.828   0.933   1.747
 7365SOL    HW222995   3.796   0.774   1.722
 7366SOL     OW22996   0.634   6.325   0.107
 7366SOL    HW122997   0.723   6.370   0.097
 7366SOL    HW222998   0.620   6.263   0.030
 7367SOL     OW22999   4.630   3.016   6.686
 7367SOL    HW123000   4.576   2.946   6.639
 7367SOL    HW223001   4.665   3.082   6.619
 7368SOL     OW23002   3.148   3.246   3.674
 7368SOL    HW123003   3.167   3.227   3.577
 7368SOL    HW223004   3.053   3.275   3.684
 7369SOL     OW23005   4.862   1.872   6.025
 7369SOL    HW123006   4.940   1.921   6.066
 7369SOL    HW223007   4.826   1.806   6.091
 7370SOL     OW23008   0.980   5.338   0.993
 7370SOL    HW123009   0.987   5.243   0.960
 7370SOL    HW223010   1.021   5.344   1.084
 7371SOL     OW23011   2.250   5.049   4.377
 7371SOL    HW123012   2.290   4.970   4.423
 7371SOL    HW223013   2.308   5.129   4.391
 7372SOL     OW23014   3.098   6.534   5.425
 7372SOL    HW123015   3.030   6.569   5.489
 7372SOL    HW223016   3.148   6.459   5.468
 7373SOL     OW23017   3.657   0.517   0.802
 7373SOL    HW123018   3.625   0.601   0.759
 7373SOL    HW223019   3.594   0.442   0.781
 7374SOL     OW23020   2.416   3.362   6.439
 7374SOL    HW123021   2.485   3.292   6.455
 7374SOL    HW223022   2.438   3.413   6.355
 7375SOL     OW23023   2.326   6.217   2.886
 7375SOL    HW123024   2.346   6.131   2.839
 7375SOL    HW223025   2.411   6.263   2.910
 7376SOL     OW23026   3.362   4.493   6.464
 7376SOL    HW123027   3.396   4.455   6.550
 7376SOL    HW223028   3.419   4.462   6.388
 7377SOL     OW23029   5.724   5.369   2.128
 7377SOL    HW123030   5.821   5.355   2.109
 7377SOL    HW223031   5.672   5.367   2.043
 7378SOL     OW23032   6.904   2.685   6.327
 7378SOL    HW123033   6.867   2.670   6.418
 7378SOL    HW223034   6.991   2.735   6.333
 7379SOL     OW23035   4.103   1.282   1.052
 7379SOL    HW123036   4.182   1.287   1.112
 7379SOL    HW223037   4.051   1.199   1.071
 7380SOL     OW23038   6.262   2.398   5.543
 7380SOL    HW123039   6.251   2.346   5.628
 7380SOL    HW223040   6.259   2.335   5.465
 7381SOL     OW23041   4.532   2.452   0.046
 7381SOL    HW123042   4.441   2.410   0.036
 7381SOL    HW223043   4.602   2.381   0.050
 7382SOL     OW23044   0.861   5.804   3.644
 7382SOL    HW123045   0.809   5.890   3.644
 7382SOL    HW223046   0.808   5.733   3.597
 7383SOL     OW23047   0.332   4.798   3.252
 7383SOL    HW123048   0.422   4.756   3.241
 7383SOL    HW223049   0.275   4.775   3.173
 7384SOL     OW23050   6.449   1.969   1.871
 7384SOL    HW123051   6.530   1.955   1.928
 7384SOL    HW223052   6.471   1.946   1.776
 7385SOL     OW23053   5.182   0.700   1.772
 7385SOL    HW123054   5.165   0.789   1.813
 7385SOL    HW223055   5.241   0.711   1.692
 7386SOL     OW23056   6.950   2.710   5.835
 7386SOL    HW123057   6.911   2.667   5.916
 7386SOL    HW223058   0.005   2.764   5.862
 7387SOL     OW23059   5.439   6.422   3.978
 7387SOL    HW123060   5.418   6.516   4.006
 7387SOL    HW223061   5.370   6.389   3.915
 7388SOL     OW23062   5.295   4.178   4.718
 7388SOL    HW123063   5.376   4.134   4.677
 7388SOL    HW223064   5.307   4.186   4.816
 7389SOL     OW23065   0.558   4.048   4.548
 7389SOL    HW123066   0.461   4.070   4.537
 7389SOL    HW223067   0.612   4.131   4.541
 7390SOL     OW23068   3.171   0.192   6.280
 7390SOL    HW123069   3.124   0.161   6.363
 7390SOL    HW223070   3.270   0.190   6.296
 7391SOL     OW23071   6.802   4.614   0.322
 7391SOL    HW123072   6.900   4.600   0.311
 7391SOL    HW223073   6.783   4.648   0.415
 7392SOL     OW23074   2.293   4.463   2.915
 7392SOL    HW123075   2.373   4.514   2.882
 7392SOL    HW223076   2.313   4.425   3.005
 7393SOL     OW23077   0.495   3.948   0.187
 7393SOL    HW123078   0.567   3.916   0.127
 7393SOL    HW223079   0.478   4.045   0.171
 7394SOL     OW23080   2.871   2.797   6.338
 7394SOL    HW123081   2.834   2.836   6.423
 7394SOL    HW223082   2.969   2.778   6.351
 7395SOL     OW23083   2.129   6.471   0.066
 7395SOL    HW123084   2.095   6.382   0.095
 7395SOL    HW223085   2.108   6.485   6.994
 7396SOL     OW23086   6.926   6.741   1.907
 7396SOL    HW123087   6.991   6.671   1.878
 7396SOL    HW223088   6.909   6.804   1.832
 7397SOL     OW23089   6.049   4.551   4.656
 7397SOL    HW123090   6.128   4.574   4.714
 7397SOL    HW223091   6.075   4.562   4.560
 7398SOL     OW23092   4.687   6.465   3.067
 7398SOL    HW123093   4.631   6.418   2.998
 7398SOL    HW223094   4.747   6.400   3.112
 7399SOL     OW23095   5.374   4.570   4.841
 7399SOL    HW123096   5.284   4.528   4.854
 7399SOL    HW223097   5.363   4.667   4.823
 7400SOL     OW23098   2.489   4.303   0.021
 7400SOL    HW123099   2.585   4.274   0.014
 7400SOL    HW223100   2.461   4.303   0.117
 7401SOL     OW23101   5.888   1.804   5.003
 7401SOL    HW123102   5.818   1.784   5.072
 7401SOL    HW223103   5.846   1.812   4.913
 7402SOL     OW23104   2.574   6.327   4.593
 7402SOL    HW123105   2.576   6.228   4.581
 7402SOL    HW223106   2.667   6.363   4.585
 7403SOL     OW23107   2.160   3.291   1.206
 7403SOL    HW123108   2.072   3.290   1.158
 7403SOL    HW223109   2.208   3.205   1.188
 7404SOL     OW23110   0.994   1.984   2.625
 7404SOL    HW123111   0.969   2.038   2.544
 7404SOL    HW223112   0.953   2.026   2.706
 7405SOL     OW23113   3.932   5.079   6.571
 7405SOL    HW123114   3.853   5.030   6.533
 7405SOL    HW223115   3.926   5.077   6.671
 7406SOL     OW23116   0.874   6.076   2.032
 7406SOL    HW123117   0.825   6.125   2.104
 7406SOL    HW223118   0.955   6.127   2.005
 7407SOL     OW23119   2.174   0.995   5.790
 7407SOL    HW123120   2.216   1.085   5.775
 7407SOL    HW223121   2.226   0.926   5.740
 7408SOL     OW23122   0.385   3.936   5.034
 7408SOL    HW123123   0.362   3.954   5.130
 7408SOL    HW223124   0.333   3.856   5.002
 7409SOL     OW23125   2.792   6.666   5.377
 7409SOL    HW123126   2.832   6.643   5.466
 7409SOL    HW223127   2.843   6.742   5.336
 7410SOL     OW23128   5.272   4.856   6.769
 7410SOL    HW123129   5.342   4.859   6.698
 7410SOL    HW223130   5.184   4.884   6.731
 7411SOL     OW23131   5.446   5.156   5.737
 7411SOL    HW123132   5.358   5.143   5.783
 7411SOL    HW223133   5.516   5.100   5.783
 7412SOL     OW23134   1.412   1.395   6.800
 7412SOL    HW123135   1.504   1.358   6.816
 7412SOL    HW223136   1.381   1.369   6.709
 7413SOL     OW23137   0.335   3.335   4.312
 7413SOL    HW123138   0.355   3.428   4.282
 7413SOL    HW223139   0.420   3.288   4.337
 7414SOL     OW23140   0.103   5.303   2.869
 7414SOL    HW123141   0.074   5.209   2.847
 7414SOL    HW223142   0.198   5.316   2.840
 7415SOL     OW23143   2.449   1.616   3.400
 7415SOL    HW123144   2.426   1.712   3.386
 7415SOL    HW223145   2.460   1.598   3.498
 7416SOL     OW23146   5.903   0.250   3.320
 7416SOL    HW123147   5.997   0.217   3.332
 7416SOL    HW223148   5.841   0.197   3.376
 7417SOL     OW23149   0.840   6.024   1.099
 7417SOL    HW123150   0.853   5.957   1.173
 7417SOL    HW223151   0.917   6.088   1.098
 7418SOL     OW23152   0.808   3.641   0.387
 7418SOL    HW123153   0.841   3.558   0.341
 7418SOL    HW223154   0.853   3.650   0.476
 7419SOL     OW23155   5.966   1.354   5.875
 7419SOL    HW123156   5.899   1.355   5.801
 7419SOL    HW223157   5.919   1.352   5.963
 7420SOL     OW23158   6.834   5.879   2.366
 7420SOL    HW123159   6.793   5.964   2.332
 7420SOL    HW223160   6.761   5.811   2.380
 7421SOL     OW23161   3.786   2.654   1.301
 7421SOL    HW123162   3.872   2.614   1.267
 7421SOL    HW223163   3.806   2.711   1.380
 7422SOL     OW23164   1.035   1.935   0.854
 7422SOL    HW123165   0.953   1.971   0.898
 7422SOL    HW223166   1.095   2.011   0.827
 7423SOL     OW23167   2.465   4.830   6.872
 7423SOL    HW123168   2.460   4.799   6.777
 7423SOL    HW223169   2.443   4.754   6.933
 7424SOL     OW23170   5.469   0.513   4.689
 7424SOL    HW123171   5.401   0.440   4.684
 7424SOL    HW223172   5.535   0.492   4.761
 7425SOL     OW23173   4.089   0.105   5.101
 7425SOL    HW123174   4.040   0.167   5.039
 7425SOL    HW223175   4.172   0.151   5.135
 7426SOL     OW23176   0.511   1.720   0.072
 7426SOL    HW123177   0.583   1.772   0.118
 7426SOL    HW223178   0.549   1.636   0.034
 7427SOL     OW23179   4.677   5.922   4.872
 7427SOL    HW123180   4.723   5.885   4.791
 7427SOL    HW223181   4.579   5.902   4.865
 7428SOL     OW23182   3.040   1.394   5.715
 7428SOL    HW123183   2.993   1.380   5.627
 7428SOL    HW223184   3.084   1.309   5.742
 7429SOL     OW23185   6.965   0.215   3.817
 7429SOL    HW123186   7.016   0.136   3.783
 7429SOL    HW223187   6.959   0.211   3.917
 7430SOL     OW23188   0.264   4.677   4.587
 7430SOL    HW123189   0.187   4.729   4.551
 7430SOL    HW223190   0.320   4.736   4.646
 7431SOL     OW23191   0.804   4.123   2.190
 7431SOL    HW123192   0.789   4.221   2.208
 7431SOL    HW223193   0.754   4.069   2.257
 7432SOL     OW23194   1.400   6.374   4.947
 7432SOL    HW123195   1.332   6.349   5.016
 7432SOL    HW223196   1.474   6.426   4.989
 7433SOL     OW23197   6.917   6.428   1.250
 7433SOL    HW123198   6.970   6.509   1.274
 7433SOL    HW223199   6.955   6.348   1.296
 7434SOL     OW23200   3.993   6.885   6.929
 7434SOL    HW123201   3.918   6.932   6.975
 7434SOL    HW223202   4.026   6.941   6.854
 7435SOL     OW23203   1.245   5.677   6.647
 7435SOL    HW123204   1.195   5.623   6.715
 7435SOL    HW223205   1.326   5.627   6.617
 7436SOL     OW23206   4.479   3.462   0.020
 7436SOL    HW123207   4.547   3.534   0.006
 7436SOL    HW223208   4.430   3.478   0.105
 7437SOL     OW23209   6.921   5.298   5.642
 7437SOL    HW123210   6.964   5.240   5.710
 7437SOL    HW223211   6.918   5.393   5.675
 7438SOL     OW23212   5.749   3.985   1.832
 7438SOL    HW123213   5.741   4.065   1.891
 7438SOL    HW223214   5.717   4.007   1.740
 7439SOL     OW23215   1.352   5.883   3.568
 7439SOL    HW123216   1.332   5.959   3.506
 7439SOL    HW223217   1.289   5.808   3.549
 7440SOL     OW23218   0.587   1.719   3.356
 7440SOL    HW123219   0.660   1.662   3.319
 7440SOL    HW223220   0.618   1.814   3.359
 7441SOL     OW23221   6.187   6.991   3.872
 7441SOL    HW123222   6.089   6.973   3.862
 7441SOL    HW223223   6.204   0.064   3.860
 7442SOL     OW23224   1.731   0.776   6.356
 7442SOL    HW123225   1.662   0.719   6.399
 7442SOL    HW223226   1.731   0.760   6.257
 7443SOL     OW23227   6.929   1.720   0.985
 7443SOL    HW123228   6.853   1.770   1.025
 7443SOL    HW223229   6.964   1.653   1.050
 7444SOL     OW23230   0.817   2.041   5.569
 7444SOL    HW123231   0.905   2.088   5.583
 7444SOL    HW223232   0.822   1.986   5.486
 7445SOL     OW23233   5.892   2.715   1.556
 7445SOL    HW123234   5.974   2.699   1.610
 7445SOL    HW223235   5.822   2.758   1.613
 7446SOL     OW23236   6.188   3.376   1.930
 7446SOL    HW123237   6.273   3.335   1.961
 7446SOL    HW223238   6.111   3.317   1.954
 7447SOL     OW23239   0.159   3.949   6.248
 7447SOL    HW123240   0.161   4.047   6.269
 7447SOL    HW223241   0.159   3.937   6.148
 7448SOL     OW23242   6.765   6.462   5.840
 7448SOL    HW123243   6.797   6.439   5.932
 7448SOL    HW223244   6.711   6.546   5.844
 7449SOL     OW23245   4.460   0.746   1.259
 7449SOL    HW123246   4.436   0.651   1.280
 7449SOL    HW223247   4.405   0.808   1.315
 7450SOL     OW23248   3.439   0.597   1.891
 7450SOL    HW123249   3.474   0.561   1.978
 7450SOL    HW223250   3.480   0.545   1.816
 7451SOL     OW23251   1.716   1.045   2.568
 7451SOL    HW123252   1.678   0.954   2.584
 7451SOL    HW223253   1.671   1.086   2.488
 7452SOL     OW23254   1.682   6.530   3.611
 7452SOL    HW123255   1.653   6.618   3.573
 7452SOL    HW223256   1.609   6.463   3.598
 7453SOL     OW23257   5.987   5.234   5.442
 7453SOL    HW123258   6.073   5.234   5.390
 7453SOL    HW223259   5.971   5.325   5.479
 7454SOL     OW23260   0.784   3.071   6.781
 7454SOL    HW123261   0.785   3.132   6.860
 7454SOL    HW223262   0.735   2.987   6.805
 7455SOL     OW23263   5.380   1.153   0.235
 7455SOL    HW123264   5.430   1.144   0.321
 7455SOL    HW223265   5.284   1.175   0.253
 7456SOL     OW23266   1.140   2.977   5.716
 7456SOL    HW123267   1.175   2.903   5.773
 7456SOL    HW223268   1.044   2.960   5.694
 7457SOL     OW23269   6.393   6.643   6.272
 7457SOL    HW123270   6.406   6.652   6.371
 7457SOL    HW223271   6.412   6.731   6.229
 7458SOL     OW23272   2.371   0.084   0.964
 7458SOL    HW123273   2.455   0.120   0.923
 7458SOL    HW223274   2.347   0.137   1.045
 7459SOL     OW23275   4.664   0.374   4.527
 7459SOL    HW123276   4.699   0.430   4.451
 7459SOL    HW223277   4.738   0.353   4.590
 7460SOL     OW23278   0.579   5.438   6.557
 7460SOL    HW123279   0.647   5.371   6.587
 7460SOL    HW223280   0.541   5.410   6.469
 7461SOL     OW23281   4.731   1.018   4.163
 7461SOL    HW123282   4.711   1.075   4.084
 7461SOL    HW223283   4.825   1.033   4.193
 7462SOL     OW23284   1.775   1.019   2.194
 7462SOL    HW123285   1.687   1.043   2.236
 7462SOL    HW223286   1.846   1.020   2.263
 7463SOL     OW23287   3.503   3.872   2.132
 7463SOL    HW123288   3.562   3.943   2.170
 7463SOL    HW223289   3.519   3.786   2.181
 7464SOL     OW23290   4.902   6.863   6.815
 7464SOL    HW123291   4.856   6.947   6.841
 7464SOL    HW223292   4.962   6.880   6.737
 7465SOL     OW23293   3.610   0.921   2.287
 7465SOL    HW123294   3.523   0.925   2.238
 7465SOL    HW223295   3.685   0.930   2.222
 7466SOL     OW23296   6.974   0.544   6.716
 7466SOL    HW123297   6.992   0.523   6.620
 7466SOL    HW223298   6.932   0.465   6.761
 7467SOL     OW23299   5.227   1.476   1.343
 7467SOL    HW123300   5.161   1.533   1.393
 7467SOL    HW223301   5.197   1.468   1.248
 7468SOL     OW23302   5.771   3.337   4.453
 7468SOL    HW123303   5.734   3.249   4.422
 7468SOL    HW223304   5.796   3.392   4.374
 7469SOL     OW23305   6.045   1.173   1.854
 7469SOL    HW123306   6.079   1.266   1.856
 7469SOL    HW223307   5.959   1.167   1.905
 7470SOL     OW23308   0.416   2.959   2.437
 7470SOL    HW123309   0.436   3.050   2.476
 7470SOL    HW223310   0.477   2.892   2.478
 7471SOL     OW23311   6.033   4.440   5.808
 7471SOL    HW123312   5.979   4.440   5.724
 7471SOL    HW223313   6.019   4.354   5.857
 7472SOL     OW23314   3.559   4.978   3.229
 7472SOL    HW123315   3.628   4.921   3.183
 7472SOL    HW223316   3.550   5.064   3.179
 7473SOL     OW23317   0.855   3.233   5.180
 7473SOL    HW123318   0.929   3.213   5.116
 7473SOL    HW223319   0.843   3.332   5.188
 7474SOL     OW23320   3.920   1.776   3.424
 7474SOL    HW123321   3.891   1.832   3.502
 7474SOL    HW223322   3.905   1.827   3.339
 7475SOL     OW23323   4.167   0.968   6.554
 7475SOL    HW123324   4.162   0.869   6.543
 7475SOL    HW223325   4.197   0.991   6.646
 7476SOL     OW23326   3.363   0.017   5.357
 7476SOL    HW123327   3.349   7.010   5.264
 7476SOL    HW223328   3.388   0.113   5.357
 7477SOL     OW23329   5.283   3.506   3.755
 7477SOL    HW123330   5.185   3.520   3.768
 7477SOL    HW223331   5.299   3.465   3.665
 7478SOL     OW23332   1.425   4.549   1.496
 7478SOL    HW123333   1.374   4.578   1.415
 7478SOL    HW223334   1.461   4.457   1.481
 7479SOL     OW23335   4.208   0.448   6.026
 7479SOL    HW123336   4.287   0.429   5.968
 7479SOL    HW223337   4.226   0.529   6.082
 7480SOL     OW23338   6.672   4.929   0.851
 7480SOL    HW123339   6.695   5.012   0.800
 7480SOL    HW223340   6.750   4.866   0.846
 7481SOL     OW23341   6.406   5.885   0.840
 7481SOL    HW123342   6.317   5.859   0.802
 7481SOL    HW223343   6.469   5.904   0.765
 7482SOL     OW23344   5.131   0.364   3.555
 7482SOL    HW123345   5.229   0.348   3.548
 7482SOL    HW223346   5.091   0.369   3.464
 7483SOL     OW23347   3.365   6.993   6.023
 7483SOL    HW123348   3.319   6.955   6.104
 7483SOL    HW223349   3.334   0.062   6.009
 7484SOL     OW23350   3.147   0.430   2.372
 7484SOL    HW123351   3.230   0.454   2.322
 7484SOL    HW223352   3.167   0.420   2.469
 7485SOL     OW23353   0.874   6.829   5.623
 7485SOL    HW123354   0.834   6.814   5.713
 7485SOL    HW223355   0.828   6.771   5.556
 7486SOL     OW23356   1.810   0.680   4.874
 7486SOL    HW123357   1.868   0.665   4.794
 7486SOL    HW223358   1.868   0.701   4.953
 7487SOL     OW23359   4.105   5.565   3.345
 7487SOL    HW123360   4.059   5.549   3.258
 7487SOL    HW223361   4.150   5.654   3.343
 7488SOL     OW23362   3.354   0.560   5.469
 7488SOL    HW123363   3.425   0.621   5.504
 7488SOL    HW223364   3.321   0.594   5.381
 7489SOL     OW23365   6.399   3.511   3.063
 7489SOL    HW123366   6.361   3.472   3.147
 7489SOL    HW223367   6.361   3.603   3.049
 7490SOL     OW23368   5.792   1.607   2.352
 7490SOL    HW123369   5.804   1.654   2.264
 7490SOL    HW223370   5.697   1.617   2.383
 7491SOL     OW23371   0.190   6.562   6.722
 7491SOL    HW123372   0.092   6.557   6.740
 7491SOL    HW223373   0.236   6.485   6.767
 7492SOL     OW23374   2.075   2.465   3.827
 7492SOL    HW123375   2.165   2.453   3.870
 7492SOL    HW223376   2.065   2.399   3.752
 7493SOL     OW23377   5.530   4.648   0.102
 7493SOL    HW123378   5.550   4.571   0.041
 7493SOL    HW223379   5.438   4.639   0.139
 7494SOL     OW23380   4.730   2.036   1.552
 7494SOL    HW123381   4.683   2.104   1.495
 7494SOL    HW223382   4.778   1.970   1.493
 7495SOL     OW23383   0.832   1.770   2.606
 7495SOL    HW123384   0.881   1.690   2.641
 7495SOL    HW223385   0.885   1.853   2.627
 7496SOL     OW23386   0.829   4.382   5.777
 7496SOL    HW123387   0.749   4.434   5.748
 7496SOL    HW223388   0.900   4.387   5.707
 7497SOL     OW23389   2.367   4.994   2.606
 7497SOL    HW123390   2.463   5.015   2.626
 7497SOL    HW223391   2.329   5.064   2.546
 7498SOL     OW23392   5.087   1.124   4.188
 7498SOL    HW123393   5.112   1.217   4.214
 7498SOL    HW223394   5.028   1.084   4.259
 7499SOL     OW23395   4.430   5.572   3.972
 7499SOL    HW123396   4.399   5.488   3.928
 7499SOL    HW223397   4.372   5.648   3.943
 7500SOL     OW23398   4.920   4.199   1.674
 7500SOL    HW123399   4.846   4.217   1.738
 7500SOL    HW223400   5.004   4.241   1.708
 7501SOL     OW23401   0.546   4.614   4.117
 7501SOL    HW123402   0.531   4.584   4.211
 7501SOL    HW223403   0.488   4.694   4.098
 7502SOL     OW23404   1.914   2.047   4.925
 7502SOL    HW123405   1.904   1.957   4.884
 7502SOL    HW223406   1.921   2.038   5.025
 7503SOL     OW23407   1.954   2.558   6.782
 7503SOL    HW123408   1.863   2.544   6.820
 7503SOL    HW223409   1.973   2.655   6.773
 7504SOL     OW23410   3.946   5.799   3.614
 7504SOL    HW123411   3.943   5.699   3.605
 7504SOL    HW223412   3.922   5.824   3.708
 7505SOL     OW23413   1.725   2.244   4.073
 7505SOL    HW123414   1.757   2.167   4.018
 7505SOL    HW223415   1.804   2.290   4.115
 7506SOL     OW23416   3.657   1.648   3.604
 7506SOL    HW123417   3.698   1.729   3.563
 7506SOL    HW223418   3.714   1.568   3.585
 7507SOL     OW23419   1.844   6.491   5.646
 7507SOL    HW123420   1.912   6.491   5.719
 7507SOL    HW223421   1.757   6.459   5.681
 7508SOL     OW23422   4.741   5.795   4.615
 7508SOL    HW123423   4.727   5.698   4.597
 7508SOL    HW223424   4.669   5.848   4.570
 7509SOL     OW23425   4.278   3.604   5.865
 7509SOL    HW123426   4.303   3.699   5.844
 7509SOL    HW223427   4.196   3.579   5.812
 7510SOL     OW23428   2.926   3.791   4.378
 7510SOL    HW123429   2.871   3.726   4.326
 7510SOL    HW223430   2.933   3.761   4.473
 7511SOL     OW23431   1.515   0.616   2.327
 7511SOL    HW123432   1.439   0.680   2.334
 7511SOL    HW223433   1.482   0.523   2.345
 7512SOL     OW23434   2.527   2.794   1.787
 7512SOL    HW123435   2.561   2.729   1.719
 7512SOL    HW223436   2.519   2.885   1.746
 7513SOL     OW23437   0.714   3.445   6.462
 7513SOL    HW123438   0.783   3.418   6.529
 7513SOL    HW223439   0.658   3.519   6.500
 7514SOL     OW23440   2.950   5.896   2.989
 7514SOL    HW123441   2.926   5.949   3.071
 7514SOL    HW223442   2.931   5.951   2.908
 7515SOL     OW23443   0.172   4.997   2.832
 7515SOL    HW123444   0.236   5.028   2.762
 7515SOL    HW223445   0.210   5.017   2.923
 7516SOL     OW23446   1.345   1.320   2.694
 7516SOL    HW123447   1.383   1.340   2.604
 7516SOL    HW223448   1.388   1.379   2.762
 7517SOL     OW23449   0.310   5.247   1.342
 7517SOL    HW123450   0.384   5.189   1.307
 7517SOL    HW223451   0.222   5.205   1.319
 7518SOL     OW23452   5.193   4.977   3.138
 7518SOL    HW123453   5.251   4.902   3.168
 7518SOL    HW223454   5.155   4.956   3.048
 7519SOL     OW23455   1.601   6.301   3.843
 7519SOL    HW123456   1.514   6.346   3.822
 7519SOL    HW223457   1.584   6.221   3.900
 7520SOL     OW23458   2.414   0.172   4.164
 7520SOL    HW123459   2.394   0.095   4.223
 7520SOL    HW223460   2.336   0.189   4.103
 7521SOL     OW23461   5.052   3.826   6.054
 7521SOL    HW123462   5.149   3.805   6.037
 7521SOL    HW223463   5.043   3.923   6.076
 7522SOL     OW23464   1.850   0.339   2.157
 7522SOL    HW123465   1.772   0.293   2.200
 7522SOL    HW223466   1.873   0.422   2.209
 7523SOL     OW23467   5.760   0.040   6.751
 7523SOL    HW123468   5.795   6.971   6.755
 7523SOL    HW223469   5.795   0.092   6.828
 7524SOL     OW23470   6.068   0.860   4.364
 7524SOL    HW123471   6.142   0.849   4.297
 7524SOL    HW223472   5.985   0.890   4.316
 7525SOL     OW23473   0.990   5.956   0.833
 7525SOL    HW123474   1.003   5.963   0.932
 7525SOL    HW223475   1.059   6.010   0.786
 7526SOL     OW23476   3.586   2.869   5.201
 7526SOL    HW123477   3.591   2.784   5.254
 7526SOL    HW223478   3.563   2.847   5.106
 7527SOL     OW23479   5.102   5.158   2.295
 7527SOL    HW123480   5.121   5.211   2.212
 7527SOL    HW223481   5.019   5.192   2.337
 7528SOL     OW23482   5.914   2.893   6.121
 7528SOL    HW123483   5.820   2.924   6.103
 7528SOL    HW223484   5.971   2.913   6.041
 7529SOL     OW23485   3.001   0.356   5.237
 7529SOL    HW123486   3.000   0.352   5.137
 7529SOL    HW223487   3.085   0.314   5.271
 7530SOL     OW23488   6.467   3.007   3.034
 7530SOL    HW123489   6.555   2.992   3.078
 7530SOL    HW223490   6.463   2.957   2.947
 7531SOL     OW23491   2.579   1.950   4.260
 7531SOL    HW123492   2.592   2.004   4.344
 7531SOL    HW223493   2.642   1.872   4.260
 7532SOL     OW23494   4.879   4.469   2.361
 7532SOL    HW123495   4.924   4.381   2.345
 7532SOL    HW223496   4.780   4.456   2.362
 7533SOL     OW23497   3.292   0.224   4.681
 7533SOL    HW123498   3.362   0.152   4.675
 7533SOL    HW223499   3.218   0.193   4.740
 7534SOL     OW23500   5.191   6.861   4.286
 7534SOL    HW123501   5.103   6.900   4.259
 7534SOL    HW223502   5.185   6.827   4.379
 7535SOL     OW23503   3.848   4.672   0.102
 7535SOL    HW123504   3.910   4.616   0.157
 7535SOL    HW223505   3.802   4.739   0.160
 7536SOL     OW23506   3.666   6.151   4.431
 7536SOL    HW123507   3.693   6.245   4.453
 7536SOL    HW223508   3.714   6.088   4.491
 7537SOL     OW23509   1.746   4.377   5.297
 7537SOL    HW123510   1.831   4.366   5.350
 7537SOL    HW223511   1.743   4.470   5.259
 7538SOL     OW23512   3.288   3.131   3.297
 7538SOL    HW123513   3.367   3.144   3.358
 7538SOL    HW223514   3.204   3.133   3.351
 7539SOL     OW23515   1.506   2.558   4.013
 7539SOL    HW123516   1.446   2.479   4.027
 7539SOL    HW223517   1.569   2.566   4.090
 7540SOL     OW23518   1.686   1.407   0.194
 7540SOL    HW123519   1.751   1.431   0.122
 7540SOL    HW223520   1.595   1.441   0.169
 7541SOL     OW23521   7.001   2.212   5.097
 7541SOL    HW123522   6.987   2.118   5.065
 7541SOL    HW223523   0.073   2.235   5.094
 7542SOL     OW23524   1.982   0.697   6.418
 7542SOL    HW123525   2.023   0.640   6.347
 7542SOL    HW223526   1.900   0.742   6.382
 7543SOL     OW23527   3.722   3.099   6.971
 7543SOL    HW123528   3.707   3.079   6.874
 7543SOL    HW223529   3.773   3.024   7.013
 7544SOL     OW23530   1.473   2.150   2.692
 7544SOL    HW123531   1.490   2.111   2.602
 7544SOL    HW223532   1.421   2.235   2.683
 7545SOL     OW23533   5.387   6.714   3.569
 7545SOL    HW123534   5.335   6.789   3.611
 7545SOL    HW223535   5.438   6.666   3.640
 7546SOL     OW23536   5.096   6.836   6.235
 7546SOL    HW123537   5.010   6.866   6.193
 7546SOL    HW223538   5.078   6.803   6.328
 7547SOL     OW23539   3.171   6.989   0.435
 7547SOL    HW123540   3.223   6.943   0.364
 7547SOL    HW223541   3.231   7.010   0.512
 7548SOL     OW23542   0.998   2.947   1.031
 7548SOL    HW123543   1.087   2.902   1.034
 7548SOL    HW223544   1.010   3.042   1.000
 7549SOL     OW23545   6.259   2.169   1.916
 7549SOL    HW123546   6.172   2.121   1.915
 7549SOL    HW223547   6.333   2.105   1.898
 7550SOL     OW23548   1.019   5.077   1.343
 7550SOL    HW123549   0.969   5.139   1.283
 7550SOL    HW223550   0.977   5.077   1.434
 7551SOL     OW23551   4.433   3.994   6.342
 7551SOL    HW123552   4.483   4.078   6.322
 7551SOL    HW223553   4.354   3.987   6.281
 7552SOL     OW23554   3.198   5.492   3.970
 7552SOL    HW123555   3.291   5.488   4.007
 7552SOL    HW223556   3.134   5.513   4.044
 7553SOL     OW23557   4.720   4.067   6.218
 7553SOL    HW123558   4.725   3.981   6.268
 7553SOL    HW223559   4.712   4.143   6.283
 7554SOL     OW23560   6.447   0.901   0.751
 7554SOL    HW123561   6.426   0.872   0.658
 7554SOL    HW223562   6.536   0.867   0.779
 7555SOL     OW23563   1.583   5.646   5.849
 7555SOL    HW123564   1.536   5.621   5.934
 7555SOL    HW223565   1.544   5.595   5.773
 7556SOL     OW23566   0.016   3.520   3.850
 7556SOL    HW123567   6.944   3.535   3.832
 7556SOL    HW223568   0.050   3.594   3.908
 7557SOL     OW23569   4.058   3.267   0.019
 7557SOL    HW123570   4.072   3.239   6.950
 7557SOL    HW223571   4.028   3.363   0.021
 7558SOL     OW23572   1.192   3.056   3.451
 7558SOL    HW123573   1.252   3.054   3.530
 7558SOL    HW223574   1.176   3.150   3.423
 7559SOL     OW23575   1.013   4.685   0.535
 7559SOL    HW123576   0.987   4.591   0.554
 7559SOL    HW223577   1.044   4.693   0.440
 7560SOL     OW23578   4.717   0.057   5.387
 7560SOL    HW123579   4.799   0.018   5.427
 7560SOL    HW223580   4.730   0.071   5.289
 7561SOL     OW23581   0.389   3.837   0.424
 7561SOL    HW123582   0.421   3.882   0.341
 7561SOL    HW223583   0.459   3.844   0.496
 7562SOL     OW23584   5.165   6.580   5.375
 7562SOL    HW123585   5.181   6.482   5.388
 7562SOL    HW223586   5.236   6.618   5.316
 7563SOL     OW23587   2.392   1.083   2.404
 7563SOL    HW123588   2.472   1.039   2.443
 7563SOL    HW223589   2.394   1.181   2.424
 7564SOL     OW23590   4.912   6.632   4.229
 7564SOL    HW123591   4.836   6.666   4.285
 7564SOL    HW223592   4.978   6.585   4.288
 7565SOL     OW23593   4.681   4.575   0.269
 7565SOL    HW123594   4.644   4.516   0.341
 7565SOL    HW223595   4.609   4.636   0.236
 7566SOL     OW23596   1.909   5.575   5.305
 7566SOL    HW123597   1.928   5.581   5.404
 7566SOL    HW223598   1.834   5.636   5.281
 7567SOL     OW23599   2.568   3.073   0.059
 7567SOL    HW123600   2.659   3.095   0.094
 7567SOL    HW223601   2.577   3.022   6.998
 7568SOL     OW23602   4.583   4.607   3.321
 7568SOL    HW123603   4.544   4.667   3.390
 7568SOL    HW223604   4.552   4.635   3.230
 7569SOL     OW23605   4.004   0.646   1.086
 7569SOL    HW123606   3.958   0.686   1.006
 7569SOL    HW223607   4.099   0.626   1.063
 7570SOL     OW23608   6.028   4.827   4.669
 7570SOL    HW123609   6.020   4.728   4.680
 7570SOL    HW223610   6.120   4.850   4.638
 7571SOL     OW23611   5.127   4.064   1.891
 7571SOL    HW123612   5.147   3.994   1.959
 7571SOL    HW223613   5.180   4.146   1.911
 7572SOL     OW23614   1.422   1.341   4.170
 7572SOL    HW123615   1.432   1.365   4.073
 7572SOL    HW223616   1.328   1.360   4.199
 7573SOL     OW23617   3.239   5.314   5.623
 7573SOL    HW123618   3.235   5.393   5.563
 7573SOL    HW223619   3.326   5.314   5.673
 7574SOL     OW23620   5.227   5.770   2.117
 7574SOL    HW123621   5.252   5.679   2.151
 7574SOL    HW223622   5.271   5.785   2.029
 7575SOL     OW23623   5.149   2.627   4.787
 7575SOL    HW123624   5.050   2.635   4.802
 7575SOL    HW223625   5.197   2.690   4.848
 7576SOL     OW23626   6.577   3.130   1.498
 7576SOL    HW123627   6.564   3.065   1.572
 7576SOL    HW223628   6.554   3.086   1.411
 7577SOL     OW23629   4.249   0.343   5.133
 7577SOL    HW123630   4.337   0.353   5.086
 7577SOL    HW223631   4.248   0.402   5.214
 7578SOL     OW23632   2.403   5.307   4.403
 7578SOL    HW123633   2.408   5.404   4.381
 7578SOL    HW223634   2.426   5.294   4.500
 7579SOL     OW23635   4.156   2.234   3.888
 7579SOL    HW123636   4.251   2.264   3.882
 7579SOL    HW223637   4.123   2.206   3.798
 7580SOL     OW23638   2.161   3.299   2.577
 7580SOL    HW123639   2.223   3.285   2.654
 7580SOL    HW223640   2.156   3.215   2.522
 7581SOL     OW23641   5.765   0.818   1.195
 7581SOL    HW123642   5.718   0.803   1.282
 7581SOL    HW223643   5.798   0.913   1.191
 7582SOL     OW23644   3.067   2.015   1.045
 7582SOL    HW123645   3.107   1.958   1.118
 7582SOL    HW223646   3.120   2.099   1.036
 7583SOL     OW23647   6.728   3.692   2.791
 7583SOL    HW123648   6.679   3.671   2.876
 7583SOL    HW223649   6.824   3.667   2.801
 7584SOL     OW23650   2.098   1.482   1.192
 7584SOL    HW123651   2.087   1.570   1.146
 7584SOL    HW223652   2.076   1.408   1.129
 7585SOL     OW23653   1.872   5.136   6.474
 7585SOL    HW123654   1.952   5.087   6.508
 7585SOL    HW223655   1.901   5.218   6.426
 7586SOL     OW23656   2.139   1.047   1.700
 7586SOL    HW123657   2.041   1.056   1.682
 7586SOL    HW223658   2.168   0.953   1.684
 7587SOL     OW23659   2.026   0.935   6.052
 7587SOL    HW123660   2.071   0.901   6.134
 7587SOL    HW223661   2.092   0.941   5.978
 7588SOL     OW23662   0.874   4.179   1.663
 7588SOL    HW123663   0.963   4.147   1.630
 7588SOL    HW223664   0.822   4.102   1.700
 7589SOL     OW23665   5.676   6.301   0.209
 7589SOL    HW123666   5.767   6.294   0.250
 7589SOL    HW223667   5.643   6.395   0.215
 7590SOL     OW23668   1.704   0.808   0.045
 7590SOL    HW123669   1.802   0.806   0.060
 7590SOL    HW223670   1.678   0.895   0.004
 7591SOL     OW23671   6.690   5.311   0.030
 7591SOL    HW123672   6.679   5.409   0.013
 7591SOL    HW223673   6.787   5.288   0.030
 7592SOL     OW23674   5.593   5.955   6.555
 7592SOL    HW123675   5.663   6.022   6.531
 7592SOL    HW223676   5.557   5.913   6.471
 7593SOL     OW23677   6.057   3.504   0.084
 7593SOL    HW123678   6.006   3.419   0.098
 7593SOL    HW223679   6.036   3.542   7.019
 7594SOL     OW23680   0.912   5.878   3.301
 7594SOL    HW123681   0.994   5.849   3.253
 7594SOL    HW223682   0.859   5.798   3.328
 7595SOL     OW23683   6.572   2.105   0.070
 7595SOL    HW123684   6.507   2.090   7.019
 7595SOL    HW223685   6.554   2.039   0.142
 7596SOL     OW23686   4.962   4.499   1.822
 7596SOL    HW123687   4.986   4.593   1.847
 7596SOL    HW223688   4.869   4.479   1.852
 7597SOL     OW23689   2.777   5.977   2.129
 7597SOL    HW123690   2.755   5.895   2.076
 7597SOL    HW223691   2.863   6.015   2.096
 7598SOL     OW23692   6.872   0.413   3.069
 7598SOL    HW123693   6.784   0.461   3.066
 7598SOL    HW223694   6.857   0.315   3.080
 7599SOL     OW23695   6.522   2.558   2.418
 7599SOL    HW123696   6.622   2.549   2.410
 7599SOL    HW223697   6.478   2.477   2.380
 7600SOL     OW23698   2.354   1.724   1.839
 7600SOL    HW123699   2.279   1.678   1.790
 7600SOL    HW223700   2.316   1.787   1.906
 7601SOL     OW23701   1.768   6.825   4.639
 7601SOL    HW123702   1.675   6.812   4.674
 7601SOL    HW223703   1.795   6.744   4.586
 7602SOL     OW23704   2.128   3.065   5.227
 7602SOL    HW123705   2.216   3.029   5.196
 7602SOL    HW223706   2.109   3.030   5.319
 7603SOL     OW23707   0.717   0.771   2.308
 7603SOL    HW123708   0.630   0.772   2.357
 7603SOL    HW223709   0.776   0.700   2.347
 7604SOL     OW23710   4.881   6.278   6.894
 7604SOL    HW123711   4.848   6.327   6.975
 7604SOL    HW223712   4.885   6.180   6.915
 7605SOL     OW23713   5.735   4.156   5.630
 7605SOL    HW123714   5.658   4.183   5.687
 7605SOL    HW223715   5.725   4.061   5.603
 7606SOL     OW23716   6.432   1.990   3.035
 7606SOL    HW123717   6.502   1.919   3.040
 7606SOL    HW223718   6.453   2.063   3.100
 7607SOL     OW23719   5.070   6.840   6.602
 7607SOL    HW123720   5.130   6.763   6.624
 7607SOL    HW223721   5.126   6.921   6.584
 7608SOL     OW23722   4.009   3.393   3.374
 7608SOL    HW123723   4.055   3.305   3.364
 7608SOL    HW223724   3.942   3.388   3.448
 7609SOL     OW23725   1.518   2.949   4.758
 7609SOL    HW123726   1.494   2.982   4.667
 7609SOL    HW223727   1.584   3.011   4.800
 7610SOL     OW23728   5.547   0.841   1.573
 7610SOL    HW123729   5.506   0.903   1.505
 7610SOL    HW223730   5.637   0.812   1.541
 7611SOL     OW23731   1.807   1.655   1.111
 7611SOL    HW123732   1.743   1.622   1.042
 7611SOL    HW223733   1.792   1.607   1.197
 7612SOL     OW23734   4.301   1.484   2.800
 7612SOL    HW123735   4.316   1.395   2.757
 7612SOL    HW223736   4.272   1.550   2.730
 7613SOL     OW23737   5.533   1.352   2.219
 7613SOL    HW123738   5.596   1.378   2.292
 7613SOL    HW223739   5.517   1.253   2.222
 7614SOL     OW23740   4.088   1.560   0.151
 7614SOL    HW123741   4.069   1.657   0.135
 7614SOL    HW223742   4.044   1.532   0.237
 7615SOL     OW23743   4.017   4.851   6.080
 7615SOL    HW123744   4.045   4.897   6.165
 7615SOL    HW223745   4.024   4.915   6.004
 7616SOL     OW23746   0.095   5.006   3.868
 7616SOL    HW123747   0.084   4.914   3.908
 7616SOL    HW223748   0.006   5.037   3.833
 7617SOL     OW23749   3.399   6.125   2.371
 7617SOL    HW123750   3.401   6.224   2.385
 7617SOL    HW223751   3.360   6.081   2.452
 7618SOL     OW23752   1.785   2.626   0.690
 7618SOL    HW123753   1.727   2.647   0.769
 7618SOL    HW223754   1.729   2.586   0.617
 7619SOL     OW23755   5.930   3.550   5.858
 7619SOL    HW123756   5.968   3.471   5.906
 7619SOL    HW223757   5.837   3.531   5.829
 7620SOL     OW23758   3.177   6.622   1.870
 7620SOL    HW123759   3.258   6.571   1.895
 7620SOL    HW223760   3.134   6.660   1.952
 7621SOL     OW23761   2.713   1.928   1.153
 7621SOL    HW123762   2.751   1.973   1.072
 7621SOL    HW223763   2.613   1.923   1.145
 7622SOL     OW23764   4.846   2.022   0.923
 7622SOL    HW123765   4.781   1.946   0.931
 7622SOL    HW223766   4.939   1.986   0.914
 7623SOL     OW23767   5.318   0.665   5.907
 7623SOL    HW123768   5.309   0.764   5.918
 7623SOL    HW223769   5.336   0.644   5.811
 7624SOL     OW23770   6.957   0.832   4.081
 7624SOL    HW123771   6.978   0.762   4.149
 7624SOL    HW223772   0.016   0.880   4.055
 7625SOL     OW23773   4.282   6.672   0.885
 7625SOL    HW123774   4.228   6.680   0.969
 7625SOL    HW223775   4.245   6.733   0.815
 7626SOL     OW23776   2.187   4.777   4.800
 7626SOL    HW123777   2.141   4.741   4.718
 7626SOL    HW223778   2.286   4.768   4.789
 7627SOL     OW23779   0.100   1.932   0.199
 7627SOL    HW123780   0.130   1.957   0.108
 7627SOL    HW223781   0.174   1.884   0.247
 7628SOL     OW23782   3.900   2.047   1.090
 7628SOL    HW123783   3.802   2.040   1.108
 7628SOL    HW223784   3.926   2.143   1.085
 7629SOL     OW23785   6.465   5.061   3.437
 7629SOL    HW123786   6.419   5.062   3.349
 7629SOL    HW223787   6.564   5.061   3.423
 7630SOL     OW23788   6.863   1.138   2.300
 7630SOL    HW123789   6.931   1.108   2.233
 7630SOL    HW223790   6.773   1.105   2.274
 7631SOL     OW23791   1.197   2.128   3.361
 7631SOL    HW123792   1.138   2.202   3.395
 7631SOL    HW223793   1.243   2.085   3.438
 7632SOL     OW23794   4.242   1.995   6.536
 7632SOL    HW123795   4.222   1.997   6.438
 7632SOL    HW223796   4.187   2.065   6.582
 7633SOL     OW23797   5.794   4.630   6.649
 7633SOL    HW123798   5.803   4.712   6.706
 7633SOL    HW223799   5.837   4.553   6.696
 7634SOL     OW23800   1.471   1.904   1.899
 7634SOL    HW123801   1.391   1.893   1.958
 7634SOL    HW223802   1.552   1.920   1.955
 7635SOL     OW23803   3.030   4.980   6.216
 7635SOL    HW123804   3.002   5.003   6.309
 7635SOL    HW223805   3.130   4.979   6.210
 7636SOL     OW23806   1.915   0.765   3.604
 7636SOL    HW123807   1.872   0.850   3.634
 7636SOL    HW223808   1.948   0.714   3.683
 7637SOL     OW23809   2.428   5.559   4.259
 7637SOL    HW123810   2.347   5.617   4.246
 7637SOL    HW223811   2.423   5.480   4.198
 7638SOL     OW23812   4.461   4.582   1.855
 7638SOL    HW123813   4.472   4.486   1.879
 7638SOL    HW223814   4.516   4.639   1.916
 7639SOL     OW23815   0.553   2.126   4.445
 7639SOL    HW123816   0.475   2.185   4.421
 7639SOL    HW223817   0.598   2.162   4.527
 7640SOL     OW23818   1.956   3.192   6.012
 7640SOL    HW123819   1.858   3.212   6.005
 7640SOL    HW223820   1.984   3.194   6.108
 7641SOL     OW23821   6.452   2.734   3.510
 7641SOL    HW123822   6.538   2.707   3.552
 7641SOL    HW223823   6.376   2.685   3.554
 7642SOL     OW23824   2.663   1.646   3.094
 7642SOL    HW123825   2.566   1.669   3.091
 7642SOL    HW223826   2.702   1.674   3.182
 7643SOL     OW23827   4.898   3.351   3.366
 7643SOL    HW123828   4.865   3.423   3.426
 7643SOL    HW223829   4.928   3.391   3.279
 7644SOL     OW23830   6.280   3.457   3.318
 7644SOL    HW123831   6.336   3.380   3.348
 7644SOL    HW223832   6.190   3.452   3.361
 7645SOL     OW23833   4.375   3.389   6.758
 7645SOL    HW123834   4.433   3.363   6.681
 7645SOL    HW223835   4.431   3.425   6.832
 7646SOL     OW23836   1.016   1.899   1.490
 7646SOL    HW123837   0.946   1.916   1.559
 7646SOL    HW223838   1.094   1.852   1.532
 7647SOL     OW23839   1.899   5.075   1.337
 7647SOL    HW123840   1.966   5.001   1.330
 7647SOL    HW223841   1.807   5.036   1.338
 7648SOL     OW23842   4.177   0.535   3.455
 7648SOL    HW123843   4.161   0.573   3.364
 7648SOL    HW223844   4.164   0.606   3.524
 7649SOL     OW23845   2.967   1.447   1.885
 7649SOL    HW123846   3.037   1.508   1.848
 7649SOL    HW223847   2.884   1.499   1.904
 7650SOL     OW23848   5.372   4.862   2.105
 7650SOL    HW123849   5.449   4.876   2.043
 7650SOL    HW223850   5.379   4.772   2.148
 7651SOL     OW23851   3.800   1.781   6.024
 7651SOL    HW123852   3.815   1.879   6.038
 7651SOL    HW223853   3.888   1.737   6.006
 7652SOL     OW23854   0.765   3.196   2.725
 7652SOL    HW123855   0.760   3.106   2.769
 7652SOL    HW223856   0.812   3.188   2.637
 7653SOL     OW23857   3.757   2.184   1.516
 7653SOL    HW123858   3.810   2.121   1.459
 7653SOL    HW223859   3.807   2.202   1.601
 7654SOL     OW23860   4.940   3.433   4.252
 7654SOL    HW123861   4.924   3.486   4.169
 7654SOL    HW223862   4.878   3.354   4.253
 7655SOL     OW23863   4.701   6.442   5.348
 7655SOL    HW123864   4.604   6.465   5.344
 7655SOL    HW223865   4.714   6.345   5.329
 7656SOL     OW23866   1.172   6.016   4.820
 7656SOL    HW123867   1.153   6.014   4.722
 7656SOL    HW223868   1.221   5.933   4.846
 7657SOL     OW23869   4.656   1.540   4.319
 7657SOL    HW123870   4.586   1.506   4.382
 7657SOL    HW223871   4.681   1.467   4.255
 7658SOL     OW23872   3.815   0.611   6.269
 7658SOL    HW123873   3.722   0.577   6.283
 7658SOL    HW223874   3.865   0.548   6.210
 7659SOL     OW23875   5.417   6.932   0.288
 7659SOL    HW123876   5.507   6.895   0.309
 7659SOL    HW223877   5.423   6.991   0.207
 7660SOL     OW23878   6.398   4.750   4.352
 7660SOL    HW123879   6.468   4.679   4.356
 7660SOL    HW223880   6.411   4.806   4.270
 7661SOL     OW23881   5.776   3.290   3.375
 7661SOL    HW123882   5.778   3.266   3.472
 7661SOL    HW223883   5.865   3.328   3.349
 7662SOL     OW23884   6.997   5.843   2.151
 7662SOL    HW123885   6.958   5.851   2.243
 7662SOL    HW223886   6.993   5.747   2.121
 7663SOL     OW23887   6.703   5.467   6.789
 7663SOL    HW123888   6.746   5.380   6.811
 7663SOL    HW223889   6.748   5.541   6.838
 7664SOL     OW23890   2.709   5.359   4.838
 7664SOL    HW123891   2.747   5.267   4.844
 7664SOL    HW223892   2.713   5.402   4.928
 7665SOL     OW23893   2.218   6.279   4.544
 7665SOL    HW123894   2.265   6.323   4.620
 7665SOL    HW223895   2.227   6.180   4.553
 7666SOL     OW23896   1.541   1.417   1.070
 7666SOL    HW123897   1.595   1.463   1.000
 7666SOL    HW223898   1.590   1.335   1.102
 7667SOL     OW23899   4.901   5.781   6.531
 7667SOL    HW123900   4.841   5.750   6.457
 7667SOL    HW223901   4.993   5.743   6.518
 7668SOL     OW23902   2.485   4.103   1.732
 7668SOL    HW123903   2.422   4.148   1.796
 7668SOL    HW223904   2.567   4.159   1.721
 7669SOL     OW23905   4.369   6.336   5.022
 7669SOL    HW123906   4.401   6.270   4.954
 7669SOL    HW223907   4.442   6.402   5.040
 7670SOL     OW23908   1.608   5.080   0.907
 7670SOL    HW123909   1.596   5.138   0.827
 7670SOL    HW223910   1.629   5.137   0.986
 7671SOL     OW23911   5.436   2.449   4.534
 7671SOL    HW123912   5.393   2.451   4.444
 7671SOL    HW223913   5.368   2.422   4.602
 7672SOL     OW23914   5.687   6.954   2.544
 7672SOL    HW123915   5.603   7.007   2.539
 7672SOL    HW223916   5.688   6.886   2.470
 7673SOL     OW23917   0.364   4.207   0.217
 7673SOL    HW123918   0.385   4.304   0.215
 7673SOL    HW223919   0.274   4.192   0.176
 7674SOL     OW23920   6.781   1.214   4.741
 7674SOL    HW123921   6.786   1.208   4.641
 7674SOL    HW223922   6.714   1.148   4.774
 7675SOL     OW23923   4.699   0.125   3.111
 7675SOL    HW123924   4.665   0.084   3.195
 7675SOL    HW223925   4.732   0.054   3.049
 7676SOL     OW23926   1.252   0.023   0.984
 7676SOL    HW123927   1.275   6.967   0.931
 7676SOL    HW223928   1.281   0.011   1.079
 7677SOL     OW23929   1.910   2.573   2.732
 7677SOL    HW123930   1.923   2.559   2.634
 7677SOL    HW223931   1.950   2.660   2.759
 7678SOL     OW23932   5.808   6.766   6.452
 7678SOL    HW123933   5.712   6.784   6.428
 7678SOL    HW223934   5.818   6.770   6.551
 7679SOL     OW23935   1.020   4.985   5.599
 7679SOL    HW123936   0.971   4.902   5.627
 7679SOL    HW223937   1.046   4.977   5.503
 7680SOL     OW23938   4.208   1.930   6.828
 7680SOL    HW123939   4.241   1.956   6.737
 7680SOL    HW223940   4.178   2.012   6.877
 7681SOL     OW23941   2.489   2.058   6.480
 7681SOL    HW123942   2.396   2.032   6.456
 7681SOL    HW223943   2.492   2.157   6.498
 7682SOL     OW23944   2.992   0.064   0.896
 7682SOL    HW123945   3.078   0.104   0.928
 7682SOL    HW223946   3.010   7.003   0.849
 7683SOL     OW23947   6.085   1.503   3.106
 7683SOL    HW123948   6.008   1.439   3.105
 7683SOL    HW223949   6.105   1.530   3.200
 7684SOL     OW23950   3.994   1.575   5.948
 7684SOL    HW123951   4.040   1.508   6.008
 7684SOL    HW223952   3.915   1.531   5.904
 7685SOL     OW23953   3.887   3.771   0.888
 7685SOL    HW123954   3.798   3.797   0.852
 7685SOL    HW223955   3.929   3.849   0.936
 7686SOL     OW23956   3.128   0.462   3.960
 7686SOL    HW123957   3.057   0.532   3.964
 7686SOL    HW223958   3.201   0.493   3.900
 7687SOL     OW23959   4.877   5.011   5.780
 7687SOL    HW123960   4.825   5.078   5.727
 7687SOL    HW223961   4.899   4.932   5.722
 7688SOL     OW23962   0.152   0.466   3.971
 7688SOL    HW123963   0.163   0.564   3.956
 7688SOL    HW223964   0.056   0.441   3.963
 7689SOL     OW23965   3.864   0.295   4.313
 7689SOL    HW123966   3.806   0.358   4.365
 7689SOL    HW223967   3.834   0.201   4.328
 7690SOL     OW23968   0.209   5.905   3.362
 7690SOL    HW123969   0.294   5.857   3.341
 7690SOL    HW223970   0.218   5.954   3.449
 7691SOL     OW23971   5.554   4.243   5.293
 7691SOL    HW123972   5.489   4.286   5.230
 7691SOL    HW223973   5.516   4.156   5.325
 7692SOL     OW23974   1.796   6.479   1.156
 7692SOL    HW123975   1.755   6.564   1.189
 7692SOL    HW223976   1.756   6.401   1.205
 7693SOL     OW23977   5.524   0.513   0.080
 7693SOL    HW123978   5.465   0.533   0.158
 7693SOL    HW223979   5.603   0.459   0.110
 7694SOL     OW23980   6.501   4.899   4.135
 7694SOL    HW123981   6.601   4.902   4.139
 7694SOL    HW223982   6.466   4.986   4.102
 7695SOL     OW23983   3.844   0.329   6.647
 7695SOL    HW123984   3.806   0.364   6.732
 7695SOL    HW223985   3.810   0.236   6.631
 7696SOL     OW23986   0.259   3.612   5.457
 7696SOL    HW123987   0.232   3.544   5.526
 7696SOL    HW223988   0.178   3.661   5.425
 7697SOL     OW23989   4.127   1.893   1.905
 7697SOL    HW123990   4.181   1.870   1.986
 7697SOL    HW223991   4.035   1.918   1.933
 7698SOL     OW23992   0.160   3.490   5.729
 7698SOL    HW123993   0.067   3.497   5.693
 7698SOL    HW223994   0.163   3.526   5.822
 7699SOL     OW23995   2.231   4.303   6.961
 7699SOL    HW123996   2.319   4.265   6.988
 7699SOL    HW223997   2.197   4.363   0.007
 7700SOL     OW23998   5.464   7.006   5.636
 7700SOL    HW123999   5.451   0.080   5.635
 7700SOL    HW224000   5.461   6.971   5.542
 7701SOL     OW24001   6.291   2.047   5.195
 7701SOL    HW124002   6.288   2.048   5.295
 7701SOL    HW224003   6.198   2.041   5.159
 7702SOL     OW24004   2.483   5.971   6.035
 7702SOL    HW124005   2.467   6.036   6.109
 7702SOL    HW224006   2.519   5.886   6.072
 7703SOL     OW24007   0.544   1.951   6.100
 7703SOL    HW124008   0.587   1.932   6.012
 7703SOL    HW224009   0.486   2.033   6.092
 7704SOL     OW24010   3.954   4.760   0.780
 7704SOL    HW124011   3.912   4.763   0.689
 7704SOL    HW224012   3.918   4.836   0.835
 7705SOL     OW24013   3.696   4.881   5.494
 7705SOL    HW124014   3.729   4.798   5.539
 7705SOL    HW224015   3.668   4.948   5.563
 7706SOL     OW24016   6.538   0.711   5.000
 7706SOL    HW124017   6.602   0.783   4.974
 7706SOL    HW224018   6.519   0.719   5.098
 7707SOL     OW24019   0.245   5.058   5.933
 7707SOL    HW124020   0.223   5.090   6.025
 7707SOL    HW224021   0.204   4.968   5.918
 7708SOL     OW24022   5.109   6.967   4.601
 7708SOL    HW124023   5.149   7.003   4.686
 7708SOL    HW224024   5.009   6.965   4.610
 7709SOL     OW24025   3.501   1.998   2.000
 7709SOL    HW124026   3.434   1.976   2.072
 7709SOL    HW224027   3.526   2.095   2.007
 7710SOL     OW24028   2.679   2.347   6.714
 7710SOL    HW124029   2.654   2.260   6.757
 7710SOL    HW224030   2.759   2.386   6.761
 7711SOL     OW24031   5.195   6.677   5.934
 7711SOL    HW124032   5.115   6.692   5.991
 7711SOL    HW224033   5.170   6.618   5.857
 7712SOL     OW24034   5.036   5.106   1.043
 7712SOL    HW124035   5.088   5.183   1.079
 7712SOL    HW224036   5.047   5.102   0.944
 7713SOL     OW24037   1.088   4.785   6.838
 7713SOL    HW124038   1.088   4.685   6.829
 7713SOL    HW224039   1.166   4.813   6.893
 7714SOL     OW24040   5.536   4.188   4.141
 7714SOL    HW124041   5.531   4.256   4.214
 7714SOL    HW224042   5.465   4.206   4.073
 7715SOL     OW24043   4.316   1.936   1.180
 7715SOL    HW124044   4.377   1.894   1.248
 7715SOL    HW224045   4.246   1.989   1.226
 7716SOL     OW24046   4.798   2.940   2.960
 7716SOL    HW124047   4.839   2.934   3.051
 7716SOL    HW224048   4.789   3.037   2.934
 7717SOL     OW24049   3.387   0.556   6.540
 7717SOL    HW124050   3.326   0.478   6.558
 7717SOL    HW224051   3.427   0.545   6.449
 7718SOL     OW24052   2.878   5.932   3.584
 7718SOL    HW124053   2.884   5.881   3.499
 7718SOL    HW224054   2.947   6.005   3.585
 7719SOL     OW24055   6.251   2.275   5.777
 7719SOL    HW124056   6.318   2.341   5.811
 7719SOL    HW224057   6.180   2.261   5.847
 7720SOL     OW24058   5.536   5.874   1.811
 7720SOL    HW124059   5.569   5.872   1.905
 7720SOL    HW224060   5.443   5.838   1.808
 7721SOL     OW24061   1.555   4.512   2.665
 7721SOL    HW124062   1.493   4.447   2.709
 7721SOL    HW224063   1.502   4.578   2.611
 7722SOL     OW24064   0.771   5.946   4.218
 7722SOL    HW124065   0.852   5.905   4.258
 7722SOL    HW224066   0.736   5.888   4.144
 7723SOL     OW24067   6.519   3.308   0.547
 7723SOL    HW124068   6.450   3.343   0.610
 7723SOL    HW224069   6.533   3.374   0.473
 7724SOL     OW24070   1.963   5.324   0.699
 7724SOL    HW124071   2.010   5.377   0.629
 7724SOL    HW224072   1.900   5.260   0.657
 7725SOL     OW24073   5.172   3.800   4.543
 7725SOL    HW124074   5.262   3.763   4.566
 7725SOL    HW224075   5.117   3.729   4.498
 7726SOL     OW24076   5.774   4.368   3.859
 7726SOL    HW124077   5.745   4.300   3.792
 7726SOL    HW224078   5.736   4.457   3.834
 7727SOL     OW24079   6.906   2.837   2.144
 7727SOL    HW124080   6.851   2.759   2.175
 7727SOL    HW224081   6.849   2.899   2.090
 7728SOL     OW24082   2.424   2.191   2.920
 7728SOL    HW124083   2.406   2.274   2.867
 7728SOL    HW224084   2.362   2.188   2.998
 7729SOL     OW24085   5.764   2.424   1.097
 7729SOL    HW124086   5.859   2.443   1.120
 7729SOL    HW224087   5.710   2.414   1.181
 7730SOL     OW24088   4.880   0.152   1.812
 7730SOL    HW124089   4.942   0.082   1.775
 7730SOL    HW224090   4.880   0.232   1.752
 7731SOL     OW24091   6.893   1.042   5.073
 7731SOL    HW124092   6.940   0.973   5.128
 7731SOL    HW224093   6.816   1.080   5.125
 7732SOL     OW24094   4.510   4.788   0.490
 7732SOL    HW124095   4.497   4.730   0.409
 7732SOL    HW224096   4.602   4.774   0.526
 7733SOL     OW24097   3.092   6.751   0.990
 7733SOL    HW124098   3.133   6.660   0.987
 7733SOL    HW224099   3.107   6.792   1.080
 7734SOL     OW24100   1.565   1.791   3.090
 7734SOL    HW124101   1.589   1.805   2.994
 7734SOL    HW224102   1.495   1.858   3.117
 7735SOL     OW24103   4.964   3.950   0.628
 7735SOL    HW124104   5.063   3.964   0.617
 7735SOL    HW224105   4.927   4.018   0.690
 7736SOL     OW24106   5.766   4.588   5.868
 7736SOL    HW124107   5.820   4.541   5.938
 7736SOL    HW224108   5.802   4.564   5.777
 7737SOL     OW24109   5.064   1.945   0.641
 7737SOL    HW124110   5.000   1.878   0.603
 7737SOL    HW224111   5.031   1.975   0.731
 7738SOL     OW24112   2.768   4.622   6.903
 7738SOL    HW124113   2.747   4.632   6.806
 7738SOL    HW224114   2.700   4.563   6.946
 7739SOL     OW24115   6.312   3.404   1.677
 7739SOL    HW124116   6.256   3.390   1.759
 7739SOL    HW224117   6.392   3.345   1.682
 7740SOL     OW24118   1.068   6.770   3.689
 7740SOL    HW124119   1.075   6.842   3.758
 7740SOL    HW224120   0.997   6.795   3.622
 7741SOL     OW24121   3.179   5.356   4.556
 7741SOL    HW124122   3.154   5.369   4.652
 7741SOL    HW224123   3.263   5.303   4.549
 7742SOL     OW24124   6.574   0.860   4.153
 7742SOL    HW124125   6.650   0.874   4.089
 7742SOL    HW224126   6.518   0.784   4.122
 7743SOL     OW24127   4.811   2.654   2.836
 7743SOL    HW124128   4.898   2.647   2.786
 7743SOL    HW224129   4.791   2.750   2.854
 7744SOL     OW24130   0.027   6.962   4.897
 7744SOL    HW124131   7.004   0.005   4.842
 7744SOL    HW224132   0.112   7.001   4.932
 7745SOL     OW24133   5.324   3.200   5.335
 7745SOL    HW124134   5.307   3.127   5.269
 7745SOL    HW224135   5.271   3.281   5.310
 7746SOL     OW24136   1.411   0.625   0.535
 7746SOL    HW124137   1.447   0.693   0.470
 7746SOL    HW224138   1.346   0.566   0.487
 7747SOL     OW24139   5.504   4.905   1.223
 7747SOL    HW124140   5.510   4.875   1.318
 7747SOL    HW224141   5.592   4.890   1.178
 7748SOL     OW24142   2.987   3.439   6.423
 7748SOL    HW124143   2.971   3.483   6.335
 7748SOL    HW224144   2.908   3.383   6.448
 7749SOL     OW24145   5.472   3.607   6.372
 7749SOL    HW124146   5.450   3.512   6.349
 7749SOL    HW224147   5.480   3.660   6.287
 7750SOL     OW24148   6.048   5.108   3.154
 7750SOL    HW124149   5.977   5.062   3.102
 7750SOL    HW224150   6.015   5.126   3.247
 7751SOL     OW24151   0.236   2.462   1.706
 7751SOL    HW124152   0.333   2.486   1.714
 7751SOL    HW224153   0.224   2.395   1.633
 7752SOL     OW24154   4.138   1.644   3.126
 7752SOL    HW124155   4.122   1.561   3.073
 7752SOL    HW224156   4.193   1.622   3.207
 7753SOL     OW24157   3.346   1.803   4.962
 7753SOL    HW124158   3.395   1.764   5.040
 7753SOL    HW224159   3.290   1.880   4.993
 7754SOL     OW24160   5.752   6.100   2.595
 7754SOL    HW124161   5.746   6.139   2.504
 7754SOL    HW224162   5.779   6.004   2.589
 7755SOL     OW24163   0.669   4.685   4.435
 7755SOL    HW124164   0.742   4.641   4.383
 7755SOL    HW224165   0.582   4.639   4.417
 7756SOL     OW24166   2.885   5.079   2.576
 7756SOL    HW124167   2.919   4.995   2.534
 7756SOL    HW224168   2.962   5.140   2.595
 7757SOL     OW24169   0.400   4.909   2.015
 7757SOL    HW124170   0.433   4.965   1.939
 7757SOL    HW224171   0.302   4.922   2.026
 7758SOL     OW24172   1.320   2.156   4.730
 7758SOL    HW124173   1.328   2.182   4.634
 7758SOL    HW224174   1.264   2.223   4.778
 7759SOL     OW24175   3.518   1.704   1.497
 7759SOL    HW124176   3.611   1.727   1.469
 7759SOL    HW224177   3.515   1.697   1.597
 7760SOL     OW24178   4.941   3.162   0.303
 7760SOL    HW124179   4.902   3.209   0.223
 7760SOL    HW224180   5.008   3.222   0.347
 7761SOL     OW24181   4.477   5.247   3.316
 7761SOL    HW124182   4.448   5.317   3.382
 7761SOL    HW224183   4.423   5.256   3.232
 7762SOL     OW24184   5.430   1.354   1.479
 7762SOL    HW124185   5.343   1.396   1.451
 7762SOL    HW224186   5.414   1.290   1.554
 7763SOL     OW24187   2.248   0.483   4.236
 7763SOL    HW124188   2.302   0.431   4.169
 7763SOL    HW224189   2.240   0.429   4.320
 7764SOL     OW24190   2.644   4.385   5.623
 7764SOL    HW124191   2.651   4.419   5.529
 7764SOL    HW224192   2.636   4.286   5.623
 7765SOL     OW24193   5.364   3.526   4.214
 7765SOL    HW124194   5.304   3.464   4.265
 7765SOL    HW224195   5.459   3.510   4.240
 7766SOL     OW24196   6.575   3.409   6.702
 7766SOL    HW124197   6.485   3.395   6.745
 7766SOL    HW224198   6.597   3.331   6.644
 7767SOL     OW24199   4.154   0.097   3.838
 7767SOL    HW124200   4.087   0.118   3.766
 7767SOL    HW224201   4.222   0.171   3.841
 7768SOL     OW24202   3.505   5.688   3.772
 7768SOL    HW124203   3.536   5.594   3.789
 7768SOL    HW224204   3.585   5.748   3.766
 7769SOL     OW24205   3.554   2.748   5.983
 7769SOL    HW124206   3.463   2.710   5.965
 7769SOL    HW224207   3.591   2.787   5.899
 7770SOL     OW24208   1.379   3.380   4.383
 7770SOL    HW124209   1.292   3.361   4.339
 7770SOL    HW224210   1.369   3.457   4.446
 7771SOL     OW24211   1.885   3.923   6.363
 7771SOL    HW124212   1.872   3.947   6.459
 7771SOL    HW224213   1.808   3.959   6.310
 7772SOL     OW24214   5.280   6.141   2.095
 7772SOL    HW124215   5.298   6.207   2.169
 7772SOL    HW224216   5.192   6.096   2.111
 7773SOL     OW24217   2.060   6.374   6.662
 7773SOL    HW124218   1.976   6.325   6.637
 7773SOL    HW224219   2.134   6.307   6.673
 7774SOL     OW24220   5.567   1.640   2.499
 7774SOL    HW124221   5.566   1.740   2.496
 7774SOL    HW224222   5.507   1.609   2.574
 7775SOL     OW24223   2.802   1.982   1.413
 7775SOL    HW124224   2.876   2.048   1.403
 7775SOL    HW224225   2.780   1.943   1.324
 7776SOL     OW24226   2.721   1.240   4.670
 7776SOL    HW124227   2.770   1.324   4.647
 7776SOL    HW224228   2.725   1.176   4.594
 7777SOL     OW24229   6.193   6.092   3.369
 7777SOL    HW124230   6.190   6.045   3.281
 7777SOL    HW224231   6.131   6.047   3.433
 7778SOL     OW24232   0.161   4.744   2.548
 7778SOL    HW124233   0.105   4.753   2.465
 7778SOL    HW224234   0.244   4.800   2.538
 7779SOL     OW24235   4.478   6.323   1.742
 7779SOL    HW124236   4.567   6.302   1.702
 7779SOL    HW224237   4.433   6.394   1.688
 7780SOL     OW24238   6.037   6.319   4.938
 7780SOL    HW124239   6.135   6.338   4.937
 7780SOL    HW224240   6.017   6.247   5.005
 7781SOL     OW24241   1.744   3.155   0.936
 7781SOL    HW124242   1.819   3.093   0.911
 7781SOL    HW224243   1.701   3.191   0.853
 7782SOL     OW24244   5.197   3.320   4.296
 7782SOL    HW124245   5.103   3.343   4.272
 7782SOL    HW224246   5.216   3.225   4.270
 7783SOL     OW24247   2.130   6.631   4.445
 7783SOL    HW124248   2.184   6.560   4.399
 7783SOL    HW224249   2.151   6.632   4.543
 7784SOL     OW24250   1.691   1.781   1.598
 7784SOL    HW124251   1.710   1.840   1.520
 7784SOL    HW224252   1.596   1.795   1.628
 7785SOL     OW24253   0.268   6.370   3.129
 7785SOL    HW124254   0.262   6.276   3.094
 7785SOL    HW224255   0.308   6.429   3.059
 7786SOL     OW24256   4.415   0.873   5.891
 7786SOL    HW124257   4.487   0.805   5.908
 7786SOL    HW224258   4.400   0.927   5.974
 7787SOL     OW24259   2.428   2.626   2.020
 7787SOL    HW124260   2.482   2.665   1.946
 7787SOL    HW224261   2.351   2.574   1.983
 7788SOL     OW24262   0.698   3.860   1.968
 7788SOL    HW124263   0.615   3.914   1.960
 7788SOL    HW224264   0.734   3.868   2.061
 7789SOL     OW24265   3.434   1.062   6.328
 7789SOL    HW124266   3.411   1.109   6.242
 7789SOL    HW224267   3.371   0.987   6.343
 7790SOL     OW24268   4.086   5.215   2.566
 7790SOL    HW124269   4.152   5.290   2.560
 7790SOL    HW224270   4.055   5.190   2.474
 7791SOL     OW24271   3.078   5.739   2.776
 7791SOL    HW124272   2.998   5.689   2.743
 7791SOL    HW224273   3.074   5.746   2.876
 7792SOL     OW24274   1.309   1.630   3.020
 7792SOL    HW124275   1.257   1.640   2.935
 7792SOL    HW224276   1.391   1.575   3.003
 7793SOL     OW24277   5.172   1.137   0.721
 7793SOL    HW124278   5.091   1.194   0.708
 7793SOL    HW224279   5.252   1.185   0.686
 7794SOL     OW24280   1.191   6.871   3.398
 7794SOL    HW124281   1.287   6.876   3.372
 7794SOL    HW224282   1.161   6.776   3.399
 7795SOL     OW24283   3.672   4.383   0.974
 7795SOL    HW124284   3.731   4.426   1.042
 7795SOL    HW224285   3.618   4.453   0.928
 7796SOL     OW24286   3.254   1.912   0.357
 7796SOL    HW124287   3.181   1.843   0.358
 7796SOL    HW224288   3.274   1.940   0.451
 7797SOL     OW24289   1.173   5.223   3.215
 7797SOL    HW124290   1.237   5.251   3.286
 7797SOL    HW224291   1.215   5.235   3.125
 7798SOL     OW24292   1.999   3.104   0.494
 7798SOL    HW124293   2.067   3.033   0.476
 7798SOL    HW224294   2.045   3.186   0.528
 7799SOL     OW24295   3.298   6.009   3.777
 7799SOL    HW124296   3.395   6.018   3.756
 7799SOL    HW224297   3.274   5.912   3.784
 7800SOL     OW24298   1.547   0.749   2.002
 7800SOL    HW124299   1.623   0.709   1.951
 7800SOL    HW224300   1.544   0.708   2.094
 7801SOL     OW24301   0.824   1.964   1.014
 7801SOL    HW124302   0.818   1.865   1.027
 7801SOL    HW224303   0.733   2.000   0.990
 7802SOL     OW24304   6.776   3.857   3.841
 7802SOL    HW124305   6.788   3.764   3.877
 7802SOL    HW224306   6.729   3.853   3.753
 7803SOL     OW24307   2.844   2.679   5.635
 7803SOL    HW124308   2.817   2.757   5.691
 7803SOL    HW224309   2.888   2.711   5.551
 7804SOL     OW24310   3.669   1.692   5.475
 7804SOL    HW124311   3.707   1.712   5.565
 7804SOL    HW224312   3.579   1.735   5.467
 7805SOL     OW24313   5.113   3.148   6.847
 7805SOL    HW124314   5.192   3.087   6.861
 7805SOL    HW224315   5.037   3.095   6.809
 7806SOL     OW24316   6.292   1.728   5.825
 7806SOL    HW124317   6.267   1.634   5.804
 7806SOL    HW224318   6.263   1.751   5.918
 7807SOL     OW24319   2.162   5.591   5.549
 7807SOL    HW124320   2.129   5.515   5.606
 7807SOL    HW224321   2.258   5.577   5.526
 7808SOL     OW24322   6.035   3.952   3.656
 7808SOL    HW124323   5.974   3.985   3.728
 7808SOL    HW224324   6.010   3.858   3.632
 7809SOL     OW24325   4.829   6.007   2.003
 7809SOL    HW124326   4.774   6.063   2.066
 7809SOL    HW224327   4.803   5.911   2.013
 7810SOL     OW24328   2.512   6.607   5.846
 7810SOL    HW124329   2.486   6.690   5.795
 7810SOL    HW224330   2.594   6.568   5.805
 7811SOL     OW24331   1.258   5.866   2.547
 7811SOL    HW124332   1.160   5.865   2.532
 7811SOL    HW224333   1.305   5.894   2.464
 7812SOL     OW24334   2.817   0.876   5.836
 7812SOL    HW124335   2.887   0.805   5.831
 7812SOL    HW224336   2.838   0.939   5.911
 7813SOL     OW24337   5.322   0.664   1.521
 7813SOL    HW124338   5.360   0.573   1.505
 7813SOL    HW224339   5.396   0.727   1.544
 7814SOL     OW24340   5.714   2.792   2.383
 7814SOL    HW124341   5.664   2.847   2.450
 7814SOL    HW224342   5.809   2.783   2.411
 7815SOL     OW24343   4.997   5.644   3.846
 7815SOL    HW124344   5.027   5.604   3.933
 7815SOL    HW224345   4.915   5.596   3.815
 7816SOL     OW24346   0.917   1.075   5.287
 7816SOL    HW124347   0.871   1.121   5.212
 7816SOL    HW224348   0.915   1.132   5.369
 7817SOL     OW24349   4.014   2.471   6.874
 7817SOL    HW124350   3.997   2.373   6.873
 7817SOL    HW224351   3.950   2.516   6.937
 7818SOL     OW24352   5.676   1.020   2.975
 7818SOL    HW124353   5.746   0.968   3.023
 7818SOL    HW224354   5.640   1.092   3.035
 7819SOL     OW24355   1.568   3.594   5.352
 7819SOL    HW124356   1.491   3.658   5.346
 7819SOL    HW224357   1.593   3.581   5.448
 7820SOL     OW24358   1.511   1.202   5.569
 7820SOL    HW124359   1.600   1.207   5.523
 7820SOL    HW224360   1.449   1.145   5.515
 7821SOL     OW24361   3.659   6.579   6.381
 7821SOL    HW124362   3.594   6.504   6.392
 7821SOL    HW224363   3.722   6.558   6.306
 7822SOL     OW24364   0.273   1.590   5.264
 7822SOL    HW124365   0.306   1.666   5.320
 7822SOL    HW224366   0.309   1.598   5.171
 7823SOL     OW24367   2.527   3.281   5.718
 7823SOL    HW124368   2.525   3.309   5.622
 7823SOL    HW224369   2.472   3.345   5.772
 7824SOL     OW24370   5.345   3.853   3.015
 7824SOL    HW124371   5.332   3.929   2.952
 7824SOL    HW224372   5.264   3.843   3.073
 7825SOL     OW24373   3.579   3.372   2.641
 7825SOL    HW124374   3.530   3.368   2.554
 7825SOL    HW224375   3.670   3.411   2.627
 7826SOL     OW24376   6.740   0.263   0.691
 7826SOL    HW124377   6.732   0.301   0.783
 7826SOL    HW224378   6.836   0.266   0.662
 7827SOL     OW24379   4.411   3.292   0.447
 7827SOL    HW124380   4.358   3.208   0.458
 7827SOL    HW224381   4.487   3.276   0.385
 7828SOL     OW24382   0.824   5.596   0.999
 7828SOL    HW124383   0.901   5.541   0.969
 7828SOL    HW224384   0.777   5.634   0.919
 7829SOL     OW24385   3.740   4.070   3.299
 7829SOL    HW124386   3.837   4.053   3.312
 7829SOL    HW224387   3.725   4.108   3.208
 7830SOL     OW24388   5.844   3.736   7.005
 7830SOL    HW124389   5.924   3.704   6.955
 7830SOL    HW224390   5.766   3.677   6.984
 7831SOL     OW24391   1.519   2.774   0.115
 7831SOL    HW124392   1.543   2.679   0.131
 7831SOL    HW224393   1.438   2.798   0.169
 7832SOL     OW24394   3.338   2.658   5.662
 7832SOL    HW124395   3.383   2.705   5.586
 7832SOL    HW224396   3.260   2.606   5.628
 7833SOL     OW24397   0.281   6.720   1.367
 7833SOL    HW124398   0.329   6.637   1.397
 7833SOL    HW224399   0.195   6.694   1.323
 7834SOL     OW24400   6.548   0.344   1.546
 7834SOL    HW124401   6.570   0.248   1.529
 7834SOL    HW224402   6.589   0.373   1.632
 7835SOL     OW24403   2.569   2.405   4.389
 7835SOL    HW124404   2.654   2.356   4.406
 7835SOL    HW224405   2.531   2.438   4.476
 7836SOL     OW24406   1.934   0.704   0.285
 7836SOL    HW124407   2.014   0.644   0.283
 7836SOL    HW224408   1.965   0.800   0.289
 7837SOL     OW24409   4.873   6.645   2.149
 7837SOL    HW124410   4.906   6.738   2.131
 7837SOL    HW224411   4.933   6.579   2.106
 7838SOL     OW24412   3.848   6.462   4.112
 7838SOL    HW124413   3.826   6.384   4.053
 7838SOL    HW224414   3.913   6.521   4.065
 7839SOL     OW24415   0.149   4.484   3.580
 7839SOL    HW124416   0.053   4.491   3.551
 7839SOL    HW224417   0.162   4.535   3.665
 7840SOL     OW24418   4.922   3.301   5.679
 7840SOL    HW124419   5.018   3.311   5.704
 7840SOL    HW224420   4.865   3.358   5.739
 7841SOL     OW24421   1.062   1.769   6.460
 7841SOL    HW124422   1.093   1.737   6.549
 7841SOL    HW224423   0.994   1.705   6.424
 7842SOL     OW24424   3.365   0.857   1.830
 7842SOL    HW124425   3.392   0.761   1.834
 7842SOL    HW224426   3.355   0.884   1.735
 7843SOL     OW24427   0.299   2.982   1.922
 7843SOL    HW124428   0.361   3.013   1.850
 7843SOL    HW224429   0.311   3.038   2.004
 7844SOL     OW24430   3.958   1.372   4.602
 7844SOL    HW124431   3.879   1.313   4.586
 7844SOL    HW224432   3.935   1.466   4.579
 7845SOL     OW24433   1.336   0.854   3.893
 7845SOL    HW124434   1.317   0.826   3.987
 7845SOL    HW224435   1.268   0.812   3.832
 7846SOL     OW24436   4.589   6.420   1.461
 7846SOL    HW124437   4.634   6.509   1.466
 7846SOL    HW224438   4.506   6.427   1.406
 7847SOL     OW24439   0.287   0.501   0.219
 7847SOL    HW124440   0.211   0.439   0.201
 7847SOL    HW224441   0.365   0.475   0.163
 7848SOL     OW24442   3.880   4.789   1.194
 7848SOL    HW124443   3.853   4.826   1.283
 7848SOL    HW224444   3.876   4.689   1.197
 7849SOL     OW24445   5.114   4.085   4.536
 7849SOL    HW124446   5.119   3.985   4.535
 7849SOL    HW224447   5.162   4.120   4.617
 7850SOL     OW24448   1.089   1.926   4.269
 7850SOL    HW124449   1.021   1.873   4.218
 7850SOL    HW224450   1.044   2.001   4.318
 7851SOL     OW24451   5.009   6.631   0.987
 7851SOL    HW124452   5.025   6.661   1.081
 7851SOL    HW224453   4.914   6.601   0.978
 7852SOL     OW24454   2.476   6.767   0.410
 7852SOL    HW124455   2.513   6.676   0.426
 7852SOL    HW224456   2.450   6.808   0.497
 7853SOL     OW24457   1.793   2.771   6.920
 7853SOL    HW124458   1.719   2.827   6.957
 7853SOL    HW224459   1.806   2.691   6.977
 7854SOL     OW24460   3.407   4.164   3.023
 7854SOL    HW124461   3.389   4.071   3.055
 7854SOL    HW224462   3.343   4.227   3.066
 7855SOL     OW24463   4.031   6.969   5.318
 7855SOL    HW124464   4.052   0.023   5.262
 7855SOL    HW224465   4.010   6.999   5.411
 7856SOL     OW24466   3.440   3.744   6.479
 7856SOL    HW124467   3.511   3.675   6.464
 7856SOL    HW224468   3.364   3.728   6.415
 7857SOL     OW24469   1.016   2.546   5.073
 7857SOL    HW124470   1.003   2.607   5.151
 7857SOL    HW224471   1.089   2.583   5.015
 7858SOL     OW24472   5.550   4.399   3.123
 7858SOL    HW124473   5.492   4.477   3.100
 7858SOL    HW224474   5.638   4.409   3.078
 7859SOL     OW24475   0.591   5.816   6.954
 7859SOL    HW124476   0.570   5.732   6.905
 7859SOL    HW224477   0.618   5.887   6.889
 7860SOL     OW24478   4.756   6.934   1.696
 7860SOL    HW124479   4.833   6.885   1.655
 7860SOL    HW224480   4.789   6.994   1.768
 7861SOL     OW24481   5.239   3.501   0.693
 7861SOL    HW124482   5.275   3.564   0.625
 7861SOL    HW224483   5.193   3.552   0.766
 7862SOL     OW24484   2.755   4.209   1.734
 7862SOL    HW124485   2.804   4.152   1.670
 7862SOL    HW224486   2.803   4.296   1.746
 7863SOL     OW24487   5.380   5.832   2.331
 7863SOL    HW124488   5.316   5.813   2.257
 7863SOL    HW224489   5.330   5.859   2.413
 7864SOL     OW24490   1.028   5.859   4.277
 7864SOL    HW124491   1.027   5.816   4.367
 7864SOL    HW224492   1.051   5.791   4.208
 7865SOL     OW24493   3.613   0.866   3.072
 7865SOL    HW124494   3.553   0.939   3.041
 7865SOL    HW224495   3.646   0.887   3.164
 7866SOL     OW24496   1.873   2.622   4.682
 7866SOL    HW124497   1.937   2.689   4.720
 7866SOL    HW224498   1.779   2.654   4.697
 7867SOL     OW24499   5.360   3.892   2.352
 7867SOL    HW124500   5.362   3.987   2.321
 7867SOL    HW224501   5.366   3.831   2.272
 7868SOL     OW24502   5.547   0.343   0.768
 7868SOL    HW124503   5.638   0.356   0.806
 7868SOL    HW224504   5.479   0.357   0.840
 7869SOL     OW24505   6.469   1.873   4.222
 7869SOL    HW124506   6.468   1.773   4.223
 7869SOL    HW224507   6.553   1.905   4.266
 7870SOL     OW24508   7.000   6.699   3.157
 7870SOL    HW124509   0.009   6.792   3.168
 7870SOL    HW224510   6.903   6.702   3.133
 7871SOL     OW24511   5.442   3.190   3.788
 7871SOL    HW124512   5.528   3.153   3.823
 7871SOL    HW224513   5.435   3.286   3.814
 7872SOL     OW24514   6.493   3.694   3.850
 7872SOL    HW124515   6.450   3.756   3.916
 7872SOL    HW224516   6.422   3.646   3.799
 7873SOL     OW24517   6.967   5.630   4.636
 7873SOL    HW124518   0.039   5.649   4.648
 7873SOL    HW224519   6.930   5.688   4.564
 7874SOL     OW24520   5.997   1.648   0.645
 7874SOL    HW124521   5.906   1.688   0.631
 7874SOL    HW224522   5.988   1.551   0.668
 7875SOL     OW24523   4.587   3.110   0.588
 7875SOL    HW124524   4.551   3.202   0.605
 7875SOL    HW224525   4.682   3.104   0.620
 7876SOL     OW24526   0.341   0.533   4.945
 7876SOL    HW124527   0.247   0.503   4.928
 7876SOL    HW224528   0.351   0.629   4.917
 7877SOL     OW24529   6.048   2.667   2.756
 7877SOL    HW124530   6.072   2.575   2.724
 7877SOL    HW224531   6.127   2.710   2.798
 7878SOL     OW24532   4.583   3.970   1.684
 7878SOL    HW124533   4.500   3.919   1.662
 7878SOL    HW224534   4.559   4.059   1.721
 7879SOL     OW24535   5.692   0.810   4.396
 7879SOL    HW124536   5.766   0.758   4.439
 7879SOL    HW224537   5.661   0.882   4.458
 7880SOL     OW24538   1.504   6.509   6.030
 7880SOL    HW124539   1.531   6.539   6.122
 7880SOL    HW224540   1.406   6.525   6.018
 7881SOL     OW24541   0.583   5.095   3.457
 7881SOL    HW124542   0.617   5.065   3.546
 7881SOL    HW224543   0.587   5.195   3.452
 7882SOL     OW24544   1.478   4.447   1.833
 7882SOL    HW124545   1.545   4.373   1.824
 7882SOL    HW224546   1.510   4.513   1.900
 7883SOL     OW24547   3.542   2.000   3.265
 7883SOL    HW124548   3.504   2.068   3.328
 7883SOL    HW224549   3.583   1.926   3.318
 7884SOL     OW24550   0.771   3.372   4.633
 7884SOL    HW124551   0.683   3.416   4.650
 7884SOL    HW224552   0.794   3.379   4.536
 7885SOL     OW24553   5.694   4.900   2.681
 7885SOL    HW124554   5.626   4.955   2.731
 7885SOL    HW224555   5.717   4.946   2.595
 7886SOL     OW24556   4.880   3.439   2.545
 7886SOL    HW124557   4.897   3.425   2.447
 7886SOL    HW224558   4.854   3.353   2.587
 7887SOL     OW24559   1.367   2.828   1.644
 7887SOL    HW124560   1.466   2.843   1.650
 7887SOL    HW224561   1.336   2.850   1.552
 7888SOL     OW24562   6.334   0.906   4.844
 7888SOL    HW124563   6.259   0.937   4.901
 7888SOL    HW224564   6.306   0.905   4.748
 7889SOL     OW24565   5.692   5.193   0.201
 7889SOL    HW124566   5.697   5.233   0.109
 7889SOL    HW224567   5.766   5.230   0.257
 7890SOL     OW24568   2.159   3.218   3.854
 7890SOL    HW124569   2.204   3.284   3.794
 7890SOL    HW224570   2.216   3.137   3.864
 7891SOL     OW24571   6.483   2.241   4.686
 7891SOL    HW124572   6.507   2.262   4.781
 7891SOL    HW224573   6.516   2.149   4.663
 7892SOL     OW24574   0.736   1.749   4.988
 7892SOL    HW124575   0.645   1.757   5.029
 7892SOL    HW224576   0.798   1.815   5.032
 7893SOL     OW24577   5.737   0.338   0.175
 7893SOL    HW124578   5.786   0.251   0.185
 7893SOL    HW224579   5.681   0.354   0.257
 7894SOL     OW24580   3.012   0.666   6.975
 7894SOL    HW124581   3.012   0.589   0.013
 7894SOL    HW224582   3.073   0.738   7.010
 7895SOL     OW24583   6.459   6.154   3.376
 7895SOL    HW124584   6.365   6.120   3.387
 7895SOL    HW224585   6.459   6.253   3.380
 7896SOL     OW24586   2.657   2.122   0.923
 7896SOL    HW124587   2.679   2.039   0.872
 7896SOL    HW224588   2.734   2.186   0.918
 7897SOL     OW24589   3.247   2.620   0.592
 7897SOL    HW124590   3.321   2.618   0.524
 7897SOL    HW224591   3.167   2.665   0.553
 7898SOL     OW24592   5.614   0.062   3.019
 7898SOL    HW124593   5.574   0.128   3.084
 7898SOL    HW224594   5.623   6.999   3.064
 7899SOL     OW24595   6.244   4.220   4.206
 7899SOL    HW124596   6.330   4.194   4.160
 7899SOL    HW224597   6.197   4.290   4.151
 7900SOL     OW24598   0.209   3.823   0.610
 7900SOL    HW124599   0.192   3.914   0.648
 7900SOL    HW224600   0.272   3.831   0.533
 7901SOL     OW24601   0.406   2.135   0.023
 7901SOL    HW124602   0.311   2.102   0.025
 7901SOL    HW224603   0.406   2.235   0.019
 7902SOL     OW24604   1.836   6.546   2.113
 7902SOL    HW124605   1.906   6.577   2.177
 7902SOL    HW224606   1.861   6.455   2.078
 7903SOL     OW24607   2.462   2.216   5.066
 7903SOL    HW124608   2.530   2.168   5.121
 7903SOL    HW224609   2.406   2.150   5.017
 7904SOL     OW24610   4.510   2.095   2.992
 7904SOL    HW124611   4.505   2.077   2.894
 7904SOL    HW224612   4.494   2.192   3.009
 7905SOL     OW24613   5.332   2.147   1.376
 7905SOL    HW124614   5.271   2.221   1.346
 7905SOL    HW224615   5.322   2.069   1.314
 7906SOL     OW24616   1.772   4.816   0.117
 7906SOL    HW124617   1.803   4.730   0.157
 7906SOL    HW224618   1.719   4.797   0.034
 7907SOL     OW24619   5.961   6.393   2.619
 7907SOL    HW124620   5.899   6.344   2.681
 7907SOL    HW224621   5.910   6.464   2.571
 7908SOL     OW24622   1.704   6.953   6.737
 7908SOL    HW124623   1.648   6.958   6.654
 7908SOL    HW224624   1.786   6.899   6.719
 7909SOL     OW24625   6.068   4.193   2.102
 7909SOL    HW124626   6.131   4.179   2.026
 7909SOL    HW224627   5.981   4.148   2.081
 7910SOL     OW24628   0.991   4.159   6.520
 7910SOL    HW124629   0.929   4.081   6.509
 7910SOL    HW224630   1.018   4.166   6.616
 7911SOL     OW24631   6.913   4.320   6.140
 7911SOL    HW124632   6.933   4.304   6.237
 7911SOL    HW224633   6.946   4.243   6.086
 7912SOL     OW24634   5.939   5.162   1.098
 7912SOL    HW124635   5.997   5.221   1.043
 7912SOL    HW224636   5.845   5.198   1.097
 7913SOL     OW24637   1.286   4.966   0.188
 7913SOL    HW124638   1.286   4.873   0.226
 7913SOL    HW224639   1.254   5.030   0.257
 7914SOL     OW24640   0.858   6.991   5.064
 7914SOL    HW124641   0.830   0.017   4.983
 7914SOL    HW224642   0.801   7.017   5.142
 7915SOL     OW24643   3.261   4.982   2.671
 7915SOL    HW124644   3.278   4.929   2.754
 7915SOL    HW224645   3.230   5.074   2.697
 7916SOL     OW24646   1.394   0.516   4.147
 7916SOL    HW124647   1.452   0.435   4.161
 7916SOL    HW224648   1.362   0.517   4.052
 7917SOL     OW24649   4.218   2.084   1.539
 7917SOL    HW124650   4.283   2.121   1.473
 7917SOL    HW224651   4.159   2.157   1.573
 7918SOL     OW24652   2.527   2.543   3.570
 7918SOL    HW124653   2.472   2.626   3.568
 7918SOL    HW224654   2.579   2.538   3.656
 7919SOL     OW24655   1.452   5.928   5.382
 7919SOL    HW124656   1.498   6.003   5.335
 7919SOL    HW224657   1.428   5.957   5.475
 7920SOL     OW24658   5.127   0.675   1.335
 7920SOL    HW124659   5.072   0.758   1.345
 7920SOL    HW224660   5.177   0.657   1.420
 7921SOL     OW24661   5.266   2.589   1.059
 7921SOL    HW124662   5.211   2.673   1.063
 7921SOL    HW224663   5.361   2.610   1.080
 7922SOL     OW24664   2.896   0.173   1.964
 7922SOL    HW124665   2.987   0.214   1.957
 7922SOL    HW224666   2.831   0.224   1.908
 7923SOL     OW24667   4.458   1.494   6.649
 7923SOL    HW124668   4.396   1.421   6.677
 7923SOL    HW224669   4.424   1.581   6.684
 7924SOL     OW24670   6.022   6.101   0.219
 7924SOL    HW124671   5.983   6.054   0.298
 7924SOL    HW224672   5.995   6.053   0.135
 7925SOL     OW24673   1.636   5.197   6.568
 7925SOL    HW124674   1.565   5.127   6.568
 7925SOL    HW224675   1.719   5.160   6.527
 7926SOL     OW24676   4.977   5.907   6.735
 7926SOL    HW124677   5.048   5.974   6.717
 7926SOL    HW224678   4.949   5.864   6.649
 7927SOL     OW24679   4.235   0.496   2.803
 7927SOL    HW124680   4.168   0.427   2.778
 7927SOL    HW224681   4.254   0.492   2.901
 7928SOL     OW24682   5.939   2.229   2.799
 7928SOL    HW124683   5.929   2.205   2.703
 7928SOL    HW224684   5.948   2.145   2.853
 7929SOL     OW24685   4.547   4.149   6.024
 7929SOL    HW124686   4.470   4.088   6.041
 7929SOL    HW224687   4.620   4.130   6.090
 7930SOL     OW24688   4.014   6.562   6.425
 7930SOL    HW124689   3.993   6.494   6.495
 7930SOL    HW224690   3.952   6.639   6.433
 7931SOL     OW24691   3.829   1.922   1.661
 7931SOL    HW124692   3.859   1.968   1.577
 7931SOL    HW224693   3.733   1.897   1.653
 7932SOL     OW24694   1.354   3.580   1.199
 7932SOL    HW124695   1.450   3.599   1.177
 7932SOL    HW224696   1.342   3.582   1.298
 7933SOL     OW24697   1.053   2.082   0.177
 7933SOL    HW124698   0.966   2.089   0.226
 7933SOL    HW224699   1.079   1.985   0.171
 7934SOL     OW24700   1.022   5.198   0.727
 7934SOL    HW124701   0.999   5.285   0.772
 7934SOL    HW224702   0.998   5.122   0.787
 7935SOL     OW24703   5.975   2.741   3.169
 7935SOL    HW124704   5.983   2.724   3.070
 7935SOL    HW224705   5.984   2.654   3.218
 7936SOL     OW24706   2.997   5.752   3.873
 7936SOL    HW124707   3.090   5.727   3.847
 7936SOL    HW224708   2.948   5.785   3.792
 7937SOL     OW24709   3.636   1.094   0.225
 7937SOL    HW124710   3.632   1.120   0.128
 7937SOL    HW224711   3.605   1.171   0.281
 7938SOL     OW24712   3.245   6.752   3.770
 7938SOL    HW124713   3.205   6.731   3.681
 7938SOL    HW224714   3.329   6.806   3.757
 7939SOL     OW24715   0.673   0.879   2.688
 7939SOL    HW124716   0.586   0.921   2.713
 7939SOL    HW224717   0.709   0.924   2.606
 7940SOL     OW24718   5.702   1.638   4.236
 7940SOL    HW124719   5.602   1.628   4.235
 7940SOL    HW224720   5.726   1.730   4.267
 7941SOL     OW24721   3.559   0.154   1.030
 7941SOL    HW124722   3.626   0.166   0.956
 7941SOL    HW224723   3.532   0.058   1.035
 7942SOL     OW24724   1.245   4.810   0.677
 7942SOL    HW124725   1.169   4.793   0.615
 7942SOL    HW224726   1.261   4.730   0.734
 7943SOL     OW24727   1.921   6.044   6.025
 7943SOL    HW124728   1.852   6.115   6.037
 7943SOL    HW224729   1.893   5.961   6.073
 7944SOL     OW24730   0.846   2.416   1.050
 7944SOL    HW124731   0.804   2.376   0.968
 7944SOL    HW224732   0.817   2.512   1.058
 7945SOL     OW24733   6.075   4.312   3.038
 7945SOL    HW124734   6.001   4.367   2.999
 7945SOL    HW224735   6.119   4.259   2.965
 7946SOL     OW24736   4.013   1.121   6.357
 7946SOL    HW124737   3.974   1.072   6.279
 7946SOL    HW224738   4.034   1.056   6.429
 7947SOL     OW24739   6.944   3.993   6.622
 7947SOL    HW124740   6.921   3.992   6.524
 7947SOL    HW224741   6.900   3.915   6.667
 7948SOL     OW24742   1.946   5.413   2.760
 7948SOL    HW124743   1.939   5.317   2.787
 7948SOL    HW224744   1.904   5.470   2.831
 7949SOL     OW24745   2.832   6.026   5.842
 7949SOL    HW124746   2.802   6.021   5.937
 7949SOL    HW224747   2.764   5.983   5.783
 7950SOL     OW24748   6.208   4.528   5.378
 7950SOL    HW124749   6.232   4.614   5.333
 7950SOL    HW224750   6.242   4.529   5.472
 7951SOL     OW24751   4.519   6.352   2.339
 7951SOL    HW124752   4.448   6.399   2.391
 7951SOL    HW224753   4.555   6.413   2.269
 7952SOL     OW24754   6.267   3.739   5.463
 7952SOL    HW124755   6.251   3.782   5.551
 7952SOL    HW224756   6.350   3.778   5.422
 7953SOL     OW24757   1.451   6.339   0.542
 7953SOL    HW124758   1.483   6.355   0.635
 7953SOL    HW224759   1.481   6.413   0.482
 7954SOL     OW24760   3.791   3.904   6.762
 7954SOL    HW124761   3.798   3.806   6.743
 7954SOL    HW224762   3.696   3.934   6.749
 7955SOL     OW24763   1.532   1.381   6.425
 7955SOL    HW124764   1.629   1.377   6.400
 7955SOL    HW224765   1.477   1.350   6.348
 7956SOL     OW24766   6.645   6.277   0.256
 7956SOL    HW124767   6.547   6.294   0.263
 7956SOL    HW224768   6.695   6.353   0.297
 7957SOL     OW24769   5.219   1.566   5.895
 7957SOL    HW124770   5.174   1.583   5.807
 7957SOL    HW224771   5.213   1.469   5.917
 7958SOL     OW24772   5.465   2.663   0.544
 7958SOL    HW124773   5.415   2.707   0.619
 7958SOL    HW224774   5.402   2.611   0.487
 7959SOL     OW24775   5.611   2.295   0.357
 7959SOL    HW124776   5.671   2.366   0.393
 7959SOL    HW224777   5.570   2.327   0.272
 7960SOL     OW24778   1.175   1.345   5.456
 7960SOL    HW124779   1.191   1.430   5.406
 7960SOL    HW224780   1.239   1.275   5.424
 7961SOL     OW24781   6.511   6.742   6.942
 7961SOL    HW124782   6.608   6.735   6.917
 7961SOL    HW224783   6.465   6.657   6.918
 7962SOL     OW24784   6.049   0.061   5.399
 7962SOL    HW124785   6.055   0.001   5.479
 7962SOL    HW224786   6.126   0.125   5.400
 7963SOL     OW24787   6.831   6.546   3.461
 7963SOL    HW124788   6.808   6.642   3.448
 7963SOL    HW224789   6.905   6.521   3.398
 7964SOL     OW24790   6.101   4.086   1.706
 7964SOL    HW124791   6.074   4.041   1.791
 7964SOL    HW224792   6.051   4.172   1.697
 7965SOL     OW24793   4.231   2.533   6.384
 7965SOL    HW124794   4.134   2.518   6.405
 7965SOL    HW224795   4.281   2.548   6.469
 7966SOL     OW24796   5.146   3.862   4.878
 7966SOL    HW124797   5.128   3.877   4.781
 7966SOL    HW224798   5.112   3.772   4.905
 7967SOL     OW24799   1.555   4.810   0.457
 7967SOL    HW124800   1.620   4.873   0.500
 7967SOL    HW224801   1.462   4.844   0.472
 7968SOL     OW24802   1.039   3.036   4.655
 7968SOL    HW124803   0.948   3.071   4.680
 7968SOL    HW224804   1.096   3.112   4.623
 7969SOL     OW24805   3.376   5.615   6.383
 7969SOL    HW124806   3.319   5.534   6.379
 7969SOL    HW224807   3.455   5.598   6.442
 7970SOL     OW24808   6.282   2.861   4.202
 7970SOL    HW124809   6.189   2.873   4.168
 7970SOL    HW224810   6.297   2.764   4.222
 7971SOL     OW24811   2.926   1.472   6.689
 7971SOL    HW124812   2.879   1.384   6.692
 7971SOL    HW224813   2.863   1.545   6.717
 7972SOL     OW24814   3.222   4.076   4.120
 7972SOL    HW124815   3.209   4.048   4.025
 7972SOL    HW224816   3.180   4.008   4.180
 7973SOL     OW24817   5.520   4.471   2.442
 7973SOL    HW124818   5.603   4.416   2.440
 7973SOL    HW224819   5.440   4.411   2.447
 7974SOL     OW24820   0.307   2.559   5.581
 7974SOL    HW124821   0.376   2.595   5.518
 7974SOL    HW224822   0.217   2.591   5.554
 7975SOL     OW24823   5.408   0.754   1.147
 7975SOL    HW124824   5.318   0.743   1.106
 7975SOL    HW224825   5.398   0.797   1.237
 7976SOL     OW24826   0.439   0.515   0.833
 7976SOL    HW124827   0.516   0.577   0.849
 7976SOL    HW224828   0.445   0.436   0.893
 7977SOL     OW24829   5.560   5.885   3.868
 7977SOL    HW124830   5.588   5.919   3.958
 7977SOL    HW224831   5.517   5.958   3.816
 7978SOL     OW24832   0.283   4.428   1.478
 7978SOL    HW124833   0.223   4.349   1.469
 7978SOL    HW224834   0.335   4.439   1.393
 7979SOL     OW24835   2.089   2.473   4.581
 7979SOL    HW124836   2.063   2.444   4.489
 7979SOL    HW224837   2.007   2.491   4.635
 7980SOL     OW24838   3.663   5.787   0.634
 7980SOL    HW124839   3.714   5.865   0.597
 7980SOL    HW224840   3.626   5.811   0.724
 7981SOL     OW24841   1.325   4.116   3.709
 7981SOL    HW124842   1.395   4.079   3.770
 7981SOL    HW224843   1.368   4.159   3.630
 7982SOL     OW24844   6.977   0.631   5.764
 7982SOL    HW124845   7.000   0.558   5.701
 7982SOL    HW224846   0.036   0.668   5.804
 7983SOL     OW24847   4.551   1.335   1.380
 7983SOL    HW124848   4.542   1.236   1.366
 7983SOL    HW224849   4.545   1.356   1.477
 7984SOL     OW24850   0.003   2.524   3.217
 7984SOL    HW124851   0.091   2.534   3.171
 7984SOL    HW224852   6.967   2.468   3.160
 7985SOL     OW24853   3.179   2.954   5.361
 7985SOL    HW124854   3.193   2.855   5.355
 7985SOL    HW224855   3.266   3.001   5.349
 7986SOL     OW24856   3.783   0.823   4.482
 7986SOL    HW124857   3.721   0.828   4.560
 7986SOL    HW224858   3.816   0.914   4.459
 7987SOL     OW24859   0.822   3.276   7.000
 7987SOL    HW124860   0.842   3.221   0.056
 7987SOL    HW224861   0.763   3.353   0.001
 7988SOL     OW24862   0.010   1.347   1.980
 7988SOL    HW124863   0.107   1.342   2.003
 7988SOL    HW224864   7.003   1.257   1.951
 7989SOL     OW24865   0.156   4.072   1.107
 7989SOL    HW124866   0.068   4.060   1.152
 7989SOL    HW224867   0.151   4.037   1.014
 7990SOL     OW24868   5.042   5.669   5.445
 7990SOL    HW124869   5.083   5.720   5.521
 7990SOL    HW224870   4.949   5.701   5.429
 7991SOL     OW24871   5.927   0.747   4.579
 7991SOL    HW124872   5.968   0.808   4.512
 7991SOL    HW224873   5.950   0.778   4.671
 7992SOL     OW24874   2.173   6.732   0.036
 7992SOL    HW124875   2.129   6.643   0.028
 7992SOL    HW224876   2.178   6.774   6.970
 7993SOL     OW24877   6.030   5.603   0.933
 7993SOL    HW124878   6.040   5.503   0.935
 7993SOL    HW224879   6.069   5.642   1.016
 7994SOL     OW24880   6.544   0.031   4.063
 7994SOL    HW124881   6.539   7.007   4.150
 7994SOL    HW224882   6.473   0.101   4.060
 7995SOL     OW24883   0.635   5.614   1.407
 7995SOL    HW124884   0.625   5.546   1.480
 7995SOL    HW224885   0.728   5.649   1.405
 7996SOL     OW24886   3.294   6.998   3.439
 7996SOL    HW124887   3.310   6.913   3.490
 7996SOL    HW224888   3.296   6.979   3.341
 7997SOL     OW24889   1.968   1.846   5.650
 7997SOL    HW124890   1.881   1.869   5.605
 7997SOL    HW224891   2.042   1.896   5.607
 7998SOL     OW24892   2.804   0.775   0.649
 7998SOL    HW124893   2.749   0.853   0.618
 7998SOL    HW224894   2.820   0.782   0.747
 7999SOL     OW24895   1.371   0.153   4.440
 7999SOL    HW124896   1.294   0.205   4.403
 7999SOL    HW224897   1.396   0.190   4.530
 8000SOL     OW24898   3.795   5.555   0.779
 8000SOL    HW124899   3.766   5.636   0.728
 8000SOL    HW224900   3.895   5.545   0.772
 8001SOL     OW24901   4.165   4.834   1.122
 8001SOL    HW124902   4.206   4.814   1.033
 8001SOL    HW224903   4.068   4.810   1.120
 8002SOL     OW24904   1.306   6.749   4.452
 8002SOL    HW124905   1.338   6.662   4.488
 8002SOL    HW224906   1.379   6.817   4.460
 8003SOL     OW24907   2.438   5.733   2.455
 8003SOL    HW124908   2.409   5.707   2.547
 8003SOL    HW224909   2.409   5.827   2.437
 8004SOL     OW24910   1.200   3.147   3.819
 8004SOL    HW124911   1.223   3.243   3.831
 8004SOL    HW224912   1.279   3.090   3.843
 8005SOL     OW24913   2.415   0.769   2.860
 8005SOL    HW124914   2.434   0.804   2.768
 8005SOL    HW224915   2.339   0.704   2.856
 8006SOL     OW24916   4.044   4.639   5.555
 8006SOL    HW124917   3.989   4.609   5.477
 8006SOL    HW224918   4.117   4.572   5.572
 8007SOL     OW24919   0.156   0.410   0.778
 8007SOL    HW124920   0.246   0.434   0.742
 8007SOL    HW224921   0.145   0.449   0.869
 8008SOL     OW24922   4.904   5.105   0.132
 8008SOL    HW124923   5.002   5.124   0.137
 8008SOL    HW224924   4.889   5.006   0.130
 8009SOL     OW24925   5.799   1.015   0.303
 8009SOL    HW124926   5.739   0.938   0.325
 8009SOL    HW224927   5.841   1.000   0.213
 8010SOL     OW24928   2.751   0.553   5.678
 8010SOL    HW124929   2.729   0.643   5.642
 8010SOL    HW224930   2.823   0.561   5.747
 8011SOL     OW24931   4.094   2.093   3.117
 8011SOL    HW124932   4.096   2.152   3.036
 8011SOL    HW224933   4.001   2.088   3.153
 8012SOL     OW24934   6.336   1.372   4.084
 8012SOL    HW124935   6.251   1.388   4.034
 8012SOL    HW224936   6.315   1.346   4.178
 8013SOL     OW24937   3.450   1.098   3.036
 8013SOL    HW124938   3.481   1.160   3.108
 8013SOL    HW224939   3.386   1.146   2.976
 8014SOL     OW24940   2.296   2.349   3.129
 8014SOL    HW124941   2.334   2.389   3.213
 8014SOL    HW224942   2.217   2.403   3.100
 8015SOL     OW24943   3.659   0.300   5.177
 8015SOL    HW124944   3.589   0.359   5.136
 8015SOL    HW224945   3.639   0.205   5.154
 8016SOL     OW24946   3.755   2.340   5.296
 8016SOL    HW124947   3.683   2.409   5.287
 8016SOL    HW224948   3.729   2.273   5.365
 8017SOL     OW24949   6.426   6.020   1.299
 8017SOL    HW124950   6.397   5.954   1.368
 8017SOL    HW224951   6.356   6.027   1.228
 8018SOL     OW24952   3.903   2.917   0.070
 8018SOL    HW124953   3.981   2.925   0.009
 8018SOL    HW224954   3.924   2.853   0.143
 8019SOL     OW24955   2.353   3.465   0.554
 8019SOL    HW124956   2.384   3.383   0.603
 8019SOL    HW224957   2.405   3.474   0.469
 8020SOL     OW24958   0.726   0.722   5.812
 8020SOL    HW124959   0.759   0.640   5.764
 8020SOL    HW224960   0.645   0.757   5.766
 8021SOL     OW24961   1.205   3.278   0.722
 8021SOL    HW124962   1.249   3.285   0.811
 8021SOL    HW224963   1.116   3.322   0.724
 8022SOL     OW24964   4.383   0.705   1.593
 8022SOL    HW124965   4.339   0.670   1.676
 8022SOL    HW224966   4.473   0.740   1.615
 8023SOL     OW24967   4.394   6.386   1.115
 8023SOL    HW124968   4.296   6.397   1.102
 8023SOL    HW224969   4.434   6.473   1.145
 8024SOL     OW24970   2.511   1.196   6.961
 8024SOL    HW124971   2.563   1.192   6.876
 8024SOL    HW224972   2.520   1.109   7.009
 8025SOL     OW24973   1.066   5.515   1.538
 8025SOL    HW124974   1.014   5.600   1.529
 8025SOL    HW224975   1.021   5.455   1.603
 8026SOL     OW24976   0.727   5.711   6.461
 8026SOL    HW124977   0.703   5.615   6.477
 8026SOL    HW224978   0.775   5.747   6.542
 8027SOL     OW24979   3.656   0.027   6.845
 8027SOL    HW124980   3.681   0.121   6.868
 8027SOL    HW224981   3.558   0.015   6.859
 8028SOL     OW24982   3.782   5.544   5.280
 8028SOL    HW124983   3.693   5.515   5.243
 8028SOL    HW224984   3.775   5.556   5.379
 8029SOL     OW24985   1.061   0.425   1.293
 8029SOL    HW124986   0.980   0.483   1.297
 8029SOL    HW224987   1.057   0.367   1.211
 8030SOL     OW24988   0.663   4.299   1.232
 8030SOL    HW124989   0.571   4.274   1.201
 8030SOL    HW224990   0.662   4.312   1.331
 8031SOL     OW24991   0.184   0.311   3.225
 8031SOL    HW124992   0.101   0.283   3.272
 8031SOL    HW224993   0.232   0.381   3.279
 8032SOL     OW24994   0.419   2.755   1.121
 8032SOL    HW124995   0.386   2.811   1.044
 8032SOL    HW224996   0.375   2.785   1.205
 8033SOL     OW24997   4.066   4.166   1.416
 8033SOL    HW124998   4.093   4.101   1.488
 8033SOL    HW224999   4.147   4.211   1.379
 8034SOL     OW25000   6.810   0.009   6.134
 8034SOL    HW125001   6.818   0.021   6.035
 8034SOL    HW225002   6.827   6.938   6.157
 8035SOL     OW25003   6.071   0.691   3.444
 8035SOL    HW125004   6.124   0.671   3.361
 8035SOL    HW225005   6.120   0.757   3.500
 8036SOL     OW25006   4.837   2.435   4.088
 8036SOL    HW125007   4.746   2.468   4.063
 8036SOL    HW225008   4.829   2.366   4.159
 8037SOL     OW25009   2.167   1.202   6.068
 8037SOL    HW125010   2.170   1.107   6.098
 8037SOL    HW225011   2.259   1.241   6.069
 8038SOL     OW25012   6.760   5.384   2.312
 8038SOL    HW125013   6.751   5.408   2.215
 8038SOL    HW225014   6.670   5.361   2.349
 8039SOL     OW25015   1.607   2.485   5.251
 8039SOL    HW125016   1.650   2.473   5.341
 8039SOL    HW225017   1.673   2.527   5.188
 8040SOL     OW25018   1.305   5.821   6.200
 8040SOL    HW125019   1.306   5.896   6.266
 8040SOL    HW225020   1.212   5.782   6.196
 8041SOL     OW25021   3.171   1.485   3.087
 8041SOL    HW125022   3.255   1.460   3.038
 8041SOL    HW225023   3.136   1.571   3.052
 8042SOL     OW25024   4.140   4.196   5.806
 8042SOL    HW125025   4.072   4.174   5.876
 8042SOL    HW225026   4.221   4.237   5.849
 8043SOL     OW25027   5.300   5.421   6.578
 8043SOL    HW125028   5.324   5.332   6.616
 8043SOL    HW225029   5.340   5.493   6.635
 8044SOL     OW25030   2.295   3.240   1.471
 8044SOL    HW125031   2.337   3.153   1.444
 8044SOL    HW225032   2.319   3.260   1.566
 8045SOL     OW25033   6.858   2.754   4.295
 8045SOL    HW125034   6.936   2.787   4.349
 8045SOL    HW225035   6.779   2.812   4.314
 8046SOL     OW25036   6.736   4.386   1.773
 8046SOL    HW125037   6.706   4.458   1.836
 8046SOL    HW225038   6.752   4.425   1.683
 8047SOL     OW25039   3.264   6.410   0.027
 8047SOL    HW125040   3.312   6.342   0.083
 8047SOL    HW225041   3.195   6.363   6.997
 8048SOL     OW25042   3.754   2.073   6.021
 8048SOL    HW125043   3.784   2.147   5.961
 8048SOL    HW225044   3.732   2.109   6.112
 8049SOL     OW25045   1.696   1.675   0.609
 8049SOL    HW125046   1.656   1.597   0.560
 8049SOL    HW225047   1.794   1.681   0.587
 8050SOL     OW25048   0.634   4.742   5.924
 8050SOL    HW125049   0.697   4.791   5.864
 8050SOL    HW225050   0.620   4.794   6.008
 8051SOL     OW25051   4.053   0.032   3.239
 8051SOL    HW125052   3.992   0.101   3.201
 8051SOL    HW225053   4.148   0.064   3.233
 8052SOL     OW25054   3.078   1.714   2.524
 8052SOL    HW125055   3.167   1.727   2.480
 8052SOL    HW225056   3.092   1.679   2.617
 8053SOL     OW25057   1.555   2.763   6.446
 8053SOL    HW125058   1.582   2.667   6.457
 8053SOL    HW225059   1.537   2.803   6.536
 8054SOL     OW25060   4.833   3.321   5.157
 8054SOL    HW125061   4.840   3.406   5.105
 8054SOL    HW225062   4.811   3.341   5.252
 8055SOL     OW25063   6.480   0.535   7.017
 8055SOL    HW125064   6.438   0.526   0.082
 8055SOL    HW225065   6.578   0.550   0.003
 8056SOL     OW25066   2.449   0.894   3.727
 8056SOL    HW125067   2.424   0.919   3.634
 8056SOL    HW225068   2.377   0.838   3.767
 8057SOL     OW25069   3.081   2.111   2.086
 8057SOL    HW125070   3.004   2.176   2.089
 8057SOL    HW225071   3.126   2.118   1.998
 8058SOL     OW25072   3.935   6.196   1.822
 8058SOL    HW125073   3.944   6.143   1.907
 8058SOL    HW225074   3.871   6.149   1.761
 8059SOL     OW25075   2.538   2.563   5.883
 8059SOL    HW125076   2.492   2.582   5.797
 8059SOL    HW225077   2.548   2.649   5.935
 8060SOL     OW25078   6.638   0.916   6.181
 8060SOL    HW125079   6.629   0.823   6.145
 8060SOL    HW225080   6.679   0.975   6.112
 8061SOL     OW25081   6.919   0.935   2.822
 8061SOL    HW125082   6.897   0.933   2.919
 8061SOL    HW225083   6.940   1.029   2.795
 8062SOL     OW25084   4.491   5.577   5.451
 8062SOL    HW125085   4.489   5.640   5.374
 8062SOL    HW225086   4.583   5.538   5.461
 8063SOL     OW25087   2.532   4.565   3.254
 8063SOL    HW125088   2.561   4.626   3.328
 8063SOL    HW225089   2.567   4.600   3.166
 8064SOL     OW25090   6.325   1.912   0.677
 8064SOL    HW125091   6.240   1.885   0.631
 8064SOL    HW225092   6.388   1.951   0.611
 8065SOL     OW25093   4.186   6.176   6.479
 8065SOL    HW125094   4.221   6.104   6.539
 8065SOL    HW225095   4.114   6.227   6.526
 8066SOL     OW25096   0.451   6.928   6.043
 8066SOL    HW125097   0.433   7.021   6.010
 8066SOL    HW225098   0.547   6.920   6.068
 8067SOL     OW25099   5.826   1.454   3.605
 8067SOL    HW125100   5.895   1.497   3.546
 8067SOL    HW225101   5.788   1.523   3.667
 8068SOL     OW25102   5.913   3.239   1.399
 8068SOL    HW125103   5.848   3.295   1.348
 8068SOL    HW225104   5.979   3.299   1.445
 8069SOL     OW25105   1.750   3.715   2.773
 8069SOL    HW125106   1.708   3.716   2.864
 8069SOL    HW225107   1.779   3.808   2.749
 8070SOL     OW25108   4.528   4.619   0.925
 8070SOL    HW125109   4.569   4.692   0.980
 8070SOL    HW225110   4.503   4.542   0.984
 8071SOL     OW25111   2.200   6.814   6.312
 8071SOL    HW125112   2.275   6.754   6.286
 8071SOL    HW225113   2.227   6.909   6.301
 8072SOL     OW25114   2.316   1.985   5.006
 8072SOL    HW125115   2.362   1.913   4.954
 8072SOL    HW225116   2.234   1.947   5.049
 8073SOL     OW25117   5.024   0.393   6.605
 8073SOL    HW125118   5.099   0.378   6.540
 8073SOL    HW225119   5.061   0.422   6.693
 8074SOL     OW25120   0.697   0.682   6.918
 8074SOL    HW125121   0.709   0.603   6.858
 8074SOL    HW225122   0.601   0.710   6.917
 8075SOL     OW25123   0.001   6.948   1.176
 8075SOL    HW125124   7.024   6.927   1.078
 8075SOL    HW225125   7.022   0.022   1.189
 8076SOL     OW25126   7.006   6.056   0.432
 8076SOL    HW125127   0.038   6.015   0.503
 8076SOL    HW225128   6.967   6.141   0.465
 8077SOL     OW25129   5.210   4.744   0.597
 8077SOL    HW125130   5.140   4.793   0.545
 8077SOL    HW225131   5.229   4.794   0.682
 8078SOL     OW25132   6.995   1.012   1.368
 8078SOL    HW125133   0.055   1.029   1.319
 8078SOL    HW225134   6.960   0.922   1.343
 8079SOL     OW25135   1.088   0.955   6.497
 8079SOL    HW125136   1.064   1.052   6.503
 8079SOL    HW225137   1.174   0.945   6.447
 8080SOL     OW25138   0.908   3.177   3.269
 8080SOL    HW125139   0.834   3.244   3.265
 8080SOL    HW225140   0.961   3.190   3.353
 8081SOL     OW25141   6.200   6.838   5.047
 8081SOL    HW125142   6.175   6.799   4.959
 8081SOL    HW225143   6.235   6.931   5.035
 8082SOL     OW25144   3.643   1.845   3.922
 8082SOL    HW125145   3.738   1.840   3.953
 8082SOL    HW225146   3.591   1.906   3.982
 8083SOL     OW25147   6.118   1.818   4.701
 8083SOL    HW125148   6.118   1.913   4.669
 8083SOL    HW225149   6.193   1.804   4.765
 8084SOL     OW25150   4.024   1.045   5.837
 8084SOL    HW125151   3.988   0.955   5.860
 8084SOL    HW225152   4.078   1.039   5.753
 8085SOL     OW25153   1.930   6.267   4.364
 8085SOL    HW125154   1.865   6.262   4.288
 8085SOL    HW225155   2.022   6.283   4.329
 8086SOL     OW25156   6.726   1.535   2.554
 8086SOL    HW125157   6.770   1.507   2.469
 8086SOL    HW225158   6.674   1.458   2.592
 8087SOL     OW25159   0.137   0.803   6.785
 8087SOL    HW125160   0.088   0.727   6.827
 8087SOL    HW225161   0.193   0.769   6.710
 8088SOL     OW25162   6.867   0.604   5.152
 8088SOL    HW125163   6.920   0.684   5.123
 8088SOL    HW225164   6.908   0.521   5.114
 8089SOL     OW25165   6.245   1.766   6.488
 8089SOL    HW125166   6.172   1.820   6.530
 8089SOL    HW225167   6.254   1.679   6.537
 8090SOL     OW25168   4.106   2.165   5.291
 8090SOL    HW125169   4.016   2.187   5.252
 8090SOL    HW225170   4.107   2.069   5.319
 8091SOL     OW25171   1.187   4.568   4.003
 8091SOL    HW125172   1.122   4.626   3.954
 8091SOL    HW225173   1.140   4.518   4.076
 8092SOL     OW25174   4.821   0.873   6.207
 8092SOL    HW125175   4.901   0.921   6.244
 8092SOL    HW225176   4.781   0.927   6.133
 8093SOL     OW25177   3.483   6.025   3.121
 8093SOL    HW125178   3.518   5.933   3.104
 8093SOL    HW225179   3.545   6.075   3.181
 8094SOL     OW25180   2.031   3.753   3.821
 8094SOL    HW125181   1.952   3.810   3.795
 8094SOL    HW225182   2.023   3.728   3.918
 8095SOL     OW25183   1.416   4.914   5.318
 8095SOL    HW125184   1.416   4.921   5.418
 8095SOL    HW225185   1.325   4.934   5.283
 8096SOL     OW25186   0.597   5.198   0.576
 8096SOL    HW125187   0.630   5.273   0.634
 8096SOL    HW225188   0.538   5.139   0.630
 8097SOL     OW25189   4.589   6.364   0.312
 8097SOL    HW125190   4.620   6.327   0.400
 8097SOL    HW225191   4.663   6.418   0.271
 8098SOL     OW25192   2.109   5.549   5.123
 8098SOL    HW125193   2.192   5.592   5.159
 8098SOL    HW225194   2.033   5.563   5.188
 8099SOL     OW25195   1.812   3.853   2.340
 8099SOL    HW125196   1.820   3.768   2.392
 8099SOL    HW225197   1.825   3.931   2.400
 8100SOL     OW25198   6.567   0.363   6.790
 8100SOL    HW125199   6.548   0.408   6.877
 8100SOL    HW225200   6.665   0.363   6.773
 8101SOL     OW25201   3.054   5.568   0.823
 8101SOL    HW125202   2.994   5.559   0.902
 8101SOL    HW225203   3.147   5.592   0.853
 8102SOL     OW25204   1.004   3.855   4.656
 8102SOL    HW125205   1.099   3.876   4.679
 8102SOL    HW225206   0.984   3.759   4.676
 8103SOL     OW25207   3.271   0.693   1.553
 8103SOL    HW125208   3.302   0.788   1.551
 8103SOL    HW225209   3.349   0.634   1.575
 8104SOL     OW25210   1.802   5.312   0.325
 8104SOL    HW125211   1.752   5.397   0.341
 8104SOL    HW225212   1.737   5.236   0.322
 8105SOL     OW25213   0.345   0.157   3.765
 8105SOL    HW125214   0.251   0.172   3.795
 8105SOL    HW225215   0.346   0.128   3.670
 8106SOL     OW25216   1.831   6.696   5.880
 8106SOL    HW125217   1.784   6.716   5.794
 8106SOL    HW225218   1.820   6.599   5.902
 8107SOL     OW25219   1.457   6.291   6.424
 8107SOL    HW125220   1.452   6.195   6.450
 8107SOL    HW225221   1.403   6.345   6.488
 8108SOL     OW25222   1.066   1.496   6.910
 8108SOL    HW125223   0.992   1.435   6.884
 8108SOL    HW225224   1.102   1.469   7.000
 8109SOL     OW25225   6.556   2.913   1.689
 8109SOL    HW125226   6.590   2.843   1.626
 8109SOL    HW225227   6.571   2.884   1.783
 8110SOL     OW25228   3.392   5.037   1.096
 8110SOL    HW125229   3.360   5.124   1.058
 8110SOL    HW225230   3.485   5.018   1.065
 8111SOL     OW25231   6.383   1.403   2.287
 8111SOL    HW125232   6.455   1.472   2.297
 8111SOL    HW225233   6.375   1.376   2.191
 8112SOL     OW25234   1.533   4.756   6.581
 8112SOL    HW125235   1.570   4.692   6.513
 8112SOL    HW225236   1.478   4.705   6.648
 8113SOL     OW25237   5.354   3.779   6.041
 8113SOL    HW125238   5.366   3.845   5.966
 8113SOL    HW225239   5.393   3.816   6.125
 8114SOL     OW25240   1.599   4.133   2.120
 8114SOL    HW125241   1.625   4.043   2.155
 8114SOL    HW225242   1.649   4.204   2.170
 8115SOL     OW25243   2.632   1.874   5.634
 8115SOL    HW125244   2.595   1.961   5.668
 8115SOL    HW225245   2.698   1.838   5.701
 8116SOL     OW25246   3.658   3.418   1.079
 8116SOL    HW125247   3.653   3.488   1.150
 8116SOL    HW225248   3.589   3.348   1.096
 8117SOL     OW25249   2.564   6.775   3.847
 8117SOL    HW125250   2.501   6.813   3.914
 8117SOL    HW225251   2.611   6.696   3.886
 8118SOL     OW25252   6.471   3.258   0.124
 8118SOL    HW125253   6.528   3.290   0.048
 8118SOL    HW225254   6.413   3.333   0.156
 8119SOL     OW25255   6.148   6.522   0.445
 8119SOL    HW125256   6.183   6.456   0.512
 8119SOL    HW225257   6.214   6.596   0.434
 8120SOL     OW25258   2.096   6.876   1.970
 8120SOL    HW125259   2.091   6.890   1.871
 8120SOL    HW225260   2.149   6.794   1.990
 8121SOL     OW25261   0.792   3.166   2.258
 8121SOL    HW125262   0.888   3.195   2.250
 8121SOL    HW225263   0.787   3.066   2.255
 8122SOL     OW25264   0.236   4.941   1.634
 8122SOL    HW125265   0.141   4.941   1.603
 8122SOL    HW225266   0.276   4.850   1.618
 8123SOL     OW25267   6.958   1.741   6.527
 8123SOL    HW125268   7.007   1.673   6.472
 8123SOL    HW225269   6.944   1.823   6.473
 8124SOL     OW25270   5.173   5.758   5.069
 8124SOL    HW125271   5.225   5.711   5.141
 8124SOL    HW225272   5.232   5.822   5.021
 8125SOL     OW25273   1.950   5.210   3.108
 8125SOL    HW125274   2.023   5.189   3.173
 8125SOL    HW225275   1.915   5.302   3.126
 8126SOL     OW25276   3.935   5.176   4.728
 8126SOL    HW125277   4.022   5.188   4.776
 8126SOL    HW225278   3.871   5.127   4.787
 8127SOL     OW25279   3.880   2.155   6.851
 8127SOL    HW125280   3.973   2.152   6.888
 8127SOL    HW225281   3.815   2.168   6.927
 8128SOL     OW25282   3.591   3.093   1.451
 8128SOL    HW125283   3.664   3.073   1.386
 8128SOL    HW225284   3.521   3.149   1.407
 8129SOL     OW25285   1.367   2.470   2.304
 8129SOL    HW125286   1.283   2.477   2.250
 8129SOL    HW225287   1.420   2.391   2.272
 8130SOL     OW25288   0.414   5.615   6.782
 8130SOL    HW125289   0.389   5.559   6.703
 8130SOL    HW225290   0.412   5.711   6.757
 8131SOL     OW25291   1.705   3.590   6.858
 8131SOL    HW125292   1.771   3.529   6.902
 8131SOL    HW225293   1.612   3.558   6.879
 8132SOL     OW25294   0.918   0.701   5.260
 8132SOL    HW125295   0.823   0.684   5.237
 8132SOL    HW225296   0.937   0.666   5.352
 8133SOL     OW25297   3.314   4.924   0.714
 8133SOL    HW125298   3.319   4.855   0.642
 8133SOL    HW225299   3.271   5.007   0.679
 8134SOL     OW25300   5.820   1.334   6.106
 8134SOL    HW125301   5.897   1.330   6.171
 8134SOL    HW225302   5.761   1.255   6.121
 8135SOL     OW25303   2.524   6.717   1.928
 8135SOL    HW125304   2.426   6.705   1.939
 8135SOL    HW225305   2.567   6.727   2.018
 8136SOL     OW25306   4.954   4.217   2.300
 8136SOL    HW125307   4.918   4.142   2.355
 8136SOL    HW225308   5.054   4.219   2.306
 8137SOL     OW25309   4.324   1.504   5.722
 8137SOL    HW125310   4.283   1.569   5.658
 8137SOL    HW225311   4.325   1.413   5.681
 8138SOL     OW25312   5.214   0.758   2.449
 8138SOL    HW125313   5.248   0.712   2.366
 8138SOL    HW225314   5.260   0.846   2.459
 8139SOL     OW25315   0.281   2.140   3.814
 8139SOL    HW125316   0.235   2.187   3.890
 8139SOL    HW225317   0.262   2.042   3.819
 8140SOL     OW25318   4.339   1.364   3.727
 8140SOL    HW125319   4.277   1.376   3.649
 8140SOL    HW225320   4.356   1.453   3.770
 8141SOL     OW25321   5.193   4.885   4.512
 8141SOL    HW125322   5.095   4.889   4.496
 8141SOL    HW225323   5.226   4.791   4.498
 8142SOL     OW25324   6.753   5.985   6.731
 8142SOL    HW125325   6.773   6.060   6.794
 8142SOL    HW225326   6.654   5.977   6.718
 8143SOL     OW25327   6.744   3.324   5.608
 8143SOL    HW125328   6.798   3.240   5.610
 8143SOL    HW225329   6.647   3.300   5.596
 8144SOL     OW25330   5.291   0.234   6.624
 8144SOL    HW125331   5.277   0.286   6.539
 8144SOL    HW225332   5.388   0.213   6.634
 8145SOL     OW25333   5.370   6.152   2.947
 8145SOL    HW125334   5.318   6.160   2.862
 8145SOL    HW225335   5.345   6.068   2.994
 8146SOL     OW25336   3.522   0.961   4.458
 8146SOL    HW125337   3.526   1.003   4.368
 8146SOL    HW225338   3.535   1.032   4.528
 8147SOL     OW25339   4.807   0.556   3.461
 8147SOL    HW125340   4.742   0.608   3.518
 8147SOL    HW225341   4.878   0.518   3.519
 8148SOL     OW25342   5.283   4.368   3.306
 8148SOL    HW125343   5.322   4.354   3.397
 8148SOL    HW225344   5.263   4.279   3.265
 8149SOL     OW25345   4.143   4.749   3.336
 8149SOL    HW125346   4.204   4.825   3.316
 8149SOL    HW225347   4.063   4.753   3.276
 8150SOL     OW25348   0.464   5.493   1.247
 8150SOL    HW125349   0.428   5.413   1.294
 8150SOL    HW225350   0.516   5.549   1.312
 8151SOL     OW25351   1.070   1.366   4.962
 8151SOL    HW125352   1.024   1.435   5.017
 8151SOL    HW225353   1.129   1.411   4.895
 8152SOL     OW25354   1.409   0.699   2.797
 8152SOL    HW125355   1.405   0.708   2.896
 8152SOL    HW225356   1.348   0.625   2.767
 8153SOL     OW25357   1.751   6.989   0.125
 8153SOL    HW125358   1.793   0.053   0.109
 8153SOL    HW225359   1.681   6.971   0.055
 8154SOL     OW25360   2.401   6.784   3.590
 8154SOL    HW125361   2.477   6.740   3.638
 8154SOL    HW225362   2.381   6.734   3.506
 8155SOL     OW25363   3.519   3.356   3.821
 8155SOL    HW125364   3.552   3.438   3.773
 8155SOL    HW225365   3.485   3.382   3.911
 8156SOL     OW25366   6.588   0.573   5.546
 8156SOL    HW125367   6.634   0.654   5.580
 8156SOL    HW225368   6.650   0.520   5.488
 8157SOL     OW25369   6.076   2.702   6.949
 8157SOL    HW125370   6.149   2.764   6.920
 8157SOL    HW225371   6.046   2.647   6.871
 8158SOL     OW25372   2.019   5.148   2.549
 8158SOL    HW125373   2.109   5.169   2.510
 8158SOL    HW225374   1.951   5.213   2.514
 8159SOL     OW25375   0.967   5.070   1.683
 8159SOL    HW125376   0.890   5.006   1.678
 8159SOL    HW225377   1.052   5.019   1.697
 8160SOL     OW25378   4.253   2.244   2.147
 8160SOL    HW125379   4.195   2.202   2.078
 8160SOL    HW225380   4.244   2.344   2.143
 8161SOL     OW25381   4.151   2.125   1.268
 8161SOL    HW125382   4.217   2.194   1.296
 8161SOL    HW225383   4.106   2.154   1.183
 8162SOL     OW25384   6.660   0.599   1.501
 8162SOL    HW125385   6.601   0.661   1.449
 8162SOL    HW225386   6.621   0.507   1.499
 8163SOL     OW25387   2.097   3.681   4.679
 8163SOL    HW125388   2.140   3.770   4.692
 8163SOL    HW225389   2.014   3.692   4.624
 8164SOL     OW25390   4.746   2.219   2.017
 8164SOL    HW125391   4.786   2.144   1.964
 8164SOL    HW225392   4.809   2.296   2.017
 8165SOL     OW25393   2.377   5.093   1.537
 8165SOL    HW125394   2.365   5.067   1.633
 8165SOL    HW225395   2.399   5.013   1.482
 8166SOL     OW25396   3.635   6.626   1.123
 8166SOL    HW125397   3.636   6.616   1.222
 8166SOL    HW225398   3.590   6.546   1.082
 8167SOL     OW25399   4.952   2.970   4.010
 8167SOL    HW125400   4.975   3.065   3.993
 8167SOL    HW225401   5.023   2.911   3.973
 8168SOL     OW25402   3.549   1.786   2.896
 8168SOL    HW125403   3.550   1.842   2.813
 8168SOL    HW225404   3.525   1.692   2.872
 8169SOL     OW25405   5.170   4.153   5.818
 8169SOL    HW125406   5.076   4.120   5.807
 8169SOL    HW225407   5.169   4.250   5.841
 8170SOL     OW25408   0.748   4.985   4.086
 8170SOL    HW125409   0.667   4.955   4.035
 8170SOL    HW225410   0.827   4.932   4.058
 8171SOL     OW25411   1.532   1.650   5.614
 8171SOL    HW125412   1.616   1.639   5.561
 8171SOL    HW225413   1.516   1.568   5.670
 8172SOL     OW25414   0.163   6.547   1.665
 8172SOL    HW125415   0.092   6.601   1.620
 8172SOL    HW225416   0.203   6.483   1.600
 8173SOL     OW25417   5.458   2.715   6.544
 8173SOL    HW125418   5.401   2.639   6.513
 8173SOL    HW225419   5.435   2.737   6.639
 8174SOL     OW25420   5.423   0.118   2.019
 8174SOL    HW125421   5.476   0.033   2.017
 8174SOL    HW225422   5.430   0.159   2.110
 8175SOL     OW25423   1.433   3.068   5.314
 8175SOL    HW125424   1.503   3.139   5.330
 8175SOL    HW225425   1.472   2.978   5.332
 8176SOL     OW25426   4.080   5.232   3.040
 8176SOL    HW125427   4.057   5.323   3.074
 8176SOL    HW225428   4.025   5.163   3.088
 8177SOL     OW25429   0.988   0.185   6.110
 8177SOL    HW125430   0.976   0.283   6.093
 8177SOL    HW225431   0.924   0.156   6.181
 8178SOL     OW25432   1.824   6.689   6.172
 8178SOL    HW125433   1.796   6.728   6.084
 8178SOL    HW225434   1.865   6.599   6.156
 8179SOL     OW25435   3.374   0.659   0.203
 8179SOL    HW125436   3.421   0.745   0.185
 8179SOL    HW225437   3.339   0.659   0.296
 8180SOL     OW25438   4.817   5.177   5.558
 8180SOL    HW125439   4.805   5.275   5.572
 8180SOL    HW225440   4.913   5.157   5.541
 8181SOL     OW25441   2.430   2.407   2.538
 8181SOL    HW125442   2.405   2.456   2.455
 8181SOL    HW225443   2.523   2.371   2.529
 8182SOL     OW25444   4.641   2.447   6.024
 8182SOL    HW125445   4.578   2.368   6.022
 8182SOL    HW225446   4.690   2.448   6.111
 8183SOL     OW25447   2.010   2.879   3.946
 8183SOL    HW125448   2.013   2.928   4.033
 8183SOL    HW225449   1.959   2.933   3.879
 8184SOL     OW25450   6.106   5.840   5.776
 8184SOL    HW125451   6.014   5.819   5.810
 8184SOL    HW225452   6.157   5.755   5.765
 8185SOL     OW25453   1.768   1.699   2.640
 8185SOL    HW125454   1.794   1.777   2.697
 8185SOL    HW225455   1.847   1.639   2.627
 8186SOL     OW25456   3.547   4.410   6.282
 8186SOL    HW125457   3.611   4.368   6.347
 8186SOL    HW225458   3.597   4.472   6.222
 8187SOL     OW25459   1.812   1.102   6.087
 8187SOL    HW125460   1.733   1.041   6.095
 8187SOL    HW225461   1.894   1.048   6.068
 8188SOL     OW25462   5.874   3.058   2.549
 8188SOL    HW125463   5.891   2.964   2.520
 8188SOL    HW225464   5.936   3.120   2.500
 8189SOL     OW25465   6.869   4.837   2.943
 8189SOL    HW125466   6.879   4.912   3.007
 8189SOL    HW225467   6.871   4.750   2.992
 8190SOL     OW25468   5.220   3.452   2.489
 8190SOL    HW125469   5.308   3.498   2.476
 8190SOL    HW225470   5.199   3.397   2.408
 8191SOL     OW25471   0.300   5.564   2.213
 8191SOL    HW125472   0.367   5.630   2.180
 8191SOL    HW225473   0.248   5.605   2.288
 8192SOL     OW25474   1.597   3.514   0.588
 8192SOL    HW125475   1.515   3.525   0.644
 8192SOL    HW225476   1.589   3.569   0.505
 8193SOL     OW25477   3.486   0.156   5.650
 8193SOL    HW125478   3.405   0.129   5.701
 8193SOL    HW225479   3.462   0.227   5.583
 8194SOL     OW25480   1.688   0.109   1.139
 8194SOL    HW125481   1.786   0.117   1.120
 8194SOL    HW225482   1.637   0.156   1.067
 8195SOL     OW25483   5.616   0.718   0.971
 8195SOL    HW125484   5.669   0.754   1.047
 8195SOL    HW225485   5.519   0.738   0.986
 8196SOL     OW25486   2.038   0.486   0.009
 8196SOL    HW125487   1.964   0.516   0.068
 8196SOL    HW225488   2.016   0.508   6.939
 8197SOL     OW25489   0.699   6.724   0.934
 8197SOL    HW125490   0.794   6.754   0.940
 8197SOL    HW225491   0.680   6.659   1.007
 8198SOL     OW25492   3.808   6.939   2.639
 8198SOL    HW125493   3.818   6.872   2.565
 8198SOL    HW225494   3.865   6.912   2.717
 8199SOL     OW25495   5.799   4.616   0.147
 8199SOL    HW125496   5.712   4.661   0.165
 8199SOL    HW225497   5.784   4.518   0.135
 8200SOL     OW25498   4.414   3.080   1.401
 8200SOL    HW125499   4.400   2.986   1.371
 8200SOL    HW225500   4.488   3.122   1.347
 8201SOL     OW25501   6.358   0.908   4.549
 8201SOL    HW125502   6.311   0.820   4.557
 8201SOL    HW225503   6.448   0.894   4.508
 8202SOL     OW25504   1.829   4.001   4.169
 8202SOL    HW125505   1.846   3.905   4.145
 8202SOL    HW225506   1.845   4.013   4.267
 8203SOL     OW25507   5.890   3.918   0.634
 8203SOL    HW125508   5.869   3.823   0.656
 8203SOL    HW225509   5.875   3.975   0.715
 8204SOL     OW25510   3.459   0.549   0.605
 8204SOL    HW125511   3.388   0.561   0.535
 8204SOL    HW225512   3.457   0.626   0.668
 8205SOL     OW25513   5.864   5.833   2.603
 8205SOL    HW125514   5.788   5.780   2.641
 8205SOL    HW225515   5.910   5.882   2.677
 8206SOL     OW25516   3.874   1.619   4.517
 8206SOL    HW125517   3.796   1.675   4.490
 8206SOL    HW225518   3.945   1.624   4.447
 8207SOL     OW25519   3.061   5.741   0.126
 8207SOL    HW125520   3.085   5.747   0.223
 8207SOL    HW225521   3.124   5.796   0.072
 8208SOL     OW25522   1.491   5.596   6.556
 8208SOL    HW125523   1.459   5.552   6.472
 8208SOL    HW225524   1.550   5.533   6.606
 8209SOL     OW25525   1.072   6.011   5.291
 8209SOL    HW125526   0.984   6.057   5.280
 8209SOL    HW225527   1.139   6.075   5.328
 8210SOL     OW25528   2.556   2.015   0.241
 8210SOL    HW125529   2.591   1.922   0.251
 8210SOL    HW225530   2.632   2.078   0.221
 8211SOL     OW25531   2.849   3.539   4.268
 8211SOL    HW125532   2.880   3.456   4.223
 8211SOL    HW225533   2.855   3.528   4.367
 8212SOL     OW25534   3.865   5.919   0.496
 8212SOL    HW125535   3.894   5.968   0.579
 8212SOL    HW225536   3.916   5.955   0.417
 8213SOL     OW25537   4.537   4.318   1.613
 8213SOL    HW125538   4.533   4.268   1.699
 8213SOL    HW225539   4.479   4.400   1.619
 8214SOL     OW25540   4.322   5.438   3.463
 8214SOL    HW125541   4.371   5.508   3.515
 8214SOL    HW225542   4.243   5.479   3.418
 8215SOL     OW25543   2.317   5.860   6.527
 8215SOL    HW125544   2.327   5.796   6.451
 8215SOL    HW225545   2.254   5.933   6.501
 8216SOL     OW25546   5.707   5.735   1.623
 8216SOL    HW125547   5.760   5.658   1.658
 8216SOL    HW225548   5.650   5.772   1.696
 8217SOL     OW25549   2.803   6.399   4.461
 8217SOL    HW125550   2.865   6.337   4.412
 8217SOL    HW225551   2.839   6.492   4.456
 8218SOL     OW25552   2.592   5.960   4.798
 8218SOL    HW125553   2.578   6.028   4.869
 8218SOL    HW225554   2.561   5.997   4.710
 8219SOL     OW25555   4.173   3.336   2.215
 8219SOL    HW125556   4.178   3.237   2.202
 8219SOL    HW225557   4.177   3.381   2.126
 8220SOL     OW25558   3.172   4.022   5.351
 8220SOL    HW125559   3.098   4.082   5.381
 8220SOL    HW225560   3.133   3.940   5.308
 8221SOL     OW25561   6.130   3.660   4.163
 8221SOL    HW125562   6.173   3.590   4.219
 8221SOL    HW225563   6.085   3.727   4.222
 8222SOL     OW25564   6.392   2.667   6.999
 8222SOL    HW125565   6.374   2.755   6.955
 8222SOL    HW225566   6.451   2.612   6.939
 8223SOL     OW25567   2.458   6.383   5.996
 8223SOL    HW125568   2.471   6.306   5.933
 8223SOL    HW225569   2.454   6.468   5.944
 8224SOL     OW25570   4.726   1.125   6.883
 8224SOL    HW125571   4.811   1.088   6.844
 8224SOL    HW225572   4.724   1.224   6.871
 8225SOL     OW25573   5.586   2.809   0.282
 8225SOL    HW125574   5.686   2.809   0.291
 8225SOL    HW225575   5.548   2.875   0.347
 8226SOL     OW25576   3.711   0.729   0.115
 8226SOL    HW125577   3.801   0.772   0.116
 8226SOL    HW225578   3.719   0.636   0.153
 8227SOL     OW25579   4.335   2.340   2.957
 8227SOL    HW125580   4.371   2.407   2.893
 8227SOL    HW225581   4.263   2.286   2.912
 8228SOL     OW25582   2.954   0.063   5.066
 8228SOL    HW125583   2.860   0.088   5.046
 8228SOL    HW225584   2.972   6.995   5.034
 8229SOL     OW25585   4.442   4.838   1.250
 8229SOL    HW125586   4.459   4.807   1.344
 8229SOL    HW225587   4.352   4.882   1.246
 8230SOL     OW25588   6.337   0.637   5.845
 8230SOL    HW125589   6.394   0.717   5.825
 8230SOL    HW225590   6.248   0.649   5.801
 8231SOL     OW25591   3.200   1.076   2.250
 8231SOL    HW125592   3.128   1.008   2.256
 8231SOL    HW225593   3.172   1.149   2.187
 8232SOL     OW25594   3.539   6.055   3.683
 8232SOL    HW125595   3.566   6.016   3.595
 8232SOL    HW225596   3.617   6.054   3.745
 8233SOL     OW25597   1.947   1.254   6.775
 8233SOL    HW125598   1.901   1.342   6.788
 8233SOL    HW225599   1.970   1.242   6.678
 8234SOL     OW25600   1.253   2.794   0.723
 8234SOL    HW125601   1.252   2.809   0.822
 8234SOL    HW225602   1.293   2.873   0.677
 8235SOL     OW25603   1.003   1.290   1.501
 8235SOL    HW125604   0.993   1.361   1.432
 8235SOL    HW225605   0.925   1.293   1.564
 8236SOL     OW25606   0.460   0.349   1.705
 8236SOL    HW125607   0.546   0.298   1.694
 8236SOL    HW225608   0.453   0.383   1.798
 8237SOL     OW25609   3.866   4.529   5.345
 8237SOL    HW125610   3.923   4.449   5.332
 8237SOL    HW225611   3.770   4.506   5.327
 8238SOL     OW25612   0.445   5.294   0.845
 8238SOL    HW125613   0.518   5.320   0.909
 8238SOL    HW225614   0.383   5.229   0.890
 8239SOL     OW25615   2.805   1.314   6.124
 8239SOL    HW125616   2.878   1.379   6.103
 8239SOL    HW225617   2.788   1.314   6.223
 8240SOL     OW25618   3.490   2.906   4.923
 8240SOL    HW125619   3.432   2.986   4.934
 8240SOL    HW225620   3.582   2.935   4.897
 8241SOL     OW25621   1.443   3.297   6.036
 8241SOL    HW125622   1.369   3.345   5.989
 8241SOL    HW225623   1.422   3.200   6.041
 8242SOL     OW25624   0.569   2.823   2.179
 8242SOL    HW125625   0.500   2.782   2.239
 8242SOL    HW225626   0.649   2.850   2.233
 8243SOL     OW25627   1.023   6.338   3.869
 8243SOL    HW125628   1.045   6.387   3.784
 8243SOL    HW225629   1.058   6.244   3.862
 8244SOL     OW25630   6.955   1.089   3.072
 8244SOL    HW125631   6.945   1.166   3.009
 8244SOL    HW225632   6.869   1.074   3.121
 8245SOL     OW25633   5.164   2.768   2.914
 8245SOL    HW125634   5.247   2.725   2.950
 8245SOL    HW225635   5.188   2.831   2.840
 8246SOL     OW25636   1.673   4.758   6.895
 8246SOL    HW125637   1.588   4.710   6.874
 8246SOL    HW225638   1.671   4.850   6.856
 8247SOL     OW25639   3.131   5.383   3.627
 8247SOL    HW125640   3.210   5.362   3.686
 8247SOL    HW225641   3.071   5.304   3.622
 8248SOL     OW25642   6.832   5.061   3.792
 8248SOL    HW125643   6.765   4.990   3.810
 8248SOL    HW225644   6.817   5.138   3.854
 8249SOL     OW25645   3.618   1.179   6.831
 8249SOL    HW125646   3.616   1.274   6.799
 8249SOL    HW225647   3.708   1.140   6.814
 8250SOL     OW25648   1.060   2.130   6.730
 8250SOL    HW125649   1.114   2.212   6.710
 8250SOL    HW225650   1.045   2.078   6.646
 8251SOL     OW25651   0.782   2.341   5.654
 8251SOL    HW125652   0.830   2.259   5.623
 8251SOL    HW225653   0.798   2.415   5.589
 8252SOL     OW25654   0.708   2.227   6.354
 8252SOL    HW125655   0.749   2.144   6.317
 8252SOL    HW225656   0.753   2.251   6.440
 8253SOL     OW25657   5.416   4.651   6.301
 8253SOL    HW125658   5.341   4.666   6.364
 8253SOL    HW225659   5.390   4.580   6.235
 8254SOL     OW25660   6.339   5.748   0.348
 8254SOL    HW125661   6.407   5.675   0.353
 8254SOL    HW225662   6.353   5.800   0.263
 8255SOL     OW25663   1.578   0.546   5.944
 8255SOL    HW125664   1.643   0.571   5.872
 8255SOL    HW225665   1.554   0.449   5.935
 8256SOL     OW25666   1.223   6.074   4.530
 8256SOL    HW125667   1.238   6.166   4.564
 8256SOL    HW225668   1.239   6.072   4.431
 8257SOL     OW25669   4.899   3.893   3.655
 8257SOL    HW125670   4.861   3.835   3.727
 8257SOL    HW225671   4.978   3.944   3.692
 8258SOL     OW25672   0.334   2.801   3.738
 8258SOL    HW125673   0.273   2.872   3.773
 8258SOL    HW225674   0.334   2.723   3.801
 8259SOL     OW25675   5.778   1.963   4.138
 8259SOL    HW125676   5.728   1.881   4.111
 8259SOL    HW225677   5.745   2.041   4.085
 8260SOL     OW25678   4.960   3.020   0.545
 8260SOL    HW125679   4.990   3.057   0.633
 8260SOL    HW225680   4.970   3.091   0.475
 8261SOL     OW25681   6.059   1.661   2.374
 8261SOL    HW125682   6.096   1.585   2.322
 8261SOL    HW225683   5.959   1.654   2.377
 8262SOL     OW25684   5.230   3.718   2.100
 8262SOL    HW125685   5.216   3.702   2.198
 8262SOL    HW225686   5.148   3.690   2.050
 8263SOL     OW25687   6.795   1.849   6.023
 8263SOL    HW125688   6.838   1.839   5.933
 8263SOL    HW225689   6.738   1.932   6.023
 8264SOL     OW25690   2.968   0.837   2.173
 8264SOL    HW125691   2.918   0.914   2.214
 8264SOL    HW225692   3.009   0.867   2.087
 8265SOL     OW25693   4.676   5.404   0.729
 8265SOL    HW125694   4.639   5.339   0.663
 8265SOL    HW225695   4.672   5.365   0.821
 8266SOL     OW25696   3.795   0.942   3.673
 8266SOL    HW125697   3.728   0.869   3.690
 8266SOL    HW225698   3.750   1.018   3.626
 8267SOL     OW25699   1.830   2.481   3.588
 8267SOL    HW125700   1.816   2.460   3.491
 8267SOL    HW225701   1.809   2.400   3.643
 8268SOL     OW25702   3.477   4.767   0.150
 8268SOL    HW125703   3.506   4.838   0.213
 8268SOL    HW225704   3.436   4.691   0.201
 8269SOL     OW25705   6.511   2.008   5.030
 8269SOL    HW125706   6.445   2.006   5.105
 8269SOL    HW225707   6.546   2.101   5.020
 8270SOL     OW25708   4.258   5.227   0.450
 8270SOL    HW125709   4.182   5.237   0.385
 8270SOL    HW225710   4.243   5.145   0.505
 8271SOL     OW25711   3.046   6.701   6.037
 8271SOL    HW125712   3.005   6.785   6.072
 8271SOL    HW225713   3.129   6.723   5.985
 8272SOL     OW25714   0.805   0.519   2.026
 8272SOL    HW125715   0.820   0.429   1.986
 8272SOL    HW225716   0.778   0.509   2.122
 8273SOL     OW25717   3.769   0.058   6.597
 8273SOL    HW125718   3.829   7.007   6.575
 8273SOL    HW225719   3.730   0.044   6.688
 8274SOL     OW25720   5.534   6.102   5.480
 8274SOL    HW125721   5.526   6.200   5.461
 8274SOL    HW225722   5.495   6.051   5.403
 8275SOL     OW25723   5.072   1.182   5.190
 8275SOL    HW125724   4.976   1.153   5.194
 8275SOL    HW225725   5.130   1.103   5.174
 8276SOL     OW25726   5.938   2.300   0.194
 8276SOL    HW125727   5.878   2.220   0.193
 8276SOL    HW225728   5.883   2.383   0.187
 8277SOL     OW25729   1.336   6.445   1.100
 8277SOL    HW125730   1.369   6.484   1.186
 8277SOL    HW225731   1.346   6.514   1.027
 8278SOL     OW25732   1.811   0.395   0.845
 8278SOL    HW125733   1.892   0.421   0.896
 8278SOL    HW225734   1.819   0.426   0.750
 8279SOL     OW25735   4.635   5.959   5.657
 8279SOL    HW125736   4.659   6.055   5.648
 8279SOL    HW225737   4.718   5.903   5.659
 8280SOL     OW25738   5.257   4.060   7.008
 8280SOL    HW125739   5.182   4.069   0.048
 8280SOL    HW225740   5.240   4.119   6.929
 8281SOL     OW25741   2.811   5.839   6.403
 8281SOL    HW125742   2.750   5.866   6.478
 8281SOL    HW225743   2.831   5.741   6.411
 8282SOL     OW25744   3.462   2.865   1.569
 8282SOL    HW125745   3.524   2.938   1.540
 8282SOL    HW225746   3.515   2.791   1.611
 8283SOL     OW25747   0.701   0.326   3.230
 8283SOL    HW125748   0.703   0.288   3.323
 8283SOL    HW225749   0.762   0.273   3.171
 8284SOL     OW25750   4.831   1.984   1.794
 8284SOL    HW125751   4.794   2.011   1.705
 8284SOL    HW225752   4.831   1.885   1.802
 8285SOL     OW25753   0.987   4.423   0.597
 8285SOL    HW125754   1.066   4.362   0.589
 8285SOL    HW225755   0.914   4.390   0.536
 8286SOL     OW25756   6.535   1.847   6.335
 8286SOL    HW125757   6.442   1.822   6.363
 8286SOL    HW225758   6.565   1.926   6.389
 8287SOL     OW25759   1.418   1.278   3.170
 8287SOL    HW125760   1.454   1.359   3.124
 8287SOL    HW225761   1.415   1.293   3.268
 8288SOL     OW25762   1.956   0.294   2.562
 8288SOL    HW125763   2.013   0.230   2.510
 8288SOL    HW225764   1.890   0.243   2.617
 8289SOL     OW25765   5.487   6.976   0.009
 8289SOL    HW125766   5.493   6.943   6.940
 8289SOL    HW225767   5.441   0.040   0.011
 8290SOL     OW25768   4.643   2.616   2.013
 8290SOL    HW125769   4.636   2.715   2.021
 8290SOL    HW225770   4.714   2.592   1.947
 8291SOL     OW25771   4.764   6.083   6.623
 8291SOL    HW125772   4.806   6.174   6.623
 8291SOL    HW225773   4.816   6.023   6.684
 8292SOL     OW25774   0.072   2.706   5.589
 8292SOL    HW125775   0.119   2.744   5.509
 8292SOL    HW225776   6.999   2.725   5.581
 8293SOL     OW25777   2.954   5.463   4.436
 8293SOL    HW125778   2.875   5.467   4.498
 8293SOL    HW225779   3.029   5.415   4.482
 8294SOL     OW25780   5.676   3.901   5.265
 8294SOL    HW125781   5.660   3.820   5.208
 8294SOL    HW225782   5.774   3.914   5.277
 8295SOL     OW25783   4.591   5.133   3.055
 8295SOL    HW125784   4.604   5.040   3.090
 8295SOL    HW225785   4.672   5.188   3.075
 8296SOL     OW25786   4.335   0.552   2.317
 8296SOL    HW125787   4.354   0.596   2.404
 8296SOL    HW225788   4.245   0.508   2.321
 8297SOL     OW25789   5.269   4.583   2.156
 8297SOL    HW125790   5.369   4.583   2.152
 8297SOL    HW225791   5.232   4.572   2.064
 8298SOL     OW25792   6.346   6.697   0.406
 8298SOL    HW125793   6.326   6.678   0.310
 8298SOL    HW225794   6.398   6.782   0.413
 8299SOL     OW25795   1.477   3.429   6.940
 8299SOL    HW125796   1.442   3.382   6.859
 8299SOL    HW225797   1.536   3.366   6.991
 8300SOL     OW25798   6.102   5.188   4.071
 8300SOL    HW125799   6.002   5.188   4.063
 8300SOL    HW225800   6.132   5.100   4.109
 8301SOL     OW25801   6.295   6.102   0.146
 8301SOL    HW125802   6.203   6.086   0.181
 8301SOL    HW225803   6.348   6.154   0.213
 8302SOL     OW25804   4.026   6.545   5.071
 8302SOL    HW125805   4.062   6.548   4.978
 8302SOL    HW225806   4.075   6.476   5.124
 8303SOL     OW25807   0.546   4.936   3.871
 8303SOL    HW125808   0.464   4.992   3.860
 8303SOL    HW225809   0.613   4.960   3.801
 8304SOL     OW25810   6.206   2.753   3.752
 8304SOL    HW125811   6.271   2.684   3.784
 8304SOL    HW225812   6.248   2.844   3.758
 8305SOL     OW25813   4.701   0.174   5.886
 8305SOL    HW125814   4.685   0.221   5.973
 8305SOL    HW225815   4.638   0.096   5.879
 8306SOL     OW25816   6.430   0.538   3.423
 8306SOL    HW125817   6.428   0.449   3.378
 8306SOL    HW225818   6.509   0.591   3.390
 8307SOL     OW25819   1.275   3.584   3.361
 8307SOL    HW125820   1.370   3.608   3.344
 8307SOL    HW225821   1.216   3.662   3.340
 8308SOL     OW25822   1.155   5.166   0.356
 8308SOL    HW125823   1.213   5.248   0.355
 8308SOL    HW225824   1.135   5.140   0.450
 8309SOL     OW25825   6.473   5.506   4.230
 8309SOL    HW125826   6.520   5.457   4.303
 8309SOL    HW225827   6.384   5.463   4.212
 8310SOL     OW25828   2.784   6.862   3.125
 8310SOL    HW125829   2.744   6.771   3.110
 8310SOL    HW225830   2.854   6.879   3.056
 8311SOL     OW25831   4.530   5.796   2.807
 8311SOL    HW125832   4.485   5.845   2.882
 8311SOL    HW225833   4.585   5.860   2.754
 8312SOL     OW25834   6.016   2.048   0.810
 8312SOL    HW125835   6.020   1.987   0.731
 8312SOL    HW225836   6.109   2.070   0.839
 8313SOL     OW25837   5.346   2.392   6.348
 8313SOL    HW125838   5.436   2.364   6.381
 8313SOL    HW225839   5.301   2.315   6.303
 8314SOL     OW25840   4.652   6.006   4.229
 8314SOL    HW125841   4.615   5.943   4.160
 8314SOL    HW225842   4.638   6.101   4.198
 8315SOL     OW25843   3.191   2.993   5.909
 8315SOL    HW125844   3.162   2.921   5.972
 8315SOL    HW225845   3.111   3.035   5.867
 8316SOL     OW25846   2.136   2.191   5.237
 8316SOL    HW125847   2.176   2.283   5.241
 8316SOL    HW225848   2.036   2.198   5.242
 8317SOL     OW25849   1.376   2.146   3.942
 8317SOL    HW125850   1.371   2.071   4.008
 8317SOL    HW225851   1.294   2.147   3.886
 8318SOL     OW25852   4.596   6.804   5.938
 8318SOL    HW125853   4.551   6.729   5.986
 8318SOL    HW225854   4.653   6.767   5.865
 8319SOL     OW25855   2.185   5.396   6.578
 8319SOL    HW125856   2.113   5.392   6.509
 8319SOL    HW225857   2.144   5.387   6.669
 8320SOL     OW25858   3.789   3.607   5.648
 8320SOL    HW125859   3.749   3.517   5.633
 8320SOL    HW225860   3.717   3.671   5.677
 8321SOL     OW25861   0.486   0.341   1.026
 8321SOL    HW125862   0.553   0.415   1.036
 8321SOL    HW225863   0.508   0.268   1.091
 8322SOL     OW25864   1.008   0.420   0.555
 8322SOL    HW125865   0.969   0.422   0.647
 8322SOL    HW225866   1.106   0.403   0.562
 8323SOL     OW25867   5.293   4.440   6.525
 8323SOL    HW125868   5.288   4.384   6.442
 8323SOL    HW225869   5.388   4.458   6.548
 8324SOL     OW25870   5.675   6.471   6.906
 8324SOL    HW125871   5.751   6.496   6.966
 8324SOL    HW225872   5.597   6.530   6.924
 8325SOL     OW25873   1.860   6.668   5.020
 8325SOL    HW125874   1.862   6.719   5.106
 8325SOL    HW225875   1.766   6.659   4.989
 8326SOL     OW25876   1.867   2.695   6.463
 8326SOL    HW125877   1.803   2.620   6.479
 8326SOL    HW225878   1.958   2.669   6.495
 8327SOL     OW25879   0.284   6.401   5.011
 8327SOL    HW125880   0.376   6.427   5.041
 8327SOL    HW225881   0.285   6.309   4.972
 8328SOL     OW25882   1.375   6.078   0.484
 8328SOL    HW125883   1.292   6.066   0.431
 8328SOL    HW225884   1.391   6.176   0.499
 8329SOL     OW25885   1.944   2.454   5.202
 8329SOL    HW125886   1.907   2.364   5.227
 8329SOL    HW225887   1.918   2.475   5.108
 8330SOL     OW25888   2.534   6.509   0.462
 8330SOL    HW125889   2.609   6.463   0.415
 8330SOL    HW225890   2.452   6.452   0.459
 8331SOL     OW25891   2.768   2.483   6.201
 8331SOL    HW125892   2.801   2.400   6.156
 8331SOL    HW225893   2.711   2.535   6.138
 8332SOL     OW25894   6.219   4.266   1.412
 8332SOL    HW125895   6.212   4.357   1.453
 8332SOL    HW225896   6.158   4.203   1.461
 8333SOL     OW25897   2.265   4.249   6.675
 8333SOL    HW125898   2.330   4.175   6.692
 8333SOL    HW225899   2.227   4.281   6.761
 8334SOL     OW25900   3.397   2.289   5.339
 8334SOL    HW125901   3.324   2.336   5.289
 8334SOL    HW225902   3.436   2.217   5.282
 8335SOL     OW25903   5.389   4.708   5.440
 8335SOL    HW125904   5.342   4.684   5.355
 8335SOL    HW225905   5.486   4.722   5.421
 8336SOL     OW25906   1.440   3.118   3.565
 8336SOL    HW125907   1.486   3.189   3.617
 8336SOL    HW225908   1.491   3.032   3.573
 8337SOL     OW25909   6.616   0.909   4.424
 8337SOL    HW125910   6.601   0.868   4.334
 8337SOL    HW225911   6.661   0.997   4.413
 8338SOL     OW25912   2.385   5.973   1.004
 8338SOL    HW125913   2.301   6.009   1.044
 8338SOL    HW225914   2.372   5.878   0.977
 8339SOL     OW25915   5.938   0.190   1.651
 8339SOL    HW125916   5.845   0.153   1.641
 8339SOL    HW225917   5.986   0.184   1.564
 8340SOL     OW25918   5.604   2.294   6.367
 8340SOL    HW125919   5.650   2.310   6.280
 8340SOL    HW225920   5.654   2.224   6.419
 8341SOL     OW25921   3.972   1.250   0.714
 8341SOL    HW125922   4.058   1.201   0.704
 8341SOL    HW225923   3.898   1.185   0.730
 8342SOL     OW25924   4.013   0.505   0.310
 8342SOL    HW125925   3.971   0.419   0.280
 8342SOL    HW225926   4.112   0.496   0.308
 8343SOL     OW25927   5.526   5.035   2.831
 8343SOL    HW125928   5.435   4.994   2.819
 8343SOL    HW225929   5.515   5.132   2.852
 8344SOL     OW25930   1.756   5.293   5.671
 8344SOL    HW125931   1.782   5.203   5.637
 8344SOL    HW225932   1.692   5.283   5.748
 8345SOL     OW25933   5.826   0.659   3.747
 8345SOL    HW125934   5.868   0.746   3.722
 8345SOL    HW225935   5.878   0.584   3.705
 8346SOL     OW25936   5.255   3.789   4.254
 8346SOL    HW125937   5.315   3.710   4.252
 8346SOL    HW225938   5.237   3.816   4.349
 8347SOL     OW25939   2.101   1.813   5.900
 8347SOL    HW125940   2.106   1.717   5.874
 8347SOL    HW225941   2.049   1.863   5.831
 8348SOL     OW25942   2.890   5.679   2.329
 8348SOL    HW125943   2.794   5.663   2.309
 8348SOL    HW225944   2.908   5.777   2.332
 8349SOL     OW25945   5.240   6.060   1.561
 8349SOL    HW125946   5.187   5.975   1.560
 8349SOL    HW225947   5.250   6.091   1.656
 8350SOL     OW25948   1.214   0.126   0.110
 8350SOL    HW125949   1.277   0.148   0.036
 8350SOL    HW225950   1.127   0.174   0.095
 8351SOL     OW25951   0.365   2.215   3.264
 8351SOL    HW125952   0.430   2.276   3.220
 8351SOL    HW225953   0.290   2.269   3.303
 8352SOL     OW25954   2.615   6.227   0.099
 8352SOL    HW125955   2.655   6.216   0.190
 8352SOL    HW225956   2.556   6.308   0.099
 8353SOL     OW25957   0.738   6.184   2.238
 8353SOL    HW125958   0.800   6.246   2.287
 8353SOL    HW225959   0.643   6.211   2.257
 8354SOL     OW25960   4.136   1.336   3.438
 8354SOL    HW125961   4.061   1.357   3.375
 8354SOL    HW225962   4.143   1.237   3.450
 8355SOL     OW25963   3.379   5.138   6.237
 8355SOL    HW125964   3.350   5.157   6.143
 8355SOL    HW225965   3.366   5.041   6.258
 8356SOL     OW25966   3.011   4.785   1.183
 8356SOL    HW125967   3.011   4.753   1.277
 8356SOL    HW225968   2.960   4.721   1.126
 8357SOL     OW25969   4.436   0.002   5.149
 8357SOL    HW125970   4.398   6.981   5.069
 8357SOL    HW225971   4.536   7.018   5.149
 8358SOL     OW25972   0.540   0.514   5.566
 8358SOL    HW125973   0.513   0.418   5.563
 8358SOL    HW225974   0.628   0.523   5.611
 8359SOL     OW25975   4.367   1.633   5.957
 8359SOL    HW125976   4.384   1.721   5.913
 8359SOL    HW225977   4.349   1.564   5.887
 8360SOL     OW25978   4.496   7.020   1.004
 8360SOL    HW125979   4.443   0.013   1.086
 8360SOL    HW225980   4.437   0.005   0.923
 8361SOL     OW25981   4.675   1.383   6.811
 8361SOL    HW125982   4.614   1.399   6.733
 8361SOL    HW225983   4.645   1.441   6.887
 8362SOL     OW25984   6.547   3.629   1.406
 8362SOL    HW125985   6.477   3.653   1.473
 8362SOL    HW225986   6.507   3.572   1.335
 8363SOL     OW25987   1.815   2.525   1.216
 8363SOL    HW125988   1.903   2.507   1.172
 8363SOL    HW225989   1.821   2.501   1.313
 8364SOL     OW25990   0.690   2.040   4.217
 8364SOL    HW125991   0.624   2.019   4.144
 8364SOL    HW225992   0.640   2.053   4.303
 8365SOL     OW25993   1.588   1.741   1.248
 8365SOL    HW125994   1.654   1.685   1.298
 8365SOL    HW225995   1.628   1.770   1.161
 8366SOL     OW25996   5.642   5.492   2.362
 8366SOL    HW125997   5.566   5.443   2.405
 8366SOL    HW225998   5.675   5.439   2.284
 8367SOL     OW25999   1.887   4.629   3.331
 8367SOL    HW126000   1.915   4.586   3.245
 8367SOL    HW226001   1.938   4.713   3.345
 8368SOL     OW26002   6.063   5.517   5.568
 8368SOL    HW126003   6.132   5.554   5.631
 8368SOL    HW226004   5.980   5.574   5.572
 8369SOL     OW26005   1.668   6.983   0.434
 8369SOL    HW126006   1.628   6.891   0.433
 8369SOL    HW226007   1.723   6.996   0.352
 8370SOL     OW26008   2.724   3.297   0.919
 8370SOL    HW126009   2.667   3.229   0.874
 8370SOL    HW226010   2.673   3.341   0.993
 8371SOL     OW26011   2.685   3.733   6.277
 8371SOL    HW126012   2.666   3.820   6.233
 8371SOL    HW226013   2.652   3.736   6.372
 8372SOL     OW26014   1.416   6.182   1.229
 8372SOL    HW126015   1.379   6.236   1.153
 8372SOL    HW226016   1.457   6.098   1.193
 8373SOL     OW26017   6.749   1.356   3.765
 8373SOL    HW126018   6.707   1.445   3.782
 8373SOL    HW226019   6.801   1.327   3.845
 8374SOL     OW26020   0.632   0.911   3.896
 8374SOL    HW126021   0.593   1.001   3.918
 8374SOL    HW226022   0.729   0.921   3.875
 8375SOL     OW26023   1.562   1.780   4.905
 8375SOL    HW126024   1.539   1.872   4.873
 8375SOL    HW226025   1.606   1.729   4.831
 8376SOL     OW26026   1.034   2.133   3.864
 8376SOL    HW126027   1.038   2.073   3.784
 8376SOL    HW226028   0.993   2.084   3.940
 8377SOL     OW26029   4.226   5.269   6.991
 8377SOL    HW126030   4.253   5.245   6.898
 8377SOL    HW226031   4.168   5.351   6.990
 8378SOL     OW26032   4.840   6.185   4.793
 8378SOL    HW126033   4.935   6.157   4.806
 8378SOL    HW226034   4.810   6.160   4.701
 8379SOL     OW26035   6.163   2.394   1.747
 8379SOL    HW126036   6.221   2.466   1.786
 8379SOL    HW226037   6.193   2.305   1.780
 8380SOL     OW26038   0.661   6.348   1.549
 8380SOL    HW126039   0.722   6.428   1.543
 8380SOL    HW226040   0.703   6.271   1.501
 8381SOL     OW26041   0.263   1.777   2.661
 8381SOL    HW126042   0.361   1.800   2.665
 8381SOL    HW226043   0.247   1.692   2.711
 8382SOL     OW26044   0.824   0.320   1.543
 8382SOL    HW126045   0.861   0.412   1.559
 8382SOL    HW226046   0.848   0.290   1.450
 8383SOL     OW26047   2.735   6.747   5.971
 8383SOL    HW126048   2.806   6.679   5.986
 8383SOL    HW226049   2.645   6.705   5.985
 8384SOL     OW26050   0.716   3.604   3.086
 8384SOL    HW126051   0.751   3.544   3.014
 8384SOL    HW226052   0.655   3.552   3.145
 8385SOL     OW26053   4.077   2.174   1.945
 8385SOL    HW126054   4.089   2.233   1.865
 8385SOL    HW226055   3.989   2.126   1.939
 8386SOL     OW26056   2.678   5.765   1.872
 8386SOL    HW126057   2.683   5.667   1.893
 8386SOL    HW226058   2.617   5.778   1.794
 8387SOL     OW26059   0.926   1.118   3.649
 8387SOL    HW126060   1.017   1.161   3.654
 8387SOL    HW226061   0.907   1.070   3.735
 8388SOL     OW26062   3.660   5.253   1.155
 8388SOL    HW126063   3.714   5.209   1.227
 8388SOL    HW226064   3.705   5.338   1.128
 8389SOL     OW26065   0.605   2.611   4.184
 8389SOL    HW126066   0.661   2.549   4.239
 8389SOL    HW226067   0.661   2.685   4.149
 8390SOL     OW26068   2.596   0.357   5.893
 8390SOL    HW126069   2.692   0.331   5.899
 8390SOL    HW226070   2.559   0.330   5.804
 8391SOL     OW26071   5.527   6.034   1.154
 8391SOL    HW126072   5.495   6.001   1.243
 8391SOL    HW226073   5.460   6.009   1.084
 8392SOL     OW26074   4.756   6.078   0.075
 8392SOL    HW126075   4.846   6.041   0.051
 8392SOL    HW226076   4.753   6.096   0.173
 8393SOL     OW26077   0.238   4.682   2.992
 8393SOL    HW126078   0.326   4.652   2.957
 8393SOL    HW226079   0.173   4.690   2.916
 8394SOL     OW26080   0.980   1.569   2.729
 8394SOL    HW126081   1.077   1.587   2.748
 8394SOL    HW226082   0.971   1.478   2.688
 8395SOL     OW26083   0.667   6.402   5.587
 8395SOL    HW126084   0.683   6.304   5.573
 8395SOL    HW226085   0.624   6.441   5.506
 8396SOL     OW26086   4.332   2.781   1.562
 8396SOL    HW126087   4.307   2.801   1.467
 8396SOL    HW226088   4.276   2.838   1.623
 8397SOL     OW26089   2.212   5.218   3.971
 8397SOL    HW126090   2.188   5.300   3.920
 8397SOL    HW226091   2.241   5.147   3.907
 8398SOL     OW26092   5.898   1.407   0.163
 8398SOL    HW126093   5.815   1.413   0.107
 8398SOL    HW226094   5.976   1.381   0.105
 8399SOL     OW26095   5.581   5.970   0.014
 8399SOL    HW126096   5.584   6.070   0.010
 8399SOL    HW226097   5.623   5.932   6.957
 8400SOL     OW26098   6.173   6.861   4.122
 8400SOL    HW126099   6.187   6.764   4.104
 8400SOL    HW226100   6.199   6.914   4.041
 8401SOL     OW26101   2.844   4.239   6.014
 8401SOL    HW126102   2.791   4.165   5.973
 8401SOL    HW226103   2.910   4.274   5.948
 8402SOL     OW26104   4.641   0.596   5.923
 8402SOL    HW126105   4.567   0.577   5.987
 8402SOL    HW226106   4.726   0.559   5.959
 8403SOL     OW26107   1.167   2.318   4.864
 8403SOL    HW126108   1.107   2.282   4.936
 8403SOL    HW226109   1.114   2.373   4.801
 8404SOL     OW26110   4.458   4.970   5.221
 8404SOL    HW126111   4.522   4.962   5.145
 8404SOL    HW226112   4.459   5.064   5.257
 8405SOL     OW26113   1.321   2.627   4.627
 8405SOL    HW126114   1.336   2.621   4.529
 8405SOL    HW226115   1.391   2.685   4.669
 8406SOL     OW26116   5.573   3.806   1.054
 8406SOL    HW126117   5.494   3.780   1.110
 8406SOL    HW226118   5.642   3.734   1.059
 8407SOL     OW26119   4.890   3.582   2.924
 8407SOL    HW126120   4.958   3.595   2.852
 8407SOL    HW226121   4.813   3.529   2.889
 8408SOL     OW26122   4.776   4.501   4.562
 8408SOL    HW126123   4.722   4.532   4.484
 8408SOL    HW226124   4.840   4.430   4.532
 8409SOL     OW26125   0.741   1.642   3.964
 8409SOL    HW126126   0.742   1.547   3.930
 8409SOL    HW226127   0.674   1.695   3.913
 8410SOL     OW26128   2.407   6.236   2.591
 8410SOL    HW126129   2.491   6.288   2.606
 8410SOL    HW226130   2.417   6.144   2.628
 8411SOL     OW26131   1.817   3.091   3.482
 8411SOL    HW126132   1.888   3.042   3.534
 8411SOL    HW226133   1.838   3.084   3.384
 8412SOL     OW26134   6.085   3.199   2.443
 8412SOL    HW126135   6.111   3.203   2.540
 8412SOL    HW226136   6.140   3.129   2.397
 8413SOL     OW26137   2.458   4.865   1.362
 8413SOL    HW126138   2.553   4.874   1.333
 8413SOL    HW226139   2.452   4.798   1.436
 8414SOL     OW26140   5.991   6.901   3.104
 8414SOL    HW126141   5.897   6.934   3.117
 8414SOL    HW226142   6.021   6.925   3.012
 8415SOL     OW26143   6.140   3.898   1.901
 8415SOL    HW126144   6.179   3.807   1.891
 8415SOL    HW226145   6.175   3.940   1.985
 8416SOL     OW26146   4.598   4.411   2.398
 8416SOL    HW126147   4.523   4.409   2.464
 8416SOL    HW226148   4.565   4.449   2.311
 8417SOL     OW26149   2.412   5.534   6.620
 8417SOL    HW126150   2.323   5.491   6.601
 8417SOL    HW226151   2.464   5.543   6.535
 8418SOL     OW26152   6.176   5.746   2.945
 8418SOL    HW126153   6.102   5.680   2.956
 8418SOL    HW226154   6.253   5.720   3.003
 8419SOL     OW26155   5.070   0.219   3.814
 8419SOL    HW126156   5.084   0.236   3.717
 8419SOL    HW226157   5.016   0.136   3.826
 8420SOL     OW26158   3.590   2.008   5.815
 8420SOL    HW126159   3.631   2.072   5.750
 8420SOL    HW226160   3.621   2.029   5.908
 8421SOL     OW26161   0.898   6.835   1.383
 8421SOL    HW126162   0.807   6.872   1.399
 8421SOL    HW226163   0.962   6.876   1.448
 8422SOL     OW26164   4.173   0.245   1.316
 8422SOL    HW126165   4.236   0.249   1.394
 8422SOL    HW226166   4.224   0.258   1.231
 8423SOL     OW26167   2.010   3.697   1.566
 8423SOL    HW126168   2.081   3.639   1.606
 8423SOL    HW226169   2.014   3.691   1.466
 8424SOL     OW26170   2.613   2.369   2.163
 8424SOL    HW126171   2.582   2.461   2.138
 8424SOL    HW226172   2.707   2.356   2.132
 8425SOL     OW26173   6.732   4.687   6.455
 8425SOL    HW126174   6.767   4.770   6.412
 8425SOL    HW226175   6.700   4.708   6.548
 8426SOL     OW26176   3.945   3.739   2.663
 8426SOL    HW126177   4.019   3.683   2.699
 8426SOL    HW226178   3.943   3.827   2.711
 8427SOL     OW26179   1.638   2.449   6.426
 8427SOL    HW126180   1.583   2.433   6.344
 8427SOL    HW226181   1.730   2.412   6.413
 8428SOL     OW26182   6.280   4.282   1.914
 8428SOL    HW126183   6.230   4.361   1.879
 8428SOL    HW226184   6.328   4.237   1.839
 8429SOL     OW26185   2.677   6.619   3.068
 8429SOL    HW126186   2.581   6.590   3.062
 8429SOL    HW226187   2.716   6.587   3.154
 8430SOL     OW26188   5.184   4.147   3.186
 8430SOL    HW126189   5.267   4.135   3.131
 8430SOL    HW226190   5.138   4.058   3.195
 8431SOL     OW26191   2.812   3.775   1.749
 8431SOL    HW126192   2.773   3.683   1.749
 8431SOL    HW226193   2.739   3.842   1.738
 8432SOL     OW26194   4.764   6.546   0.220
 8432SOL    HW126195   4.859   6.530   0.245
 8432SOL    HW226196   4.752   6.642   0.193
 8433SOL     OW26197   0.945   1.404   4.144
 8433SOL    HW126198   0.977   1.366   4.057
 8433SOL    HW226199   1.013   1.386   4.215
 8434SOL     OW26200   5.467   6.278   6.518
 8434SOL    HW126201   5.464   6.245   6.612
 8434SOL    HW226202   5.374   6.283   6.482
 8435SOL     OW26203   5.183   2.633   1.646
 8435SOL    HW126204   5.119   2.709   1.636
 8435SOL    HW226205   5.179   2.598   1.740
 8436SOL     OW26206   3.058   4.329   1.693
 8436SOL    HW126207   3.087   4.256   1.754
 8436SOL    HW226208   3.010   4.399   1.745
 8437SOL     OW26209   0.030   1.551   1.173
 8437SOL    HW126210   0.016   1.452   1.164
 8437SOL    HW226211   6.992   1.588   1.240
 8438SOL     OW26212   1.988   6.426   0.964
 8438SOL    HW126213   1.971   6.341   0.915
 8438SOL    HW226214   1.922   6.436   1.039
 8439SOL     OW26215   6.496   0.386   2.212
 8439SOL    HW126216   6.491   0.288   2.195
 8439SOL    HW226217   6.477   0.435   2.127
 8440SOL     OW26218   6.872   2.139   4.396
 8440SOL    HW126219   6.859   2.238   4.398
 8440SOL    HW226220   6.796   2.096   4.348
 8441SOL     OW26221   4.194   5.480   2.220
 8441SOL    HW126222   4.209   5.560   2.278
 8441SOL    HW226223   4.282   5.438   2.197
 8442SOL     OW26224   1.969   3.247   0.241
 8442SOL    HW126225   2.067   3.244   0.261
 8442SOL    HW226226   1.934   3.153   0.233
 8443SOL     OW26227   0.674   1.819   1.925
 8443SOL    HW126228   0.638   1.740   1.975
 8443SOL    HW226229   0.699   1.891   1.989
 8444SOL     OW26230   4.875   1.153   2.777
 8444SOL    HW126231   4.938   1.101   2.835
 8444SOL    HW226232   4.876   1.249   2.805
 8445SOL     OW26233   4.595   5.556   1.805
 8445SOL    HW126234   4.574   5.569   1.902
 8445SOL    HW226235   4.608   5.645   1.762
 8446SOL     OW26236   6.422   3.994   2.867
 8446SOL    HW126237   6.476   3.949   2.939
 8446SOL    HW226238   6.472   4.074   2.834
 8447SOL     OW26239   4.620   3.156   1.229
 8447SOL    HW126240   4.716   3.140   1.253
 8447SOL    HW226241   4.611   3.246   1.185
 8448SOL     OW26242   1.416   2.938   5.641
 8448SOL    HW126243   1.346   2.874   5.674
 8448SOL    HW226244   1.454   2.904   5.555
 8449SOL     OW26245   1.250   1.532   4.490
 8449SOL    HW126246   1.212   1.488   4.571
 8449SOL    HW226247   1.235   1.631   4.496
 8450SOL     OW26248   2.283   5.416   1.662
 8450SOL    HW126249   2.272   5.394   1.565
 8450SOL    HW226250   2.380   5.435   1.681
 8451SOL     OW26251   4.201   3.106   0.471
 8451SOL    HW126252   4.267   3.031   0.463
 8451SOL    HW226253   4.193   3.153   0.383
 8452SOL     OW26254   6.867   5.706   1.405
 8452SOL    HW126255   6.931   5.635   1.435
 8452SOL    HW226256   6.865   5.709   1.305
 8453SOL     OW26257   6.690   5.266   5.501
 8453SOL    HW126258   6.777   5.290   5.545
 8453SOL    HW226259   6.618   5.326   5.535
 8454SOL     OW26260   1.918   6.505   4.744
 8454SOL    HW126261   1.983   6.513   4.669
 8454SOL    HW226262   1.959   6.452   4.818
 8455SOL     OW26263   6.291   2.596   0.387
 8455SOL    HW126264   6.210   2.609   0.331
 8455SOL    HW226265   6.372   2.625   0.336
 8456SOL     OW26266   5.573   5.435   3.240
 8456SOL    HW126267   5.629   5.407   3.317
 8456SOL    HW226268   5.615   5.402   3.155
 8457SOL     OW26269   6.189   6.040   6.643
 8457SOL    HW126270   6.216   5.964   6.702
 8457SOL    HW226271   6.092   6.032   6.620
 8458SOL     OW26272   1.415   2.238   1.243
 8458SOL    HW126273   1.330   2.291   1.251
 8458SOL    HW226274   1.404   2.169   1.171
 8459SOL     OW26275   2.646   5.799   2.792
 8459SOL    HW126276   2.611   5.709   2.818
 8459SOL    HW226277   2.735   5.788   2.746
 8460SOL     OW26278   3.852   1.498   0.733
 8460SOL    HW126279   3.916   1.421   0.742
 8460SOL    HW226280   3.761   1.462   0.711
 8461SOL     OW26281   4.843   3.833   3.070
 8461SOL    HW126282   4.837   3.841   3.169
 8461SOL    HW226283   4.796   3.751   3.040
 8462SOL     OW26284   2.388   4.358   0.516
 8462SOL    HW126285   2.293   4.341   0.540
 8462SOL    HW226286   2.427   4.426   0.579
 8463SOL     OW26287   6.657   0.936   0.331
 8463SOL    HW126288   6.644   1.033   0.351
 8463SOL    HW226289   6.647   0.883   0.415
 8464SOL     OW26290   6.507   3.895   6.731
 8464SOL    HW126291   6.602   3.872   6.751
 8464SOL    HW226292   6.465   3.937   6.812
 8465SOL     OW26293   4.447   3.287   0.973
 8465SOL    HW126294   4.440   3.317   0.878
 8465SOL    HW226295   4.387   3.209   0.988
 8466SOL     OW26296   0.436   1.489   5.679
 8466SOL    HW126297   0.480   1.577   5.701
 8466SOL    HW226298   0.498   1.434   5.623
 8467SOL     OW26299   3.280   1.553   0.185
 8467SOL    HW126300   3.285   1.453   0.198
 8467SOL    HW226301   3.332   1.578   0.103
 8468SOL     OW26302   5.670   3.336   6.571
 8468SOL    HW126303   5.708   3.418   6.529
 8468SOL    HW226304   5.700   3.256   6.520
 8469SOL     OW26305   3.766   3.365   5.268
 8469SOL    HW126306   3.859   3.331   5.284
 8469SOL    HW226307   3.730   3.327   5.183
 8470SOL     OW26308   1.722   4.864   1.732
 8470SOL    HW126309   1.771   4.908   1.808
 8470SOL    HW226310   1.788   4.820   1.671
 8471SOL     OW26311   4.209   1.467   4.440
 8471SOL    HW126312   4.170   1.401   4.504
 8471SOL    HW226313   4.301   1.437   4.413
 8472SOL     OW26314   6.105   1.734   6.260
 8472SOL    HW126315   6.180   1.737   6.326
 8472SOL    HW226316   6.033   1.675   6.295
 8473SOL     OW26317   5.148   4.456   0.019
 8473SOL    HW126318   5.075   4.446   0.086
 8473SOL    HW226319   5.116   4.512   6.968
 8474SOL     OW26320   3.429   4.141   4.286
 8474SOL    HW126321   3.351   4.135   4.224
 8474SOL    HW226322   3.401   4.107   4.376
 8475SOL     OW26323   6.583   2.503   3.148
 8475SOL    HW126324   6.519   2.579   3.140
 8475SOL    HW226325   6.662   2.520   3.089
 8476SOL     OW26326   5.827   1.138   1.557
 8476SOL    HW126327   5.843   1.215   1.619
 8476SOL    HW226328   5.878   1.059   1.588
 8477SOL     OW26329   5.730   0.018   1.758
 8477SOL    HW126330   5.691   0.082   1.691
 8477SOL    HW226331   5.746   0.066   1.844
 8478SOL     OW26332   0.182   0.150   5.266
 8478SOL    HW126333   0.120   0.089   5.315
 8478SOL    HW226334   0.211   0.107   5.180
 8479SOL     OW26335   0.630   3.199   0.778
 8479SOL    HW126336   0.537   3.167   0.761
 8479SOL    HW226337   0.674   3.220   0.691
 8480SOL     OW26338   4.054   3.922   0.411
 8480SOL    HW126339   4.119   3.990   0.444
 8480SOL    HW226340   4.042   3.851   0.480
 8481SOL     OW26341   4.256   2.313   3.205
 8481SOL    HW126342   4.272   2.350   3.114
 8481SOL    HW226343   4.222   2.219   3.197
 8482SOL     OW26344   4.252   1.022   6.816
 8482SOL    HW126345   4.182   0.988   6.879
 8482SOL    HW226346   4.341   1.025   6.863
 8483SOL     OW26347   3.988   5.057   3.215
 8483SOL    HW126348   3.927   5.118   3.266
 8483SOL    HW226349   3.972   4.962   3.243
 8484SOL     OW26350   5.574   5.761   5.050
 8484SOL    HW126351   5.522   5.751   4.966
 8484SOL    HW226352   5.618   5.674   5.073
 8485SOL     OW26353   3.570   1.749   0.144
 8485SOL    HW126354   3.594   1.681   0.074
 8485SOL    HW226355   3.653   1.781   0.189
 8486SOL     OW26356   6.075   2.313   3.947
 8486SOL    HW126357   5.991   2.322   4.001
 8486SOL    HW226358   6.098   2.217   3.937
 8487SOL     OW26359   6.718   2.073   6.471
 8487SOL    HW126360   6.713   2.055   6.570
 8487SOL    HW226361   6.813   2.065   6.440
 8488SOL     OW26362   4.709   5.324   1.926
 8488SOL    HW126363   4.674   5.383   1.853
 8488SOL    HW226364   4.672   5.354   2.014
 8489SOL     OW26365   6.342   2.348   2.115
 8489SOL    HW126366   6.315   2.280   2.046
 8489SOL    HW226367   6.261   2.381   2.162
 8490SOL     OW26368   3.277   0.284   6.868
 8490SOL    HW126369   3.177   0.280   6.875
 8490SOL    HW226370   3.311   0.360   6.923
 8491SOL     OW26371   2.973   6.144   1.988
 8491SOL    HW126372   3.015   6.125   1.900
 8491SOL    HW226373   3.026   6.214   2.036
 8492SOL     OW26374   6.208   6.375   4.538
 8492SOL    HW126375   6.176   6.280   4.531
 8492SOL    HW226376   6.139   6.430   4.584
 8493SOL     OW26377   5.241   1.262   6.147
 8493SOL    HW126378   5.195   1.249   6.059
 8493SOL    HW226379   5.258   1.360   6.162
 8494SOL     OW26380   6.677   3.458   2.145
 8494SOL    HW126381   6.655   3.431   2.051
 8494SOL    HW226382   6.730   3.385   2.189
 8495SOL     OW26383   6.087   4.996   5.947
 8495SOL    HW126384   5.989   5.010   5.961
 8495SOL    HW226385   6.110   4.901   5.969
 8496SOL     OW26386   5.143   2.474   2.871
 8496SOL    HW126387   5.072   2.422   2.824
 8496SOL    HW226388   5.110   2.566   2.891
 8497SOL     OW26389   6.571   0.369   2.980
 8497SOL    HW126390   6.609   0.460   2.963
 8497SOL    HW226391   6.601   0.306   2.908
 8498SOL     OW26392   4.813   7.006   3.587
 8498SOL    HW126393   4.808   6.925   3.529
 8498SOL    HW226394   4.828   0.062   3.530
 8499SOL     OW26395   5.860   6.851   5.500
 8499SOL    HW126396   5.886   6.855   5.404
 8499SOL    HW226397   5.767   6.885   5.511
 8500SOL     OW26398   0.948   0.643   6.453
 8500SOL    HW126399   1.016   0.660   6.382
 8500SOL    HW226400   0.914   0.730   6.488
 8501SOL     OW26401   2.072   1.281   6.322
 8501SOL    HW126402   2.134   1.251   6.395
 8501SOL    HW226403   2.100   1.240   6.235
 8502SOL     OW26404   6.830   3.982   7.010
 8502SOL    HW126405   6.771   4.009   0.061
 8502SOL    HW226406   6.922   3.961   0.020
 8503SOL     OW26407   4.870   2.018   5.645
 8503SOL    HW126408   4.900   2.105   5.684
 8503SOL    HW226409   4.949   1.968   5.610
 8504SOL     OW26410   1.455   0.376   2.480
 8504SOL    HW126411   1.521   0.426   2.536
 8504SOL    HW226412   1.430   0.291   2.525
 8505SOL     OW26413   5.455   2.834   2.271
 8505SOL    HW126414   5.402   2.768   2.323
 8505SOL    HW226415   5.553   2.813   2.281
 8506SOL     OW26416   1.315   0.266   6.513
 8506SOL    HW126417   1.289   0.295   6.421
 8506SOL    HW226418   1.252   0.304   6.580
 8507SOL     OW26419   2.909   6.023   5.296
 8507SOL    HW126420   2.941   6.040   5.203
 8507SOL    HW226421   2.988   6.011   5.357
 8508SOL     OW26422   2.361   1.414   6.950
 8508SOL    HW126423   2.388   1.462   0.009
 8508SOL    HW226424   2.427   1.341   6.932
 8509SOL     OW26425   5.763   1.944   2.385
 8509SOL    HW126426   5.688   1.957   2.320
 8509SOL    HW226427   5.820   1.868   2.355
 8510SOL     OW26428   0.098   1.407   4.622
 8510SOL    HW126429   0.018   1.448   4.665
 8510SOL    HW226430   0.181   1.450   4.657
 8511SOL     OW26431   5.836   1.765   3.105
 8511SOL    HW126432   5.823   1.705   3.026
 8511SOL    HW226433   5.867   1.855   3.073
 8512SOL     OW26434   2.236   6.351   5.680
 8512SOL    HW126435   2.166   6.293   5.722
 8512SOL    HW226436   2.325   6.306   5.686
 8513SOL     OW26437   5.269   6.029   6.987
 8513SOL    HW126438   5.357   6.012   6.943
 8513SOL    HW226439   5.276   6.109   0.022
 8514SOL     OW26440   3.912   6.244   3.947
 8514SOL    HW126441   3.921   6.158   3.998
 8514SOL    HW226442   3.868   6.226   3.859
 8515SOL     OW26443   5.883   2.311   0.835
 8515SOL    HW126444   5.882   2.326   0.934
 8515SOL    HW226445   5.948   2.239   0.812
 8516SOL     OW26446   6.880   1.941   2.104
 8516SOL    HW126447   6.909   1.933   2.009
 8516SOL    HW226448   6.933   2.013   2.149
 8517SOL     OW26449   1.049   4.156   0.271
 8517SOL    HW126450   1.126   4.166   0.208
 8517SOL    HW226451   1.045   4.061   0.303
 8518SOL     OW26452   2.927   5.785   0.713
 8518SOL    HW126453   2.879   5.773   0.625
 8518SOL    HW226454   2.983   5.704   0.731
 8519SOL     OW26455   2.689   5.767   3.318
 8519SOL    HW126456   2.644   5.682   3.290
 8519SOL    HW226457   2.620   5.834   3.346
 8520SOL     OW26458   3.386   0.021   6.889
 8520SOL    HW126459   3.362   0.116   6.871
 8520SOL    HW226460   3.303   6.995   6.912
 8521SOL     OW26461   1.683   0.460   1.193
 8521SOL    HW126462   1.691   0.379   1.135
 8521SOL    HW226463   1.771   0.507   1.197
 8522SOL     OW26464   2.198   6.391   4.298
 8522SOL    HW126465   2.286   6.399   4.252
 8522SOL    HW226466   2.212   6.359   4.392
 8523SOL     OW26467   1.014   6.565   6.809
 8523SOL    HW126468   0.989   6.509   6.730
 8523SOL    HW226469   0.936   6.620   6.837
 8524SOL     OW26470   1.176   1.622   6.663
 8524SOL    HW126471   1.212   1.543   6.613
 8524SOL    HW226472   1.169   1.600   6.760
 8525SOL     OW26473   5.510   3.799   3.944
 8525SOL    HW126474   5.485   3.775   3.850
 8525SOL    HW226475   5.499   3.719   4.003
 8526SOL     OW26476   1.813   3.348   2.178
 8526SOL    HW126477   1.789   3.251   2.174
 8526SOL    HW226478   1.862   3.374   2.095
 8527SOL     OW26479   4.248   0.963   3.937
 8527SOL    HW126480   4.265   1.056   3.968
 8527SOL    HW226481   4.176   0.921   3.992
 8528SOL     OW26482   5.597   2.343   6.900
 8528SOL    HW126483   5.575   2.388   6.813
 8528SOL    HW226484   5.583   2.245   6.890
 8529SOL     OW26485   6.919   5.413   6.032
 8529SOL    HW126486   6.935   5.372   6.122
 8529SOL    HW226487   7.005   5.443   5.993
 8530SOL     OW26488   1.865   4.666   6.417
 8530SOL    HW126489   1.962   4.643   6.408
 8530SOL    HW226490   1.837   4.655   6.512
 8531SOL     OW26491   4.064   4.854   1.959
 8531SOL    HW126492   3.983   4.881   2.010
 8531SOL    HW226493   4.122   4.796   2.015
 8532SOL     OW26494   1.268   3.798   0.476
 8532SOL    HW126495   1.342   3.836   0.420
 8532SOL    HW226496   1.235   3.867   0.540
 8533SOL     OW26497   4.236   6.532   5.780
 8533SOL    HW126498   4.257   6.434   5.784
 8533SOL    HW226499   4.175   6.550   5.703
 8534SOL     OW26500   1.947   2.708   2.022
 8534SOL    HW126501   1.853   2.709   2.057
 8534SOL    HW226502   1.949   2.659   1.934
 8535SOL     OW26503   6.902   3.545   4.920
 8535SOL    HW126504   6.818   3.542   4.976
 8535SOL    HW226505   6.957   3.464   4.939
 8536SOL     OW26506   6.130   1.842   5.617
 8536SOL    HW126507   6.186   1.796   5.686
 8536SOL    HW226508   6.167   1.934   5.600
 8537SOL     OW26509   5.074   6.418   2.924
 8537SOL    HW126510   5.120   6.487   2.979
 8537SOL    HW226511   5.079   6.444   2.827
 8538SOL     OW26512   5.076   0.908   5.547
 8538SOL    HW126513   4.991   0.958   5.533
 8538SOL    HW226514   5.066   0.844   5.624
 8539SOL     OW26515   0.358   3.153   3.163
 8539SOL    HW126516   0.336   3.066   3.117
 8539SOL    HW226517   0.341   3.228   3.099
 8540SOL     OW26518   3.823   6.689   0.007
 8540SOL    HW126519   3.735   6.712   6.990
 8540SOL    HW226520   3.887   6.764   7.017
 8541SOL     OW26521   3.237   6.064   5.271
 8541SOL    HW126522   3.211   6.062   5.367
 8541SOL    HW226523   3.325   6.110   5.261
 8542SOL     OW26524   1.077   5.239   5.705
 8542SOL    HW126525   1.050   5.147   5.677
 8542SOL    HW226526   1.007   5.276   5.767
 8543SOL     OW26527   2.930   2.744   5.342
 8543SOL    HW126528   3.029   2.731   5.352
 8543SOL    HW226529   2.883   2.657   5.351
 8544SOL     OW26530   5.298   4.677   5.179
 8544SOL    HW126531   5.381   4.682   5.124
 8544SOL    HW226532   5.239   4.756   5.158
 8545SOL     OW26533   1.947   6.779   6.396
 8545SOL    HW126534   2.042   6.787   6.367
 8545SOL    HW226535   1.891   6.748   6.319
 8546SOL     OW26536   4.593   1.364   3.405
 8546SOL    HW126537   4.596   1.286   3.342
 8546SOL    HW226538   4.506   1.411   3.397
 8547SOL     OW26539   5.508   6.327   5.938
 8547SOL    HW126540   5.487   6.414   5.892
 8547SOL    HW226541   5.501   6.252   5.873
 8548SOL     OW26542   1.080   4.324   4.959
 8548SOL    HW126543   1.003   4.331   5.022
 8548SOL    HW226544   1.057   4.264   4.883
 8549SOL     OW26545   1.561   0.199   3.849
 8549SOL    HW126546   1.643   0.240   3.888
 8549SOL    HW226547   1.522   0.134   3.915
 8550SOL     OW26548   6.775   5.037   5.810
 8550SOL    HW126549   6.803   4.946   5.840
 8550SOL    HW226550   6.855   5.098   5.811
 8551SOL     OW26551   3.831   0.196   4.958
 8551SOL    HW126552   3.795   0.218   5.049
 8551SOL    HW226553   3.840   0.097   4.949
 8552SOL     OW26554   3.209   1.622   1.773
 8552SOL    HW126555   3.189   1.683   1.696
 8552SOL    HW226556   3.307   1.624   1.793
 8553SOL     OW26557   4.644   3.852   0.756
 8553SOL    HW126558   4.672   3.784   0.824
 8553SOL    HW226559   4.704   3.931   0.762
 8554SOL     OW26560   1.629   1.064   6.845
 8554SOL    HW126561   1.713   1.102   6.807
 8554SOL    HW226562   1.566   1.041   6.771
 8555SOL     OW26563   4.275   1.996   3.982
 8555SOL    HW126564   4.257   2.091   3.957
 8555SOL    HW226565   4.203   1.963   4.042
 8556SOL     OW26566   0.570   5.689   5.704
 8556SOL    HW126567   0.473   5.667   5.708
 8556SOL    HW226568   0.617   5.621   5.649
 8557SOL     OW26569   6.891   0.775   6.576
 8557SOL    HW126570   6.840   0.716   6.514
 8557SOL    HW226571   6.929   0.721   6.651
 8558SOL     OW26572   3.015   5.587   4.164
 8558SOL    HW126573   2.983   5.559   4.254
 8558SOL    HW226574   2.945   5.641   4.119
 8559SOL     OW26575   1.571   3.859   2.205
 8559SOL    HW126576   1.499   3.889   2.268
 8559SOL    HW226577   1.655   3.843   2.256
 8560SOL     OW26578   3.529   4.447   1.253
 8560SOL    HW126579   3.576   4.479   1.170
 8560SOL    HW226580   3.434   4.424   1.231
 8561SOL     OW26581   3.719   0.376   2.707
 8561SOL    HW126582   3.647   0.406   2.770
 8561SOL    HW226583   3.774   0.454   2.680
 8562SOL     OW26584   5.342   2.826   6.766
 8562SOL    HW126585   5.257   2.821   6.714
 8562SOL    HW226586   5.323   2.858   6.859
 8563SOL     OW26587   2.685   5.159   3.038
 8563SOL    HW126588   2.638   5.216   3.106
 8563SOL    HW226589   2.661   5.190   2.946
 8564SOL     OW26590   4.159   6.832   0.702
 8564SOL    HW126591   4.085   6.879   0.751
 8564SOL    HW226592   4.120   6.762   0.642
 8565SOL     OW26593   1.235   4.620   1.267
 8565SOL    HW126594   1.294   4.621   1.186
 8565SOL    HW226595   1.165   4.690   1.257
 8566SOL     OW26596   3.482   0.431   2.849
 8566SOL    HW126597   3.434   0.440   2.936
 8566SOL    HW226598   3.430   0.371   2.788
 8567SOL     OW26599   1.727   2.349   2.367
 8567SOL    HW126600   1.736   2.317   2.461
 8567SOL    HW226601   1.712   2.270   2.307
 8568SOL     OW26602   6.132   1.073   6.052
 8568SOL    HW126603   6.207   1.009   6.037
 8568SOL    HW226604   6.120   1.129   5.971
 8569SOL     OW26605   5.017   2.269   0.557
 8569SOL    HW126606   4.928   2.247   0.598
 8569SOL    HW226607   5.059   2.345   0.607
 8570SOL     OW26608   2.277   1.828   2.516
 8570SOL    HW126609   2.346   1.833   2.444
 8570SOL    HW226610   2.230   1.917   2.524
 8571SOL     OW26611   2.062   0.572   3.139
 8571SOL    HW126612   2.109   0.627   3.208
 8571SOL    HW226613   1.966   0.559   3.166
 8572SOL     OW26614   2.705   4.027   5.877
 8572SOL    HW126615   2.606   4.025   5.890
 8572SOL    HW226616   2.747   3.958   5.936
 8573SOL     OW26617   2.744   6.171   6.405
 8573SOL    HW126618   2.682   6.093   6.415
 8573SOL    HW226619   2.806   6.175   6.483
 8574SOL     OW26620   4.623   0.960   5.523
 8574SOL    HW126621   4.682   0.885   5.493
 8574SOL    HW226622   4.568   0.992   5.446
 8575SOL     OW26623   3.050   6.063   4.014
 8575SOL    HW126624   3.106   6.027   4.089
 8575SOL    HW226625   3.008   5.987   3.964
 8576SOL     OW26626   1.747   4.704   3.744
 8576SOL    HW126627   1.721   4.636   3.675
 8576SOL    HW226628   1.797   4.659   3.818
 8577SOL     OW26629   1.202   1.041   0.611
 8577SOL    HW126630   1.232   1.009   0.521
 8577SOL    HW226631   1.123   1.102   0.599
 8578SOL     OW26632   1.517   6.949   6.531
 8578SOL    HW126633   1.421   6.924   6.547
 8578SOL    HW226634   1.522   7.013   6.454
 8579SOL     OW26635   3.306   6.834   2.341
 8579SOL    HW126636   3.293   6.934   2.340
 8579SOL    HW226637   3.404   6.813   2.349
 8580SOL     OW26638   1.462   0.380   1.949
 8580SOL    HW126639   1.458   0.329   1.863
 8580SOL    HW226640   1.440   0.476   1.933
 8581SOL     OW26641   3.613   4.354   1.497
 8581SOL    HW126642   3.602   4.380   1.401
 8581SOL    HW226643   3.532   4.303   1.526
 8582SOL     OW26644   4.426   5.138   5.527
 8582SOL    HW126645   4.352   5.116   5.463
 8582SOL    HW226646   4.387   5.178   5.610
 8583SOL     OW26647   3.523   6.748   2.857
 8583SOL    HW126648   3.571   6.704   2.780
 8583SOL    HW226649   3.525   6.847   2.845
 8584SOL     OW26650   6.332   1.678   4.530
 8584SOL    HW126651   6.270   1.687   4.608
 8584SOL    HW226652   6.286   1.631   4.455
 8585SOL     OW26653   5.303   2.688   2.507
 8585SOL    HW126654   5.350   2.609   2.468
 8585SOL    HW226655   5.204   2.672   2.507
 8586SOL     OW26656   6.074   5.828   6.167
 8586SOL    HW126657   6.064   5.729   6.159
 8586SOL    HW226658   5.991   5.873   6.133
 8587SOL     OW26659   0.122   1.582   0.032
 8587SOL    HW126660   0.188   1.603   0.105
 8587SOL    HW226661   0.134   1.487   0.003
 8588SOL     OW26662   2.027   0.904   5.430
 8588SOL    HW126663   2.087   0.827   5.409
 8588SOL    HW226664   1.977   0.931   5.347
 8589SOL     OW26665   5.290   2.995   6.978
 8589SOL    HW126666   5.357   3.064   7.008
 8589SOL    HW226667   5.247   2.954   0.034
 8590SOL     OW26668   0.539   1.118   4.059
 8590SOL    HW126669   0.548   1.063   4.142
 8590SOL    HW226670   0.451   1.166   4.060
 8591SOL     OW26671   6.891   4.640   5.436
 8591SOL    HW126672   6.814   4.671   5.491
 8591SOL    HW226673   6.857   4.606   5.348
 8592SOL     OW26674   0.318   1.963   4.014
 8592SOL    HW126675   0.298   1.973   4.111
 8592SOL    HW226676   0.372   2.042   3.983
 8593SOL     OW26677   5.955   1.389   6.883
 8593SOL    HW126678   6.005   1.445   6.816
 8593SOL    HW226679   5.898   1.323   6.834
 8594SOL     OW26680   6.131   3.992   6.213
 8594SOL    HW126681   6.220   3.965   6.175
 8594SOL    HW226682   6.143   4.071   6.272
 8595SOL     OW26683   5.620   6.376   3.153
 8595SOL    HW126684   5.708   6.357   3.198
 8595SOL    HW226685   5.593   6.297   3.098
 8596SOL     OW26686   0.741   1.682   4.709
 8596SOL    HW126687   0.649   1.657   4.678
 8596SOL    HW226688   0.735   1.728   4.797
 8597SOL     OW26689   6.060   3.003   6.315
 8597SOL    HW126690   6.078   3.090   6.268
 8597SOL    HW226691   5.991   2.952   6.264
 8598SOL     OW26692   6.707   0.473   5.332
 8598SOL    HW126693   6.750   0.549   5.283
 8598SOL    HW226694   6.705   0.392   5.274
 8599SOL     OW26695   6.564   3.541   4.661
 8599SOL    HW126696   6.468   3.515   4.651
 8599SOL    HW226697   6.616   3.506   4.583
 8600SOL     OW26698   4.458   2.425   1.140
 8600SOL    HW126699   4.459   2.327   1.119
 8600SOL    HW226700   4.550   2.462   1.129
 8601SOL     OW26701   6.621   5.983   3.589
 8601SOL    HW126702   6.568   6.033   3.521
 8601SOL    HW226703   6.710   6.028   3.600
 8602SOL     OW26704   1.987   6.593   5.446
 8602SOL    HW126705   2.030   6.510   5.408
 8602SOL    HW226706   1.929   6.567   5.524
 8603SOL     OW26707   0.474   0.411   6.729
 8603SOL    HW126708   0.571   0.387   6.727
 8603SOL    HW226709   0.421   0.337   6.769
 8604SOL     OW26710   2.088   4.949   6.125
 8604SOL    HW126711   2.040   4.866   6.154
 8604SOL    HW226712   2.184   4.943   6.153
 8605SOL     OW26713   0.812   5.526   4.077
 8605SOL    HW126714   0.892   5.563   4.124
 8605SOL    HW226715   0.830   5.432   4.048
 8606SOL     OW26716   1.441   1.715   0.367
 8606SOL    HW126717   1.358   1.766   0.390
 8606SOL    HW226718   1.464   1.654   0.443
 8607SOL     OW26719   1.996   3.696   1.295
 8607SOL    HW126720   2.067   3.628   1.309
 8607SOL    HW226721   2.017   3.752   1.215
 8608SOL     OW26722   1.684   5.812   2.686
 8608SOL    HW126723   1.723   5.902   2.668
 8608SOL    HW226724   1.737   5.742   2.637
 8609SOL     OW26725   4.432   2.004   4.645
 8609SOL    HW126726   4.348   1.961   4.677
 8609SOL    HW226727   4.442   2.094   4.689
 8610SOL     OW26728   0.533   6.084   3.406
 8610SOL    HW126729   0.575   6.058   3.318
 8610SOL    HW226730   0.511   6.181   3.405
 8611SOL     OW26731   2.096   1.536   5.051
 8611SOL    HW126732   2.088   1.437   5.058
 8611SOL    HW226733   2.100   1.563   4.955
 8612SOL     OW26734   3.309   2.958   4.384
 8612SOL    HW126735   3.332   2.899   4.462
 8612SOL    HW226736   3.392   3.006   4.354
 8613SOL     OW26737   3.979   3.149   2.931
 8613SOL    HW126738   3.958   3.052   2.937
 8613SOL    HW226739   3.897   3.200   2.904
 8614SOL     OW26740   0.511   2.423   3.134
 8614SOL    HW126741   0.591   2.443   3.191
 8614SOL    HW226742   0.535   2.437   3.038
 8615SOL     OW26743   3.499   2.195   5.597
 8615SOL    HW126744   3.549   2.166   5.515
 8615SOL    HW226745   3.408   2.228   5.571
 8616SOL     OW26746   5.612   3.958   4.229
 8616SOL    HW126747   5.594   4.044   4.182
 8616SOL    HW226748   5.585   3.882   4.170
 8617SOL     OW26749   2.248   0.248   2.918
 8617SOL    HW126750   2.221   0.225   3.011
 8617SOL    HW226751   2.346   0.268   2.915
 8618SOL     OW26752   5.661   4.039   1.123
 8618SOL    HW126753   5.715   4.082   1.051
 8618SOL    HW226754   5.613   3.959   1.086
 8619SOL     OW26755   5.487   5.788   0.639
 8619SOL    HW126756   5.410   5.734   0.605
 8619SOL    HW226757   5.469   5.885   0.621
 8620SOL     OW26758   2.355   6.962   4.319
 8620SOL    HW126759   2.278   7.008   4.363
 8620SOL    HW226760   2.391   6.892   4.380
 8621SOL     OW26761   5.697   3.376   1.193
 8621SOL    HW126762   5.740   3.464   1.174
 8621SOL    HW226763   5.612   3.391   1.245
 8622SOL     OW26764   0.368   5.354   2.539
 8622SOL    HW126765   0.430   5.413   2.592
 8622SOL    HW226766   0.407   5.337   2.449
 8623SOL     OW26767   1.863   2.631   3.936
 8623SOL    HW126768   1.906   2.554   3.887
 8623SOL    HW226769   1.929   2.706   3.944
 8624SOL     OW26770   3.506   3.785   4.797
 8624SOL    HW126771   3.588   3.763   4.850
 8624SOL    HW226772   3.521   3.868   4.744
 8625SOL     OW26773   3.839   2.961   5.587
 8625SOL    HW126774   3.910   2.908   5.634
 8625SOL    HW226775   3.866   2.976   5.492
 8626SOL     OW26776   4.100   2.282   1.706
 8626SOL    HW126777   4.164   2.358   1.701
 8626SOL    HW226778   4.006   2.316   1.694
 8627SOL     OW26779   2.035   1.201   2.432
 8627SOL    HW126780   2.051   1.106   2.457
 8627SOL    HW226781   2.051   1.259   2.512
 8628SOL     OW26782   0.886   6.593   0.733
 8628SOL    HW126783   0.787   6.597   0.750
 8628SOL    HW226784   0.932   6.665   0.785
 8629SOL     OW26785   0.604   6.666   4.855
 8629SOL    HW126786   0.679   6.635   4.913
 8629SOL    HW226787   0.559   6.587   4.813
 8630SOL     OW26788   5.027   2.603   2.452
 8630SOL    HW126789   4.944   2.547   2.446
 8630SOL    HW226790   5.011   2.680   2.514
 8631SOL     OW26791   2.451   5.769   6.273
 8631SOL    HW126792   2.501   5.690   6.309
 8631SOL    HW226793   2.494   5.853   6.307
 8632SOL     OW26794   5.686   6.033   4.348
 8632SOL    HW126795   5.782   6.036   4.375
 8632SOL    HW226796   5.635   5.974   4.410
 8633SOL     OW26797   5.827   3.653   4.896
 8633SOL    HW126798   5.907   3.699   4.935
 8633SOL    HW226799   5.857   3.571   4.848
 8634SOL     OW26800   5.051   4.062   0.154
 8634SOL    HW126801   4.954   4.084   0.144
 8634SOL    HW226802   5.064   3.964   0.137
 8635SOL     OW26803   5.439   2.384   6.649
 8635SOL    HW126804   5.429   2.287   6.671
 8635SOL    HW226805   5.354   2.420   6.612
 8636SOL     OW26806   4.831   6.618   1.517
 8636SOL    HW126807   4.763   6.644   1.585
 8636SOL    HW226808   4.806   6.656   1.428
 8637SOL     OW26809   2.187   1.940   6.145
 8637SOL    HW126810   2.163   1.877   6.071
 8637SOL    HW226811   2.193   1.890   6.231
 8638SOL     OW26812   4.860   2.803   3.624
 8638SOL    HW126813   4.949   2.775   3.588
 8638SOL    HW226814   4.868   2.892   3.668
 8639SOL     OW26815   3.507   3.690   0.051
 8639SOL    HW126816   3.575   3.655   7.011
 8639SOL    HW226817   3.490   3.787   0.034
 8640SOL     OW26818   3.114   2.734   0.984
 8640SOL    HW126819   3.190   2.686   1.027
 8640SOL    HW226820   3.040   2.669   0.962
 8641SOL     OW26821   4.070   4.807   2.458
 8641SOL    HW126822   4.142   4.774   2.397
 8641SOL    HW226823   4.023   4.884   2.415
 8642SOL     OW26824   1.097   5.582   2.743
 8642SOL    HW126825   1.168   5.613   2.680
 8642SOL    HW226826   1.024   5.650   2.747
 8643SOL     OW26827   4.157   6.989   1.107
 8643SOL    HW126828   4.113   0.011   1.030
 8643SOL    HW226829   4.132   0.009   1.193
 8644SOL     OW26830   6.427   2.402   6.292
 8644SOL    HW126831   6.495   2.379   6.361
 8644SOL    HW226832   6.397   2.496   6.306
 8645SOL     OW26833   6.198   5.963   3.136
 8645SOL    HW126834   6.274   6.025   3.116
 8645SOL    HW226835   6.173   5.913   3.054
 8646SOL     OW26836   6.858   2.446   5.210
 8646SOL    HW126837   6.924   2.397   5.152
 8646SOL    HW226838   6.907   2.489   5.286
 8647SOL     OW26839   2.189   5.638   1.808
 8647SOL    HW126840   2.237   5.573   1.749
 8647SOL    HW226841   2.174   5.724   1.758
 8648SOL     OW26842   5.210   5.362   0.433
 8648SOL    HW126843   5.225   5.275   0.481
 8648SOL    HW226844   5.294   5.389   0.387
 8649SOL     OW26845   5.189   1.546   0.841
 8649SOL    HW126846   5.109   1.606   0.848
 8649SOL    HW226847   5.267   1.598   0.805
 8650SOL     OW26848   1.996   0.077   5.659
 8650SOL    HW126849   2.073   0.141   5.655
 8650SOL    HW226850   2.020   7.019   5.610
 8651SOL     OW26851   3.982   2.725   1.727
 8651SOL    HW126852   3.890   2.694   1.703
 8651SOL    HW226853   4.047   2.649   1.717
 8652SOL     OW26854   0.929   2.599   3.377
 8652SOL    HW126855   0.865   2.675   3.367
 8652SOL    HW226856   1.022   2.632   3.363
 8653SOL     OW26857   5.909   1.561   6.331
 8653SOL    HW126858   5.940   1.468   6.354
 8653SOL    HW226859   5.815   1.557   6.298
 8654SOL     OW26860   0.534   4.237   2.569
 8654SOL    HW126861   0.629   4.214   2.547
 8654SOL    HW226862   0.473   4.177   2.517
 8655SOL     OW26863   0.860   0.485   4.719
 8655SOL    HW126864   0.771   0.500   4.761
 8655SOL    HW226865   0.860   0.397   4.672
 8656SOL     OW26866   5.714   6.820   1.253
 8656SOL    HW126867   5.778   6.818   1.176
 8656SOL    HW226868   5.633   6.767   1.231
 8657SOL     OW26869   3.419   2.079   3.480
 8657SOL    HW126870   3.337   2.127   3.510
 8657SOL    HW226871   3.472   2.050   3.559
 8658SOL     OW26872   5.626   4.779   1.886
 8658SOL    HW126873   5.679   4.708   1.839
 8658SOL    HW226874   5.690   4.842   1.931
 8659SOL     OW26875   3.664   0.632   2.290
 8659SOL    HW126876   3.735   0.604   2.225
 8659SOL    HW226877   3.678   0.728   2.315
 8660SOL     OW26878   0.477   5.044   1.793
 8660SOL    HW126879   0.476   5.126   1.850
 8660SOL    HW226880   0.388   5.032   1.751
 8661SOL     OW26881   6.898   3.828   2.387
 8661SOL    HW126882   6.929   3.737   2.414
 8661SOL    HW226883   6.822   3.819   2.322
 8662SOL     OW26884   1.754   2.812   2.909
 8662SOL    HW126885   1.778   2.885   2.846
 8662SOL    HW226886   1.659   2.784   2.894
 8663SOL     OW26887   3.758   4.930   2.527
 8663SOL    HW126888   3.662   4.906   2.542
 8663SOL    HW226889   3.809   4.849   2.498
 8664SOL     OW26890   4.105   6.333   3.456
 8664SOL    HW126891   4.134   6.416   3.408
 8664SOL    HW226892   4.181   6.296   3.509
 8665SOL     OW26893   4.611   3.841   6.669
 8665SOL    HW126894   4.536   3.904   6.688
 8665SOL    HW226895   4.698   3.886   6.690
 8666SOL     OW26896   4.362   6.911   2.815
 8666SOL    HW126897   4.374   6.842   2.886
 8666SOL    HW226898   4.368   7.002   2.856
 8667SOL     OW26899   5.523   2.245   2.540
 8667SOL    HW126900   5.465   2.294   2.606
 8667SOL    HW226901   5.549   2.157   2.579
 8668SOL     OW26902   4.857   2.476   4.813
 8668SOL    HW126903   4.820   2.401   4.867
 8668SOL    HW226904   4.870   2.446   4.718
 8669SOL     OW26905   6.156   6.594   5.802
 8669SOL    HW126906   6.131   6.503   5.768
 8669SOL    HW226907   6.092   6.662   5.767
 8670SOL     OW26908   6.600   4.808   5.377
 8670SOL    HW126909   6.609   4.727   5.435
 8670SOL    HW226910   6.647   4.885   5.420
 8671SOL     OW26911   6.952   3.332   2.920
 8671SOL    HW126912   6.858   3.302   2.909
 8671SOL    HW226913   6.991   3.290   3.002
 8672SOL     OW26914   0.057   1.326   2.351
 8672SOL    HW126915   0.005   1.397   2.304
 8672SOL    HW226916   7.019   1.258   2.387
 8673SOL     OW26917   1.156   1.783   1.031
 8673SOL    HW126918   1.101   1.802   1.112
 8673SOL    HW226919   1.117   1.831   0.952
 8674SOL     OW26920   6.847   4.094   2.998
 8674SOL    HW126921   6.810   4.067   2.909
 8674SOL    HW226922   6.932   4.046   3.015
 8675SOL     OW26923   4.154   2.192   4.880
 8675SOL    HW126924   4.188   2.108   4.922
 8675SOL    HW226925   4.168   2.269   4.943
 8676SOL     OW26926   5.164   2.048   0.901
 8676SOL    HW126927   5.201   2.139   0.889
 8676SOL    HW226928   5.236   1.980   0.885
 8677SOL     OW26929   2.172   0.230   6.408
 8677SOL    HW126930   2.211   0.147   6.367
 8677SOL    HW226931   2.238   0.304   6.403
 8678SOL     OW26932   2.509   2.628   0.343
 8678SOL    HW126933   2.420   2.585   0.335
 8678SOL    HW226934   2.508   2.716   0.296
 8679SOL     OW26935   1.315   1.612   6.134
 8679SOL    HW126936   1.393   1.635   6.076
 8679SOL    HW226937   1.323   1.517   6.164
 8680SOL     OW26938   6.950   0.543   0.514
 8680SOL    HW126939   6.955   0.456   0.562
 8680SOL    HW226940   6.985   0.616   0.572
 8681SOL     OW26941   4.626   5.031   1.093
 8681SOL    HW126942   4.706   4.977   1.120
 8681SOL    HW226943   4.548   5.005   1.150
 8682SOL     OW26944   2.201   0.605   2.146
 8682SOL    HW126945   2.268   0.654   2.202
 8682SOL    HW226946   2.140   0.552   2.204
 8683SOL     OW26947   2.511   4.427   4.219
 8683SOL    HW126948   2.476   4.345   4.265
 8683SOL    HW226949   2.542   4.403   4.127
 8684SOL     OW26950   2.336   4.402   3.607
 8684SOL    HW126951   2.269   4.468   3.573
 8684SOL    HW226952   2.330   4.317   3.554
 8685SOL     OW26953   4.764   2.827   4.396
 8685SOL    HW126954   4.786   2.911   4.447
 8685SOL    HW226955   4.733   2.756   4.460
 8686SOL     OW26956   1.307   5.278   3.448
 8686SOL    HW126957   1.310   5.186   3.487
 8686SOL    HW226958   1.389   5.329   3.476
 8687SOL     OW26959   5.755   4.652   4.931
 8687SOL    HW126960   5.761   4.596   4.848
 8687SOL    HW226961   5.734   4.747   4.906
 8688SOL     OW26962   1.584   4.085   5.067
 8688SOL    HW126963   1.650   4.142   5.017
 8688SOL    HW226964   1.634   4.019   5.124
 8689SOL     OW26965   4.147   3.203   0.757
 8689SOL    HW126966   4.154   3.181   0.660
 8689SOL    HW226967   4.220   3.265   0.783
 8690SOL     OW26968   1.601   1.638   2.428
 8690SOL    HW126969   1.647   1.661   2.343
 8690SOL    HW226970   1.664   1.654   2.505
 8691SOL     OW26971   3.449   2.396   5.906
 8691SOL    HW126972   3.509   2.411   5.827
 8691SOL    HW226973   3.379   2.467   5.908
 8692SOL     OW26974   4.717   2.853   4.121
 8692SOL    HW126975   4.701   2.891   4.212
 8692SOL    HW226976   4.791   2.903   4.077
 8693SOL     OW26977   6.366   6.882   5.378
 8693SOL    HW126978   6.394   6.796   5.335
 8693SOL    HW226979   6.267   6.889   5.377
 8694SOL     OW26980   5.048   2.722   5.387
 8694SOL    HW126981   5.135   2.770   5.381
 8694SOL    HW226982   4.972   2.787   5.386
 8695SOL     OW26983   3.407   5.341   1.249
 8695SOL    HW126984   3.377   5.256   1.292
 8695SOL    HW226985   3.496   5.327   1.207
 8696SOL     OW26986   2.439   5.355   5.679
 8696SOL    HW126987   2.538   5.372   5.682
 8696SOL    HW226988   2.420   5.262   5.710
 8697SOL     OW26989   1.279   4.002   5.460
 8697SOL    HW126990   1.284   4.059   5.378
 8697SOL    HW226991   1.247   4.057   5.537
 8698SOL     OW26992   4.574   5.082   6.493
 8698SOL    HW126993   4.489   5.048   6.533
 8698SOL    HW226994   4.589   5.037   6.405
 8699SOL     OW26995   1.986   2.355   0.120
 8699SOL    HW126996   1.954   2.431   0.178
 8699SOL    HW226997   1.922   2.279   0.127
 8700SOL     OW26998   0.990   1.227   4.470
 8700SOL    HW126999   0.941   1.304   4.512
 8700SOL    HW227000   1.042   1.179   4.540
 8701SOL     OW27001   1.167   3.121   6.653
 8701SOL    HW127002   1.121   3.034   6.672
 8701SOL    HW227003   1.139   3.189   6.721
 8702SOL     OW27004   5.714   4.555   1.301
 8702SOL    HW127005   5.665   4.549   1.387
 8702SOL    HW227006   5.747   4.649   1.287
 8703SOL     OW27007   2.948   6.008   1.368
 8703SOL    HW127008   2.879   5.988   1.299
 8703SOL    HW227009   2.994   6.094   1.345
 8704SOL     OW27010   0.184   1.366   5.046
 8704SOL    HW127011   0.193   1.309   5.128
 8704SOL    HW227012   0.104   1.337   4.994
 8705SOL     OW27013   3.534   2.309   6.708
 8705SOL    HW127014   3.449   2.350   6.743
 8705SOL    HW227015   3.576   2.255   6.780
 8706SOL     OW27016   4.812   2.577   6.679
 8706SOL    HW127017   4.829   2.611   6.771
 8706SOL    HW227018   4.877   2.504   6.657
 8707SOL     OW27019   1.866   0.941   4.294
 8707SOL    HW127020   1.830   0.849   4.278
 8707SOL    HW227021   1.872   0.958   4.393
 8708SOL     OW27022   6.190   2.389   0.839
 8708SOL    HW127023   6.200   2.290   0.830
 8708SOL    HW227024   6.132   2.409   0.918
 8709SOL     OW27025   6.066   6.589   4.652
 8709SOL    HW127026   6.104   6.626   4.737
 8709SOL    HW227027   6.016   6.661   4.604
 8710SOL     OW27028   1.898   1.893   3.251
 8710SOL    HW127029   1.845   1.955   3.194
 8710SOL    HW227030   1.955   1.947   3.314
 8711SOL     OW27031   1.600   1.208   1.433
 8711SOL    HW127032   1.535   1.222   1.358
 8711SOL    HW227033   1.559   1.147   1.502
 8712SOL     OW27034   1.400   4.235   4.719
 8712SOL    HW127035   1.459   4.281   4.653
 8712SOL    HW227036   1.403   4.282   4.806
 8713SOL     OW27037   0.419   3.079   1.703
 8713SOL    HW127038   0.384   3.161   1.657
 8713SOL    HW227039   0.507   3.100   1.746
 8714SOL     OW27040   6.342   4.160   6.606
 8714SOL    HW127041   6.313   4.184   6.513
 8714SOL    HW227042   6.281   4.091   6.644
 8715SOL     OW27043   2.221   4.740   1.499
 8715SOL    HW127044   2.193   4.679   1.425
 8715SOL    HW227045   2.317   4.722   1.522
 8716SOL     OW27046   6.915   0.378   2.606
 8716SOL    HW127047   6.858   0.448   2.650
 8716SOL    HW227048   6.955   0.319   2.676
 8717SOL     OW27049   3.004   2.894   0.257
 8717SOL    HW127050   3.089   2.918   0.210
 8717SOL    HW227051   2.946   2.841   0.196
 8718SOL     OW27052   2.833   5.519   6.487
 8718SOL    HW127053   2.880   5.486   6.405
 8718SOL    HW227054   2.837   5.449   6.558
 8719SOL     OW27055   3.662   1.312   4.863
 8719SOL    HW127056   3.736   1.259   4.822
 8719SOL    HW227057   3.625   1.262   4.941
 8720SOL     OW27058   0.925   5.478   4.899
 8720SOL    HW127059   1.020   5.445   4.896
 8720SOL    HW227060   0.923   5.576   4.878
 8721SOL     OW27061   0.175   6.627   0.170
 8721SOL    HW127062   0.163   6.692   0.094
 8721SOL    HW227063   0.270   6.630   0.201
 8722SOL     OW27064   3.268   1.017   1.253
 8722SOL    HW127065   3.189   0.994   1.311
 8722SOL    HW227066   3.264   1.115   1.230
 8723SOL     OW27067   4.570   0.148   1.672
 8723SOL    HW127068   4.641   0.109   1.613
 8723SOL    HW227069   4.556   0.088   1.751
 8724SOL     OW27070   3.714   1.564   5.244
 8724SOL    HW127071   3.661   1.479   5.247
 8724SOL    HW227072   3.727   1.599   5.337
 8725SOL     OW27073   6.994   0.183   3.304
 8725SOL    HW127074   6.938   0.168   3.222
 8725SOL    HW227075   6.942   0.157   3.385
 8726SOL     OW27076   6.227   1.012   1.149
 8726SOL    HW127077   6.322   1.037   1.167
 8726SOL    HW227078   6.220   0.976   1.056
 8727SOL     OW27079   5.092   5.807   0.261
 8727SOL    HW127080   5.057   5.721   0.299
 8727SOL    HW227081   5.177   5.789   0.211
 8728SOL     OW27082   6.618   0.205   4.876
 8728SOL    HW127083   6.569   0.292   4.888
 8728SOL    HW227084   6.553   0.132   4.858
 8729SOL     OW27085   5.603   5.523   6.209
 8729SOL    HW127086   5.662   5.569   6.275
 8729SOL    HW227087   5.523   5.485   6.256
 8730SOL     OW27088   4.505   5.156   1.554
 8730SOL    HW127089   4.572   5.139   1.482
 8730SOL    HW227090   4.415   5.124   1.524
 8731SOL     OW27091   7.000   1.539   3.976
 8731SOL    HW127092   6.904   1.512   3.971
 8731SOL    HW227093   0.011   1.551   3.883
 8732SOL     OW27094   4.753   6.570   6.116
 8732SOL    HW127095   4.790   6.568   6.209
 8732SOL    HW227096   4.657   6.543   6.118
 8733SOL     OW27097   6.364   4.740   2.471
 8733SOL    HW127098   6.342   4.758   2.566
 8733SOL    HW227099   6.294   4.681   2.430
 8734SOL     OW27100   0.873   4.458   1.135
 8734SOL    HW127101   0.809   4.389   1.168
 8734SOL    HW227102   0.967   4.427   1.152
 8735SOL     OW27103   0.887   3.131   5.450
 8735SOL    HW127104   0.982   3.100   5.453
 8735SOL    HW227105   0.875   3.196   5.376
 8736SOL     OW27106   1.537   6.093   3.100
 8736SOL    HW127107   1.599   6.031   3.148
 8736SOL    HW227108   1.569   6.187   3.111
 8737SOL     OW27109   0.857   5.954   0.158
 8737SOL    HW127110   0.889   5.960   0.063
 8737SOL    HW227111   0.761   5.979   0.163
 8738SOL     OW27112   1.679   2.753   2.545
 8738SOL    HW127113   1.659   2.704   2.460
 8738SOL    HW227114   1.770   2.795   2.538
 8739SOL     OW27115   5.843   5.101   3.938
 8739SOL    HW127116   5.830   5.088   3.840
 8739SOL    HW227117   5.759   5.137   3.979
 8740SOL     OW27118   3.339   1.400   3.887
 8740SOL    HW127119   3.420   1.455   3.908
 8740SOL    HW227120   3.284   1.446   3.818
 8741SOL     OW27121   1.232   1.648   2.762
 8741SOL    HW127122   1.285   1.606   2.688
 8741SOL    HW227123   1.240   1.748   2.756
 8742SOL     OW27124   2.725   2.406   1.713
 8742SOL    HW127125   2.795   2.414   1.784
 8742SOL    HW227126   2.635   2.396   1.756
 8743SOL     OW27127   0.785   3.025   1.173
 8743SOL    HW127128   0.866   3.000   1.120
 8743SOL    HW227129   0.773   3.124   1.172
 8744SOL     OW27130   3.632   3.813   5.730
 8744SOL    HW127131   3.650   3.855   5.819
 8744SOL    HW227132   3.664   3.874   5.657
 8745SOL     OW27133   6.041   1.310   6.324
 8745SOL    HW127134   6.000   1.257   6.399
 8745SOL    HW227135   6.120   1.260   6.288
 8746SOL     OW27136   4.191   4.745   5.290
 8746SOL    HW127137   4.170   4.792   5.204
 8746SOL    HW227138   4.130   4.777   5.362
 8747SOL     OW27139   1.629   0.347   3.155
 8747SOL    HW127140   1.706   0.408   3.173
 8747SOL    HW227141   1.546   0.383   3.198
 8748SOL     OW27142   5.366   1.769   4.258
 8748SOL    HW127143   5.389   1.677   4.288
 8748SOL    HW227144   5.303   1.811   4.323
 8749SOL     OW27145   2.995   1.083   4.426
 8749SOL    HW127146   3.045   1.014   4.374
 8749SOL    HW227147   3.012   1.174   4.386
 8750SOL     OW27148   4.190   4.071   0.977
 8750SOL    HW127149   4.221   4.153   0.929
 8750SOL    HW227150   4.254   3.996   0.961
 8751SOL     OW27151   2.746   0.168   0.176
 8751SOL    HW127152   2.827   0.185   0.119
 8751SOL    HW227153   2.711   0.076   0.157
 8752SOL     OW27154   6.770   2.644   5.652
 8752SOL    HW127155   6.834   2.688   5.715
 8752SOL    HW227156   6.804   2.553   5.628
 8753SOL     OW27157   2.356   2.104   0.534
 8753SOL    HW127158   2.280   2.080   0.474
 8753SOL    HW227159   2.346   2.198   0.566
 8754SOL     OW27160   0.859   5.829   6.675
 8754SOL    HW127161   0.891   5.774   6.752
 8754SOL    HW227162   0.933   5.887   6.643
 8755SOL     OW27163   0.649   2.906   1.583
 8755SOL    HW127164   0.600   2.904   1.670
 8755SOL    HW227165   0.741   2.869   1.595
 8756SOL     OW27166   1.712   1.661   2.162
 8756SOL    HW127167   1.794   1.608   2.179
 8756SOL    HW227168   1.639   1.601   2.131
 8757SOL     OW27169   5.483   6.400   5.511
 8757SOL    HW127170   5.426   6.454   5.574
 8757SOL    HW227171   5.572   6.444   5.501
 8758SOL     OW27172   3.627   5.741   5.646
 8758SOL    HW127173   3.669   5.651   5.641
 8758SOL    HW227174   3.695   5.810   5.621
 8759SOL     OW27175   6.279   1.426   1.571
 8759SOL    HW127176   6.225   1.343   1.588
 8759SOL    HW227177   6.233   1.482   1.502
 8760SOL     OW27178   2.564   2.497   4.132
 8760SOL    HW127179   2.481   2.470   4.083
 8760SOL    HW227180   2.555   2.474   4.229
 8761SOL     OW27181   4.933   1.987   2.979
 8761SOL    HW127182   4.927   2.086   2.963
 8761SOL    HW227183   4.876   1.939   2.913
 8762SOL     OW27184   3.760   5.896   3.438
 8762SOL    HW127185   3.820   5.880   3.517
 8762SOL    HW227186   3.677   5.840   3.447
 8763SOL     OW27187   0.142   0.934   6.331
 8763SOL    HW127188   0.204   0.970   6.401
 8763SOL    HW227189   0.047   0.953   6.357
 8764SOL     OW27190   3.542   4.931   5.909
 8764SOL    HW127191   3.599   4.905   5.987
 8764SOL    HW227192   3.531   4.853   5.847
 8765SOL     OW27193   4.302   6.618   3.624
 8765SOL    HW127194   4.301   6.697   3.564
 8765SOL    HW227195   4.333   6.646   3.715
 8766SOL     OW27196   5.179   6.953   4.902
 8766SOL    HW127197   5.124   6.920   4.979
 8766SOL    HW227198   5.220   0.016   4.925
 8767SOL     OW27199   1.519   1.804   3.563
 8767SOL    HW127200   1.547   1.791   3.468
 8767SOL    HW227201   1.598   1.795   3.623
 8768SOL     OW27202   0.192   1.952   6.966
 8768SOL    HW127203   0.106   1.962   6.916
 8768SOL    HW227204   0.240   1.871   6.933
 8769SOL     OW27205   6.221   0.064   6.231
 8769SOL    HW127206   6.247   0.157   6.259
 8769SOL    HW227207   6.124   0.050   6.250
 8770SOL     OW27208   5.081   2.164   0.256
 8770SOL    HW127209   5.128   2.224   0.192
 8770SOL    HW227210   5.074   2.209   0.345
 8771SOL     OW27211   0.613   2.890   6.518
 8771SOL    HW127212   0.630   2.989   6.516
 8771SOL    HW227213   0.625   2.856   6.611
 8772SOL     OW27214   0.331   0.347   4.131
 8772SOL    HW127215   0.274   0.399   4.068
 8772SOL    HW227216   0.273   0.298   4.196
 8773SOL     OW27217   0.287   1.224   4.102
 8773SOL    HW127218   0.337   1.310   4.116
 8773SOL    HW227219   0.195   1.233   4.140
 8774SOL     OW27220   1.167   1.841   0.138
 8774SOL    HW127221   1.178   1.744   0.162
 8774SOL    HW227222   1.243   1.870   0.080
 8775SOL     OW27223   5.047   2.516   3.402
 8775SOL    HW127224   5.018   2.438   3.458
 8775SOL    HW227225   4.976   2.538   3.336
 8776SOL     OW27226   4.517   2.744   0.907
 8776SOL    HW127227   4.419   2.728   0.917
 8776SOL    HW227228   4.543   2.828   0.956
 8777SOL     OW27229   6.817   2.033   3.852
 8777SOL    HW127230   6.836   2.113   3.795
 8777SOL    HW227231   6.902   1.987   3.875
 8778SOL     OW27232   2.975   3.918   6.472
 8778SOL    HW127233   3.067   3.922   6.510
 8778SOL    HW227234   2.975   3.956   6.379
 8779SOL     OW27235   3.972   4.856   2.857
 8779SOL    HW127236   4.038   4.805   2.802
 8779SOL    HW227237   3.951   4.942   2.811
 8780SOL     OW27238   0.883   3.876   3.737
 8780SOL    HW127239   0.890   3.793   3.792
 8780SOL    HW227240   0.970   3.893   3.691
 8781SOL     OW27241   2.622   0.657   1.086
 8781SOL    HW127242   2.683   0.697   1.154
 8781SOL    HW227243   2.544   0.718   1.072
 8782SOL     OW27244   5.950   2.600   0.869
 8782SOL    HW127245   5.982   2.557   0.785
 8782SOL    HW227246   5.891   2.537   0.919
 8783SOL     OW27247   4.961   4.333   4.736
 8783SOL    HW127248   4.936   4.253   4.791
 8783SOL    HW227249   4.973   4.305   4.641
 8784SOL     OW27250   4.396   0.726   0.029
 8784SOL    HW127251   4.323   0.659   0.043
 8784SOL    HW227252   4.373   0.785   6.976
 8785SOL     OW27253   0.102   5.445   5.204
 8785SOL    HW127254   0.101   5.539   5.240
 8785SOL    HW227255   0.195   5.423   5.174
 8786SOL     OW27256   5.821   1.599   2.879
 8786SOL    HW127257   5.745   1.572   2.819
 8786SOL    HW227258   5.903   1.549   2.852
 8787SOL     OW27259   3.282   5.996   1.590
 8787SOL    HW127260   3.381   5.999   1.598
 8787SOL    HW227261   3.256   5.998   1.494
 8788SOL     OW27262   0.354   6.763   4.633
 8788SOL    HW127263   0.275   6.741   4.691
 8788SOL    HW227264   0.370   6.688   4.569
 8789SOL     OW27265   1.360   2.153   5.893
 8789SOL    HW127266   1.270   2.194   5.881
 8789SOL    HW227267   1.353   2.073   5.952
 8790SOL     OW27268   4.556   3.045   5.433
 8790SOL    HW127269   4.516   3.130   5.468
 8790SOL    HW227270   4.635   3.067   5.376
 8791SOL     OW27271   3.925   6.505   4.380
 8791SOL    HW127272   3.942   6.476   4.286
 8791SOL    HW227273   3.840   6.464   4.413
 8792SOL     OW27274   5.393   5.183   2.207
 8792SOL    HW127275   5.421   5.093   2.242
 8792SOL    HW227276   5.375   5.244   2.283
 8793SOL     OW27277   6.940   6.195   5.240
 8793SOL    HW127278   6.848   6.164   5.218
 8793SOL    HW227279   6.980   6.242   5.161
 8794SOL     OW27280   6.933   1.623   2.697
 8794SOL    HW127281   7.008   1.676   2.658
 8794SOL    HW227282   6.857   1.619   2.632
 8795SOL     OW27283   0.876   6.444   0.044
 8795SOL    HW127284   0.933   6.374   0.001
 8795SOL    HW227285   0.872   6.525   7.009
 8796SOL     OW27286   6.029   3.796   4.498
 8796SOL    HW127287   6.106   3.840   4.453
 8796SOL    HW227288   5.954   3.785   4.433
 8797SOL     OW27289   4.612   6.915   4.143
 8797SOL    HW127290   4.699   6.884   4.105
 8797SOL    HW227291   4.574   6.844   4.202
 8798SOL     OW27292   2.733   6.205   5.468
 8798SOL    HW127293   2.736   6.282   5.405
 8798SOL    HW227294   2.740   6.119   5.417
 8799SOL     OW27295   1.497   5.813   1.692
 8799SOL    HW127296   1.442   5.733   1.669
 8799SOL    HW227297   1.594   5.791   1.684
 8800SOL     OW27298   6.062   6.154   4.511
 8800SOL    HW127299   5.978   6.191   4.550
 8800SOL    HW227300   6.066   6.055   4.527
 8801SOL     OW27301   5.639   3.458   5.743
 8801SOL    HW127302   5.607   3.367   5.718
 8801SOL    HW227303   5.649   3.513   5.660
 8802SOL     OW27304   1.809   5.791   6.100
 8802SOL    HW127305   1.767   5.760   6.015
 8802SOL    HW227306   1.864   5.716   6.139
 8803SOL     OW27307   5.960   6.185   5.716
 8803SOL    HW127308   6.051   6.144   5.707
 8803SOL    HW227309   5.928   6.175   5.810
 8804SOL     OW27310   1.267   6.086   2.192
 8804SOL    HW127311   1.218   6.152   2.134
 8804SOL    HW227312   1.340   6.044   2.139
 8805SOL     OW27313   5.094   4.975   3.452
 8805SOL    HW127314   5.088   5.058   3.397
 8805SOL    HW227315   5.002   4.946   3.479
 8806SOL     OW27316   1.191   0.452   1.648
 8806SOL    HW127317   1.153   0.519   1.711
 8806SOL    HW227318   1.291   0.455   1.651
 8807SOL     OW27319   5.529   3.231   0.610
 8807SOL    HW127320   5.476   3.194   0.686
 8807SOL    HW227321   5.614   3.271   0.644
 8808SOL     OW27322   1.873   2.315   6.420
 8808SOL    HW127323   1.969   2.320   6.393
 8808SOL    HW227324   1.866   2.268   6.508
 8809SOL     OW27325   6.840   3.547   3.229
 8809SOL    HW127326   6.937   3.549   3.207
 8809SOL    HW227327   6.824   3.597   3.315
 8810SOL     OW27328   0.525   1.777   5.144
 8810SOL    HW127329   0.461   1.757   5.070
 8810SOL    HW227330   0.476   1.822   5.218
 8811SOL     OW27331   4.341   4.631   2.658
 8811SOL    HW127332   4.406   4.558   2.681
 8811SOL    HW227333   4.324   4.631   2.560
 8812SOL     OW27334   4.964   1.017   6.846
 8812SOL    HW127335   5.035   1.084   6.824
 8812SOL    HW227336   5.006   0.932   6.878
 8813SOL     OW27337   2.114   3.350   2.896
 8813SOL    HW127338   2.138   3.441   2.931
 8813SOL    HW227339   2.052   3.359   2.818
 8814SOL     OW27340   5.096   0.062   5.318
 8814SOL    HW127341   5.186   0.057   5.276
 8814SOL    HW227342   5.048   7.001   5.305
 8815SOL     OW27343   5.434   0.992   1.378
 8815SOL    HW127344   5.366   1.022   1.311
 8815SOL    HW227345   5.494   1.069   1.399
 8816SOL     OW27346   1.205   6.821   4.214
 8816SOL    HW127347   1.225   6.796   4.308
 8816SOL    HW227348   1.160   6.745   4.167
 8817SOL     OW27349   1.152   2.751   2.985
 8817SOL    HW127350   1.149   2.797   3.074
 8817SOL    HW227351   1.206   2.667   2.992
 8818SOL     OW27352   0.899   6.661   6.020
 8818SOL    HW127353   0.881   6.630   6.114
 8818SOL    HW227354   0.912   6.581   5.962
 8819SOL     OW27355   4.436   5.667   6.322
 8819SOL    HW127356   4.495   5.714   6.388
 8819SOL    HW227357   4.479   5.581   6.295
 8820SOL     OW27358   4.529   0.045   5.611
 8820SOL    HW127359   4.459   0.116   5.620
 8820SOL    HW227360   4.569   0.050   5.519
 8821SOL     OW27361   0.508   4.504   6.028
 8821SOL    HW127362   0.457   4.477   5.946
 8821SOL    HW227363   0.566   4.583   6.006
 8822SOL     OW27364   6.076   0.223   4.975
 8822SOL    HW127365   6.074   0.278   5.059
 8822SOL    HW227366   6.142   0.149   4.985
 8823SOL     OW27367   3.984   1.971   2.765
 8823SOL    HW127368   3.913   2.028   2.805
 8823SOL    HW227369   4.056   1.956   2.833
 8824SOL     OW27370   1.710   6.741   3.347
 8824SOL    HW127371   1.672   6.788   3.427
 8824SOL    HW227372   1.803   6.711   3.367
 8825SOL     OW27373   0.312   7.013   0.411
 8825SOL    HW127374   0.339   6.968   0.326
 8825SOL    HW227375   0.333   0.086   0.405
 8826SOL     OW27376   0.168   4.690   1.181
 8826SOL    HW127377   0.139   4.723   1.091
 8826SOL    HW227378   0.117   4.607   1.204
 8827SOL     OW27379   4.270   6.818   3.257
 8827SOL    HW127380   4.245   6.912   3.278
 8827SOL    HW227381   4.343   6.816   3.188
 8828SOL     OW27382   5.023   2.423   6.300
 8828SOL    HW127383   5.075   2.480   6.236
 8828SOL    HW227384   4.928   2.418   6.271
 8829SOL     OW27385   0.206   1.031   3.075
 8829SOL    HW127386   0.115   1.070   3.087
 8829SOL    HW227387   0.208   0.977   2.990
 8830SOL     OW27388   3.319   0.521   3.750
 8830SOL    HW127389   3.410   0.503   3.713
 8830SOL    HW227390   3.253   0.460   3.706
 8831SOL     OW27391   0.285   3.172   2.562
 8831SOL    HW127392   0.266   3.198   2.468
 8831SOL    HW227393   0.217   3.214   2.623
 8832SOL     OW27394   5.525   0.585   6.071
 8832SOL    HW127395   5.492   0.504   6.120
 8832SOL    HW227396   5.450   0.622   6.015
 8833SOL     OW27397   5.181   2.292   1.173
 8833SOL    HW127398   5.219   2.329   1.088
 8833SOL    HW227399   5.096   2.243   1.154
 8834SOL     OW27400   5.469   3.961   6.202
 8834SOL    HW127401   5.440   4.034   6.141
 8834SOL    HW227402   5.535   3.996   6.268
 8835SOL     OW27403   0.005   0.854   5.193
 8835SOL    HW127404   0.003   0.852   5.293
 8835SOL    HW227405   0.068   0.783   5.160
 8836SOL     OW27406   4.718   1.891   1.229
 8836SOL    HW127407   4.753   1.980   1.259
 8836SOL    HW227408   4.650   1.858   1.294
 8837SOL     OW27409   4.727   6.252   0.577
 8837SOL    HW127410   4.656   6.193   0.615
 8837SOL    HW227411   4.749   6.324   0.643
 8838SOL     OW27412   1.885   3.310   3.627
 8838SOL    HW127413   1.984   3.314   3.613
 8838SOL    HW227414   1.845   3.243   3.565
 8839SOL     OW27415   5.033   5.655   1.554
 8839SOL    HW127416   5.117   5.600   1.554
 8839SOL    HW227417   4.991   5.650   1.645
 8840SOL     OW27418   6.201   0.941   0.893
 8840SOL    HW127419   6.139   0.891   0.832
 8840SOL    HW227420   6.294   0.936   0.856
 8841SOL     OW27421   3.249   1.516   0.558
 8841SOL    HW127422   3.305   1.555   0.631
 8841SOL    HW227423   3.188   1.447   0.597
 8842SOL     OW27424   3.395   3.485   4.309
 8842SOL    HW127425   3.422   3.440   4.225
 8842SOL    HW227426   3.323   3.432   4.354
 8843SOL     OW27427   2.423   5.500   5.446
 8843SOL    HW127428   2.430   5.440   5.525
 8843SOL    HW227429   2.513   5.541   5.427
 8844SOL     OW27430   3.379   2.483   6.355
 8844SOL    HW127431   3.443   2.517   6.287
 8844SOL    HW227432   3.398   2.523   6.444
 8845SOL     OW27433   0.881   3.473   2.119
 8845SOL    HW127434   0.792   3.448   2.083
 8845SOL    HW227435   0.934   3.390   2.138
 8846SOL     OW27436   5.616   4.642   4.494
 8846SOL    HW127437   5.674   4.582   4.549
 8846SOL    HW227438   5.595   4.725   4.547
 8847SOL     OW27439   0.847   2.325   3.830
 8847SOL    HW127440   0.816   2.354   3.920
 8847SOL    HW227441   0.894   2.237   3.838
 8848SOL     OW27442   5.719   1.771   0.546
 8848SOL    HW127443   5.683   1.700   0.485
 8848SOL    HW227444   5.667   1.856   0.533
 8849SOL     OW27445   3.591   5.074   4.617
 8849SOL    HW127446   3.529   5.009   4.574
 8849SOL    HW227447   3.668   5.025   4.659
 8850SOL     OW27448   2.796   1.672   1.299
 8850SOL    HW127449   2.813   1.601   1.232
 8850SOL    HW227450   2.735   1.741   1.260
 8851SOL     OW27451   6.909   5.100   2.707
 8851SOL    HW127452   6.810   5.088   2.714
 8851SOL    HW227453   6.930   5.149   2.622
 8852SOL     OW27454   4.666   2.306   4.392
 8852SOL    HW127455   4.625   2.397   4.384
 8852SOL    HW227456   4.597   2.242   4.427
 8853SOL     OW27457   4.654   1.802   5.671
 8853SOL    HW127458   4.725   1.849   5.618
 8853SOL    HW227459   4.696   1.733   5.730
 8854SOL     OW27460   1.468   0.976   6.425
 8854SOL    HW127461   1.478   0.883   6.388
 8854SOL    HW227462   1.415   1.032   6.361
 8855SOL     OW27463   6.674   4.761   6.714
 8855SOL    HW127464   6.719   4.736   6.800
 8855SOL    HW227465   6.660   4.860   6.712
 8856SOL     OW27466   5.249   0.777   5.384
 8856SOL    HW127467   5.219   0.683   5.366
 8856SOL    HW227468   5.187   0.819   5.450
 8857SOL     OW27469   0.640   3.118   5.029
 8857SOL    HW127470   0.719   3.108   5.090
 8857SOL    HW227471   0.562   3.070   5.068
 8858SOL     OW27472   6.679   4.005   5.583
 8858SOL    HW127473   6.714   4.098   5.587
 8858SOL    HW227474   6.751   3.941   5.611
 8859SOL     OW27475   3.174   5.755   5.339
 8859SOL    HW127476   3.079   5.760   5.370
 8859SOL    HW227477   3.202   5.844   5.301
 8860SOL     OW27478   1.319   1.814   1.257
 8860SOL    HW127479   1.255   1.742   1.230
 8860SOL    HW227480   1.412   1.785   1.236
 8861SOL     OW27481   2.418   3.032   1.384
 8861SOL    HW127482   2.386   2.942   1.414
 8861SOL    HW227483   2.402   3.041   1.285
 8862SOL     OW27484   6.602   2.274   4.941
 8862SOL    HW127485   6.601   2.373   4.924
 8862SOL    HW227486   6.686   2.234   4.905
 8863SOL     OW27487   1.126   5.471   5.281
 8863SOL    HW127488   1.106   5.558   5.237
 8863SOL    HW227489   1.205   5.429   5.237
 8864SOL     OW27490   1.264   3.600   6.246
 8864SOL    HW127491   1.320   3.679   6.271
 8864SOL    HW227492   1.278   3.526   6.312
 8865SOL     OW27493   2.317   2.103   5.589
 8865SOL    HW127494   2.327   2.079   5.493
 8865SOL    HW227495   2.403   2.085   5.637
 8866SOL     OW27496   4.912   6.780   6.008
 8866SOL    HW127497   4.871   6.690   6.022
 8866SOL    HW227498   4.890   6.812   5.916
 8867SOL     OW27499   6.651   1.605   3.747
 8867SOL    HW127500   6.572   1.616   3.806
 8867SOL    HW227501   6.681   1.694   3.713
 8868SOL     OW27502   4.860   3.422   1.216
 8868SOL    HW127503   4.947   3.404   1.262
 8868SOL    HW227504   4.786   3.423   1.284
 8869SOL     OW27505   4.703   2.608   3.760
 8869SOL    HW127506   4.763   2.678   3.722
 8869SOL    HW227507   4.729   2.518   3.725
 8870SOL     OW27508   4.542   1.150   1.671
 8870SOL    HW127509   4.444   1.156   1.650
 8870SOL    HW227510   4.554   1.114   1.764
 8871SOL     OW27511   1.062   2.494   4.686
 8871SOL    HW127512   0.966   2.512   4.709
 8871SOL    HW227513   1.107   2.579   4.659
 8872SOL     OW27514   2.119   3.078   2.926
 8872SOL    HW127515   2.122   3.173   2.896
 8872SOL    HW227516   2.069   3.071   3.012
 8873SOL     OW27517   6.987   6.161   4.972
 8873SOL    HW127518   6.941   6.162   4.883
 8873SOL    HW227519   0.060   6.155   4.959
 8874SOL     OW27520   0.880   1.298   6.854
 8874SOL    HW127521   0.860   1.354   6.773
 8874SOL    HW227522   0.820   1.327   6.930
 8875SOL     OW27523   1.924   1.107   3.906
 8875SOL    HW127524   1.983   1.112   3.987
 8875SOL    HW227525   1.885   1.198   3.888
 8876SOL     OW27526   2.569   0.973   4.906
 8876SOL    HW127527   2.602   0.980   5.000
 8876SOL    HW227528   2.542   1.064   4.873
 8877SOL     OW27529   2.922   6.268   4.682
 8877SOL    HW127530   2.867   6.331   4.627
 8877SOL    HW227531   3.017   6.269   4.650
 8878SOL     OW27532   5.518   4.406   5.490
 8878SOL    HW127533   5.559   4.496   5.476
 8878SOL    HW227534   5.544   4.345   5.415
 8879SOL     OW27535   4.399   5.917   4.875
 8879SOL    HW127536   4.329   5.868   4.926
 8879SOL    HW227537   4.362   5.947   4.787
 8880SOL     OW27538   6.692   5.767   5.831
 8880SOL    HW127539   6.716   5.671   5.839
 8880SOL    HW227540   6.775   5.822   5.821
 8881SOL     OW27541   0.081   0.232   1.586
 8881SOL    HW127542   0.051   0.243   1.680
 8881SOL    HW227543   0.168   0.183   1.583
 8882SOL     OW27544   5.284   2.019   6.369
 8882SOL    HW127545   5.253   1.937   6.418
 8882SOL    HW227546   5.204   2.077   6.348
 8883SOL     OW27547   0.140   1.317   5.327
 8883SOL    HW127548   0.086   1.287   5.407
 8883SOL    HW227549   0.084   1.378   5.271
 8884SOL     OW27550   6.685   0.885   5.434
 8884SOL    HW127551   6.713   0.975   5.401
 8884SOL    HW227552   6.728   0.866   5.522
 8885SOL     OW27553   5.422   3.700   1.279
 8885SOL    HW127554   5.366   3.756   1.341
 8885SOL    HW227555   5.480   3.639   1.333
 8886SOL     OW27556   2.976   6.026   6.291
 8886SOL    HW127557   2.918   5.965   6.345
 8886SOL    HW227558   2.919   6.085   6.234
 8887SOL     OW27559   1.887   0.117   0.832
 8887SOL    HW127560   1.842   0.200   0.799
 8887SOL    HW227561   1.975   0.106   0.786
 8888SOL     OW27562   3.740   1.982   3.508
 8888SOL    HW127563   3.665   1.969   3.573
 8888SOL    HW227564   3.781   2.072   3.521
 8889SOL     OW27565   3.283   6.662   4.858
 8889SOL    HW127566   3.270   6.626   4.766
 8889SOL    HW227567   3.272   6.588   4.925
 8890SOL     OW27568   1.125   4.229   3.875
 8890SOL    HW127569   1.125   4.193   3.782
 8890SOL    HW227570   1.218   4.227   3.912
 8891SOL     OW27571   2.574   1.801   6.527
 8891SOL    HW127572   2.552   1.898   6.526
 8891SOL    HW227573   2.665   1.788   6.566
 8892SOL     OW27574   1.245   6.748   2.531
 8892SOL    HW127575   1.299   6.668   2.558
 8892SOL    HW227576   1.307   6.824   2.509
 8893SOL     OW27577   0.207   1.120   1.248
 8893SOL    HW127578   0.265   1.039   1.249
 8893SOL    HW227579   0.253   1.193   1.198
 8894SOL     OW27580   3.938   2.695   6.500
 8894SOL    HW127581   3.840   2.685   6.482
 8894SOL    HW227582   3.952   2.738   6.589
 8895SOL     OW27583   1.306   0.969   2.088
 8895SOL    HW127584   1.238   0.952   2.159
 8895SOL    HW227585   1.348   0.883   2.060
 8896SOL     OW27586   2.336   4.291   4.795
 8896SOL    HW127587   2.388   4.213   4.831
 8896SOL    HW227588   2.302   4.346   4.871
 8897SOL     OW27589   1.322   2.037   1.070
 8897SOL    HW127590   1.320   1.947   1.113
 8897SOL    HW227591   1.240   2.088   1.096
 8898SOL     OW27592   6.702   3.063   4.655
 8898SOL    HW127593   6.781   3.076   4.715
 8898SOL    HW227594   6.636   3.137   4.671
 8899SOL     OW27595   3.098   4.570   0.523
 8899SOL    HW127596   3.163   4.505   0.484
 8899SOL    HW227597   3.126   4.594   0.616
 8900SOL     OW27598   6.460   1.728   3.297
 8900SOL    HW127599   6.501   1.643   3.330
 8900SOL    HW227600   6.520   1.769   3.227
 8901SOL     OW27601   2.129   6.921   1.690
 8901SOL    HW127602   2.090   7.009   1.662
 8901SOL    HW227603   2.071   6.846   1.657
 8902SOL     OW27604   3.210   5.497   5.420
 8902SOL    HW127605   3.228   5.587   5.379
 8902SOL    HW227606   3.134   5.504   5.484
 8903SOL     OW27607   0.755   1.328   3.932
 8903SOL    HW127608   0.671   1.288   3.896
 8903SOL    HW227609   0.828   1.260   3.931
 8904SOL     OW27610   1.259   5.517   3.314
 8904SOL    HW127611   1.241   5.428   3.355
 8904SOL    HW227612   1.344   5.512   3.261
 8905SOL     OW27613   2.234   4.232   5.226
 8905SOL    HW127614   2.240   4.311   5.164
 8905SOL    HW227615   2.263   4.150   5.177
 8906SOL     OW27616   1.584   5.015   4.748
 8906SOL    HW127617   1.559   4.919   4.762
 8906SOL    HW227618   1.683   5.023   4.747
 8907SOL     OW27619   3.986   2.656   5.542
 8907SOL    HW127620   4.023   2.742   5.579
 8907SOL    HW227621   3.890   2.647   5.569
 8908SOL     OW27622   0.326   2.660   2.247
 8908SOL    HW127623   0.245   2.705   2.284
 8908SOL    HW227624   0.328   2.670   2.148
 8909SOL     OW27625   2.535   6.760   5.422
 8909SOL    HW127626   2.626   6.721   5.411
 8909SOL    HW227627   2.469   6.687   5.439
 8910SOL     OW27628   3.687   3.015   6.420
 8910SOL    HW127629   3.689   2.977   6.328
 8910SOL    HW227630   3.690   3.115   6.414
 8911SOL     OW27631   4.783   2.314   3.689
 8911SOL    HW127632   4.880   2.327   3.672
 8911SOL    HW227633   4.770   2.235   3.749
 8912SOL     OW27634   5.089   1.809   6.309
 8912SOL    HW127635   5.058   1.726   6.262
 8912SOL    HW227636   5.075   1.888   6.249
 8913SOL     OW27637   4.805   4.084   0.871
 8913SOL    HW127638   4.739   4.081   0.946
 8913SOL    HW227639   4.897   4.072   0.907
 8914SOL     OW27640   4.627   1.703   3.230
 8914SOL    HW127641   4.725   1.695   3.250
 8914SOL    HW227642   4.594   1.793   3.258
 8915SOL     OW27643   0.913   5.348   1.723
 8915SOL    HW127644   0.921   5.251   1.700
 8915SOL    HW227645   0.845   5.360   1.794
 8916SOL     OW27646   6.285   3.651   1.919
 8916SOL    HW127647   6.377   3.650   1.959
 8916SOL    HW227648   6.250   3.558   1.914
 8917SOL     OW27649   5.502   5.594   5.978
 8917SOL    HW127650   5.514   5.508   5.927
 8917SOL    HW227651   5.546   5.585   6.067
 8918SOL     OW27652   5.111   4.366   6.116
 8918SOL    HW127653   5.082   4.435   6.182
 8918SOL    HW227654   5.045   4.291   6.114
 8919SOL     OW27655   2.550   3.846   1.297
 8919SOL    HW127656   2.499   3.789   1.234
 8919SOL    HW227657   2.517   3.941   1.291
 8920SOL     OW27658   6.181   5.182   5.262
 8920SOL    HW127659   6.119   5.169   5.185
 8920SOL    HW227660   6.162   5.112   5.332
 8921SOL     OW27661   1.162   5.694   3.510
 8921SOL    HW127662   1.190   5.631   3.438
 8921SOL    HW227663   1.078   5.741   3.483
 8922SOL     OW27664   6.485   4.219   0.168
 8922SOL    HW127665   6.461   4.244   0.262
 8922SOL    HW227666   6.558   4.151   0.169
 8923SOL     OW27667   2.218   4.196   4.578
 8923SOL    HW127668   2.256   4.229   4.665
 8923SOL    HW227669   2.118   4.196   4.584
 8924SOL     OW27670   2.962   5.648   5.140
 8924SOL    HW127671   2.865   5.626   5.139
 8924SOL    HW227672   2.993   5.666   5.047
 8925SOL     OW27673   5.371   6.752   1.295
 8925SOL    HW127674   5.354   6.774   1.391
 8925SOL    HW227675   5.402   6.657   1.288
 8926SOL     OW27676   5.087   1.183   0.165
 8926SOL    HW127677   5.002   1.131   0.175
 8926SOL    HW227678   5.132   1.156   0.080
 8927SOL     OW27679   2.529   1.478   4.219
 8927SOL    HW127680   2.568   1.502   4.130
 8927SOL    HW227681   2.522   1.378   4.226
 8928SOL     OW27682   1.181   6.952   4.602
 8928SOL    HW127683   1.212   6.890   4.530
 8928SOL    HW227684   1.125   7.024   4.562
 8929SOL     OW27685   5.166   4.499   4.275
 8929SOL    HW127686   5.216   4.490   4.189
 8929SOL    HW227687   5.200   4.579   4.325
 8930SOL     OW27688   1.317   5.213   5.202
 8930SOL    HW127689   1.241   5.157   5.233
 8930SOL    HW227690   1.364   5.167   5.127
 8931SOL     OW27691   5.347   1.157   1.672
 8931SOL    HW127692   5.276   1.090   1.652
 8931SOL    HW227693   5.358   1.165   1.771
 8932SOL     OW27694   6.742   0.549   0.089
 8932SOL    HW127695   6.773   0.526   0.181
 8932SOL    HW227696   6.813   0.600   0.040
 8933SOL     OW27697   1.467   0.357   5.626
 8933SOL    HW127698   1.484   0.317   5.716
 8933SOL    HW227699   1.550   0.353   5.571
 8934SOL     OW27700   4.744   6.714   3.174
 8934SOL    HW127701   4.754   6.617   3.150
 8934SOL    HW227702   4.823   6.743   3.228
 8935SOL     OW27703   5.934   2.160   2.485
 8935SOL    HW127704   5.879   2.121   2.411
 8935SOL    HW227705   5.889   2.241   2.521
 8936SOL     OW27706   1.807   3.650   3.055
 8936SOL    HW127707   1.799   3.594   3.138
 8936SOL    HW227708   1.880   3.613   2.997
 8937SOL     OW27709   4.124   0.301   5.434
 8937SOL    HW127710   4.035   0.261   5.456
 8937SOL    HW227711   4.184   0.232   5.395
 8938SOL     OW27712   5.793   6.680   2.144
 8938SOL    HW127713   5.763   6.619   2.071
 8938SOL    HW227714   5.882   6.649   2.178
 8939SOL     OW27715   0.398   2.351   4.451
 8939SOL    HW127716   0.445   2.434   4.482
 8939SOL    HW227717   0.306   2.375   4.420
 8940SOL     OW27718   6.286   3.002   1.931
 8940SOL    HW127719   6.333   3.067   1.991
 8940SOL    HW227720   6.298   2.909   1.967
 8941SOL     OW27721   5.185   1.892   2.916
 8941SOL    HW127722   5.271   1.942   2.927
 8941SOL    HW227723   5.117   1.929   2.980
 8942SOL     OW27724   4.950   4.415   4.134
 8942SOL    HW127725   4.917   4.479   4.064
 8942SOL    HW227726   5.023   4.459   4.187
 8943SOL     OW27727   4.248   2.780   0.890
 8943SOL    HW127728   4.173   2.715   0.907
 8943SOL    HW227729   4.243   2.812   0.795
 8944SOL     OW27730   4.832   5.588   5.183
 8944SOL    HW127731   4.888   5.608   5.103
 8944SOL    HW227732   4.766   5.662   5.197
 8945SOL     OW27733   5.917   3.809   2.653
 8945SOL    HW127734   5.895   3.906   2.640
 8945SOL    HW227735   5.840   3.753   2.623
 8946SOL     OW27736   4.415   0.970   5.330
 8946SOL    HW127737   4.407   0.916   5.414
 8946SOL    HW227738   4.440   0.909   5.255
 8947SOL     OW27739   1.867   4.443   0.000
 8947SOL    HW127740   1.897   4.406   6.938
 8947SOL    HW227741   1.891   4.539   0.006
 8948SOL     OW27742   5.661   0.846   2.500
 8948SOL    HW127743   5.698   0.810   2.586
 8948SOL    HW227744   5.702   0.935   2.481
 8949SOL     OW27745   3.869   6.230   0.700
 8949SOL    HW127746   3.921   6.215   0.616
 8949SOL    HW227747   3.923   6.286   0.763
 8950SOL     OW27748   3.554   3.629   2.275
 8950SOL    HW127749   3.480   3.619   2.341
 8950SOL    HW227750   3.642   3.619   2.322
 8951SOL     OW27751   1.459   0.235   4.698
 8951SOL    HW127752   1.554   0.247   4.727
 8951SOL    HW227753   1.414   0.171   4.760
 8952SOL     OW27754   1.374   4.360   4.333
 8952SOL    HW127755   1.328   4.355   4.422
 8952SOL    HW227756   1.393   4.456   4.310
 8953SOL     OW27757   0.591   4.809   1.352
 8953SOL    HW127758   0.682   4.769   1.348
 8953SOL    HW227759   0.576   4.852   1.441
 8954SOL     OW27760   2.362   4.335   5.437
 8954SOL    HW127761   2.328   4.305   5.348
 8954SOL    HW227762   2.360   4.435   5.442
 8955SOL     OW27763   5.511   2.933   5.107
 8955SOL    HW127764   5.516   2.926   5.206
 8955SOL    HW227765   5.580   2.996   5.074
 8956SOL     OW27766   0.544   5.723   1.078
 8956SOL    HW127767   0.490   5.644   1.107
 8956SOL    HW227768   0.629   5.725   1.129
 8957SOL     OW27769   1.300   5.926   2.804
 8957SOL    HW127770   1.307   5.859   2.730
 8957SOL    HW227771   1.366   6.000   2.789
 8958SOL     OW27772   0.975   4.186   4.749
 8958SOL    HW127773   0.900   4.124   4.772
 8958SOL    HW227774   1.047   4.135   4.702
 8959SOL     OW27775   5.750   2.173   3.871
 8959SOL    HW127776   5.801   2.090   3.848
 8959SOL    HW227777   5.689   2.197   3.795
 8960SOL     OW27778   4.911   5.107   3.112
 8960SOL    HW127779   4.983   5.154   3.164
 8960SOL    HW227780   4.925   5.123   3.014
 8961SOL     OW27781   2.714   1.863   4.718
 8961SOL    HW127782   2.680   1.832   4.806
 8961SOL    HW227783   2.804   1.823   4.701
 8962SOL     OW27784   6.274   5.631   2.211
 8962SOL    HW127785   6.241   5.664   2.300
 8962SOL    HW227786   6.199   5.632   2.145
 8963SOL     OW27787   2.998   6.579   6.356
 8963SOL    HW127788   3.034   6.487   6.376
 8963SOL    HW227789   2.963   6.620   6.441
 8964SOL     OW27790   2.033   3.379   4.059
 8964SOL    HW127791   2.074   3.333   3.980
 8964SOL    HW227792   2.052   3.326   4.142
 8965SOL     OW27793   3.602   5.161   0.211
 8965SOL    HW127794   3.622   5.101   0.134
 8965SOL    HW227795   3.518   5.211   0.193
 8966SOL     OW27796   5.353   0.091   5.198
 8966SOL    HW127797   5.348   0.124   5.104
 8966SOL    HW227798   5.402   0.158   5.254
 8967SOL     OW27799   3.120   0.201   3.432
 8967SOL    HW127800   3.165   0.252   3.505
 8967SOL    HW227801   3.171   0.116   3.414
 8968SOL     OW27802   3.807   4.915   2.109
 8968SOL    HW127803   3.746   4.861   2.051
 8968SOL    HW227804   3.758   4.943   2.191
 8969SOL     OW27805   0.367   0.607   3.011
 8969SOL    HW127806   0.434   0.670   3.051
 8969SOL    HW227807   0.322   0.651   2.934
 8970SOL     OW27808   2.003   1.178   3.273
 8970SOL    HW127809   1.947   1.096   3.258
 8970SOL    HW227810   2.078   1.157   3.335
 8971SOL     OW27811   2.796   4.220   1.000
 8971SOL    HW127812   2.820   4.124   1.014
 8971SOL    HW227813   2.801   4.242   0.902
 8972SOL     OW27814   5.218   4.219   6.786
 8972SOL    HW127815   5.151   4.293   6.785
 8972SOL    HW227816   5.269   4.219   6.700
 8973SOL     OW27817   2.311   2.433   3.389
 8973SOL    HW127818   2.383   2.424   3.458
 8973SOL    HW227819   2.260   2.518   3.404
 8974SOL     OW27820   1.820   4.365   3.819
 8974SOL    HW127821   1.828   4.451   3.870
 8974SOL    HW227822   1.867   4.292   3.869
 8975SOL     OW27823   6.694   4.764   6.057
 8975SOL    HW127824   6.678   4.679   6.106
 8975SOL    HW227825   6.786   4.763   6.018
 8976SOL     OW27826   6.033   7.014   2.119
 8976SOL    HW127827   6.062   0.084   2.126
 8976SOL    HW227828   6.012   6.979   2.211
 8977SOL     OW27829   6.229   4.398   6.755
 8977SOL    HW127830   6.268   4.307   6.771
 8977SOL    HW227831   6.273   4.440   6.675
 8978SOL     OW27832   6.118   5.639   6.569
 8978SOL    HW127833   6.146   5.718   6.515
 8978SOL    HW227834   6.164   5.557   6.534
 8979SOL     OW27835   1.634   4.942   3.624
 8979SOL    HW127836   1.638   4.920   3.526
 8979SOL    HW227837   1.655   4.860   3.677
 8980SOL     OW27838   3.687   0.506   0.316
 8980SOL    HW127839   3.782   0.520   0.345
 8980SOL    HW227840   3.626   0.538   0.388
 8981SOL     OW27841   4.223   2.837   6.612
 8981SOL    HW127842   4.142   2.858   6.558
 8981SOL    HW227843   4.210   2.869   6.706
 8982SOL     OW27844   0.212   1.477   1.699
 8982SOL    HW127845   0.170   1.459   1.610
 8982SOL    HW227846   0.228   1.390   1.746
 8983SOL     OW27847   1.646   6.598   1.899
 8983SOL    HW127848   1.725   6.559   1.946
 8983SOL    HW227849   1.659   6.697   1.889
 8984SOL     OW27850   0.039   1.611   5.017
 8984SOL    HW127851   7.006   1.581   4.941
 8984SOL    HW227852   0.108   1.541   5.035
 8985SOL     OW27853   5.135   1.509   2.410
 8985SOL    HW127854   5.148   1.498   2.509
 8985SOL    HW227855   5.079   1.590   2.392
 8986SOL     OW27856   6.722   5.137   0.670
 8986SOL    HW127857   6.815   5.157   0.640
 8986SOL    HW227858   6.686   5.216   0.721
 8987SOL     OW27859   2.162   0.090   1.393
 8987SOL    HW127860   2.102   0.147   1.337
 8987SOL    HW227861   2.142   7.019   1.377
 8988SOL     OW27862   2.897   0.038   1.169
 8988SOL    HW127863   2.972   7.016   1.216
 8988SOL    HW227864   2.901   0.019   1.071
 8989SOL     OW27865   5.779   1.767   2.135
 8989SOL    HW127866   5.831   1.720   2.064
 8989SOL    HW227867   5.682   1.766   2.112
 8990SOL     OW27868   3.433   0.727   2.883
 8990SOL    HW127869   3.466   0.633   2.892
 8990SOL    HW227870   3.470   0.783   2.957
 8991SOL     OW27871   1.106   2.637   0.538
 8991SOL    HW127872   1.120   2.708   0.607
 8991SOL    HW227873   1.191   2.624   0.486
 8992SOL     OW27874   6.166   4.228   6.342
 8992SOL    HW127875   6.103   4.292   6.386
 8992SOL    HW227876   6.222   4.278   6.275
 8993SOL     OW27877   5.375   4.367   5.110
 8993SOL    HW127878   5.319   4.296   5.068
 8993SOL    HW227879   5.318   4.421   5.173
 8994SOL     OW27880   1.542   6.160   2.543
 8994SOL    HW127881   1.588   6.116   2.621
 8994SOL    HW227882   1.500   6.091   2.485
 8995SOL     OW27883   1.916   3.856   4.502
 8995SOL    HW127884   1.924   3.871   4.601
 8995SOL    HW227885   1.888   3.761   4.486
 8996SOL     OW27886   1.733   3.775   1.353
 8996SOL    HW127887   1.831   3.766   1.337
 8996SOL    HW227888   1.688   3.808   1.270
 8997SOL     OW27889   4.248   0.968   5.672
 8997SOL    HW127890   4.215   0.877   5.646
 8997SOL    HW227891   4.334   0.960   5.721
 8998SOL     OW27892   0.896   1.561   6.378
 8998SOL    HW127893   0.797   1.573   6.373
 8998SOL    HW227894   0.935   1.565   6.286
 8999SOL     OW27895   5.095   2.171   5.114
 8999SOL    HW127896   5.113   2.076   5.086
 8999SOL    HW227897   5.153   2.233   5.062
 9000SOL     OW27898   2.990   4.957   0.709
 9000SOL    HW127899   3.021   4.889   0.776
 9000SOL    HW227900   2.970   5.042   0.756
 9001SOL     OW27901   2.016   4.194   3.453
 9001SOL    HW127902   2.102   4.145   3.460
 9001SOL    HW227903   2.004   4.228   3.360
 9002SOL     OW27904   5.433   4.004   5.380
 9002SOL    HW127905   5.367   3.931   5.398
 9002SOL    HW227906   5.524   3.974   5.408
 9003SOL     OW27907   6.241   2.883   6.546
 9003SOL    HW127908   6.200   2.862   6.457
 9003SOL    HW227909   6.312   2.952   6.535
 9004SOL     OW27910   5.003   5.126   0.740
 9004SOL    HW127911   5.006   5.226   0.735
 9004SOL    HW227912   4.928   5.092   0.684
 9005SOL     OW27913   4.765   2.642   3.418
 9005SOL    HW127914   4.788   2.707   3.491
 9005SOL    HW227915   4.767   2.689   3.330
 9006SOL     OW27916   2.155   7.023   0.807
 9006SOL    HW127917   2.129   6.927   0.819
 9006SOL    HW227918   2.251   0.010   0.832
 9007SOL     OW27919   2.355   6.384   4.752
 9007SOL    HW127920   2.452   6.365   4.737
 9007SOL    HW227921   2.329   6.352   4.843
 9008SOL     OW27922   0.294   4.115   2.442
 9008SOL    HW127923   0.224   4.177   2.407
 9008SOL    HW227924   0.288   4.027   2.394
 9009SOL     OW27925   4.418   6.548   0.427
 9009SOL    HW127926   4.470   6.474   0.385
 9009SOL    HW227927   4.397   6.524   0.522
 9010SOL     OW27928   0.359   5.338   5.106
 9010SOL    HW127929   0.457   5.331   5.122
 9010SOL    HW227930   0.342   5.338   5.007
 9011SOL     OW27931   4.480   2.097   2.683
 9011SOL    HW127932   4.434   2.009   2.692
 9011SOL    HW227933   4.413   2.171   2.689
 9012SOL     OW27934   5.291   5.530   2.196
 9012SOL    HW127935   5.314   5.493   2.286
 9012SOL    HW227936   5.318   5.466   2.125
 9013SOL     OW27937   4.123   6.501   2.178
 9013SOL    HW127938   4.087   6.495   2.085
 9013SOL    HW227939   4.197   6.568   2.180
 9014SOL     OW27940   2.335   0.555   1.036
 9014SOL    HW127941   2.333   0.609   1.119
 9014SOL    HW227942   2.351   0.615   0.957
 9015SOL     OW27943   6.179   1.233   4.921
 9015SOL    HW127944   6.112   1.207   4.851
 9015SOL    HW227945   6.169   1.173   5.000
 9016SOL     OW27946   6.823   5.559   6.381
 9016SOL    HW127947   6.846   5.631   6.446
 9016SOL    HW227948   6.808   5.598   6.290
 9017SOL     OW27949   0.097   4.033   3.052
 9017SOL    HW127950   0.118   3.944   3.013
 9017SOL    HW227951   0.148   4.045   3.137
 9018SOL     OW27952   3.985   1.773   6.337
 9018SOL    HW127953   3.997   1.680   6.301
 9018SOL    HW227954   4.072   1.822   6.329
 9019SOL     OW27955   1.245   5.435   0.423
 9019SOL    HW127956   1.157   5.426   0.470
 9019SOL    HW227957   1.277   5.529   0.429
 9020SOL     OW27958   0.713   4.952   3.253
 9020SOL    HW127959   0.674   5.018   3.317
 9020SOL    HW227960   0.810   4.972   3.239
 9021SOL     OW27961   6.205   5.803   5.276
 9021SOL    HW127962   6.140   5.838   5.343
 9021SOL    HW227963   6.215   5.705   5.287
 9022SOL     OW27964   2.966   6.838   6.521
 9022SOL    HW127965   2.939   6.765   6.583
 9022SOL    HW227966   3.057   6.872   6.547
 9023SOL     OW27967   3.552   3.133   3.474
 9023SOL    HW127968   3.639   3.087   3.496
 9023SOL    HW227969   3.494   3.134   3.555
 9024SOL     OW27970   0.749   0.365   6.778
 9024SOL    HW127971   0.751   0.266   6.789
 9024SOL    HW227972   0.791   0.390   6.690
 9025SOL     OW27973   0.020   3.990   0.289
 9025SOL    HW127974   0.033   3.901   0.332
 9025SOL    HW227975   6.962   4.033   0.323
 9026SOL     OW27976   3.098   3.393   5.717
 9026SOL    HW127977   3.066   3.471   5.770
 9026SOL    HW227978   3.047   3.387   5.631
 9027SOL     OW27979   2.410   2.655   2.975
 9027SOL    HW127980   2.492   2.645   3.031
 9027SOL    HW227981   2.416   2.594   2.896
 9028SOL     OW27982   2.732   4.699   4.610
 9028SOL    HW127983   2.665   4.641   4.657
 9028SOL    HW227984   2.689   4.740   4.529
 9029SOL     OW27985   5.722   5.364   3.012
 9029SOL    HW127986   5.774   5.357   2.926
 9029SOL    HW227987   5.771   5.422   3.076
 9030SOL     OW27988   3.611   1.617   2.270
 9030SOL    HW127989   3.646   1.523   2.261
 9030SOL    HW227990   3.599   1.656   2.178
 9031SOL     OW27991   1.054   1.507   0.968
 9031SOL    HW127992   1.057   1.446   1.047
 9031SOL    HW227993   1.083   1.599   0.994
 9032SOL     OW27994   1.026   2.810   2.187
 9032SOL    HW127995   1.007   2.714   2.208
 9032SOL    HW227996   1.051   2.858   2.271
 9033SOL     OW27997   1.304   3.946   1.742
 9033SOL    HW127998   1.299   3.856   1.785
 9033SOL    HW227999   1.294   4.018   1.811
 9034SOL     OW28000   1.425   6.690   6.862
 9034SOL    HW128001   1.441   6.767   6.924
 9034SOL    HW228002   1.340   6.644   6.888
 9035SOL     OW28003   0.080   0.665   4.274
 9035SOL    HW128004   0.096   0.568   4.254
 9035SOL    HW228005   0.160   0.718   4.247
 9036SOL     OW28006   1.524   1.519   4.381
 9036SOL    HW128007   1.489   1.448   4.320
 9036SOL    HW228008   1.447   1.568   4.423
 9037SOL     OW28009   2.436   3.952   5.896
 9037SOL    HW128010   2.357   3.965   5.957
 9037SOL    HW228011   2.404   3.946   5.802
 9038SOL     OW28012   4.894   6.620   5.465
 9038SOL    HW128013   4.980   6.600   5.418
 9038SOL    HW228014   4.821   6.561   5.429
 9039SOL     OW28015   2.454   4.675   6.596
 9039SOL    HW128016   2.447   4.751   6.531
 9039SOL    HW228017   2.546   4.636   6.592
 9040SOL     OW28018   2.601   2.065   2.191
 9040SOL    HW128019   2.604   2.154   2.236
 9040SOL    HW228020   2.676   2.058   2.125
 9041SOL     OW28021   1.723   3.140   6.278
 9041SOL    HW128022   1.702   3.173   6.370
 9041SOL    HW228023   1.654   3.072   6.250
 9042SOL     OW28024   2.554   4.998   3.649
 9042SOL    HW128025   2.471   4.994   3.703
 9042SOL    HW228026   2.605   4.913   3.658
 9043SOL     OW28027   6.604   2.872   0.950
 9043SOL    HW128028   6.582   2.969   0.945
 9043SOL    HW228029   6.524   2.821   0.982
 9044SOL     OW28030   6.815   4.480   0.783
 9044SOL    HW128031   6.758   4.434   0.715
 9044SOL    HW228032   6.837   4.416   0.857
 9045SOL     OW28033   2.856   5.363   4.161
 9045SOL    HW128034   2.864   5.389   4.257
 9045SOL    HW228035   2.850   5.445   4.105
 9046SOL     OW28036   3.775   4.405   5.637
 9046SOL    HW128037   3.722   4.334   5.682
 9046SOL    HW228038   3.768   4.395   5.538
 9047SOL     OW28039   1.151   4.624   4.988
 9047SOL    HW128040   1.127   4.527   4.988
 9047SOL    HW228041   1.227   4.639   5.052
 9048SOL     OW28042   2.044   2.124   4.556
 9048SOL    HW128043   1.956   2.160   4.525
 9048SOL    HW228044   2.063   2.157   4.649
 9049SOL     OW28045   4.824   6.347   6.618
 9049SOL    HW128046   4.908   6.384   6.580
 9049SOL    HW228047   4.824   6.359   6.717
 9050SOL     OW28048   0.514   5.268   5.448
 9050SOL    HW128049   0.444   5.216   5.400
 9050SOL    HW228050   0.587   5.293   5.384
 9051SOL     OW28051   5.387   6.537   5.733
 9051SOL    HW128052   5.429   6.628   5.734
 9051SOL    HW228053   5.289   6.546   5.716
 9052SOL     OW28054   2.407   5.111   4.982
 9052SOL    HW128055   2.506   5.112   4.994
 9052SOL    HW228056   2.362   5.093   5.070
 9053SOL     OW28057   3.123   1.883   3.555
 9053SOL    HW128058   3.179   1.822   3.498
 9053SOL    HW228059   3.174   1.965   3.577
 9054SOL     OW28060   2.712   6.985   0.834
 9054SOL    HW128061   2.646   0.036   0.835
 9054SOL    HW228062   2.803   7.020   0.858
 9055SOL     OW28063   0.601   2.012   4.889
 9055SOL    HW128064   0.659   2.020   4.808
 9055SOL    HW228065   0.658   2.005   4.971
 9056SOL     OW28066   4.407   2.505   2.521
 9056SOL    HW128067   4.416   2.539   2.428
 9056SOL    HW228068   4.459   2.564   2.583
 9057SOL     OW28069   4.354   6.284   0.253
 9057SOL    HW128070   4.449   6.313   0.270
 9057SOL    HW228071   4.306   6.275   0.339
 9058SOL     OW28072   1.911   2.666   4.211
 9058SOL    HW128073   1.846   2.727   4.256
 9058SOL    HW228074   1.875   2.640   4.121
 9059SOL     OW28075   0.424   1.087   2.461
 9059SOL    HW128076   0.524   1.078   2.454
 9059SOL    HW228077   0.388   1.122   2.374
 9060SOL     OW28078   0.633   5.356   1.577
 9060SOL    HW128079   0.533   5.359   1.576
 9060SOL    HW228080   0.667   5.429   1.637
 9061SOL     OW28081   5.027   4.319   2.635
 9061SOL    HW128082   4.947   4.270   2.602
 9061SOL    HW228083   4.999   4.393   2.695
 9062SOL     OW28084   0.836   5.359   2.787
 9062SOL    HW128085   0.810   5.391   2.878
 9062SOL    HW228086   0.928   5.320   2.790
 9063SOL     OW28087   4.540   1.733   2.029
 9063SOL    HW128088   4.593   1.762   2.109
 9063SOL    HW228089   4.601   1.726   1.950
 9064SOL     OW28090   0.748   5.519   3.119
 9064SOL    HW128091   0.739   5.604   3.067
 9064SOL    HW228092   0.667   5.462   3.105
 9065SOL     OW28093   3.151   4.318   6.245
 9065SOL    HW128094   3.182   4.324   6.150
 9065SOL    HW228095   3.129   4.409   6.279
 9066SOL     OW28096   4.875   5.139   4.347
 9066SOL    HW128097   4.886   5.065   4.413
 9066SOL    HW228098   4.941   5.129   4.273
 9067SOL     OW28099   1.284   6.302   4.678
 9067SOL    HW128100   1.355   6.233   4.669
 9067SOL    HW228101   1.295   6.349   4.766
 9068SOL     OW28102   3.938   0.469   6.058
 9068SOL    HW128103   4.033   0.439   6.048
 9068SOL    HW228104   3.876   0.398   6.025
 9069SOL     OW28105   4.826   2.759   1.376
 9069SOL    HW128106   4.922   2.748   1.353
 9069SOL    HW228107   4.799   2.854   1.362
 9070SOL     OW28108   2.069   1.347   5.457
 9070SOL    HW128109   2.020   1.426   5.494
 9070SOL    HW228110   2.051   1.267   5.513
 9071SOL     OW28111   5.683   2.661   6.719
 9071SOL    HW128112   5.743   2.591   6.680
 9071SOL    HW228113   5.599   2.667   6.665
 9072SOL     OW28114   5.697   0.250   2.258
 9072SOL    HW128115   5.707   0.345   2.227
 9072SOL    HW228116   5.721   0.188   2.183
 9073SOL     OW28117   4.674   2.913   5.216
 9073SOL    HW128118   4.635   2.884   5.129
 9073SOL    HW228119   4.630   2.863   5.290
 9074SOL     OW28120   1.988   0.971   2.631
 9074SOL    HW128121   1.999   0.886   2.579
 9074SOL    HW228122   1.891   0.997   2.631
 9075SOL     OW28123   5.824   5.744   0.864
 9075SOL    HW128124   5.791   5.764   0.956
 9075SOL    HW228125   5.917   5.709   0.870
 9076SOL     OW28126   0.470   6.853   2.213
 9076SOL    HW128127   0.548   6.824   2.268
 9076SOL    HW228128   0.465   6.953   2.213
 9077SOL     OW28129   6.445   1.780   0.016
 9077SOL    HW128130   6.464   1.771   6.944
 9077SOL    HW228131   6.354   1.819   0.029
 9078SOL     OW28132   5.415   0.201   0.000
 9078SOL    HW128133   5.394   0.276   6.964
 9078SOL    HW228134   5.441   0.237   0.090
 9079SOL     OW28135   1.079   1.325   6.368
 9079SOL    HW128136   1.052   1.414   6.331
 9079SOL    HW228137   1.006   1.258   6.353
 9080SOL     OW28138   6.124   3.803   2.342
 9080SOL    HW128139   6.112   3.795   2.441
 9080SOL    HW228140   6.161   3.893   2.319
 9081SOL     OW28141   5.107   1.688   0.271
 9081SOL    HW128142   5.065   1.614   0.218
 9081SOL    HW228143   5.117   1.659   0.366
 9082SOL     OW28144   3.389   5.800   6.192
 9082SOL    HW128145   3.428   5.874   6.248
 9082SOL    HW228146   3.379   5.718   6.248
 9083SOL     OW28147   4.030   6.138   0.265
 9083SOL    HW128148   4.089   6.175   0.193
 9083SOL    HW228149   3.986   6.214   0.314
 9084SOL     OW28150   0.255   3.247   4.933
 9084SOL    HW128151   0.237   3.253   4.835
 9084SOL    HW228152   0.335   3.301   4.956
 9085SOL     OW28153   2.472   4.912   0.770
 9085SOL    HW128154   2.412   4.841   0.807
 9085SOL    HW228155   2.471   4.907   0.670
 9086SOL     OW28156   0.361   3.804   0.870
 9086SOL    HW128157   0.326   3.847   0.787
 9086SOL    HW228158   0.294   3.738   0.904
 9087SOL     OW28159   5.267   1.065   1.172
 9087SOL    HW128160   5.233   1.157   1.154
 9087SOL    HW228161   5.298   1.023   1.086
 9088SOL     OW28162   5.950   5.989   0.438
 9088SOL    HW128163   5.910   5.995   0.530
 9088SOL    HW228164   5.965   5.893   0.414
 9089SOL     OW28165   5.492   5.428   3.666
 9089SOL    HW128166   5.519   5.483   3.587
 9089SOL    HW228167   5.467   5.487   3.741
 9090SOL     OW28168   5.048   6.250   5.660
 9090SOL    HW128169   4.953   6.220   5.668
 9090SOL    HW228170   5.096   6.234   5.746
 9091SOL     OW28171   2.630   1.618   1.610
 9091SOL    HW128172   2.634   1.657   1.702
 9091SOL    HW228173   2.535   1.617   1.578
 9092SOL     OW28174   2.169   1.031   5.193
 9092SOL    HW128175   2.224   0.948   5.190
 9092SOL    HW228176   2.198   1.087   5.271
 9093SOL     OW28177   2.058   4.181   1.001
 9093SOL    HW128178   1.981   4.212   1.056
 9093SOL    HW228179   2.126   4.137   1.060
 9094SOL     OW28180   6.516   4.296   1.292
 9094SOL    HW128181   6.492   4.239   1.213
 9094SOL    HW228182   6.434   4.316   1.345
 9095SOL     OW28183   2.508   3.429   6.883
 9095SOL    HW128184   2.599   3.420   6.924
 9095SOL    HW228185   2.441   3.379   6.938
 9096SOL     OW28186   6.329   3.272   2.991
 9096SOL    HW128187   6.392   3.202   3.024
 9096SOL    HW228188   6.373   3.361   2.994
 9097SOL     OW28189   7.010   5.197   5.869
 9097SOL    HW128190   0.085   5.196   5.869
 9097SOL    HW228191   6.977   5.254   5.944
 9098SOL     OW28192   3.498   3.911   3.970
 9098SOL    HW128193   3.488   4.005   3.938
 9098SOL    HW228194   3.408   3.870   3.983
 9099SOL     OW28195   2.227   2.580   0.348
 9099SOL    HW128196   2.200   2.485   0.333
 9099SOL    HW228197   2.148   2.633   0.380
 9100SOL     OW28198   1.269   3.236   0.098
 9100SOL    HW128199   1.228   3.207   0.184
 9100SOL    HW228200   1.277   3.336   0.097
 9101SOL     OW28201   2.076   2.300   6.682
 9101SOL    HW128202   2.077   2.400   6.682
 9101SOL    HW228203   1.994   2.268   6.731
 9102SOL     OW28204   4.651   6.164   2.115
 9102SOL    HW128205   4.586   6.215   2.172
 9102SOL    HW228206   4.608   6.143   2.027
 9103SOL     OW28207   0.159   4.073   6.629
 9103SOL    HW128208   0.229   4.005   6.607
 9103SOL    HW228209   0.069   4.029   6.632
 9104SOL     OW28210   4.822   0.144   2.103
 9104SOL    HW128211   4.841   0.217   2.169
 9104SOL    HW228212   4.860   0.169   2.014
 9105SOL     OW28213   2.439   1.668   5.572
 9105SOL    HW128214   2.517   1.730   5.572
 9105SOL    HW228215   2.425   1.633   5.665
 9106SOL     OW28216   6.347   5.148   1.452
 9106SOL    HW128217   6.258   5.189   1.470
 9106SOL    HW228218   6.419   5.204   1.493
 9107SOL     OW28219   4.510   0.470   1.340
 9107SOL    HW128220   4.568   0.536   1.388
 9107SOL    HW228221   4.542   0.459   1.246
 9108SOL     OW28222   4.364   5.923   6.955
 9108SOL    HW128223   4.404   5.969   6.876
 9108SOL    HW228224   4.419   5.943   0.011
 9109SOL     OW28225   2.776   1.766   4.254
 9109SOL    HW128226   2.817   1.695   4.197
 9109SOL    HW228227   2.848   1.813   4.305
 9110SOL     OW28228   1.913   3.014   2.742
 9110SOL    HW128229   1.951   2.941   2.685
 9110SOL    HW228230   1.985   3.056   2.796
 9111SOL     OW28231   4.236   4.193   1.700
 9111SOL    HW128232   4.232   4.097   1.675
 9111SOL    HW228233   4.323   4.212   1.747
 9112SOL     OW28234   0.304   5.113   2.633
 9112SOL    HW128235   0.389   5.067   2.610
 9112SOL    HW228236   0.315   5.212   2.623
 9113SOL     OW28237   3.370   6.274   0.260
 9113SOL    HW128238   3.423   6.357   0.240
 9113SOL    HW228239   3.425   6.194   0.237
 9114SOL     OW28240   2.434   4.563   2.052
 9114SOL    HW128241   2.418   4.581   2.149
 9114SOL    HW228242   2.431   4.464   2.036
 9115SOL     OW28243   1.960   4.107   3.941
 9115SOL    HW128244   1.933   4.102   4.037
 9115SOL    HW228245   2.059   4.105   3.933
 9116SOL     OW28246   1.681   1.307   6.141
 9116SOL    HW128247   1.710   1.387   6.088
 9116SOL    HW228248   1.732   1.227   6.109
 9117SOL     OW28249   6.549   2.855   6.699
 9117SOL    HW128250   6.520   2.941   6.742
 9117SOL    HW228251   6.601   2.801   6.765
 9118SOL     OW28252   6.574   5.470   1.802
 9118SOL    HW128253   6.638   5.511   1.738
 9118SOL    HW228254   6.515   5.541   1.841
 9119SOL     OW28255   6.753   6.913   1.246
 9119SOL    HW128256   6.704   6.972   1.182
 9119SOL    HW228257   6.852   6.926   1.234
 9120SOL     OW28258   5.474   1.422   6.401
 9120SOL    HW128259   5.466   1.466   6.311
 9120SOL    HW228260   5.391   1.437   6.454
 9121SOL     OW28261   1.417   1.197   6.981
 9121SOL    HW128262   1.471   1.144   6.917
 9121SOL    HW228263   1.385   1.281   6.937
 9122SOL     OW28264   0.377   2.475   1.390
 9122SOL    HW128265   0.352   2.512   1.300
 9122SOL    HW228266   0.442   2.536   1.435
 9123SOL     OW28267   2.621   5.959   0.195
 9123SOL    HW128268   2.539   5.904   0.204
 9123SOL    HW228269   2.605   6.031   0.127
 9124SOL     OW28270   5.854   5.293   5.200
 9124SOL    HW128271   5.923   5.250   5.142
 9124SOL    HW228272   5.864   5.259   5.294
 9125SOL     OW28273   4.872   5.872   3.407
 9125SOL    HW128274   4.955   5.903   3.360
 9125SOL    HW228275   4.889   5.869   3.506
 9126SOL     OW28276   6.056   0.750   1.534
 9126SOL    HW128277   6.117   0.699   1.594
 9126SOL    HW228278   6.098   0.761   1.444
 9127SOL     OW28279   5.035   0.754   6.920
 9127SOL    HW128280   5.114   0.694   6.903
 9127SOL    HW228281   4.952   0.699   6.923
 9128SOL     OW28282   4.470   2.412   4.961
 9128SOL    HW128283   4.566   2.387   4.960
 9128SOL    HW228284   4.433   2.400   5.053
 9129SOL     OW28285   2.053   2.294   5.829
 9129SOL    HW128286   1.995   2.217   5.804
 9129SOL    HW228287   2.021   2.333   5.916
 9130SOL     OW28288   6.317   4.841   0.595
 9130SOL    HW128289   6.312   4.750   0.553
 9130SOL    HW228290   6.412   4.873   0.594
 9131SOL     OW28291   0.775   3.994   4.716
 9131SOL    HW128292   0.844   3.922   4.702
 9131SOL    HW228293   0.700   3.980   4.651
 9132SOL     OW28294   0.313   2.922   4.896
 9132SOL    HW128295   0.368   2.883   4.971
 9132SOL    HW228296   0.230   2.962   4.932
 9133SOL     OW28297   1.714   4.411   1.275
 9133SOL    HW128298   1.733   4.344   1.202
 9133SOL    HW228299   1.622   4.395   1.311
 9134SOL     OW28300   3.074   5.548   6.213
 9134SOL    HW128301   3.075   5.620   6.282
 9134SOL    HW228302   3.064   5.459   6.257
 9135SOL     OW28303   6.623   6.478   4.427
 9135SOL    HW128304   6.608   6.465   4.329
 9135SOL    HW228305   6.538   6.507   4.471
 9136SOL     OW28306   4.652   4.642   5.528
 9136SOL    HW128307   4.710   4.607   5.602
 9136SOL    HW228308   4.681   4.734   5.504
 9137SOL     OW28309   4.242   1.284   2.142
 9137SOL    HW128310   4.222   1.376   2.107
 9137SOL    HW228311   4.320   1.246   2.092
 9138SOL     OW28312   3.769   4.845   0.310
 9138SOL    HW128313   3.790   4.772   0.375
 9138SOL    HW228314   3.679   4.884   0.331
 9139SOL     OW28315   2.951   1.650   5.586
 9139SOL    HW128316   3.035   1.606   5.617
 9139SOL    HW228317   2.957   1.749   5.602
 9140SOL     OW28318   6.990   2.082   3.509
 9140SOL    HW128319   6.919   2.019   3.477
 9140SOL    HW228320   6.952   2.143   3.578
 9141SOL     OW28321   5.963   0.512   5.955
 9141SOL    HW128322   6.043   0.454   5.966
 9141SOL    HW228323   5.992   0.606   5.938
 9142SOL     OW28324   6.955   3.094   5.864
 9142SOL    HW128325   6.940   3.039   5.946
 9142SOL    HW228326   0.000   3.162   5.883
 9143SOL     OW28327   5.068   3.760   0.788
 9143SOL    HW128328   5.013   3.817   0.727
 9143SOL    HW228329   5.152   3.809   0.813
 9144SOL     OW28330   2.065   4.554   4.945
 9144SOL    HW128331   2.089   4.630   4.884
 9144SOL    HW228332   2.017   4.483   4.892
 9145SOL     OW28333   0.124   4.666   6.445
 9145SOL    HW128334   0.140   4.751   6.494
 9145SOL    HW228335   0.203   4.605   6.458
 9146SOL     OW28336   6.374   2.274   2.406
 9146SOL    HW128337   6.374   2.283   2.307
 9146SOL    HW228338   6.301   2.211   2.434
 9147SOL     OW28339   4.496   5.595   5.728
 9147SOL    HW128340   4.483   5.587   5.629
 9147SOL    HW228341   4.456   5.682   5.759
 9148SOL     OW28342   4.417   5.658   3.577
 9148SOL    HW128343   4.319   5.679   3.586
 9148SOL    HW228344   4.462   5.733   3.529
 9149SOL     OW28345   5.777   3.529   3.880
 9149SOL    HW128346   5.678   3.519   3.885
 9149SOL    HW228347   5.805   3.616   3.920
 9150SOL     OW28348   5.160   0.575   2.873
 9150SOL    HW128349   5.171   0.661   2.823
 9150SOL    HW228350   5.110   0.593   2.958
 9151SOL     OW28351   1.604   4.187   1.852
 9151SOL    HW128352   1.606   4.200   1.951
 9151SOL    HW228353   1.686   4.138   1.822
 9152SOL     OW28354   1.929   5.460   3.226
 9152SOL    HW128355   1.882   5.438   3.311
 9152SOL    HW228356   1.968   5.552   3.232
 9153SOL     OW28357   1.265   2.999   6.097
 9153SOL    HW128358   1.299   2.915   6.055
 9153SOL    HW228359   1.316   3.016   6.182
 9154SOL     OW28360   2.184   5.802   0.051
 9154SOL    HW128361   2.242   5.729   0.016
 9154SOL    HW228362   2.165   5.868   7.004
 9155SOL     OW28363   1.173   3.995   0.650
 9155SOL    HW128364   1.132   3.948   0.728
 9155SOL    HW228365   1.106   4.058   0.610
 9156SOL     OW28366   5.099   2.307   1.496
 9156SOL    HW128367   5.009   2.309   1.540
 9156SOL    HW228368   5.170   2.289   1.565
 9157SOL     OW28369   5.357   3.939   5.750
 9157SOL    HW128370   5.288   4.004   5.781
 9157SOL    HW228371   5.322   3.889   5.670
 9158SOL     OW28372   0.919   3.799   4.038
 9158SOL    HW128373   0.824   3.829   4.033
 9158SOL    HW228374   0.925   3.702   4.016
 9159SOL     OW28375   6.877   4.642   3.823
 9159SOL    HW128376   6.893   4.686   3.734
 9159SOL    HW228377   6.950   4.666   3.886
 9160SOL     OW28378   6.953   0.005   6.923
 9160SOL    HW128379   6.855   0.026   6.923
 9160SOL    HW228380   6.990   0.022   7.014
 9161SOL     OW28381   4.850   4.123   4.346
 9161SOL    HW128382   4.855   4.023   4.355
 9161SOL    HW228383   4.774   4.147   4.286
 9162SOL     OW28384   4.784   2.464   2.399
 9162SOL    HW128385   4.712   2.435   2.462
 9162SOL    HW228386   4.743   2.496   2.314
 9163SOL     OW28387   3.124   2.000   3.895
 9163SOL    HW128388   3.126   2.080   3.955
 9163SOL    HW228389   3.194   1.934   3.924
 9164SOL     OW28390   3.327   0.279   0.326
 9164SOL    HW128391   3.234   0.252   0.303
 9164SOL    HW228392   3.357   0.228   0.408
 9165SOL     OW28393   6.073   6.923   6.670
 9165SOL    HW128394   6.065   6.900   6.767
 9165SOL    HW228395   6.073   6.839   6.616
 9166SOL     OW28396   3.112   5.786   1.457
 9166SOL    HW128397   3.069   5.870   1.426
 9166SOL    HW228398   3.174   5.806   1.533
 9167SOL     OW28399   1.501   4.256   5.418
 9167SOL    HW128400   1.571   4.296   5.359
 9167SOL    HW228401   1.533   4.168   5.453
 9168SOL     OW28402   2.062   0.999   6.435
 9168SOL    HW128403   1.974   1.044   6.422
 9168SOL    HW228404   2.048   0.912   6.482
 9169SOL     OW28405   0.793   0.481   3.626
 9169SOL    HW128406   0.833   0.395   3.596
 9169SOL    HW228407   0.815   0.495   3.723
 9170SOL     OW28408   6.487   6.040   6.502
 9170SOL    HW128409   6.477   6.069   6.407
 9170SOL    HW228410   6.518   5.945   6.504
 9171SOL     OW28411   2.865   5.985   6.978
 9171SOL    HW128412   2.820   5.907   7.020
 9171SOL    HW228413   2.944   5.953   6.925
 9172SOL     OW28414   3.043   1.317   4.231
 9172SOL    HW128415   2.970   1.312   4.163
 9172SOL    HW228416   3.120   1.367   4.193
 9173SOL     OW28417   0.646   5.822   4.016
 9173SOL    HW128418   0.555   5.859   3.999
 9173SOL    HW228419   0.675   5.769   3.936
 9174SOL     OW28420   0.210   5.102   0.494
 9174SOL    HW128421   0.188   5.044   0.415
 9174SOL    HW228422   0.293   5.068   0.537
 9175SOL     OW28423   2.202   5.973   5.890
 9175SOL    HW128424   2.147   6.056   5.877
 9175SOL    HW228425   2.250   5.979   5.977
 9176SOL     OW28426   2.015   0.596   5.842
 9176SOL    HW128427   2.091   0.615   5.779
 9176SOL    HW228428   1.929   0.619   5.797
 9177SOL     OW28429   1.018   4.228   3.595
 9177SOL    HW128430   0.980   4.291   3.663
 9177SOL    HW228431   1.002   4.263   3.503
 9178SOL     OW28432   2.113   4.842   0.288
 9178SOL    HW128433   2.127   4.850   0.387
 9178SOL    HW228434   2.201   4.853   0.241
 9179SOL     OW28435   3.695   4.982   4.187
 9179SOL    HW128436   3.608   5.017   4.222
 9179SOL    HW228437   3.752   4.952   4.263
 9180SOL     OW28438   5.416   1.802   3.418
 9180SOL    HW128439   5.497   1.747   3.398
 9180SOL    HW228440   5.411   1.878   3.353
 9181SOL     OW28441   4.300   1.863   2.418
 9181SOL    HW128442   4.201   1.854   2.418
 9181SOL    HW228443   4.325   1.959   2.432
 9182SOL     OW28444   1.022   6.591   1.299
 9182SOL    HW128445   1.020   6.578   1.200
 9182SOL    HW228446   0.965   6.670   1.324
 9183SOL     OW28447   5.356   6.537   0.450
 9183SOL    HW128448   5.275   6.554   0.506
 9183SOL    HW228449   5.420   6.480   0.500
 9184SOL     OW28450   4.818   0.027   0.331
 9184SOL    HW128451   4.906   0.036   0.285
 9184SOL    HW228452   4.821   6.975   0.395
 9185SOL     OW28453   3.461   0.956   5.124
 9185SOL    HW128454   3.363   0.944   5.142
 9185SOL    HW228455   3.481   1.053   5.113
 9186SOL     OW28456   6.396   1.001   5.419
 9186SOL    HW128457   6.438   0.939   5.485
 9186SOL    HW228458   6.464   1.029   5.351
 9187SOL     OW28459   2.348   6.154   2.165
 9187SOL    HW128460   2.359   6.125   2.069
 9187SOL    HW228461   2.433   6.136   2.214
 9188SOL     OW28462   2.139   6.456   1.333
 9188SOL    HW128463   2.158   6.361   1.358
 9188SOL    HW228464   2.110   6.460   1.238
 9189SOL     OW28465   5.004   5.561   2.240
 9189SOL    HW128466   5.104   5.551   2.244
 9189SOL    HW228467   4.962   5.497   2.304
 9190SOL     OW28468   1.817   4.981   0.351
 9190SOL    HW128469   1.782   4.903   0.299
 9190SOL    HW228470   1.906   5.007   0.315
 9191SOL     OW28471   0.080   0.304   5.500
 9191SOL    HW128472   0.114   0.275   5.410
 9191SOL    HW228473   0.107   0.237   5.569
 9192SOL     OW28474   6.859   4.392   4.262
 9192SOL    HW128475   6.783   4.430   4.210
 9192SOL    HW228476   6.824   4.332   4.333
 9193SOL     OW28477   2.935   3.531   0.064
 9193SOL    HW128478   2.985   3.566   7.009
 9193SOL    HW228479   2.911   3.607   0.124
 9194SOL     OW28480   3.635   0.864   4.000
 9194SOL    HW128481   3.550   0.816   4.021
 9194SOL    HW228482   3.702   0.800   3.962
 9195SOL     OW28483   1.680   2.051   3.844
 9195SOL    HW128484   1.593   2.063   3.892
 9195SOL    HW228485   1.689   1.956   3.815
 9196SOL     OW28486   4.716   2.295   4.970
 9196SOL    HW128487   4.754   2.262   5.056
 9196SOL    HW228488   4.716   2.220   4.903
 9197SOL     OW28489   2.353   3.756   1.621
 9197SOL    HW128490   2.346   3.774   1.719
 9197SOL    HW228491   2.270   3.712   1.589
 9198SOL     OW28492   6.378   5.393   4.694
 9198SOL    HW128493   6.441   5.468   4.714
 9198SOL    HW228494   6.288   5.415   4.731
 9199SOL     OW28495   6.393   4.399   4.856
 9199SOL    HW128496   6.474   4.428   4.803
 9199SOL    HW228497   6.377   4.302   4.841
 9200SOL     OW28498   3.283   6.925   0.790
 9200SOL    HW128499   3.281   6.994   0.862
 9200SOL    HW228500   3.239   6.841   0.822
 9201SOL     OW28501   1.542   4.278   0.209
 9201SOL    HW128502   1.594   4.363   0.211
 9201SOL    HW228503   1.532   4.243   0.302
 9202SOL     OW28504   2.479   0.106   3.413
 9202SOL    HW128505   2.566   0.110   3.461
 9202SOL    HW228506   2.405   0.099   3.479
 9203SOL     OW28507   6.729   5.957   0.823
 9203SOL    HW128508   6.728   5.945   0.922
 9203SOL    HW228509   6.687   6.044   0.799
 9204SOL     OW28510   5.036   1.079   6.247
 9204SOL    HW128511   4.951   1.115   6.285
 9204SOL    HW228512   5.090   1.154   6.210
 9205SOL     OW28513   6.988   4.000   2.591
 9205SOL    HW128514   0.062   4.009   2.576
 9205SOL    HW228515   6.948   3.944   2.518
 9206SOL     OW28516   3.419   6.054   0.738
 9206SOL    HW128517   3.393   6.151   0.737
 9206SOL    HW228518   3.477   6.034   0.660
 9207SOL     OW28519   5.013   5.555   0.351
 9207SOL    HW128520   5.063   5.480   0.395
 9207SOL    HW228521   4.973   5.522   0.266
 9208SOL     OW28522   0.811   3.651   3.599
 9208SOL    HW128523   0.712   3.639   3.592
 9208SOL    HW228524   0.832   3.749   3.603
 9209SOL     OW28525   2.824   0.895   6.168
 9209SOL    HW128526   2.874   0.968   6.120
 9209SOL    HW228527   2.734   0.930   6.195
 9210SOL     OW28528   6.776   0.834   3.617
 9210SOL    HW128529   6.687   0.801   3.585
 9210SOL    HW228530   6.765   0.925   3.657
 9211SOL     OW28531   0.774   1.506   3.278
 9211SOL    HW128532   0.781   1.411   3.308
 9211SOL    HW228533   0.840   1.523   3.205
 9212SOL     OW28534   3.438   4.927   4.859
 9212SOL    HW128535   3.455   4.926   4.761
 9212SOL    HW228536   3.341   4.914   4.877
 9213SOL     OW28537   6.088   3.745   5.812
 9213SOL    HW128538   6.032   3.665   5.831
 9213SOL    HW228539   6.034   3.828   5.828
 9214SOL     OW28540   0.294   5.101   0.928
 9214SOL    HW128541   0.195   5.101   0.946
 9214SOL    HW228542   0.341   5.055   1.003
 9215SOL     OW28543   0.872   1.255   0.613
 9215SOL    HW128544   0.915   1.269   0.523
 9215SOL    HW228545   0.893   1.333   0.672
 9216SOL     OW28546   2.274   6.291   3.156
 9216SOL    HW128547   2.281   6.389   3.137
 9216SOL    HW228548   2.267   6.241   3.069
 9217SOL     OW28549   1.250   2.970   0.008
 9217SOL    HW128550   1.299   2.954   6.948
 9217SOL    HW228551   1.255   3.067   0.032
 9218SOL     OW28552   3.258   0.583   0.433
 9218SOL    HW128553   3.174   0.600   0.484
 9218SOL    HW228554   3.249   0.497   0.382
 9219SOL     OW28555   7.017   2.871   0.712
 9219SOL    HW128556   6.954   2.876   0.790
 9219SOL    HW228557   0.026   2.778   0.702
 9220SOL     OW28558   3.562   6.648   2.047
 9220SOL    HW128559   3.603   6.612   2.131
 9220SOL    HW228560   3.514   6.733   2.068
 9221SOL     OW28561   2.743   5.496   4.590
 9221SOL    HW128562   2.742   5.471   4.687
 9221SOL    HW228563   2.663   5.552   4.570
 9222SOL     OW28564   2.362   2.423   6.099
 9222SOL    HW128565   2.427   2.457   6.032
 9222SOL    HW228566   2.315   2.343   6.063
 9223SOL     OW28567   2.750   2.983   5.389
 9223SOL    HW128568   2.816   2.908   5.380
 9223SOL    HW228569   2.690   2.984   5.309
 9224SOL     OW28570   2.248   5.066   5.222
 9224SOL    HW128571   2.172   5.078   5.157
 9224SOL    HW228572   2.219   5.005   5.296
 9225SOL     OW28573   2.458   5.799   6.773
 9225SOL    HW128574   2.387   5.822   6.707
 9225SOL    HW228575   2.479   5.701   6.767
 9226SOL     OW28576   4.910   6.989   0.991
 9226SOL    HW128577   4.942   6.981   1.086
 9226SOL    HW228578   4.925   0.057   0.958
 9227SOL     OW28579   1.821   5.661   2.516
 9227SOL    HW128580   1.882   5.618   2.582
 9227SOL    HW228581   1.873   5.726   2.461
 9228SOL     OW28582   1.055   0.252   6.821
 9228SOL    HW128583   1.053   0.311   6.740
 9228SOL    HW228584   1.028   0.304   6.901
 9229SOL     OW28585   0.638   5.341   5.180
 9229SOL    HW128586   0.638   5.440   5.166
 9229SOL    HW228587   0.677   5.296   5.100
 9230SOL     OW28588   5.503   0.352   4.394
 9230SOL    HW128589   5.500   0.404   4.480
 9230SOL    HW228590   5.534   0.411   4.320
 9231SOL     OW28591   1.516   2.718   3.492
 9231SOL    HW128592   1.421   2.708   3.522
 9231SOL    HW228593   1.578   2.691   3.566
 9232SOL     OW28594   3.967   4.505   1.428
 9232SOL    HW128595   4.032   4.580   1.436
 9232SOL    HW228596   4.017   4.418   1.428
 9233SOL     OW28597   5.620   5.259   0.720
 9233SOL    HW128598   5.697   5.318   0.744
 9233SOL    HW228599   5.619   5.179   0.779
 9234SOL     OW28600   2.231   5.966   4.017
 9234SOL    HW128601   2.191   6.053   4.045
 9234SOL    HW228602   2.330   5.972   4.022
 9235SOL     OW28603   0.502   1.994   3.331
 9235SOL    HW128604   0.455   2.079   3.308
 9235SOL    HW228605   0.516   1.941   3.248
 9236SOL     OW28606   2.924   3.348   5.469
 9236SOL    HW128607   2.855   3.338   5.398
 9236SOL    HW228608   2.964   3.259   5.491
 9237SOL     OW28609   1.820   3.866   3.543
 9237SOL    HW128610   1.737   3.899   3.499
 9237SOL    HW228611   1.810   3.874   3.642
 9238SOL     OW28612   4.734   2.854   6.251
 9238SOL    HW128613   4.675   2.803   6.313
 9238SOL    HW228614   4.741   2.807   6.163
 9239SOL     OW28615   1.738   4.272   0.745
 9239SOL    HW128616   1.739   4.216   0.828
 9239SOL    HW228617   1.652   4.323   0.740
 9240SOL     OW28618   4.476   1.427   2.436
 9240SOL    HW128619   4.542   1.385   2.373
 9240SOL    HW228620   4.496   1.524   2.446
 9241SOL     OW28621   0.393   5.864   6.681
 9241SOL    HW128622   0.485   5.901   6.667
 9241SOL    HW228623   0.366   5.878   6.777
 9242SOL     OW28624   6.618   6.086   1.945
 9242SOL    HW128625   6.584   6.116   1.855
 9242SOL    HW228626   6.611   6.162   2.009
 9243SOL     OW28627   5.921   5.842   4.832
 9243SOL    HW128628   5.865   5.921   4.856
 9243SOL    HW228629   5.864   5.771   4.792
 9244SOL     OW28630   3.697   4.947   6.557
 9244SOL    HW128631   3.614   5.001   6.573
 9244SOL    HW228632   3.672   4.854   6.530
 9245SOL     OW28633   0.152   5.616   1.467
 9245SOL    HW128634   0.194   5.706   1.460
 9245SOL    HW228635   0.146   5.575   1.376
 9246SOL     OW28636   0.357   5.242   4.010
 9246SOL    HW128637   0.373   5.172   3.941
 9246SOL    HW228638   0.444   5.284   4.035
 9247SOL     OW28639   2.049   6.533   2.345
 9247SOL    HW128640   2.015   6.460   2.405
 9247SOL    HW228641   2.111   6.493   2.277
 9248SOL     OW28642   2.521   1.388   6.305
 9248SOL    HW128643   2.513   1.348   6.396
 9248SOL    HW228644   2.515   1.488   6.312
 9249SOL     OW28645   4.616   0.307   3.565
 9249SOL    HW128646   4.667   0.272   3.487
 9249SOL    HW228647   4.594   0.232   3.627
 9250SOL     OW28648   5.142   3.532   4.019
 9250SOL    HW128649   5.213   3.523   4.089
 9250SOL    HW228650   5.146   3.624   3.980
 9251SOL     OW28651   3.028   1.987   2.596
 9251SOL    HW128652   3.057   1.893   2.576
 9251SOL    HW228653   3.027   2.040   2.512
 9252SOL     OW28654   1.019   0.193   4.837
 9252SOL    HW128655   0.919   0.192   4.840
 9252SOL    HW228656   1.050   0.204   4.743
 9253SOL     OW28657   1.336   6.731   6.195
 9253SOL    HW128658   1.371   6.820   6.224
 9253SOL    HW228659   1.389   6.658   6.238
 9254SOL     OW28660   5.792   3.649   1.091
 9254SOL    HW128661   5.868   3.639   1.155
 9254SOL    HW228662   5.828   3.652   0.997
 9255SOL     OW28663   5.913   4.714   1.026
 9255SOL    HW128664   5.936   4.626   1.066
 9255SOL    HW228665   5.873   4.700   0.935
 9256SOL     OW28666   4.239   4.653   2.014
 9256SOL    HW128667   4.312   4.657   1.945
 9256SOL    HW228668   4.247   4.568   2.066
 9257SOL     OW28669   1.494   4.337   1.053
 9257SOL    HW128670   1.558   4.344   0.976
 9257SOL    HW228671   1.442   4.422   1.061
 9258SOL     OW28672   4.140   3.639   3.429
 9258SOL    HW128673   4.079   3.565   3.402
 9258SOL    HW228674   4.126   3.661   3.525
 9259SOL     OW28675   0.942   2.949   0.555
 9259SOL    HW128676   0.897   2.954   0.644
 9259SOL    HW228677   0.898   2.879   0.499
 9260SOL     OW28678   5.146   3.255   5.810
 9260SOL    HW128679   5.093   3.215   5.885
 9260SOL    HW228680   5.209   3.323   5.847
 9261SOL     OW28681   4.541   0.047   6.515
 9261SOL    HW128682   4.635   0.068   6.542
 9261SOL    HW228683   4.540   0.026   6.417
 9262SOL     OW28684   4.895   1.230   5.752
 9262SOL    HW128685   4.906   1.207   5.656
 9262SOL    HW228686   4.803   1.267   5.767
 9263SOL     OW28687   5.286   3.851   1.444
 9263SOL    HW128688   5.204   3.799   1.419
 9263SOL    HW228689   5.300   3.847   1.543
 9264SOL     OW28690   6.418   3.799   0.326
 9264SOL    HW128691   6.352   3.737   0.284
 9264SOL    HW228692   6.457   3.755   0.407
 9265SOL     OW28693   1.656   1.331   6.654
 9265SOL    HW128694   1.599   1.387   6.594
 9265SOL    HW228695   1.742   1.310   6.607
 9266SOL     OW28696   2.030   5.964   3.108
 9266SOL    HW128697   2.005   5.872   3.140
 9266SOL    HW228698   2.036   6.026   3.186
 9267SOL     OW28699   1.585   4.601   4.509
 9267SOL    HW128700   1.682   4.580   4.501
 9267SOL    HW228701   1.551   4.639   4.423
 9268SOL     OW28702   0.796   0.142   3.037
 9268SOL    HW128703   0.794   0.076   2.962
 9268SOL    HW228704   0.856   0.218   3.014
 9269SOL     OW28705   3.161   1.279   6.226
 9269SOL    HW128706   3.117   1.360   6.188
 9269SOL    HW228707   3.110   1.248   6.307
 9270SOL     OW28708   6.800   6.990   5.824
 9270SOL    HW128709   6.722   6.977   5.762
 9270SOL    HW228710   6.878   6.939   5.790
 9271SOL     OW28711   1.587   5.093   0.197
 9271SOL    HW128712   1.651   5.057   0.128
 9271SOL    HW228713   1.583   5.030   0.274
 9272SOL     OW28714   2.521   4.903   6.003
 9272SOL    HW128715   2.576   4.903   6.087
 9272SOL    HW228716   2.466   4.820   6.000
 9273SOL     OW28717   4.153   5.824   4.948
 9273SOL    HW128718   4.194   5.781   5.029
 9273SOL    HW228719   4.154   5.759   4.872
 9274SOL     OW28720   6.100   2.359   6.902
 9274SOL    HW128721   6.170   2.397   6.962
 9274SOL    HW228722   6.012   2.402   6.922
 9275SOL     OW28723   1.100   0.445   6.634
 9275SOL    HW128724   1.056   0.507   6.568
 9275SOL    HW228725   1.162   0.497   6.692
 9276SOL     OW28726   4.511   5.793   5.309
 9276SOL    HW128727   4.478   5.872   5.361
 9276SOL    HW228728   4.581   5.823   5.244
 9277SOL     OW28729   3.498   3.133   0.117
 9277SOL    HW128730   3.579   3.134   0.057
 9277SOL    HW228731   3.417   3.156   0.063
 9278SOL     OW28732   1.154   2.296   2.182
 9278SOL    HW128733   1.125   2.390   2.163
 9278SOL    HW228734   1.106   2.233   2.120
 9279SOL     OW28735   3.707   6.966   1.992
 9279SOL    HW128736   3.618   6.924   1.976
 9279SOL    HW228737   3.776   6.894   1.998
 9280SOL     OW28738   2.219   6.832   3.837
 9280SOL    HW128739   2.273   6.825   3.753
 9280SOL    HW228740   2.155   6.756   3.842
 9281SOL     OW28741   2.061   2.094   0.392
 9281SOL    HW128742   2.119   2.055   0.321
 9281SOL    HW228743   1.973   2.046   0.394
 9282SOL     OW28744   4.446   1.998   5.646
 9282SOL    HW128745   4.519   1.929   5.642
 9282SOL    HW228746   4.484   2.088   5.625
 9283SOL     OW28747   5.853   2.410   2.260
 9283SOL    HW128748   5.788   2.481   2.234
 9283SOL    HW228749   5.803   2.332   2.299
 9284SOL     OW28750   3.102   3.234   1.348
 9284SOL    HW128751   3.065   3.239   1.255
 9284SOL    HW228752   3.053   3.163   1.399
 9285SOL     OW28753   6.244   2.868   6.820
 9285SOL    HW128754   6.251   2.962   6.854
 9285SOL    HW228755   6.244   2.870   6.720
 9286SOL     OW28756   5.631   6.648   5.261
 9286SOL    HW128757   5.589   6.738   5.251
 9286SOL    HW228758   5.633   6.623   5.358
 9287SOL     OW28759   3.411   7.005   1.749
 9287SOL    HW128760   3.418   7.017   1.848
 9287SOL    HW228761   3.330   6.949   1.728
 9288SOL     OW28762   5.164   2.383   5.558
 9288SOL    HW128763   5.169   2.480   5.581
 9288SOL    HW228764   5.254   2.342   5.573
 9289SOL     OW28765   5.005   3.113   2.442
 9289SOL    HW128766   4.990   3.021   2.407
 9289SOL    HW228767   5.024   3.175   2.367
 9290SOL     OW28768   4.869   1.957   4.384
 9290SOL    HW128769   4.794   1.899   4.351
 9290SOL    HW228770   4.880   2.036   4.323
 9291SOL     OW28771   0.488   1.356   4.409
 9291SOL    HW128772   0.559   1.353   4.338
 9291SOL    HW228773   0.450   1.264   4.421
 9292SOL     OW28774   0.248   3.248   6.486
 9292SOL    HW128775   0.214   3.340   6.466
 9292SOL    HW228776   0.183   3.200   6.545
 9293SOL     OW28777   5.476   3.909   0.071
 9293SOL    HW128778   5.407   3.978   0.049
 9293SOL    HW228779   5.489   3.848   7.018
 9294SOL     OW28780   5.905   6.272   6.805
 9294SOL    HW128781   5.837   6.339   6.834
 9294SOL    HW228782   5.991   6.319   6.785
 9295SOL     OW28783   4.603   1.537   2.990
 9295SOL    HW128784   4.612   1.600   3.068
 9295SOL    HW228785   4.551   1.457   3.019
 9296SOL     OW28786   5.961   0.260   5.771
 9296SOL    HW128787   6.008   0.204   5.838
 9296SOL    HW228788   5.930   0.345   5.814
 9297SOL     OW28789   0.461   1.140   0.908
 9297SOL    HW128790   0.512   1.057   0.932
 9297SOL    HW228791   0.395   1.160   0.981
 9298SOL     OW28792   1.245   5.738   4.943
 9298SOL    HW128793   1.323   5.738   5.006
 9298SOL    HW228794   1.273   5.699   4.855
 9299SOL     OW28795   1.976   3.036   4.174
 9299SOL    HW128796   2.072   3.040   4.201
 9299SOL    HW228797   1.919   3.070   4.250
 9300SOL     OW28798   5.311   4.640   4.468
 9300SOL    HW128799   5.277   4.557   4.512
 9300SOL    HW228800   5.410   4.646   4.481
 9301SOL     OW28801   5.247   4.354   2.488
 9301SOL    HW128802   5.224   4.447   2.459
 9301SOL    HW228803   5.169   4.313   2.536
 9302SOL     OW28804   2.148   2.069   2.496
 9302SOL    HW128805   2.221   2.136   2.485
 9302SOL    HW228806   2.081   2.104   2.562
 9303SOL     OW28807   3.583   5.577   0.163
 9303SOL    HW128808   3.599   5.549   0.258
 9303SOL    HW228809   3.530   5.661   0.161
 9304SOL     OW28810   3.835   3.478   0.894
 9304SOL    HW128811   3.756   3.458   0.951
 9304SOL    HW228812   3.863   3.573   0.909
 9305SOL     OW28813   5.530   3.005   2.074
 9305SOL    HW128814   5.484   2.985   1.987
 9305SOL    HW228815   5.506   2.936   2.142
 9306SOL     OW28816   6.604   3.923   4.044
 9306SOL    HW128817   6.663   3.896   3.967
 9306SOL    HW228818   6.511   3.889   4.028
 9307SOL     OW28819   1.697   1.841   6.984
 9307SOL    HW128820   1.634   1.918   6.995
 9307SOL    HW228821   1.723   1.807   0.049
 9308SOL     OW28822   0.059   3.145   0.843
 9308SOL    HW128823   0.043   3.061   0.792
 9308SOL    HW228824   0.092   3.216   0.780
 9309SOL     OW28825   4.980   3.207   6.018
 9309SOL    HW128826   4.931   3.292   6.036
 9309SOL    HW228827   4.916   3.131   6.014
 9310SOL     OW28828   4.134   6.008   6.793
 9310SOL    HW128829   4.214   5.987   6.850
 9310SOL    HW228830   4.151   5.979   6.699
 9311SOL     OW28831   6.035   3.274   1.094
 9311SOL    HW128832   6.110   3.233   1.146
 9311SOL    HW228833   6.048   3.257   0.997
 9312SOL     OW28834   1.402   4.356   6.427
 9312SOL    HW128835   1.475   4.302   6.385
 9312SOL    HW228836   1.434   4.449   6.445
 9313SOL     OW28837   6.652   6.894   2.759
 9313SOL    HW128838   6.599   6.846   2.829
 9313SOL    HW228839   6.699   6.828   2.701
 9314SOL     OW28840   4.960   4.519   0.242
 9314SOL    HW128841   4.930   4.428   0.273
 9314SOL    HW228842   4.881   4.578   0.231
 9315SOL     OW28843   0.176   6.605   6.088
 9315SOL    HW128844   0.215   6.572   6.174
 9315SOL    HW228845   0.117   6.534   6.049
 9316SOL     OW28846   4.085   5.957   4.125
 9316SOL    HW128847   4.068   6.041   4.176
 9316SOL    HW228848   4.071   5.878   4.185
 9317SOL     OW28849   6.446   4.467   3.654
 9317SOL    HW128850   6.434   4.495   3.749
 9317SOL    HW228851   6.464   4.369   3.649
 9318SOL     OW28852   6.925   0.202   6.298
 9318SOL    HW128853   7.009   0.205   6.243
 9318SOL    HW228854   6.862   0.135   6.258
 9319SOL     OW28855   0.328   3.286   5.628
 9319SOL    HW128856   0.296   3.375   5.661
 9319SOL    HW228857   0.270   3.213   5.666
 9320SOL     OW28858   4.728   2.418   6.321
 9320SOL    HW128859   4.682   2.502   6.350
 9320SOL    HW228860   4.699   2.342   6.380
 9321SOL     OW28861   6.809   5.654   3.051
 9321SOL    HW128862   6.776   5.730   3.108
 9321SOL    HW228863   6.745   5.577   3.058
 9322SOL     OW28864   1.307   6.437   6.580
 9322SOL    HW128865   1.383   6.483   6.626
 9322SOL    HW228866   1.239   6.504   6.552
 9323SOL     OW28867   0.159   0.590   6.422
 9323SOL    HW128868   0.082   0.613   6.363
 9323SOL    HW228869   0.170   0.490   6.425
 9324SOL     OW28870   1.312   5.701   0.343
 9324SOL    HW128871   1.327   5.759   0.263
 9324SOL    HW228872   1.393   5.705   0.403
 9325SOL     OW28873   6.037   2.394   1.094
 9325SOL    HW128874   6.044   2.327   1.168
 9325SOL    HW228875   6.099   2.470   1.113
 9326SOL     OW28876   1.689   6.702   1.320
 9326SOL    HW128877   1.754   6.736   1.388
 9326SOL    HW228878   1.696   6.758   1.238
 9327SOL     OW28879   4.424   1.075   3.057
 9327SOL    HW128880   4.400   1.065   2.960
 9327SOL    HW228881   4.521   1.095   3.066
 9328SOL     OW28882   3.464   1.245   1.605
 9328SOL    HW128883   3.365   1.243   1.616
 9328SOL    HW228884   3.488   1.293   1.520
 9329SOL     OW28885   1.464   3.275   1.410
 9329SOL    HW128886   1.487   3.368   1.379
 9329SOL    HW228887   1.471   3.270   1.510
 9330SOL     OW28888   6.280   0.754   0.229
 9330SOL    HW128889   6.270   0.702   0.144
 9330SOL    HW228890   6.303   0.849   0.207
 9331SOL     OW28891   0.730   1.339   0.044
 9331SOL    HW128892   0.633   1.337   0.018
 9331SOL    HW228893   0.738   1.347   0.143
 9332SOL     OW28894   3.295   3.000   4.100
 9332SOL    HW128895   3.372   3.044   4.146
 9332SOL    HW228896   3.233   2.961   4.167
 9333SOL     OW28897   5.926   4.724   0.624
 9333SOL    HW128898   5.842   4.729   0.570
 9333SOL    HW228899   5.945   4.813   0.665
 9334SOL     OW28900   2.691   0.053   4.969
 9334SOL    HW128901   2.697   7.011   4.895
 9334SOL    HW228902   2.629   0.019   5.040
 9335SOL     OW28903   0.248   0.749   0.693
 9335SOL    HW128904   0.312   0.825   0.683
 9335SOL    HW228905   0.287   0.667   0.653
 9336SOL     OW28906   2.855   6.879   5.765
 9336SOL    HW128907   2.798   6.844   5.839
 9336SOL    HW228908   2.804   6.948   5.713
 9337SOL     OW28909   5.531   0.504   2.421
 9337SOL    HW128910   5.474   0.560   2.361
 9337SOL    HW228911   5.577   0.433   2.368
 9338SOL     OW28912   3.660   0.361   1.863
 9338SOL    HW128913   3.732   0.296   1.839
 9338SOL    HW228914   3.641   0.421   1.785
 9339SOL     OW28915   4.688   6.496   0.718
 9339SOL    HW128916   4.763   6.508   0.653
 9339SOL    HW228917   4.722   6.506   0.812
 9340SOL     OW28918   6.078   3.158   6.671
 9340SOL    HW128919   6.123   3.091   6.613
 9340SOL    HW228920   6.066   3.243   6.620
 9341SOL     OW28921   6.994   5.358   6.562
 9341SOL    HW128922   6.968   5.297   6.637
 9341SOL    HW228923   6.927   5.432   6.554
 9342SOL     OW28924   1.368   6.120   6.025
 9342SOL    HW128925   1.307   6.042   6.013
 9342SOL    HW228926   1.365   6.177   5.943
 9343SOL     OW28927   5.966   5.430   4.874
 9343SOL    HW128928   6.051   5.381   4.893
 9343SOL    HW228929   5.945   5.491   4.950
 9344SOL     OW28930   5.048   6.945   1.758
 9344SOL    HW128931   5.049   6.861   1.703
 9344SOL    HW228932   5.129   6.999   1.739
 9345SOL     OW28933   6.709   3.082   1.253
 9345SOL    HW128934   6.734   3.123   1.341
 9345SOL    HW228935   6.790   3.078   1.194
 9346SOL     OW28936   5.684   0.111   0.525
 9346SOL    HW128937   5.733   0.085   0.608
 9346SOL    HW228938   5.627   0.191   0.543
 9347SOL     OW28939   1.559   6.478   1.446
 9347SOL    HW128940   1.612   6.538   1.386
 9347SOL    HW228941   1.462   6.497   1.434
 9348SOL     OW28942   3.017   4.771   6.718
 9348SOL    HW128943   3.023   4.674   6.738
 9348SOL    HW228944   3.076   4.822   6.781
 9349SOL     OW28945   2.083   6.810   2.734
 9349SOL    HW128946   2.083   6.904   2.767
 9349SOL    HW228947   2.177   6.776   2.730
 9350SOL     OW28948   0.732   2.941   5.952
 9350SOL    HW128949   0.681   3.025   5.968
 9350SOL    HW228950   0.776   2.912   6.037
 9351SOL     OW28951   2.859   1.852   6.578
 9351SOL    HW128952   2.946   1.836   6.625
 9351SOL    HW228953   2.798   1.904   6.638
 9352SOL     OW28954   2.326   4.612   5.412
 9352SOL    HW128955   2.232   4.598   5.444
 9352SOL    HW228956   2.351   4.708   5.426
 9353SOL     OW28957   6.718   0.363   1.222
 9353SOL    HW128958   6.792   0.426   1.247
 9353SOL    HW228959   6.692   0.308   1.301
 9354SOL     OW28960   0.391   2.523   6.430
 9354SOL    HW128961   0.372   2.549   6.335
 9354SOL    HW228962   0.407   2.424   6.435
 9355SOL     OW28963   0.186   1.504   5.582
 9355SOL    HW128964   0.274   1.498   5.629
 9355SOL    HW228965   0.198   1.481   5.485
 9356SOL     OW28966   5.441   0.060   2.485
 9356SOL    HW128967   5.385   0.060   2.567
 9356SOL    HW228968   5.413   0.135   2.425
 9357SOL     OW28969   1.046   2.299   6.975
 9357SOL    HW128970   0.948   2.294   6.995
 9357SOL    HW228971   1.072   2.223   6.916
 9358SOL     OW28972   0.799   3.506   1.041
 9358SOL    HW128973   0.875   3.500   1.105
 9358SOL    HW228974   0.737   3.429   1.054
 9359SOL     OW28975   1.769   0.342   5.714
 9359SOL    HW128976   1.773   0.247   5.744
 9359SOL    HW228977   1.795   0.347   5.617
 9360SOL     OW28978   1.104   6.874   6.313
 9360SOL    HW128979   1.171   6.842   6.246
 9360SOL    HW228980   1.148   6.935   6.378
 9361SOL     OW28981   1.836   5.933   4.040
 9361SOL    HW128982   1.914   5.893   3.992
 9361SOL    HW228983   1.848   5.923   4.138
 9362SOL     OW28984   2.241   6.785   2.318
 9362SOL    HW128985   2.165   6.845   2.342
 9362SOL    HW228986   2.260   6.794   2.220
 9363SOL     OW28987   2.102   4.682   2.204
 9363SOL    HW128988   2.056   4.731   2.278
 9363SOL    HW228989   2.164   4.614   2.243
 9364SOL     OW28990   1.366   2.390   0.972
 9364SOL    HW128991   1.411   2.460   0.916
 9364SOL    HW228992   1.288   2.431   1.020
 9365SOL     OW28993   3.100   1.880   4.330
 9365SOL    HW128994   3.157   1.839   4.401
 9365SOL    HW228995   3.058   1.963   4.365
 9366SOL     OW28996   3.836   5.724   1.884
 9366SOL    HW128997   3.885   5.656   1.829
 9366SOL    HW228998   3.753   5.683   1.922
 9367SOL     OW28999   6.877   0.769   1.360
 9367SOL    HW129000   6.818   0.707   1.412
 9367SOL    HW229001   6.971   0.735   1.361
 9368SOL     OW29002   3.362   6.996   3.165
 9368SOL    HW129003   3.387   6.900   3.158
 9368SOL    HW229004   3.437   0.027   3.130
 9369SOL     OW29005   2.935   5.275   0.459
 9369SOL    HW129006   2.927   5.176   0.452
 9369SOL    HW229007   2.949   5.301   0.554
 9370SOL     OW29008   4.656   1.835   4.264
 9370SOL    HW129009   4.673   1.861   4.169
 9370SOL    HW229010   4.654   1.736   4.273
 9371SOL     OW29011   4.340   5.413   1.037
 9371SOL    HW129012   4.331   5.327   0.987
 9371SOL    HW229013   4.423   5.410   1.093
 9372SOL     OW29014   4.776   6.178   1.568
 9372SOL    HW129015   4.803   6.120   1.491
 9372SOL    HW229016   4.727   6.258   1.534
 9373SOL     OW29017   6.988   2.621   1.053
 9373SOL    HW129018   6.900   2.575   1.041
 9373SOL    HW229019   6.993   2.700   0.991
 9374SOL     OW29020   0.283   5.498   5.641
 9374SOL    HW129021   0.288   5.401   5.661
 9374SOL    HW229022   0.192   5.533   5.667
 9375SOL     OW29023   0.531   1.123   0.290
 9375SOL    HW129024   0.503   1.060   0.218
 9375SOL    HW229025   0.572   1.072   0.365
 9376SOL     OW29026   2.255   4.014   1.565
 9376SOL    HW129027   2.284   3.961   1.645
 9376SOL    HW229028   2.165   3.981   1.535
 9377SOL     OW29029   1.683   0.890   3.412
 9377SOL    HW129030   1.741   0.904   3.492
 9377SOL    HW229031   1.729   0.926   3.331
 9378SOL     OW29032   3.182   0.895   4.848
 9378SOL    HW129033   3.133   0.973   4.808
 9378SOL    HW229034   3.281   0.908   4.835
 9379SOL     OW29035   4.525   6.737   4.331
 9379SOL    HW129036   4.487   6.654   4.371
 9379SOL    HW229037   4.518   6.812   4.397
 9380SOL     OW29038   5.001   5.963   0.060
 9380SOL    HW129039   5.017   5.917   0.148
 9380SOL    HW229040   5.088   5.986   0.018
 9381SOL     OW29041   5.909   1.273   5.229
 9381SOL    HW129042   5.929   1.186   5.276
 9381SOL    HW229043   5.972   1.343   5.262
 9382SOL     OW29044   3.083   5.756   5.786
 9382SOL    HW129045   3.150   5.824   5.757
 9382SOL    HW229046   3.090   5.675   5.728
 9383SOL     OW29047   5.889   4.245   2.428
 9383SOL    HW129048   5.959   4.220   2.361
 9383SOL    HW229049   5.915   4.331   2.473
 9384SOL     OW29050   2.558   0.811   2.207
 9384SOL    HW129051   2.604   0.746   2.145
 9384SOL    HW229052   2.581   0.788   2.302
 9385SOL     OW29053   4.861   1.508   3.800
 9385SOL    HW129054   4.849   1.436   3.732
 9385SOL    HW229055   4.775   1.558   3.812
 9386SOL     OW29056   4.829   6.059   0.370
 9386SOL    HW129057   4.803   6.120   0.445
 9386SOL    HW229058   4.796   5.967   0.389
 9387SOL     OW29059   3.019   2.698   0.437
 9387SOL    HW129060   2.997   2.770   0.372
 9387SOL    HW229061   2.957   2.704   0.515
 9388SOL     OW29062   2.207   6.760   5.266
 9388SOL    HW129063   2.273   6.701   5.219
 9388SOL    HW229064   2.185   6.719   5.355
 9389SOL     OW29065   2.232   5.089   2.134
 9389SOL    HW129066   2.202   5.008   2.084
 9389SOL    HW229067   2.272   5.154   2.070
 9390SOL     OW29068   5.444   5.170   4.454
 9390SOL    HW129069   5.395   5.156   4.368
 9390SOL    HW229070   5.384   5.149   4.531
 9391SOL     OW29071   1.483   4.282   4.046
 9391SOL    HW129072   1.441   4.279   4.137
 9391SOL    HW229073   1.580   4.304   4.055
 9392SOL     OW29074   5.192   4.541   3.132
 9392SOL    HW129075   5.093   4.547   3.141
 9392SOL    HW229076   5.227   4.470   3.193
 9393SOL     OW29077   2.431   6.189   6.201
 9393SOL    HW129078   2.332   6.178   6.191
 9393SOL    HW229079   2.463   6.259   6.138
 9394SOL     OW29080   3.749   0.866   0.375
 9394SOL    HW129081   3.707   0.951   0.343
 9394SOL    HW229082   3.835   0.851   0.327
 9395SOL     OW29083   1.601   1.609   0.892
 9395SOL    HW129084   1.530   1.679   0.884
 9395SOL    HW229085   1.628   1.579   0.800
 9396SOL     OW29086   0.768   6.666   6.844
 9396SOL    HW129087   0.671   6.663   6.869
 9396SOL    HW229088   0.781   6.732   6.770
 9397SOL     OW29089   3.467   0.424   5.032
 9397SOL    HW129090   3.547   0.469   4.993
 9397SOL    HW229091   3.384   0.474   5.006
 9398SOL     OW29092   0.660   2.020   0.083
 9398SOL    HW129093   0.721   2.064   0.148
 9398SOL    HW229094   0.574   2.071   0.077
 9399SOL     OW29095   0.953   2.654   4.434
 9399SOL    HW129096   0.902   2.688   4.513
 9399SOL    HW229097   1.015   2.726   4.401
 9400SOL     OW29098   5.558   1.556   0.786
 9400SOL    HW129099   5.603   1.496   0.720
 9400SOL    HW229100   5.474   1.592   0.747
 9401SOL     OW29101   0.557   2.475   3.703
 9401SOL    HW129102   0.539   2.476   3.801
 9401SOL    HW229103   0.642   2.427   3.684
 9402SOL     OW29104   2.459   6.778   4.516
 9402SOL    HW129105   2.440   6.868   4.556
 9402SOL    HW229106   2.518   6.726   4.577
 9403SOL     OW29107   5.911   2.427   1.908
 9403SOL    HW129108   5.886   2.351   1.968
 9403SOL    HW229109   5.990   2.401   1.852
 9404SOL     OW29110   2.214   2.362   0.689
 9404SOL    HW129111   2.135   2.356   0.750
 9404SOL    HW229112   2.295   2.326   0.735
 9405SOL     OW29113   6.911   5.607   5.428
 9405SOL    HW129114   6.981   5.663   5.384
 9405SOL    HW229115   6.912   5.516   5.388
 9406SOL     OW29116   0.739   2.535   0.222
 9406SOL    HW129117   0.781   2.484   0.298
 9406SOL    HW229118   0.807   2.549   0.150
 9407SOL     OW29119   1.875   5.043   5.506
 9407SOL    HW129120   1.918   4.954   5.495
 9407SOL    HW229121   1.870   5.090   5.418
 9408SOL     OW29122   6.986   3.585   4.358
 9408SOL    HW129123   0.038   3.648   4.351
 9408SOL    HW229124   6.958   3.577   4.454
 9409SOL     OW29125   6.333   5.326   2.911
 9409SOL    HW129126   6.262   5.371   2.965
 9409SOL    HW229127   6.410   5.389   2.898
 9410SOL     OW29128   3.590   0.855   0.847
 9410SOL    HW129129   3.586   0.833   0.749
 9410SOL    HW229130   3.501   0.888   0.878
 9411SOL     OW29131   2.951   3.568   2.680
 9411SOL    HW129132   3.039   3.521   2.677
 9411SOL    HW229133   2.910   3.569   2.589
 9412SOL     OW29134   5.262   6.356   1.559
 9412SOL    HW129135   5.247   6.317   1.650
 9412SOL    HW229136   5.302   6.286   1.500
 9413SOL     OW29137   4.817   3.952   2.796
 9413SOL    HW129138   4.831   3.923   2.890
 9413SOL    HW229139   4.826   3.873   2.735
 9414SOL     OW29140   2.053   2.307   3.431
 9414SOL    HW129141   2.147   2.322   3.400
 9414SOL    HW229142   1.993   2.372   3.384
 9415SOL     OW29143   5.082   1.327   2.197
 9415SOL    HW129144   5.102   1.359   2.290
 9415SOL    HW229145   5.067   1.228   2.198
 9416SOL     OW29146   5.567   5.253   5.203
 9416SOL    HW129147   5.656   5.292   5.177
 9416SOL    HW229148   5.582   5.168   5.253
 9417SOL     OW29149   3.139   5.683   3.049
 9417SOL    HW129150   3.089   5.609   3.094
 9417SOL    HW229151   3.122   5.768   3.097
 9418SOL     OW29152   3.423   1.670   5.207
 9418SOL    HW129153   3.338   1.621   5.222
 9418SOL    HW229154   3.500   1.606   5.205
 9419SOL     OW29155   1.662   3.200   6.576
 9419SOL    HW129156   1.725   3.276   6.589
 9419SOL    HW229157   1.714   3.115   6.567
 9420SOL     OW29158   5.816   4.226   6.470
 9420SOL    HW129159   5.874   4.307   6.471
 9420SOL    HW229160   5.721   4.252   6.451
 9421SOL     OW29161   3.872   6.284   7.005
 9421SOL    HW129162   3.859   6.366   6.949
 9421SOL    HW229163   3.970   6.272   7.022
 9422SOL     OW29164   2.023   6.189   5.759
 9422SOL    HW129165   1.992   6.163   5.668
 9422SOL    HW229166   1.944   6.210   5.817
 9423SOL     OW29167   4.308   4.709   2.354
 9423SOL    HW129168   4.362   4.658   2.287
 9423SOL    HW229169   4.295   4.802   2.322
 9424SOL     OW29170   6.274   0.215   3.833
 9424SOL    HW129171   6.228   0.301   3.809
 9424SOL    HW229172   6.370   0.233   3.851
 9425SOL     OW29173   6.636   3.898   1.308
 9425SOL    HW129174   6.595   3.928   1.222
 9425SOL    HW229175   6.602   3.807   1.331
 9426SOL     OW29176   6.045   2.800   5.857
 9426SOL    HW129177   6.140   2.769   5.854
 9426SOL    HW229178   6.024   2.852   5.774
 9427SOL     OW29179   4.594   4.507   2.747
 9427SOL    HW129180   4.597   4.592   2.799
 9427SOL    HW229181   4.630   4.432   2.803
 9428SOL     OW29182   1.284   5.784   5.845
 9428SOL    HW129183   1.330   5.735   5.919
 9428SOL    HW229184   1.218   5.724   5.801
 9429SOL     OW29185   2.208   2.776   4.219
 9429SOL    HW129186   2.125   2.741   4.176
 9429SOL    HW229187   2.219   2.735   4.309
 9430SOL     OW29188   1.636   1.692   4.195
 9430SOL    HW129189   1.680   1.776   4.226
 9430SOL    HW229190   1.621   1.631   4.273
 9431SOL     OW29191   0.614   4.535   5.687
 9431SOL    HW129192   0.594   4.618   5.739
 9431SOL    HW229193   0.605   4.555   5.589
 9432SOL     OW29194   6.760   1.083   3.718
 9432SOL    HW129195   6.736   1.179   3.738
 9432SOL    HW229196   6.846   1.060   3.764
 9433SOL     OW29197   4.574   5.749   1.568
 9433SOL    HW129198   4.493   5.713   1.523
 9433SOL    HW229199   4.653   5.691   1.548
 9434SOL     OW29200   4.600   5.767   4.089
 9434SOL    HW129201   4.645   5.707   4.156
 9434SOL    HW229202   4.518   5.723   4.055
 9435SOL     OW29203   6.522   3.669   0.801
 9435SOL    HW129204   6.603   3.614   0.821
 9435SOL    HW229205   6.441   3.624   0.835
 9436SOL     OW29206   2.528   0.950   3.052
 9436SOL    HW129207   2.523   0.886   2.975
 9436SOL    HW229208   2.465   1.026   3.035
 9437SOL     OW29209   5.413   0.556   5.017
 9437SOL    HW129210   5.333   0.516   4.973
 9437SOL    HW229211   5.495   0.535   4.964
 9438SOL     OW29212   4.597   0.195   2.551
 9438SOL    HW129213   4.687   0.233   2.528
 9438SOL    HW229214   4.551   0.256   2.615
 9439SOL     OW29215   1.797   4.208   1.096
 9439SOL    HW129216   1.852   4.163   1.166
 9439SOL    HW229217   1.732   4.142   1.057
 9440SOL     OW29218   2.015   5.011   3.598
 9440SOL    HW129219   1.928   5.051   3.628
 9440SOL    HW229220   2.006   4.979   3.503
 9441SOL     OW29221   0.057   6.826   4.620
 9441SOL    HW129222   7.011   6.776   4.670
 9441SOL    HW229223   0.083   6.774   4.539
 9442SOL     OW29224   6.092   3.208   0.819
 9442SOL    HW129225   6.109   3.266   0.740
 9442SOL    HW229226   6.019   3.143   0.797
 9443SOL     OW29227   2.325   4.455   2.309
 9443SOL    HW129228   2.242   4.403   2.326
 9443SOL    HW229229   2.374   4.469   2.395
 9444SOL     OW29230   1.764   4.911   6.358
 9444SOL    HW129231   1.811   4.836   6.405
 9444SOL    HW229232   1.806   4.998   6.384
 9445SOL     OW29233   0.124   1.663   4.417
 9445SOL    HW129234   0.164   1.580   4.455
 9445SOL    HW229235   0.161   1.679   4.325
 9446SOL     OW29236   6.504   3.858   4.481
 9446SOL    HW129237   6.406   3.873   4.484
 9446SOL    HW229238   6.533   3.807   4.563
 9447SOL     OW29239   4.885   4.199   2.029
 9447SOL    HW129240   4.868   4.200   2.128
 9447SOL    HW229241   4.931   4.114   2.004
 9448SOL     OW29242   6.340   1.475   6.310
 9448SOL    HW129243   6.376   1.382   6.303
 9448SOL    HW229244   6.352   1.522   6.223
 9449SOL     OW29245   5.389   6.871   2.286
 9449SOL    HW129246   5.313   6.907   2.231
 9449SOL    HW229247   5.418   6.940   2.353
 9450SOL     OW29248   1.161   6.246   3.262
 9450SOL    HW129249   1.074   6.217   3.300
 9450SOL    HW229250   1.183   6.191   3.181
 9451SOL     OW29251   3.984   5.071   6.834
 9451SOL    HW129252   3.980   5.155   6.888
 9451SOL    HW229253   4.033   5.001   6.886
 9452SOL     OW29254   5.978   4.448   6.437
 9452SOL    HW129255   6.009   4.479   6.347
 9452SOL    HW229256   5.929   4.523   6.483
 9453SOL     OW29257   5.219   4.466   1.909
 9453SOL    HW129258   5.253   4.538   1.849
 9453SOL    HW229259   5.127   4.440   1.880
 9454SOL     OW29260   6.029   4.740   0.201
 9454SOL    HW129261   6.016   4.764   0.297
 9454SOL    HW229262   5.943   4.705   0.163
 9455SOL     OW29263   4.141   1.043   1.649
 9455SOL    HW129264   4.198   1.119   1.620
 9455SOL    HW229265   4.164   1.018   1.744
 9456SOL     OW29266   6.887   2.412   3.460
 9456SOL    HW129267   6.877   2.500   3.506
 9456SOL    HW229268   6.912   2.427   3.364
 9457SOL     OW29269   6.302   6.384   4.936
 9457SOL    HW129270   6.335   6.289   4.940
 9457SOL    HW229271   6.373   6.443   4.898
 9458SOL     OW29272   5.691   3.834   0.227
 9458SOL    HW129273   5.607   3.856   0.178
 9458SOL    HW229274   5.769   3.837   0.165
 9459SOL     OW29275   4.589   4.412   5.064
 9459SOL    HW129276   4.626   4.368   4.983
 9459SOL    HW229277   4.496   4.443   5.044
 9460SOL     OW29278   1.066   3.263   2.197
 9460SOL    HW129279   1.107   3.204   2.127
 9460SOL    HW229280   1.137   3.294   2.260
 9461SOL     OW29281   1.778   1.547   1.359
 9461SOL    HW129282   1.842   1.567   1.433
 9461SOL    HW229283   1.721   1.469   1.384
 9462SOL     OW29284   6.726   1.221   4.460
 9462SOL    HW129285   6.661   1.297   4.470
 9462SOL    HW229286   6.790   1.241   4.387
 9463SOL     OW29287   5.983   4.199   1.044
 9463SOL    HW129288   5.975   4.148   0.959
 9463SOL    HW229289   6.004   4.136   1.119
 9464SOL     OW29290   1.467   0.505   1.634
 9464SOL    HW129291   1.541   0.448   1.669
 9464SOL    HW229292   1.493   0.543   1.546
 9465SOL     OW29293   6.579   5.345   0.817
 9465SOL    HW129294   6.518   5.424   0.816
 9465SOL    HW229295   6.562   5.291   0.899
 9466SOL     OW29296   4.279   3.642   5.570
 9466SOL    HW129297   4.306   3.589   5.490
 9466SOL    HW229298   4.186   3.618   5.597
 9467SOL     OW29299   1.424   2.575   0.723
 9467SOL    HW129300   1.466   2.558   0.634
 9467SOL    HW229301   1.350   2.641   0.712
 9468SOL     OW29302   5.971   1.398   0.672
 9468SOL    HW129303   5.962   1.307   0.713
 9468SOL    HW229304   6.032   1.393   0.593
 9469SOL     OW29305   0.028   6.657   1.311
 9469SOL    HW129306   7.010   6.657   1.401
 9469SOL    HW229307   7.008   6.724   1.252
 9470SOL     OW29308   3.244   3.053   0.483
 9470SOL    HW129309   3.328   3.003   0.504
 9470SOL    HW229310   3.256   3.105   0.399
 9471SOL     OW29311   6.362   2.683   4.838
 9471SOL    HW129312   6.295   2.740   4.789
 9471SOL    HW229313   6.319   2.644   4.919
 9472SOL     OW29314   1.642   3.579   5.616
 9472SOL    HW129315   1.671   3.640   5.689
 9472SOL    HW229316   1.705   3.501   5.611
 9473SOL     OW29317   2.798   3.950   1.226
 9473SOL    HW129318   2.712   3.902   1.242
 9473SOL    HW229319   2.815   4.015   1.301
 9474SOL     OW29320   5.359   4.177   0.817
 9474SOL    HW129321   5.409   4.249   0.770
 9474SOL    HW229322   5.400   4.088   0.795
 9475SOL     OW29323   4.975   4.105   6.113
 9475SOL    HW129324   4.896   4.103   6.175
 9475SOL    HW229325   4.943   4.116   6.019
 9476SOL     OW29326   4.421   3.905   0.932
 9476SOL    HW129327   4.386   3.823   0.887
 9476SOL    HW229328   4.518   3.894   0.951
 9477SOL     OW29329   2.715   4.903   0.357
 9477SOL    HW129330   2.679   4.838   0.290
 9477SOL    HW229331   2.644   4.925   0.424
 9478SOL     OW29332   5.653   3.758   6.100
 9478SOL    HW129333   5.669   3.783   6.004
 9478SOL    HW229334   5.625   3.839   6.151
 9479SOL     OW29335   4.939   0.596   1.674
 9479SOL    HW129336   4.896   0.568   1.760
 9479SOL    HW229337   5.031   0.630   1.693
 9480SOL     OW29338   5.978   0.615   1.169
 9480SOL    HW129339   5.980   0.617   1.070
 9480SOL    HW229340   5.899   0.666   1.203
 9481SOL     OW29341   4.313   0.401   3.082
 9481SOL    HW129342   4.406   0.430   3.105
 9481SOL    HW229343   4.299   0.307   3.115
 9482SOL     OW29344   5.960   5.786   6.745
 9482SOL    HW129345   6.017   5.724   6.692
 9482SOL    HW229346   5.929   5.862   6.687
 9483SOL     OW29347   6.913   6.405   7.023
 9483SOL    HW129348   6.843   6.334   7.017
 9483SOL    HW229349   6.988   6.373   0.056
 9484SOL     OW29350   3.284   6.061   4.738
 9484SOL    HW129351   3.359   6.036   4.677
 9484SOL    HW229352   3.266   5.986   4.801
 9485SOL     OW29353   6.843   1.249   6.222
 9485SOL    HW129354   6.874   1.200   6.303
 9485SOL    HW229355   6.837   1.347   6.242
 9486SOL     OW29356   6.417   5.306   6.654
 9486SOL    HW129357   6.336   5.348   6.694
 9486SOL    HW229358   6.489   5.298   6.724
 9487SOL     OW29359   3.334   3.640   2.873
 9487SOL    HW129360   3.361   3.726   2.828
 9487SOL    HW229361   3.237   3.643   2.895
 9488SOL     OW29362   1.827   0.897   1.111
 9488SOL    HW129363   1.776   0.882   1.195
 9488SOL    HW229364   1.842   0.809   1.065
 9489SOL     OW29365   5.371   3.332   0.405
 9489SOL    HW129366   5.434   3.295   0.474
 9489SOL    HW229367   5.415   3.332   0.316
 9490SOL     OW29368   5.440   3.420   4.882
 9490SOL    HW129369   5.482   3.409   4.791
 9490SOL    HW229370   5.421   3.516   4.898
 9491SOL     OW29371   5.720   0.190   2.629
 9491SOL    HW129372   5.624   0.204   2.605
 9491SOL    HW229373   5.745   0.094   2.614
 9492SOL     OW29374   5.177   3.024   3.364
 9492SOL    HW129375   5.107   3.047   3.297
 9492SOL    HW229376   5.156   3.068   3.452
 9493SOL     OW29377   4.013   6.162   1.402
 9493SOL    HW129378   4.111   6.164   1.422
 9493SOL    HW229379   3.971   6.249   1.428
 9494SOL     OW29380   5.927   1.839   1.784
 9494SOL    HW129381   6.014   1.824   1.737
 9494SOL    HW229382   5.928   1.928   1.828
 9495SOL     OW29383   6.271   2.549   1.181
 9495SOL    HW129384   6.222   2.607   1.246
 9495SOL    HW229385   6.354   2.514   1.224
 9496SOL     OW29386   5.674   2.119   1.361
 9496SOL    HW129387   5.697   2.022   1.347
 9496SOL    HW229388   5.700   2.146   1.454
 9497SOL     OW29389   4.455   4.596   4.806
 9497SOL    HW129390   4.539   4.628   4.850
 9497SOL    HW229391   4.388   4.573   4.876
 9498SOL     OW29392   1.318   5.563   4.488
 9498SOL    HW129393   1.340   5.567   4.586
 9498SOL    HW229394   1.226   5.526   4.477
 9499SOL     OW29395   5.555   5.902   4.562
 9499SOL    HW129396   5.470   5.880   4.609
 9499SOL    HW229397   5.617   5.949   4.626
 9500SOL     OW29398   3.087   1.919   0.767
 9500SOL    HW129399   3.032   1.836   0.763
 9500SOL    HW229400   3.114   1.937   0.862
 9501SOL     OW29401   2.100   4.101   4.900
 9501SOL    HW129402   2.072   4.196   4.884
 9501SOL    HW229403   2.181   4.100   4.958
 9502SOL     OW29404   5.602   4.861   3.897
 9502SOL    HW129405   5.621   4.827   3.804
 9502SOL    HW229406   5.517   4.913   3.896
 9503SOL     OW29407   6.302   1.335   0.236
 9503SOL    HW129408   6.335   1.429   0.249
 9503SOL    HW229409   6.277   1.322   0.140
 9504SOL     OW29410   6.034   5.333   2.129
 9504SOL    HW129411   6.060   5.309   2.222
 9504SOL    HW229412   6.116   5.342   2.073
 9505SOL     OW29413   4.388   4.350   5.930
 9505SOL    HW129414   4.402   4.418   5.858
 9505SOL    HW229415   4.462   4.284   5.928
 9506SOL     OW29416   3.060   0.404   0.990
 9506SOL    HW129417   3.045   0.308   1.016
 9506SOL    HW229418   3.003   0.426   0.911
 9507SOL     OW29419   5.893   0.129   2.396
 9507SOL    HW129420   5.826   0.188   2.351
 9507SOL    HW229421   5.859   0.035   2.399
 9508SOL     OW29422   4.544   1.624   2.731
 9508SOL    HW129423   4.602   1.577   2.798
 9508SOL    HW229424   4.448   1.598   2.747
 9509SOL     OW29425   5.333   0.948   3.096
 9509SOL    HW129426   5.376   1.031   3.133
 9509SOL    HW229427   5.400   0.898   3.042
 9510SOL     OW29428   1.676   2.958   3.663
 9510SOL    HW129429   1.714   2.869   3.686
 9510SOL    HW229430   1.747   3.015   3.621
 9511SOL     OW29431   0.194   1.706   0.937
 9511SOL    HW129432   0.150   1.676   1.022
 9511SOL    HW229433   0.162   1.648   0.862
 9512SOL     OW29434   6.727   1.856   1.158
 9512SOL    HW129435   6.695   1.938   1.109
 9512SOL    HW229436   6.659   1.831   1.227
 9513SOL     OW29437   4.482   4.154   5.574
 9513SOL    HW129438   4.430   4.079   5.614
 9513SOL    HW229439   4.451   4.169   5.480
 9514SOL     OW29440   3.695   3.037   6.699
 9514SOL    HW129441   3.710   3.003   6.606
 9514SOL    HW229442   3.597   3.047   6.715
 9515SOL     OW29443   0.573   5.419   3.991
 9515SOL    HW129444   0.507   5.493   3.979
 9515SOL    HW229445   0.660   5.458   4.022
 9516SOL     OW29446   6.868   4.285   6.744
 9516SOL    HW129447   6.784   4.291   6.690
 9516SOL    HW229448   6.914   4.198   6.723
 9517SOL     OW29449   0.306   6.250   1.618
 9517SOL    HW129450   0.336   6.158   1.596
 9517SOL    HW229451   0.352   6.282   1.701
 9518SOL     OW29452   1.172   0.749   1.112
 9518SOL    HW129453   1.217   0.733   1.200
 9518SOL    HW229454   1.150   0.846   1.102
 9519SOL     OW29455   1.253   2.724   5.453
 9519SOL    HW129456   1.166   2.759   5.488
 9519SOL    HW229457   1.237   2.671   5.370
 9520SOL     OW29458   4.697   0.157   1.413
 9520SOL    HW129459   4.750   0.137   1.331
 9520SOL    HW229460   4.651   0.245   1.403
 9521SOL     OW29461   5.371   5.553   3.030
 9521SOL    HW129462   5.286   5.580   3.075
 9521SOL    HW229463   5.426   5.498   3.093
 9522SOL     OW29464   3.034   6.026   0.384
 9522SOL    HW129465   3.032   6.103   0.448
 9522SOL    HW229466   3.058   6.059   0.293
 9523SOL     OW29467   2.483   6.178   5.798
 9523SOL    HW129468   2.478   6.150   5.702
 9523SOL    HW229469   2.484   6.096   5.856
 9524SOL     OW29470   4.477   2.156   1.090
 9524SOL    HW129471   4.498   2.166   0.993
 9524SOL    HW229472   4.438   2.066   1.107
 9525SOL     OW29473   3.838   0.345   4.738
 9525SOL    HW129474   3.832   0.298   4.826
 9525SOL    HW229475   3.918   0.312   4.688
 9526SOL     OW29476   4.503   6.087   1.896
 9526SOL    HW129477   4.432   6.021   1.872
 9526SOL    HW229478   4.484   6.174   1.852
 9527SOL     OW29479   6.490   2.053   1.167
 9527SOL    HW129480   6.498   2.108   1.083
 9527SOL    HW229481   6.466   1.959   1.143
 9528SOL     OW29482   7.023   1.082   1.773
 9528SOL    HW129483   6.969   1.066   1.690
 9528SOL    HW229484   7.022   0.999   1.829
 9529SOL     OW29485   1.003   3.527   4.693
 9529SOL    HW129486   0.964   3.594   4.756
 9529SOL    HW229487   0.945   3.446   4.691
 9530SOL     OW29488   1.246   2.453   4.166
 9530SOL    HW129489   1.335   2.408   4.170
 9530SOL    HW229490   1.177   2.394   4.207
 9531SOL     OW29491   2.766   6.317   3.594
 9531SOL    HW129492   2.787   6.270   3.680
 9531SOL    HW229493   2.692   6.382   3.609
 9532SOL     OW29494   2.627   1.353   1.649
 9532SOL    HW129495   2.556   1.332   1.716
 9532SOL    HW229496   2.631   1.452   1.633
 9533SOL     OW29497   1.856   0.647   4.574
 9533SOL    HW129498   1.860   0.741   4.542
 9533SOL    HW229499   1.765   0.610   4.557
 9534SOL     OW29500   4.811   2.190   4.223
 9534SOL    HW129501   4.763   2.142   4.149
 9534SOL    HW229502   4.744   2.224   4.289
 9535SOL     OW29503   2.947   2.297   4.631
 9535SOL    HW129504   2.895   2.229   4.682
 9535SOL    HW229505   2.925   2.388   4.666
 9536SOL     OW29506   2.741   6.520   6.848
 9536SOL    HW129507   2.806   6.503   6.922
 9536SOL    HW229508   2.665   6.576   6.882
 9537SOL     OW29509   2.287   6.382   0.435
 9537SOL    HW129510   2.255   6.374   0.530
 9537SOL    HW229511   2.253   6.468   0.396
 9538SOL     OW29512   6.005   3.426   3.732
 9538SOL    HW129513   6.073   3.492   3.698
 9538SOL    HW229514   5.930   3.476   3.774
 9539SOL     OW29515   0.252   4.130   0.443
 9539SOL    HW129516   0.315   4.187   0.390
 9539SOL    HW229517   0.189   4.082   0.381
 9540SOL     OW29518   5.620   3.183   5.686
 9540SOL    HW129519   5.532   3.147   5.716
 9540SOL    HW229520   5.623   3.181   5.586
 9541SOL     OW29521   0.172   1.494   3.298
 9541SOL    HW129522   0.241   1.497   3.226
 9541SOL    HW229523   0.160   1.586   3.336
 9542SOL     OW29524   4.674   4.321   4.810
 9542SOL    HW129525   4.764   4.344   4.773
 9542SOL    HW229526   4.602   4.359   4.752
 9543SOL     OW29527   5.540   2.365   1.283
 9543SOL    HW129528   5.547   2.274   1.325
 9543SOL    HW229529   5.449   2.403   1.301
 9544SOL     OW29530   3.886   1.553   2.020
 9544SOL    HW129531   3.892   1.560   1.920
 9544SOL    HW229532   3.851   1.640   2.057
 9545SOL     OW29533   1.484   6.935   4.493
 9545SOL    HW129534   1.573   6.934   4.447
 9545SOL    HW229535   1.434   7.017   4.466
 9546SOL     OW29536   2.338   4.966   1.774
 9546SOL    HW129537   2.319   4.876   1.814
 9546SOL    HW229538   2.436   4.984   1.777
 9547SOL     OW29539   6.160   5.365   3.685
 9547SOL    HW129540   6.092   5.393   3.751
 9547SOL    HW229541   6.159   5.265   3.677
 9548SOL     OW29542   4.480   0.111   2.914
 9548SOL    HW129543   4.499   0.190   2.857
 9548SOL    HW229544   4.554   0.100   2.981
 9549SOL     OW29545   2.461   5.224   0.377
 9549SOL    HW129546   2.417   5.267   0.299
 9549SOL    HW229547   2.517   5.291   0.426
 9550SOL     OW29548   1.274   0.922   7.014
 9550SOL    HW129549   1.314   1.014   7.017
 9550SOL    HW229550   1.238   0.904   6.922
 9551SOL     OW29551   1.114   6.008   5.884
 9551SOL    HW129552   1.025   5.985   5.924
 9551SOL    HW229553   1.162   5.924   5.860
 9552SOL     OW29554   0.331   5.055   3.324
 9552SOL    HW129555   0.419   5.065   3.369
 9552SOL    HW229556   0.321   4.961   3.291
 9553SOL     OW29557   5.505   4.482   5.872
 9553SOL    HW129558   5.469   4.413   5.810
 9553SOL    HW229559   5.595   4.512   5.839
 9554SOL     OW29560   1.936   1.957   1.252
 9554SOL    HW129561   1.885   1.974   1.337
 9554SOL    HW229562   1.967   1.862   1.251
 9555SOL     OW29563   0.131   2.763   6.308
 9555SOL    HW129564   0.139   2.671   6.269
 9555SOL    HW229565   0.213   2.785   6.360
 9556SOL     OW29566   6.381   1.591   0.658
 9556SOL    HW129567   6.319   1.529   0.705
 9556SOL    HW229568   6.352   1.686   0.673
 9557SOL     OW29569   5.594   2.094   1.861
 9557SOL    HW129570   5.513   2.035   1.859
 9557SOL    HW229571   5.578   2.174   1.803
 9558SOL     OW29572   5.550   4.583   2.117
 9558SOL    HW129573   5.592   4.615   2.032
 9558SOL    HW229574   5.599   4.620   2.195
 9559SOL     OW29575   6.235   3.892   2.668
 9559SOL    HW129576   6.269   3.936   2.751
 9559SOL    HW229577   6.275   3.801   2.659
 9560SOL     OW29578   3.922   2.228   5.100
 9560SOL    HW129579   4.001   2.288   5.086
 9560SOL    HW229580   3.848   2.279   5.143
 9561SOL     OW29581   2.803   6.535   6.132
 9561SOL    HW129582   2.893   6.573   6.155
 9561SOL    HW229583   2.800   6.439   6.157
 9562SOL     OW29584   6.038   4.692   4.173
 9562SOL    HW129585   6.073   4.763   4.112
 9562SOL    HW229586   5.938   4.698   4.178
 9563SOL     OW29587   0.559   6.199   6.538
 9563SOL    HW129588   0.617   6.223   6.616
 9563SOL    HW229589   0.617   6.182   6.458
 9564SOL     OW29590   1.521   0.626   6.440
 9564SOL    HW129591   1.543   0.647   6.535
 9564SOL    HW229592   1.540   0.530   6.422
 9565SOL     OW29593   3.918   5.760   3.919
 9565SOL    HW129594   3.847   5.693   3.941
 9565SOL    HW229595   3.998   5.745   3.977
 9566SOL     OW29596   3.736   4.836   6.090
 9566SOL    HW129597   3.711   4.924   6.130
 9566SOL    HW229598   3.835   4.825   6.094
 9567SOL     OW29599   6.002   5.681   5.021
 9567SOL    HW129600   5.974   5.700   5.115
 9567SOL    HW229601   5.985   5.762   4.965
 9568SOL     OW29602   5.163   4.016   6.323
 9568SOL    HW129603   5.103   4.045   6.248
 9568SOL    HW229604   5.153   3.917   6.337
 9569SOL     OW29605   5.129   7.016   2.241
 9569SOL    HW129606   5.128   6.966   2.155
 9569SOL    HW229607   5.069   6.971   2.307
 9570SOL     OW29608   0.802   1.417   6.638
 9570SOL    HW129609   0.864   1.452   6.569
 9570SOL    HW229610   0.745   1.492   6.673
 9571SOL     OW29611   2.260   2.691   0.097
 9571SOL    HW129612   2.258   2.657   0.191
 9571SOL    HW229613   2.246   2.615   0.033
 9572SOL     OW29614   0.611   3.614   1.388
 9572SOL    HW129615   0.707   3.613   1.416
 9572SOL    HW229616   0.565   3.695   1.425
 9573SOL     OW29617   5.359   1.574   2.237
 9573SOL    HW129618   5.424   1.499   2.219
 9573SOL    HW229619   5.289   1.542   2.301
 9574SOL     OW29620   2.857   1.882   3.874
 9574SOL    HW129621   2.948   1.924   3.879
 9574SOL    HW229622   2.789   1.952   3.853
 9575SOL     OW29623   4.670   1.022   2.657
 9575SOL    HW129624   4.743   1.084   2.683
 9575SOL    HW229625   4.616   1.062   2.583
 9576SOL     OW29626   4.214   2.990   5.318
 9576SOL    HW129627   4.172   3.044   5.245
 9576SOL    HW229628   4.272   3.048   5.374
 9577SOL     OW29629   0.709   6.028   3.617
 9577SOL    HW129630   0.642   6.038   3.544
 9577SOL    HW229631   0.721   6.115   3.665
 9578SOL     OW29632   6.452   4.360   2.110
 9578SOL    HW129633   6.409   4.317   2.031
 9578SOL    HW229634   6.385   4.372   2.183
 9579SOL     OW29635   1.844   5.508   2.984
 9579SOL    HW129636   1.833   5.607   2.976
 9579SOL    HW229637   1.905   5.488   3.061
 9580SOL     OW29638   4.005   3.256   5.582
 9580SOL    HW129639   4.089   3.204   5.565
 9580SOL    HW229640   3.949   3.206   5.649
 9581SOL     OW29641   1.049   5.678   5.624
 9581SOL    HW129642   1.003   5.594   5.594
 9581SOL    HW229643   1.115   5.706   5.555
 9582SOL     OW29644   4.435   4.995   3.426
 9582SOL    HW129645   4.468   5.083   3.391
 9582SOL    HW229646   4.378   4.952   3.357
 9583SOL     OW29647   1.999   5.062   1.868
 9583SOL    HW129648   1.986   5.023   1.959
 9583SOL    HW229649   2.041   4.994   1.808
 9584SOL     OW29650   5.141   4.910   0.016
 9584SOL    HW129651   5.234   4.941   7.019
 9584SOL    HW229652   5.103   4.861   6.962
 9585SOL     OW29653   0.749   0.605   3.237
 9585SOL    HW129654   0.740   0.511   3.204
 9585SOL    HW229655   0.836   0.643   3.206
 9586SOL     OW29656   5.127   3.686   2.362
 9586SOL    HW129657   5.133   3.593   2.397
 9586SOL    HW229658   5.165   3.750   2.428
 9587SOL     OW29659   4.943   6.300   1.198
 9587SOL    HW129660   4.847   6.308   1.223
 9587SOL    HW229661   5.000   6.345   1.267
 9588SOL     OW29662   6.580   1.008   2.709
 9588SOL    HW129663   6.500   0.967   2.666
 9588SOL    HW229664   6.659   0.997   2.650
 9589SOL     OW29665   2.960   1.834   5.026
 9589SOL    HW129666   3.001   1.833   5.117
 9589SOL    HW229667   3.006   1.903   4.969
 9590SOL     OW29668   0.682   5.161   4.692
 9590SOL    HW129669   0.742   5.204   4.760
 9590SOL    HW229670   0.683   5.062   4.703
 9591SOL     OW29671   1.339   4.589   2.400
 9591SOL    HW129672   1.278   4.547   2.333
 9591SOL    HW229673   1.351   4.526   2.477
 9592SOL     OW29674   5.269   6.007   1.012
 9592SOL    HW129675   5.267   5.921   0.961
 9592SOL    HW229676   5.212   5.998   1.094
 9593SOL     OW29677   2.689   2.317   3.536
 9593SOL    HW129678   2.657   2.410   3.555
 9593SOL    HW229679   2.635   2.252   3.589
 9594SOL     OW29680   6.033   6.985   0.636
 9594SOL    HW129681   5.989   0.048   0.652
 9594SOL    HW229682   6.120   7.000   0.588
 9595SOL     OW29683   0.876   4.569   4.289
 9595SOL    HW129684   0.860   4.600   4.195
 9595SOL    HW229685   0.948   4.500   4.290
 9596SOL     OW29686   4.848   5.693   2.061
 9596SOL    HW129687   4.915   5.648   2.120
 9596SOL    HW229688   4.773   5.730   2.116
 9597SOL     OW29689   1.857   4.515   0.749
 9597SOL    HW129690   1.948   4.491   0.782
 9597SOL    HW229691   1.795   4.437   0.762
 9598SOL     OW29692   0.829   5.937   5.983
 9598SOL    HW129693   0.816   5.875   6.061
 9598SOL    HW229694   0.821   5.885   5.898
 9599SOL     OW29695   4.286   1.243   5.061
 9599SOL    HW129696   4.237   1.260   5.146
 9599SOL    HW229697   4.238   1.286   4.984
 9600SOL     OW29698   1.720   6.045   6.706
 9600SOL    HW129699   1.634   5.999   6.685
 9600SOL    HW229700   1.782   5.980   6.751
 9601SOL     OW29701   0.558   6.811   5.786
 9601SOL    HW129702   0.558   6.817   5.886
 9601SOL    HW229703   0.548   6.715   5.759
 9602SOL     OW29704   0.354   5.263   6.669
 9602SOL    HW129705   0.293   5.326   6.717
 9602SOL    HW229706   0.435   5.313   6.638
 9603SOL     OW29707   1.196   5.086   2.537
 9603SOL    HW129708   1.275   5.135   2.500
 9603SOL    HW229709   1.191   4.995   2.498
 9604SOL     OW29710   6.774   6.790   6.803
 9604SOL    HW129711   6.817   6.864   6.854
 9604SOL    HW229712   6.743   6.824   6.714
 9605SOL     OW29713   2.967   4.988   0.432
 9605SOL    HW129714   2.973   4.975   0.531
 9605SOL    HW229715   2.879   4.954   0.398
 9606SOL     OW29716   6.755   6.971   5.198
 9606SOL    HW129717   6.737   6.980   5.296
 9606SOL    HW229718   6.714   6.886   5.165
 9607SOL     OW29719   0.046   2.143   2.212
 9607SOL    HW129720   0.104   2.207   2.161
 9607SOL    HW229721   7.022   2.194   2.283
 9608SOL     OW29722   6.618   0.322   2.531
 9608SOL    HW129723   6.643   0.411   2.570
 9608SOL    HW229724   6.600   0.332   2.433
 9609SOL     OW29725   1.851   2.155   3.669
 9609SOL    HW129726   1.782   2.106   3.724
 9609SOL    HW229727   1.890   2.092   3.602
 9610SOL     OW29728   3.468   0.605   5.776
 9610SOL    HW129729   3.553   0.590   5.826
 9610SOL    HW229730   3.488   0.648   5.688
 9611SOL     OW29731   5.528   6.304   1.110
 9611SOL    HW129732   5.515   6.208   1.135
 9611SOL    HW229733   5.587   6.310   1.029
 9612SOL     OW29734   5.117   3.679   3.327
 9612SOL    HW129735   5.165   3.602   3.285
 9612SOL    HW229736   5.183   3.738   3.374
 9613SOL     OW29737   5.729   0.391   5.532
 9613SOL    HW129738   5.669   0.383   5.611
 9613SOL    HW229739   5.786   0.309   5.523
 9614SOL     OW29740   3.251   2.946   1.408
 9614SOL    HW129741   3.315   2.895   1.465
 9614SOL    HW229742   3.161   2.947   1.452
 9615SOL     OW29743   0.733   6.297   3.685
 9615SOL    HW129744   0.644   6.326   3.722
 9615SOL    HW229745   0.806   6.331   3.744
 9616SOL     OW29746   1.369   2.934   1.401
 9616SOL    HW129747   1.455   2.970   1.364
 9616SOL    HW229748   1.292   2.981   1.358
 9617SOL     OW29749   0.059   3.005   2.274
 9617SOL    HW129750   0.012   2.947   2.208
 9617SOL    HW229751   0.068   2.956   2.361
 9618SOL     OW29752   4.478   4.088   0.671
 9618SOL    HW129753   4.538   4.104   0.593
 9618SOL    HW229754   4.515   4.014   0.727
 9619SOL     OW29755   0.629   6.967   1.433
 9619SOL    HW129756   0.659   6.943   1.525
 9619SOL    HW229757   0.550   0.003   1.438
 9620SOL     OW29758   3.032   1.651   7.009
 9620SOL    HW129759   3.121   1.616   0.014
 9620SOL    HW229760   2.974   1.575   6.979
 9621SOL     OW29761   0.529   0.827   1.713
 9621SOL    HW129762   0.621   0.866   1.703
 9621SOL    HW229763   0.497   0.841   1.806
 9622SOL     OW29764   6.261   5.614   5.737
 9622SOL    HW129765   6.339   5.676   5.725
 9622SOL    HW229766   6.273   5.560   5.820
 9623SOL     OW29767   3.582   6.313   5.757
 9623SOL    HW129768   3.517   6.271   5.821
 9623SOL    HW229769   3.567   6.277   5.665
 9624SOL     OW29770   4.705   5.433   5.425
 9624SOL    HW129771   4.653   5.347   5.429
 9624SOL    HW229772   4.774   5.427   5.353
 9625SOL     OW29773   4.421   3.747   6.477
 9625SOL    HW129774   4.438   3.822   6.414
 9625SOL    HW229775   4.483   3.754   6.555
 9626SOL     OW29776   2.346   2.381   6.615
 9626SOL    HW129777   2.256   2.337   6.612
 9626SOL    HW229778   2.404   2.344   6.542
 9627SOL     OW29779   0.090   5.499   0.916
 9627SOL    HW129780   0.175   5.499   0.968
 9627SOL    HW229781   0.055   5.592   0.908
 9628SOL     OW29782   0.164   1.790   6.082
 9628SOL    HW129783   0.105   1.718   6.047
 9628SOL    HW229784   0.109   1.870   6.107
 9629SOL     OW29785   0.291   6.009   3.630
 9629SOL    HW129786   0.317   6.105   3.613
 9629SOL    HW229787   0.369   5.950   3.611
 9630SOL     OW29788   5.586   1.535   5.965
 9630SOL    HW129789   5.632   1.447   5.977
 9630SOL    HW229790   5.582   1.558   5.868
 9631SOL     OW29791   4.504   6.782   0.346
 9631SOL    HW129792   4.584   6.803   0.401
 9631SOL    HW229793   4.480   6.686   0.356
 9632SOL     OW29794   2.785   4.763   2.851
 9632SOL    HW129795   2.799   4.757   2.752
 9632SOL    HW229796   2.873   4.775   2.897
 9633SOL     OW29797   3.875   3.056   4.021
 9633SOL    HW129798   3.885   2.991   3.946
 9633SOL    HW229799   3.962   3.063   4.071
 9634SOL     OW29800   5.372   4.745   3.177
 9634SOL    HW129801   5.412   4.721   3.266
 9634SOL    HW229802   5.291   4.690   3.161
 9635SOL     OW29803   0.338   4.789   4.014
 9635SOL    HW129804   0.391   4.810   3.932
 9635SOL    HW229805   0.362   4.854   4.087
 9636SOL     OW29806   5.846   3.809   4.261
 9636SOL    HW129807   5.776   3.880   4.274
 9636SOL    HW229808   5.866   3.799   4.163
 9637SOL     OW29809   1.422   3.956   0.256
 9637SOL    HW129810   1.448   3.883   0.193
 9637SOL    HW229811   1.368   4.025   0.207
 9638SOL     OW29812   6.040   5.421   5.947
 9638SOL    HW129813   5.994   5.358   5.885
 9638SOL    HW229814   6.138   5.402   5.947
 9639SOL     OW29815   4.330   2.294   1.397
 9639SOL    HW129816   4.358   2.343   1.314
 9639SOL    HW229817   4.386   2.324   1.474
 9640SOL     OW29818   4.029   0.299   3.454
 9640SOL    HW129819   3.981   0.306   3.367
 9640SOL    HW229820   4.084   0.382   3.468
 9641SOL     OW29821   6.673   2.814   4.876
 9641SOL    HW129822   6.670   2.855   4.785
 9641SOL    HW229823   6.610   2.862   4.936
 9642SOL     OW29824   0.860   1.840   4.507
 9642SOL    HW129825   0.814   1.781   4.574
 9642SOL    HW229826   0.890   1.785   4.429
 9643SOL     OW29827   5.730   5.392   4.168
 9643SOL    HW129828   5.676   5.323   4.120
 9643SOL    HW229829   5.747   5.470   4.108
 9644SOL     OW29830   1.104   4.916   2.954
 9644SOL    HW129831   1.012   4.944   2.983
 9644SOL    HW229832   1.150   4.871   3.030
 9645SOL     OW29833   1.368   5.076   6.073
 9645SOL    HW129834   1.280   5.111   6.107
 9645SOL    HW229835   1.427   5.055   6.151
 9646SOL     OW29836   3.198   5.817   0.354
 9646SOL    HW129837   3.162   5.906   0.381
 9646SOL    HW229838   3.216   5.762   0.436
 9647SOL     OW29839   6.040   6.508   3.145
 9647SOL    HW129840   6.018   6.419   3.184
 9647SOL    HW229841   6.126   6.502   3.095
 9648SOL     OW29842   2.872   1.585   0.979
 9648SOL    HW129843   2.816   1.503   0.993
 9648SOL    HW229844   2.953   1.581   1.037
 9649SOL     OW29845   0.136   5.680   1.163
 9649SOL    HW129846   0.175   5.622   1.091
 9649SOL    HW229847   0.038   5.693   1.146
 9650SOL     OW29848   0.954   4.804   4.408
 9650SOL    HW129849   0.922   4.714   4.378
 9650SOL    HW229850   0.910   4.875   4.354
 9651SOL     OW29851   3.338   1.924   0.083
 9651SOL    HW129852   3.409   1.854   0.076
 9651SOL    HW229853   3.299   1.923   0.176
 9652SOL     OW29854   0.125   4.179   0.091
 9652SOL    HW129855   0.054   4.132   0.144
 9652SOL    HW229856   0.083   4.251   0.035
 9653SOL     OW29857   5.002   4.496   5.644
 9653SOL    HW129858   5.034   4.435   5.717
 9653SOL    HW229859   4.973   4.442   5.565
 9654SOL     OW29860   3.890   3.455   3.077
 9654SOL    HW129861   3.903   3.428   3.172
 9654SOL    HW229862   3.957   3.525   3.052
 9655SOL     OW29863   4.444   1.719   0.754
 9655SOL    HW129864   4.509   1.750   0.823
 9655SOL    HW229865   4.352   1.714   0.794
 9656SOL     OW29866   4.786   4.292   6.395
 9656SOL    HW129867   4.715   4.323   6.458
 9656SOL    HW229868   4.821   4.371   6.344
 9657SOL     OW29869   5.331   4.924   3.946
 9657SOL    HW129870   5.335   5.023   3.959
 9657SOL    HW229871   5.284   4.882   4.024
 9658SOL     OW29872   5.527   1.424   1.907
 9658SOL    HW129873   5.443   1.386   1.869
 9658SOL    HW229874   5.517   1.435   2.006
 9659SOL     OW29875   2.916   3.136   6.656
 9659SOL    HW129876   2.984   3.083   6.606
 9659SOL    HW229877   2.859   3.186   6.591
 9660SOL     OW29878   1.275   6.500   1.381
 9660SOL    HW129879   1.269   6.402   1.362
 9660SOL    HW229880   1.186   6.543   1.363
 9661SOL     OW29881   4.303   3.855   1.363
 9661SOL    HW129882   4.351   3.923   1.309
 9661SOL    HW229883   4.205   3.864   1.350
 9662SOL     OW29884   4.861   6.491   5.885
 9662SOL    HW129885   4.850   6.398   5.849
 9662SOL    HW229886   4.808   6.501   5.969
 9663SOL     OW29887   1.246   5.176   2.937
 9663SOL    HW129888   1.194   5.097   2.904
 9663SOL    HW229889   1.202   5.260   2.905
 9664SOL     OW29890   3.505   4.922   2.252
 9664SOL    HW129891   3.463   4.844   2.206
 9664SOL    HW229892   3.478   5.006   2.204
 9665SOL     OW29893   6.356   4.145   5.595
 9665SOL    HW129894   6.440   4.103   5.562
 9665SOL    HW229895   6.301   4.176   5.518
 9666SOL     OW29896   5.030   3.783   0.388
 9666SOL    HW129897   4.999   3.697   0.429
 9666SOL    HW229898   5.011   3.858   0.451
 9667SOL     OW29899   5.509   6.087   0.266
 9667SOL    HW129900   5.581   6.154   0.248
 9667SOL    HW229901   5.506   6.020   0.191
 9668SOL     OW29902   1.911   1.698   6.111
 9668SOL    HW129903   1.933   1.728   6.019
 9668SOL    HW229904   1.838   1.756   6.148
 9669SOL     OW29905   3.033   0.465   0.122
 9669SOL    HW129906   3.019   0.378   0.169
 9669SOL    HW229907   3.119   0.463   0.071
 9670SOL     OW29908   0.833   0.840   0.769
 9670SOL    HW129909   0.794   0.788   0.693
 9670SOL    HW229910   0.922   0.801   0.794
 9671SOL     OW29911   0.934   5.178   7.006
 9671SOL    HW129912   0.924   5.161   0.079
 9671SOL    HW229913   0.844   5.201   6.967
 9672SOL     OW29914   0.909   3.952   4.409
 9672SOL    HW129915   0.941   3.943   4.504
 9672SOL    HW229916   0.983   3.989   4.353
 9673SOL     OW29917   2.253   3.603   0.004
 9673SOL    HW129918   2.351   3.587   0.002
 9673SOL    HW229919   2.217   3.577   0.094
 9674SOL     OW29920   2.071   6.630   3.907
 9674SOL    HW129921   2.072   6.584   3.995
 9674SOL    HW229922   1.979   6.625   3.868
 9675SOL     OW29923   6.065   3.892   5.293
 9675SOL    HW129924   6.157   3.866   5.321
 9675SOL    HW229925   6.045   3.985   5.321
 9676SOL     OW29926   0.608   3.165   6.029
 9676SOL    HW129927   0.597   3.218   6.113
 9676SOL    HW229928   0.600   3.227   5.950
 9677SOL     OW29929   6.645   5.101   2.741
 9677SOL    HW129930   6.580   5.081   2.815
 9677SOL    HW229931   6.637   5.197   2.715
 9678SOL     OW29932   3.537   3.726   5.382
 9678SOL    HW129933   3.499   3.650   5.435
 9678SOL    HW229934   3.627   3.750   5.418
 9679SOL     OW29935   2.013   0.455   3.926
 9679SOL    HW129936   1.982   0.531   3.983
 9679SOL    HW229937   2.039   0.490   3.836
 9680SOL     OW29938   4.642   0.799   1.860
 9680SOL    HW129939   4.697   0.718   1.840
 9680SOL    HW229940   4.626   0.804   1.959
 9681SOL     OW29941   1.571   2.548   1.521
 9681SOL    HW129942   1.471   2.544   1.531
 9681SOL    HW229943   1.595   2.627   1.465
 9682SOL     OW29944   5.389   6.975   5.952
 9682SOL    HW129945   5.471   6.918   5.948
 9682SOL    HW229946   5.415   0.046   5.940
 9683SOL     OW29947   3.484   6.319   3.780
 9683SOL    HW129948   3.493   6.265   3.696
 9683SOL    HW229949   3.544   6.398   3.775
 9684SOL     OW29950   6.971   3.273   5.365
 9684SOL    HW129951   0.039   3.275   5.328
 9684SOL    HW229952   6.970   3.220   5.449
 9685SOL     OW29953   3.342   4.577   1.628
 9685SOL    HW129954   3.428   4.588   1.677
 9685SOL    HW229955   3.273   4.539   1.689
 9686SOL     OW29956   0.034   1.324   5.877
 9686SOL    HW129957   0.107   1.282   5.931
 9686SOL    HW229958   0.038   1.288   5.783
 9687SOL     OW29959   5.460   1.132   3.246
 9687SOL    HW129960   5.485   1.060   3.311
 9687SOL    HW229961   5.522   1.210   3.257
 9688SOL     OW29962   0.330   4.670   1.598
 9688SOL    HW129963   0.296   4.580   1.571
 9688SOL    HW229964   0.430   4.671   1.591
 9689SOL     OW29965   1.874   5.944   1.311
 9689SOL    HW129966   1.913   5.865   1.265
 9689SOL    HW229967   1.868   6.021   1.246
 9690SOL     OW29968   0.676   4.523   4.829
 9690SOL    HW129969   0.599   4.510   4.767
 9690SOL    HW229970   0.761   4.497   4.783
 9691SOL     OW29971   3.363   3.638   1.733
 9691SOL    HW129972   3.377   3.627   1.831
 9691SOL    HW229973   3.439   3.597   1.683
 9692SOL     OW29974   5.045   4.296   0.724
 9692SOL    HW129975   5.042   4.280   0.822
 9692SOL    HW229976   5.124   4.354   0.702
 9693SOL     OW29977   4.649   2.864   5.605
 9693SOL    HW129978   4.596   2.943   5.575
 9693SOL    HW229979   4.588   2.787   5.623
 9694SOL     OW29980   3.019   6.500   1.671
 9694SOL    HW129981   2.947   6.559   1.635
 9694SOL    HW229982   3.067   6.548   1.744
 9695SOL     OW29983   0.838   3.312   4.049
 9695SOL    HW129984   0.754   3.281   4.006
 9695SOL    HW229985   0.846   3.272   4.141
 9696SOL     OW29986   5.106   2.999   3.083
 9696SOL    HW129987   5.126   2.930   3.014
 9696SOL    HW229988   5.179   3.067   3.084
 9697SOL     OW29989   0.413   6.866   1.710
 9697SOL    HW129990   0.453   6.810   1.636
 9697SOL    HW229991   0.479   6.874   1.784
 9698SOL     OW29992   0.190   3.713   2.054
 9698SOL    HW129993   0.117   3.664   2.102
 9698SOL    HW229994   0.158   3.805   2.029
 9699SOL     OW29995   1.142   5.451   1.260
 9699SOL    HW129996   1.130   5.456   1.359
 9699SOL    HW229997   1.141   5.543   1.222
 9700SOL     OW29998   5.193   0.374   6.398
 9700SOL    HW129999   5.115   0.365   6.336
 9700SOL    HW230000   5.248   0.453   6.371
 9701SOL     OW30001   5.098   3.952   6.748
 9701SOL    HW130002   5.122   3.910   6.835
 9701SOL    HW230003   5.135   4.045   6.744
 9702SOL     OW30004   3.663   4.077   2.263
 9702SOL    HW130005   3.603   4.128   2.324
 9702SOL    HW230006   3.665   4.122   2.173
 9703SOL     OW30007   6.112   4.838   3.407
 9703SOL    HW130008   6.074   4.833   3.499
 9703SOL    HW230009   6.038   4.837   3.340
 9704SOL     OW30010   1.359   4.248   2.219
 9704SOL    HW130011   1.308   4.168   2.250
 9704SOL    HW230012   1.436   4.218   2.162
 9705SOL     OW30013   0.338   2.751   5.770
 9705SOL    HW130014   0.395   2.698   5.833
 9705SOL    HW230015   0.318   2.696   5.689
 9706SOL     OW30016   1.068   1.291   2.671
 9706SOL    HW130017   1.053   1.192   2.676
 9706SOL    HW230018   1.167   1.309   2.668
 9707SOL     OW30019   1.011   4.763   2.742
 9707SOL    HW130020   1.044   4.818   2.819
 9707SOL    HW230021   0.991   4.824   2.665
 9708SOL     OW30022   2.413   0.859   1.885
 9708SOL    HW130023   2.435   0.947   1.929
 9708SOL    HW230024   2.341   0.873   1.817
 9709SOL     OW30025   5.525   1.967   1.547
 9709SOL    HW130026   5.570   2.007   1.467
 9709SOL    HW230027   5.587   1.903   1.592
 9710SOL     OW30028   5.215   5.589   4.635
 9710SOL    HW130029   5.264   5.524   4.692
 9710SOL    HW230030   5.268   5.607   4.552
 9711SOL     OW30031   2.870   0.796   6.433
 9711SOL    HW130032   2.856   0.815   6.336
 9711SOL    HW230033   2.791   0.830   6.485
 9712SOL     OW30034   5.653   0.559   6.703
 9712SOL    HW130035   5.648   0.574   6.605
 9712SOL    HW230036   5.728   0.496   6.724
 9713SOL     OW30037   2.564   6.887   2.687
 9713SOL    HW130038   2.486   6.850   2.637
 9713SOL    HW230039   2.611   6.813   2.735
 9714SOL     OW30040   2.223   3.904   3.721
 9714SOL    HW130041   2.231   3.959   3.804
 9714SOL    HW230042   2.179   3.817   3.742
 9715SOL     OW30043   6.709   3.211   6.553
 9715SOL    HW130044   6.660   3.126   6.535
 9715SOL    HW230045   6.722   3.261   6.467
 9716SOL     OW30046   2.369   6.074   0.349
 9716SOL    HW130047   2.425   6.095   0.429
 9716SOL    HW230048   2.308   6.150   0.330
 9717SOL     OW30049   3.848   2.299   5.884
 9717SOL    HW130050   3.841   2.352   5.968
 9717SOL    HW230051   3.944   2.284   5.861
 9718SOL     OW30052   4.396   2.203   6.004
 9718SOL    HW130053   4.490   2.171   6.005
 9718SOL    HW230054   4.371   2.236   6.095
 9719SOL     OW30055   4.901   0.134   6.096
 9719SOL    HW130056   4.965   0.076   6.046
 9719SOL    HW230057   4.888   0.097   6.188
 9720SOL     OW30058   2.079   2.806   2.699
 9720SOL    HW130059   2.134   2.807   2.615
 9720SOL    HW230060   2.138   2.828   2.777
 9721SOL     OW30061   0.787   1.713   1.077
 9721SOL    HW130062   0.819   1.670   1.162
 9721SOL    HW230063   0.690   1.733   1.084
 9722SOL     OW30064   3.987   2.415   5.417
 9722SOL    HW130065   3.907   2.390   5.362
 9722SOL    HW230066   3.974   2.507   5.454
 9723SOL     OW30067   6.364   0.592   4.706
 9723SOL    HW130068   6.386   0.543   4.790
 9723SOL    HW230069   6.411   0.550   4.629
 9724SOL     OW30070   1.249   4.298   0.785
 9724SOL    HW130071   1.160   4.253   0.801
 9724SOL    HW230072   1.319   4.228   0.772
 9725SOL     OW30073   4.548   5.433   4.538
 9725SOL    HW130074   4.606   5.437   4.620
 9725SOL    HW230075   4.603   5.408   4.459
 9726SOL     OW30076   6.811   0.140   3.106
 9726SOL    HW130077   6.826   0.079   3.028
 9726SOL    HW230078   6.728   0.112   3.155
 9727SOL     OW30079   6.117   2.707   1.699
 9727SOL    HW130080   6.128   2.806   1.701
 9727SOL    HW230081   6.206   2.663   1.687
 9728SOL     OW30082   5.280   2.308   4.335
 9728SOL    HW130083   5.294   2.305   4.236
 9728SOL    HW230084   5.209   2.375   4.356
 9729SOL     OW30085   0.193   4.079   3.342
 9729SOL    HW130086   0.191   4.093   3.441
 9729SOL    HW230087   0.287   4.061   3.313
 9730SOL     OW30088   0.847   4.986   2.904
 9730SOL    HW130089   0.763   4.936   2.928
 9730SOL    HW230090   0.871   4.968   2.809
 9731SOL     OW30091   5.589   2.946   1.556
 9731SOL    HW130092   5.554   2.858   1.524
 9731SOL    HW230093   5.522   3.018   1.537
 9732SOL     OW30094   0.990   3.797   2.835
 9732SOL    HW130095   1.040   3.859   2.775
 9732SOL    HW230096   1.054   3.738   2.883
 9733SOL     OW30097   6.291   4.689   1.932
 9733SOL    HW130098   6.222   4.623   1.903
 9733SOL    HW230099   6.251   4.781   1.929
 9734SOL     OW30100   4.685   5.337   6.302
 9734SOL    HW130101   4.634   5.397   6.240
 9734SOL    HW230102   4.657   5.242   6.288
 9735SOL     OW30103   6.934   2.087   0.343
 9735SOL    HW130104   6.994   2.046   0.275
 9735SOL    HW230105   6.843   2.100   0.304
 9736SOL     OW30106   4.917   2.052   4.621
 9736SOL    HW130107   4.900   2.010   4.532
 9736SOL    HW230108   4.997   2.010   4.664
 9737SOL     OW30109   5.744   2.852   3.905
 9737SOL    HW130110   5.681   2.813   3.839
 9737SOL    HW230111   5.827   2.796   3.910
 9738SOL     OW30112   2.204   6.624   1.541
 9738SOL    HW130113   2.192   6.563   1.619
 9738SOL    HW230114   2.189   6.573   1.456
 9739SOL     OW30115   6.149   6.440   0.725
 9739SOL    HW130116   6.064   6.395   0.697
 9739SOL    HW230117   6.128   6.528   0.767
 9740SOL     OW30118   6.207   0.444   1.891
 9740SOL    HW130119   6.183   0.347   1.879
 9740SOL    HW230120   6.283   0.451   1.957
 9741SOL     OW30121   2.295   2.032   3.700
 9741SOL    HW130122   2.218   2.033   3.765
 9741SOL    HW230123   2.315   1.938   3.673
 9742SOL     OW30124   3.170   1.626   6.321
 9742SOL    HW130125   3.226   1.709   6.321
 9742SOL    HW230126   3.131   1.613   6.412
 9743SOL     OW30127   6.258   3.549   3.733
 9743SOL    HW130128   6.280   3.523   3.639
 9743SOL    HW230129   6.310   3.492   3.797
 9744SOL     OW30130   1.982   1.569   2.283
 9744SOL    HW130131   1.957   1.474   2.265
 9744SOL    HW230132   2.007   1.580   2.380
 9745SOL     OW30133   0.171   0.185   5.717
 9745SOL    HW130134   0.107   0.180   5.794
 9745SOL    HW230135   0.229   0.103   5.717
 9746SOL     OW30136   3.422   6.427   6.273
 9746SOL    HW130137   3.428   6.492   6.197
 9746SOL    HW230138   3.386   6.340   6.239
 9747SOL     OW30139   3.479   1.655   3.220
 9747SOL    HW130140   3.518   1.568   3.249
 9747SOL    HW230141   3.539   1.698   3.152
 9748SOL     OW30142   1.716   1.129   2.832
 9748SOL    HW130143   1.709   1.113   2.734
 9748SOL    HW230144   1.627   1.112   2.875
 9749SOL     OW30145   6.853   0.573   1.947
 9749SOL    HW130146   6.827   0.668   1.961
 9749SOL    HW230147   6.853   0.525   2.035
 9750SOL     OW30148   5.574   2.899   5.353
 9750SOL    HW130149   5.668   2.933   5.367
 9750SOL    HW230150   5.576   2.800   5.342
 9751SOL     OW30151   3.392   6.962   1.300
 9751SOL    HW130152   3.375   0.023   1.349
 9751SOL    HW230153   3.468   6.914   1.344
 9752SOL     OW30154   3.072   3.106   0.677
 9752SOL    HW130155   3.102   3.101   0.582
 9752SOL    HW230156   3.147   3.079   0.737
 9753SOL     OW30157   6.288   5.769   4.634
 9753SOL    HW130158   6.308   5.715   4.715
 9753SOL    HW230159   6.332   5.859   4.641
 9754SOL     OW30160   3.372   1.498   2.323
 9754SOL    HW130161   3.469   1.521   2.315
 9754SOL    HW230162   3.363   1.399   2.338
 9755SOL     OW30163   3.648   4.094   0.152
 9755SOL    HW130164   3.731   4.082   0.098
 9755SOL    HW230165   3.671   4.087   0.250
 9756SOL     OW30166   5.863   0.443   6.227
 9756SOL    HW130167   5.938   0.492   6.184
 9756SOL    HW230168   5.859   0.350   6.192
 9757SOL     OW30169   5.255   3.070   4.220
 9757SOL    HW130170   5.202   2.994   4.258
 9757SOL    HW230171   5.241   3.075   4.121
 9758SOL     OW30172   2.473   0.831   2.598
 9758SOL    HW130173   2.569   0.824   2.574
 9758SOL    HW230174   2.417   0.792   2.525
 9759SOL     OW30175   6.699   1.781   1.741
 9759SOL    HW130176   6.671   1.691   1.708
 9759SOL    HW230177   6.647   1.851   1.692
 9760SOL     OW30178   4.528   0.647   6.825
 9760SOL    HW130179   4.456   0.631   6.893
 9760SOL    HW230180   4.501   0.605   6.738
 9761SOL     OW30181   1.225   2.582   1.303
 9761SOL    HW130182   1.176   2.655   1.350
 9761SOL    HW230183   1.256   2.513   1.370
 9762SOL     OW30184   2.897   1.213   5.506
 9762SOL    HW130185   2.924   1.231   5.411
 9762SOL    HW230186   2.927   1.122   5.533
 9763SOL     OW30187   6.543   2.520   1.235
 9763SOL    HW130188   6.589   2.563   1.157
 9763SOL    HW230189   6.600   2.447   1.272
 9764SOL     OW30190   0.710   2.320   2.734
 9764SOL    HW130191   0.660   2.394   2.778
 9764SOL    HW230192   0.669   2.300   2.645
 9765SOL     OW30193   6.703   0.400   1.817
 9765SOL    HW130194   6.743   0.313   1.787
 9765SOL    HW230195   6.774   0.460   1.853
 9766SOL     OW30196   0.961   2.615   2.566
 9766SOL    HW130197   0.894   2.648   2.632
 9766SOL    HW230198   1.039   2.678   2.564
 9767SOL     OW30199   2.439   1.803   4.823
 9767SOL    HW130200   2.506   1.797   4.897
 9767SOL    HW230201   2.434   1.715   4.776
 9768SOL     OW30202   5.451   3.017   0.395
 9768SOL    HW130203   5.453   3.091   0.462
 9768SOL    HW230204   5.366   2.964   0.405
 9769SOL     OW30205   3.441   1.816   5.667
 9769SOL    HW130206   3.475   1.892   5.723
 9769SOL    HW230207   3.441   1.842   5.571
 9770SOL     OW30208   1.982   3.049   5.520
 9770SOL    HW130209   1.925   3.110   5.466
 9770SOL    HW230210   2.003   3.091   5.608
 9771SOL     OW30211   2.778   0.701   1.317
 9771SOL    HW130212   2.721   0.779   1.341
 9771SOL    HW230213   2.744   0.619   1.364
 9772SOL     OW30214   0.902   0.652   1.200
 9772SOL    HW130215   0.840   0.728   1.182
 9772SOL    HW230216   0.995   0.677   1.173
 9773SOL     OW30217   5.894   5.848   2.324
 9773SOL    HW130218   5.806   5.874   2.284
 9773SOL    HW230219   5.883   5.829   2.421
 9774SOL     OW30220   1.871   4.577   3.990
 9774SOL    HW130221   1.966   4.567   3.961
 9774SOL    HW230222   1.855   4.524   4.073
 9775SOL     OW30223   2.188   1.507   3.183
 9775SOL    HW130224   2.194   1.432   3.118
 9775SOL    HW230225   2.267   1.568   3.171
 9776SOL     OW30226   2.566   5.456   1.355
 9776SOL    HW130227   2.628   5.478   1.280
 9776SOL    HW230228   2.574   5.359   1.378
 9777SOL     OW30229   4.537   1.352   5.510
 9777SOL    HW130230   4.586   1.363   5.597
 9777SOL    HW230231   4.456   1.296   5.525
 9778SOL     OW30232   0.965   3.550   3.383
 9778SOL    HW130233   0.902   3.570   3.458
 9778SOL    HW230234   1.020   3.631   3.363
 9779SOL     OW30235   3.014   0.857   3.693
 9779SOL    HW130236   2.997   0.826   3.599
 9779SOL    HW230237   2.953   0.809   3.756
 9780SOL     OW30238   0.573   2.294   1.532
 9780SOL    HW130239   0.539   2.361   1.467
 9780SOL    HW230240   0.658   2.253   1.498
 9781SOL     OW30241   1.809   1.161   1.954
 9781SOL    HW130242   1.793   1.238   2.016
 9781SOL    HW230243   1.825   1.079   2.008
 9782SOL     OW30244   0.139   2.027   0.515
 9782SOL    HW130245   0.228   2.071   0.498
 9782SOL    HW230246   0.070   2.069   0.456
 9783SOL     OW30247   4.387   1.391   3.084
 9783SOL    HW130248   4.401   1.294   3.105
 9783SOL    HW230249   4.314   1.400   3.016
 9784SOL     OW30250   1.840   1.362   6.448
 9784SOL    HW130251   1.862   1.453   6.483
 9784SOL    HW230252   1.909   1.334   6.381
 9785SOL     OW30253   0.617   4.064   4.972
 9785SOL    HW130254   0.529   4.017   4.974
 9785SOL    HW230255   0.663   4.046   4.885
 9786SOL     OW30256   2.416   4.402   6.507
 9786SOL    HW130257   2.354   4.343   6.559
 9786SOL    HW230258   2.389   4.497   6.519
 9787SOL     OW30259   2.890   3.474   1.952
 9787SOL    HW130260   2.826   3.446   2.024
 9787SOL    HW230261   2.918   3.393   1.899
 9788SOL     OW30262   4.035   0.129   1.710
 9788SOL    HW130263   3.943   0.111   1.745
 9788SOL    HW230264   4.073   0.210   1.756
 9789SOL     OW30265   3.189   1.385   6.987
 9789SOL    HW130266   3.213   1.307   6.930
 9789SOL    HW230267   3.256   1.458   6.975
 9790SOL     OW30268   5.323   6.160   4.613
 9790SOL    HW130269   5.321   6.118   4.522
 9790SOL    HW230270   5.246   6.126   4.668
 9791SOL     OW30271   0.677   0.129   1.667
 9791SOL    HW130272   0.755   0.176   1.626
 9791SOL    HW230273   0.696   0.031   1.671
 9792SOL     OW30274   3.566   4.857   0.825
 9792SOL    HW130275   3.484   4.884   0.774
 9792SOL    HW230276   3.646   4.872   0.768
 9793SOL     OW30277   6.546   1.055   2.981
 9793SOL    HW130278   6.565   1.024   2.888
 9793SOL    HW230279   6.447   1.061   2.995
 9794SOL     OW30280   4.400   4.576   4.531
 9794SOL    HW130281   4.351   4.491   4.507
 9794SOL    HW230282   4.413   4.580   4.630
 9795SOL     OW30283   0.993   3.046   3.021
 9795SOL    HW130284   1.033   3.123   2.972
 9795SOL    HW230285   0.968   3.074   3.114
 9796SOL     OW30286   3.160   3.925   3.914
 9796SOL    HW130287   3.073   3.892   3.953
 9796SOL    HW230288   3.214   3.847   3.884
 9797SOL     OW30289   2.989   5.014   0.094
 9797SOL    HW130290   2.945   5.011   0.183
 9797SOL    HW230291   3.089   5.016   0.107
 9798SOL     OW30292   0.171   4.220   6.268
 9798SOL    HW130293   0.095   4.275   6.301
 9798SOL    HW230294   0.257   4.267   6.288
 9799SOL     OW30295   3.076   0.228   0.268
 9799SOL    HW130296   3.016   0.184   0.336
 9799SOL    HW230297   3.049   0.197   0.176
 9800SOL     OW30298   6.593   3.279   4.108
 9800SOL    HW130299   6.541   3.203   4.146
 9800SOL    HW230300   6.556   3.365   4.143
 9801SOL     OW30301   4.996   6.279   0.774
 9801SOL    HW130302   5.089   6.266   0.809
 9801SOL    HW230303   4.930   6.248   0.842
 9802SOL     OW30304   4.175   3.749   6.987
 9802SOL    HW130305   4.127   3.686   6.926
 9802SOL    HW230306   4.184   3.708   0.053
 9803SOL     OW30307   0.862   3.048   6.328
 9803SOL    HW130308   0.920   3.105   6.269
 9803SOL    HW230309   0.802   3.107   6.382
 9804SOL     OW30310   0.481   4.490   2.647
 9804SOL    HW130311   0.503   4.395   2.626
 9804SOL    HW230312   0.471   4.501   2.746
 9805SOL     OW30313   0.990   5.506   3.712
 9805SOL    HW130314   1.013   5.598   3.680
 9805SOL    HW230315   1.074   5.451   3.718
 9806SOL     OW30316   3.804   1.766   0.279
 9806SOL    HW130317   3.830   1.779   0.374
 9806SOL    HW230318   3.882   1.786   0.219
 9807SOL     OW30319   3.971   3.111   3.268
 9807SOL    HW130320   3.933   3.024   3.235
 9807SOL    HW230321   3.980   3.174   3.191
 9808SOL     OW30322   4.146   5.697   1.993
 9808SOL    HW130323   4.096   5.655   1.917
 9808SOL    HW230324   4.127   5.645   2.077
 9809SOL     OW30325   6.682   3.112   0.443
 9809SOL    HW130326   6.608   3.168   0.480
 9809SOL    HW230327   6.701   3.036   0.505
 9810SOL     OW30328   2.551   1.970   0.661
 9810SOL    HW130329   2.474   2.022   0.624
 9810SOL    HW230330   2.637   2.010   0.628
 9811SOL     OW30331   5.590   3.845   4.481
 9811SOL    HW130332   5.587   3.898   4.397
 9811SOL    HW230333   5.684   3.840   4.515
 9812SOL     OW30334   3.385   6.238   5.975
 9812SOL    HW130335   3.351   6.328   6.002
 9812SOL    HW230336   3.315   6.169   5.991
 9813SOL     OW30337   5.150   0.428   2.233
 9813SOL    HW130338   5.052   0.433   2.256
 9813SOL    HW230339   5.161   0.405   2.137
 9814SOL     OW30340   6.755   1.273   6.493
 9814SOL    HW130341   6.820   1.333   6.540
 9814SOL    HW230342   6.748   1.186   6.543
 9815SOL     OW30343   4.393   2.387   3.875
 9815SOL    HW130344   4.415   2.480   3.906
 9815SOL    HW230345   4.439   2.369   3.788
 9816SOL     OW30346   2.416   1.184   1.486
 9816SOL    HW130347   2.361   1.242   1.547
 9816SOL    HW230348   2.488   1.239   1.444
 9817SOL     OW30349   6.595   6.841   2.254
 9817SOL    HW130350   6.509   6.817   2.300
 9817SOL    HW230351   6.668   6.850   2.322
 9818SOL     OW30352   5.297   2.567   5.096
 9818SOL    HW130353   5.292   2.667   5.097
 9818SOL    HW230354   5.230   2.530   5.160
 9819SOL     OW30355   4.261   0.793   2.037
 9819SOL    HW130356   4.268   0.705   1.990
 9819SOL    HW230357   4.176   0.795   2.090
 9820SOL     OW30358   4.474   2.865   6.517
 9820SOL    HW130359   4.379   2.862   6.546
 9820SOL    HW230360   4.484   2.931   6.443
 9821SOL     OW30361   6.453   5.327   0.180
 9821SOL    HW130362   6.545   5.303   0.150
 9821SOL    HW230363   6.413   5.392   0.114
 9822SOL     OW30364   1.305   6.656   3.021
 9822SOL    HW130365   1.257   6.690   3.102
 9822SOL    HW230366   1.304   6.725   2.949
 9823SOL     OW30367   3.765   0.137   1.793
 9823SOL    HW130368   3.745   0.054   1.845
 9823SOL    HW230369   3.725   0.129   1.702
 9824SOL     OW30370   1.548   3.964   5.769
 9824SOL    HW130371   1.499   4.049   5.788
 9824SOL    HW230372   1.528   3.897   5.840
 9825SOL     OW30373   4.029   4.903   5.610
 9825SOL    HW130374   4.049   4.806   5.600
 9825SOL    HW230375   3.956   4.929   5.547
 9826SOL     OW30376   4.996   0.378   6.198
 9826SOL    HW130377   4.951   0.296   6.233
 9826SOL    HW230378   5.015   0.365   6.100
 9827SOL     OW30379   1.221   3.257   4.678
 9827SOL    HW130380   1.239   3.337   4.621
 9827SOL    HW230381   1.195   3.287   4.770
 9828SOL     OW30382   3.118   3.006   6.526
 9828SOL    HW130383   3.151   2.940   6.594
 9828SOL    HW230384   3.176   3.000   6.444
 9829SOL     OW30385   3.336   4.771   1.212
 9829SOL    HW130386   3.241   4.748   1.233
 9829SOL    HW230387   3.338   4.859   1.164
 9830SOL     OW30388   5.836   0.519   0.601
 9830SOL    HW130389   5.911   0.553   0.545
 9830SOL    HW230390   5.801   0.592   0.659
 9831SOL     OW30391   5.994   6.891   0.346
 9831SOL    HW130392   5.921   6.829   0.372
 9831SOL    HW230393   6.032   6.934   0.428
 9832SOL     OW30394   4.225   4.814   0.855
 9832SOL    HW130395   4.272   4.733   0.820
 9832SOL    HW230396   4.159   4.846   0.787
 9833SOL     OW30397   4.112   3.917   5.513
 9833SOL    HW130398   4.036   3.981   5.517
 9833SOL    HW230399   4.181   3.944   5.581
 9834SOL     OW30400   1.224   3.357   4.942
 9834SOL    HW130401   1.208   3.421   5.017
 9834SOL    HW230402   1.322   3.345   4.928
 9835SOL     OW30403   5.120   1.399   4.271
 9835SOL    HW130404   5.078   1.449   4.346
 9835SOL    HW230405   5.082   1.432   4.184
 9836SOL     OW30406   5.005   5.208   2.573
 9836SOL    HW130407   4.948   5.167   2.645
 9836SOL    HW230408   5.080   5.146   2.551
 9837SOL     OW30409   1.497   6.429   4.254
 9837SOL    HW130410   1.461   6.456   4.343
 9837SOL    HW230411   1.423   6.424   4.187
 9838SOL     OW30412   0.107   5.718   5.297
 9838SOL    HW130413   0.194   5.707   5.346
 9838SOL    HW230414   0.125   5.755   5.206
 9839SOL     OW30415   6.656   1.770   2.100
 9839SOL    HW130416   6.741   1.823   2.092
 9839SOL    HW230417   6.636   1.755   2.197
 9840SOL     OW30418   6.519   0.585   0.989
 9840SOL    HW130419   6.448   0.542   0.934
 9840SOL    HW230420   6.584   0.515   1.019
 9841SOL     OW30421   1.542   3.844   4.329
 9841SOL    HW130422   1.626   3.798   4.298
 9841SOL    HW230423   1.472   3.836   4.259
 9842SOL     OW30424   3.034   3.033   2.466
 9842SOL    HW130425   3.007   2.987   2.381
 9842SOL    HW230426   3.134   3.036   2.471
 9843SOL     OW30427   5.564   3.258   2.209
 9843SOL    HW130428   5.554   3.171   2.160
 9843SOL    HW230429   5.566   3.241   2.307
 9844SOL     OW30430   4.879   0.269   2.574
 9844SOL    HW130431   4.880   0.195   2.642
 9844SOL    HW230432   4.916   0.352   2.615
 9845SOL     OW30433   0.734   2.011   3.718
 9845SOL    HW130434   0.782   1.972   3.640
 9845SOL    HW230435   0.715   2.107   3.701
 9846SOL     OW30436   3.027   3.065   3.198
 9846SOL    HW130437   3.091   3.052   3.122
 9846SOL    HW230438   2.974   2.981   3.211
 9847SOL     OW30439   2.289   4.415   5.032
 9847SOL    HW130440   2.375   4.462   5.054
 9847SOL    HW230441   2.222   4.483   5.002
 9848SOL     OW30442   4.548   3.738   0.503
 9848SOL    HW130443   4.588   3.787   0.581
 9848SOL    HW230444   4.449   3.753   0.502
 9849SOL     OW30445   0.305   6.971   5.726
 9849SOL    HW130446   0.402   6.963   5.703
 9849SOL    HW230447   0.280   6.897   5.789
 9850SOL     OW30448   4.272   6.407   2.464
 9850SOL    HW130449   4.317   6.353   2.535
 9850SOL    HW230450   4.179   6.374   2.450
 9851SOL     OW30451   5.556   2.205   4.841
 9851SOL    HW130452   5.607   2.265   4.780
 9851SOL    HW230453   5.613   2.183   4.921
 9852SOL     OW30454   5.139   1.975   3.369
 9852SOL    HW130455   5.050   1.931   3.352
 9852SOL    HW230456   5.210   1.905   3.370
 9853SOL     OW30457   6.316   3.942   2.121
 9853SOL    HW130458   6.324   3.960   2.219
 9853SOL    HW230459   6.317   3.844   2.104
 9854SOL     OW30460   4.788   5.975   3.809
 9854SOL    HW130461   4.833   5.994   3.896
 9854SOL    HW230462   4.711   5.913   3.824
 9855SOL     OW30463   1.596   3.072   1.283
 9855SOL    HW130464   1.536   3.138   1.329
 9855SOL    HW230465   1.688   3.078   1.322
 9856SOL     OW30466   4.244   2.606   1.200
 9856SOL    HW130467   4.196   2.594   1.113
 9856SOL    HW230468   4.332   2.560   1.197
 9857SOL     OW30469   5.484   4.527   3.754
 9857SOL    HW130470   5.455   4.594   3.822
 9857SOL    HW230471   5.411   4.460   3.740
 9858SOL     OW30472   4.648   1.216   0.844
 9858SOL    HW130473   4.623   1.202   0.940
 9858SOL    HW230474   4.615   1.306   0.814
 9859SOL     OW30475   6.497   0.471   1.953
 9859SOL    HW130476   6.552   0.416   1.889
 9859SOL    HW230477   6.507   0.568   1.931
 9860SOL     OW30478   0.415   0.967   2.760
 9860SOL    HW130479   0.338   0.903   2.758
 9860SOL    HW230480   0.419   1.011   2.849
 9861SOL     OW30481   3.801   6.761   4.690
 9861SOL    HW130482   3.705   6.790   4.691
 9861SOL    HW230483   3.846   6.800   4.609
 9862SOL     OW30484   0.510   2.547   0.408
 9862SOL    HW130485   0.510   2.639   0.368
 9862SOL    HW230486   0.599   2.527   0.448
 9863SOL     OW30487   2.820   6.673   0.680
 9863SOL    HW130488   2.883   6.750   0.696
 9863SOL    HW230489   2.732   6.693   0.722
 9864SOL     OW30490   4.637   5.879   2.209
 9864SOL    HW130491   4.640   5.976   2.186
 9864SOL    HW230492   4.646   5.868   2.308
 9865SOL     OW30493   0.355   1.705   4.937
 9865SOL    HW130494   0.376   1.609   4.923
 9865SOL    HW230495   0.295   1.737   4.863
 9866SOL     OW30496   4.505   4.536   3.759
 9866SOL    HW130497   4.426   4.548   3.699
 9866SOL    HW230498   4.527   4.623   3.803
 9867SOL     OW30499   3.878   0.636   6.547
 9867SOL    HW130500   3.837   0.549   6.572
 9867SOL    HW230501   3.857   0.657   6.452
 9868SOL     OW30502   6.546   5.151   6.861
 9868SOL    HW130503   6.462   5.126   6.909
 9868SOL    HW230504   6.602   5.208   6.921
 9869SOL     OW30505   1.522   3.593   3.201
 9869SOL    HW130506   1.600   3.533   3.221
 9869SOL    HW230507   1.555   3.682   3.171
 9870SOL     OW30508   4.834   4.711   2.874
 9870SOL    HW130509   4.911   4.754   2.826
 9870SOL    HW230510   4.748   4.748   2.839
 9871SOL     OW30511   1.859   1.404   5.237
 9871SOL    HW130512   1.928   1.459   5.284
 9871SOL    HW230513   1.880   1.400   5.140
 9872SOL     OW30514   1.667   4.860   3.354
 9872SOL    HW130515   1.687   4.934   3.290
 9872SOL    HW230516   1.752   4.812   3.376
 9873SOL     OW30517   0.706   2.738   1.160
 9873SOL    HW130518   0.746   2.811   1.215
 9873SOL    HW230519   0.606   2.745   1.162
 9874SOL     OW30520   0.615   2.755   3.729
 9874SOL    HW130521   0.631   2.657   3.738
 9874SOL    HW230522   0.520   2.771   3.701
 9875SOL     OW30523   1.169   0.807   2.924
 9875SOL    HW130524   1.237   0.874   2.892
 9875SOL    HW230525   1.123   0.767   2.845
 9876SOL     OW30526   0.283   6.183   2.580
 9876SOL    HW130527   0.240   6.095   2.602
 9876SOL    HW230528   0.263   6.206   2.484
 9877SOL     OW30529   3.564   0.253   2.098
 9877SOL    HW130530   3.604   0.308   2.170
 9877SOL    HW230531   3.596   0.286   2.009
 9878SOL     OW30532   0.560   6.421   5.088
 9878SOL    HW130533   0.572   6.327   5.056
 9878SOL    HW230534   0.639   6.475   5.062
 9879SOL     OW30535   4.721   6.028   6.095
 9879SOL    HW130536   4.768   6.051   6.180
 9879SOL    HW230537   4.782   5.974   6.037
 9880SOL     OW30538   1.575   1.696   5.171
 9880SOL    HW130539   1.611   1.608   5.139
 9880SOL    HW230540   1.573   1.761   5.096
 9881SOL     OW30541   0.406   2.644   6.131
 9881SOL    HW130542   0.474   2.688   6.190
 9881SOL    HW230543   0.428   2.663   6.036
 9882SOL     OW30544   1.167   1.227   3.643
 9882SOL    HW130545   1.227   1.182   3.708
 9882SOL    HW230546   1.138   1.316   3.680
 9883SOL     OW30547   1.827   0.765   1.804
 9883SOL    HW130548   1.917   0.758   1.849
 9883SOL    HW230549   1.816   0.856   1.765
 9884SOL     OW30550   4.049   0.614   3.956
 9884SOL    HW130551   3.983   0.549   3.993
 9884SOL    HW230552   4.034   0.704   3.997
 9885SOL     OW30553   6.372   5.225   4.334
 9885SOL    HW130554   6.274   5.211   4.350
 9885SOL    HW230555   6.390   5.221   4.235
 9886SOL     OW30556   0.890   3.792   2.467
 9886SOL    HW130557   0.843   3.809   2.381
 9886SOL    HW230558   0.987   3.775   2.449
 9887SOL     OW30559   4.147   0.704   6.519
 9887SOL    HW130560   4.048   0.688   6.520
 9887SOL    HW230561   4.193   0.628   6.564
 9888SOL     OW30562   0.045   4.373   6.941
 9888SOL    HW130563   6.989   4.396   6.887
 9888SOL    HW230564   0.114   4.445   6.930
 9889SOL     OW30565   6.899   5.208   0.334
 9889SOL    HW130566   6.872   5.116   0.304
 9889SOL    HW230567   6.899   5.212   0.433
 9890SOL     OW30568   1.430   2.671   1.152
 9890SOL    HW130569   1.484   2.738   1.204
 9890SOL    HW230570   1.365   2.627   1.214
 9891SOL     OW30571   5.003   2.013   1.370
 9891SOL    HW130572   5.078   1.947   1.364
 9891SOL    HW230573   5.039   2.106   1.370
 9892SOL     OW30574   6.589   5.776   6.480
 9892SOL    HW130575   6.682   5.776   6.442
 9892SOL    HW230576   6.531   5.714   6.426
 9893SOL     OW30577   2.135   1.243   0.667
 9893SOL    HW130578   2.123   1.316   0.601
 9893SOL    HW230579   2.056   1.240   0.729
 9894SOL     OW30580   1.737   2.174   0.184
 9894SOL    HW130581   1.739   2.104   0.255
 9894SOL    HW230582   1.666   2.241   0.206
 9895SOL     OW30583   5.346   3.258   5.635
 9895SOL    HW130584   5.254   3.240   5.671
 9895SOL    HW230585   5.351   3.228   5.539
 9896SOL     OW30586   5.859   0.121   6.980
 9896SOL    HW130587   5.838   0.031   7.019
 9896SOL    HW230588   5.824   0.192   0.016
 9897SOL     OW30589   5.765   5.397   3.714
 9897SOL    HW130590   5.815   5.421   3.797
 9897SOL    HW230591   5.668   5.419   3.726
 9898SOL     OW30592   3.522   6.203   5.492
 9898SOL    HW130593   3.425   6.220   5.470
 9898SOL    HW230594   3.552   6.119   5.447
 9899SOL     OW30595   0.166   5.465   0.092
 9899SOL    HW130596   0.237   5.531   0.118
 9899SOL    HW230597   0.078   5.512   0.086
 9900SOL     OW30598   2.150   3.736   3.221
 9900SOL    HW130599   2.116   3.796   3.293
 9900SOL    HW230600   2.200   3.789   3.153
 9901SOL     OW30601   2.353   2.026   5.297
 9901SOL    HW130602   2.274   2.060   5.245
 9901SOL    HW230603   2.405   1.962   5.240
 9902SOL     OW30604   2.760   4.241   0.016
 9902SOL    HW130605   2.772   4.245   6.942
 9902SOL    HW230606   2.839   4.281   0.061
 9903SOL     OW30607   5.515   0.812   2.925
 9903SOL    HW130608   5.586   0.883   2.923
 9903SOL    HW230609   5.531   0.748   2.849
 9904SOL     OW30610   6.424   3.101   6.561
 9904SOL    HW130611   6.417   3.092   6.660
 9904SOL    HW230612   6.399   3.194   6.534
 9905SOL     OW30613   3.953   1.444   0.393
 9905SOL    HW130614   3.879   1.493   0.439
 9905SOL    HW230615   3.923   1.352   0.370
 9906SOL     OW30616   4.133   3.638   4.200
 9906SOL    HW130617   4.217   3.670   4.243
 9906SOL    HW230618   4.058   3.700   4.223
 9907SOL     OW30619   0.751   0.006   1.957
 9907SOL    HW130620   0.735   6.956   1.894
 9907SOL    HW230621   0.770   6.995   2.048
 9908SOL     OW30622   5.026   3.414   3.094
 9908SOL    HW130623   4.996   3.493   3.041
 9908SOL    HW230624   5.118   3.430   3.129
 9909SOL     OW30625   1.997   0.297   5.062
 9909SOL    HW130626   1.910   0.299   5.111
 9909SOL    HW230627   2.018   0.389   5.028
 9910SOL     OW30628   1.388   4.049   3.043
 9910SOL    HW130629   1.465   4.002   3.086
 9910SOL    HW230630   1.305   3.994   3.055
 9911SOL     OW30631   3.085   6.385   2.087
 9911SOL    HW130632   3.161   6.446   2.067
 9911SOL    HW230633   3.118   6.307   2.139
 9912SOL     OW30634   4.575   1.491   0.014
 9912SOL    HW130635   4.601   1.543   0.095
 9912SOL    HW230636   4.477   1.503   7.022
 9913SOL     OW30637   5.792   3.353   6.817
 9913SOL    HW130638   5.765   3.341   6.721
 9913SOL    HW230639   5.779   3.268   6.867
 9914SOL     OW30640   0.984   2.733   5.269
 9914SOL    HW130641   1.048   2.800   5.231
 9914SOL    HW230642   0.978   2.746   5.368
 9915SOL     OW30643   5.678   1.220   3.579
 9915SOL    HW130644   5.591   1.216   3.629
 9915SOL    HW230645   5.711   1.314   3.576
 9916SOL     OW30646   1.959   2.775   2.310
 9916SOL    HW130647   1.894   2.840   2.350
 9916SOL    HW230648   1.997   2.813   2.226
 9917SOL     OW30649   6.546   4.031   4.996
 9917SOL    HW130650   6.605   4.086   4.937
 9917SOL    HW230651   6.593   3.948   5.023
 9918SOL     OW30652   4.076   2.196   2.583
 9918SOL    HW130653   4.099   2.100   2.599
 9918SOL    HW230654   4.067   2.212   2.484
 9919SOL     OW30655   6.183   5.738   0.754
 9919SOL    HW130656   6.175   5.720   0.656
 9919SOL    HW230657   6.137   5.664   0.805
 9920SOL     OW30658   4.593   1.267   2.216
 9920SOL    HW130659   4.659   1.330   2.176
 9920SOL    HW230660   4.503   1.284   2.177
 9921SOL     OW30661   3.392   5.351   5.902
 9921SOL    HW130662   3.491   5.343   5.904
 9921SOL    HW230663   3.351   5.261   5.919
 9922SOL     OW30664   0.198   5.604   0.546
 9922SOL    HW130665   0.151   5.570   0.627
 9922SOL    HW230666   0.215   5.528   0.482
 9923SOL     OW30667   4.899   4.839   0.110
 9923SOL    HW130668   4.900   4.801   0.203
 9923SOL    HW230669   4.991   4.869   0.085
 9924SOL     OW30670   0.509   3.475   4.704
 9924SOL    HW130671   0.484   3.416   4.781
 9924SOL    HW230672   0.540   3.563   4.739
 9925SOL     OW30673   5.288   2.196   4.023
 9925SOL    HW130674   5.341   2.176   3.940
 9925SOL    HW230675   5.226   2.272   4.005
 9926SOL     OW30676   1.918   4.639   0.229
 9926SOL    HW130677   1.989   4.710   0.234
 9926SOL    HW230678   1.960   4.549   0.236
 9927SOL     OW30679   6.374   7.009   3.126
 9927SOL    HW130680   6.459   6.988   3.175
 9927SOL    HW230681   6.391   7.008   3.027
 9928SOL     OW30682   4.757   4.635   1.527
 9928SOL    HW130683   4.741   4.675   1.617
 9928SOL    HW230684   4.761   4.535   1.536
 9929SOL     OW30685   2.698   4.674   4.215
 9929SOL    HW130686   2.667   4.712   4.128
 9929SOL    HW230687   2.641   4.595   4.238
 9930SOL     OW30688   6.901   0.447   4.029
 9930SOL    HW130689   6.865   0.514   3.964
 9930SOL    HW230690   6.853   0.457   4.116
 9931SOL     OW30691   1.072   4.649   5.356
 9931SOL    HW130692   1.138   4.595   5.408
 9931SOL    HW230693   1.090   4.746   5.370
 9932SOL     OW30694   0.755   6.679   5.399
 9932SOL    HW130695   0.667   6.726   5.398
 9932SOL    HW230696   0.814   6.718   5.329
 9933SOL     OW30697   0.727   5.475   2.300
 9933SOL    HW130698   0.784   5.419   2.360
 9933SOL    HW230699   0.740   5.572   2.323
 9934SOL     OW30700   6.642   1.592   6.462
 9934SOL    HW130701   6.592   1.677   6.447
 9934SOL    HW230702   6.582   1.526   6.507
 9935SOL     OW30703   2.581   1.020   6.339
 9935SOL    HW130704   2.654   1.088   6.344
 9935SOL    HW230705   2.533   1.029   6.251
 9936SOL     OW30706   0.892   4.472   4.672
 9936SOL    HW130707   0.901   4.471   4.572
 9936SOL    HW230708   0.931   4.388   4.710
 9937SOL     OW30709   6.785   2.193   5.985
 9937SOL    HW130710   6.738   2.247   5.915
 9937SOL    HW230711   6.718   2.156   6.049
 9938SOL     OW30712   6.910   6.140   2.861
 9938SOL    HW130713   6.885   6.138   2.764
 9938SOL    HW230714   6.910   6.235   2.893
 9939SOL     OW30715   3.132   3.197   2.130
 9939SOL    HW130716   3.221   3.206   2.085
 9939SOL    HW230717   3.114   3.100   2.148
 9940SOL     OW30718   6.780   1.236   0.625
 9940SOL    HW130719   6.727   1.208   0.545
 9940SOL    HW230720   6.722   1.291   0.685
 9941SOL     OW30721   3.483   4.708   5.769
 9941SOL    HW130722   3.571   4.706   5.723
 9941SOL    HW230723   3.412   4.672   5.708
 9942SOL     OW30724   2.562   5.291   3.230
 9942SOL    HW130725   2.580   5.211   3.287
 9942SOL    HW230726   2.470   5.286   3.192
 9943SOL     OW30727   0.908   6.508   5.706
 9943SOL    HW130728   0.910   6.410   5.727
 9943SOL    HW230729   0.829   6.528   5.650
 9944SOL     OW30730   0.788   4.128   6.988
 9944SOL    HW130731   0.732   4.192   6.936
 9944SOL    HW230732   0.787   4.153   0.060
 9945SOL     OW30733   6.618   5.689   0.390
 9945SOL    HW130734   6.696   5.684   0.453
 9945SOL    HW230735   6.643   5.744   0.310
 9946SOL     OW30736   4.650   0.237   5.133
 9946SOL    HW130737   4.749   0.250   5.140
 9946SOL    HW230738   4.607   0.260   5.220
 9947SOL     OW30739   6.380   4.519   3.926
 9947SOL    HW130740   6.448   4.513   3.999
 9947SOL    HW230741   6.358   4.615   3.910
 9948SOL     OW30742   4.690   4.714   4.913
 9948SOL    HW130743   4.672   4.805   4.949
 9948SOL    HW230744   4.709   4.651   4.989
 9949SOL     OW30745   5.357   5.186   3.241
 9949SOL    HW130746   5.408   5.243   3.178
 9949SOL    HW230747   5.327   5.102   3.195
 9950SOL     OW30748   4.214   6.077   5.576
 9950SOL    HW130749   4.179   6.077   5.482
 9950SOL    HW230750   4.148   6.033   5.636
 9951SOL     OW30751   5.614   2.138   3.140
 9951SOL    HW130752   5.708   2.115   3.113
 9951SOL    HW230753   5.608   2.236   3.159
 9952SOL     OW30754   6.993   4.884   0.624
 9952SOL    HW130755   6.980   4.983   0.617
 9952SOL    HW230756   0.051   4.858   0.575
 9953SOL     OW30757   6.911   1.210   3.923
 9953SOL    HW130758   6.946   1.228   4.015
 9953SOL    HW230759   6.988   1.197   3.860
 9954SOL     OW30760   4.498   0.340   5.396
 9954SOL    HW130761   4.425   0.272   5.408
 9954SOL    HW230762   4.530   0.370   5.485
 9955SOL     OW30763   0.483   4.327   5.015
 9955SOL    HW130764   0.526   4.239   4.992
 9955SOL    HW230765   0.503   4.393   4.943
 9956SOL     OW30766   1.689   6.268   1.284
 9956SOL    HW130767   1.607   6.250   1.230
 9956SOL    HW230768   1.666   6.262   1.382
 9957SOL     OW30769   6.328   3.860   3.607
 9957SOL    HW130770   6.239   3.851   3.563
 9957SOL    HW230771   6.323   3.930   3.678
 9958SOL     OW30772   2.524   4.338   1.391
 9958SOL    HW130773   2.614   4.379   1.403
 9958SOL    HW230774   2.468   4.356   1.471
 9959SOL     OW30775   3.799   3.389   0.353
 9959SOL    HW130776   3.764   3.475   0.316
 9959SOL    HW230777   3.785   3.387   0.452
 9960SOL     OW30778   0.575   1.771   2.596
 9960SOL    HW130779   0.545   1.798   2.505
 9960SOL    HW230780   0.675   1.759   2.597
 9961SOL     OW30781   1.998   5.113   4.506
 9961SOL    HW130782   2.079   5.089   4.452
 9961SOL    HW230783   2.014   5.199   4.554
 9962SOL     OW30784   5.109   6.113   5.015
 9962SOL    HW130785   5.093   6.205   5.050
 9962SOL    HW230786   5.056   6.048   5.069
 9963SOL     OW30787   3.266   1.249   0.837
 9963SOL    HW130788   3.208   1.257   0.756
 9963SOL    HW230789   3.297   1.340   0.865
 9964SOL     OW30790   4.458   6.047   5.460
 9964SOL    HW130791   4.531   6.028   5.525
 9964SOL    HW230792   4.375   6.071   5.509
 9965SOL     OW30793   4.220   0.170   0.345
 9965SOL    HW130794   4.314   0.204   0.337
 9965SOL    HW230795   4.221   0.070   0.344
 9966SOL     OW30796   0.994   6.897   2.607
 9966SOL    HW130797   1.053   6.857   2.537
 9966SOL    HW230798   1.044   6.901   2.694
 9967SOL     OW30799   0.978   5.438   0.493
 9967SOL    HW130800   0.916   5.388   0.433
 9967SOL    HW230801   0.936   5.448   0.583
 9968SOL     OW30802   3.410   2.961   2.574
 9968SOL    HW130803   3.506   2.987   2.583
 9968SOL    HW230804   3.372   2.939   2.664
 9969SOL     OW30805   0.727   3.636   1.805
 9969SOL    HW130806   0.810   3.591   1.839
 9969SOL    HW230807   0.711   3.720   1.856
 9970SOL     OW30808   5.349   4.532   1.226
 9970SOL    HW130809   5.394   4.445   1.206
 9970SOL    HW230810   5.344   4.587   1.142
 9971SOL     OW30811   1.963   5.042   0.094
 9971SOL    HW130812   2.020   5.034   0.013
 9971SOL    HW230813   1.914   4.956   0.110
 9972SOL     OW30814   6.599   4.573   1.994
 9972SOL    HW130815   6.550   4.496   2.035
 9972SOL    HW230816   6.605   4.648   2.061
 9973SOL     OW30817   5.823   0.392   4.408
 9973SOL    HW130818   5.811   0.440   4.321
 9973SOL    HW230819   5.825   0.293   4.392
 9974SOL     OW30820   1.628   1.048   4.248
 9974SOL    HW130821   1.726   1.052   4.268
 9974SOL    HW230822   1.602   1.131   4.199
 9975SOL     OW30823   0.621   3.138   0.379
 9975SOL    HW130824   0.594   3.042   0.374
 9975SOL    HW230825   0.562   3.193   0.320
 9976SOL     OW30826   2.094   0.568   5.000
 9976SOL    HW130827   2.074   0.660   5.034
 9976SOL    HW230828   2.060   0.559   4.907
 9977SOL     OW30829   6.756   4.689   4.525
 9977SOL    HW130830   6.798   4.779   4.537
 9977SOL    HW230831   6.826   4.622   4.500
 9978SOL     OW30832   6.716   1.905   4.372
 9978SOL    HW130833   6.815   1.892   4.371
 9978SOL    HW230834   6.686   1.921   4.466
 9979SOL     OW30835   7.018   3.890   5.187
 9979SOL    HW130836   6.980   3.969   5.235
 9979SOL    HW230837   6.946   3.848   5.132
 9980SOL     OW30838   3.717   0.027   5.692
 9980SOL    HW130839   3.650   0.101   5.684
 9980SOL    HW230840   3.670   6.965   5.700
 9981SOL     OW30841   3.558   2.013   4.132
 9981SOL    HW130842   3.471   2.061   4.131
 9981SOL    HW230843   3.591   2.003   4.226
 9982SOL     OW30844   6.455   6.229   3.780
 9982SOL    HW130845   6.400   6.261   3.704
 9982SOL    HW230846   6.552   6.235   3.755
 9983SOL     OW30847   0.244   1.227   1.800
 9983SOL    HW130848   0.153   1.193   1.821
 9983SOL    HW230849   0.276   1.186   1.715
 9984SOL     OW30850   2.955   1.244   6.995
 9984SOL    HW130851   3.022   1.318   7.003
 9984SOL    HW230852   3.000   1.161   6.963
 9985SOL     OW30853   1.027   0.852   1.779
 9985SOL    HW130854   1.095   0.863   1.706
 9985SOL    HW230855   1.058   0.781   1.842
 9986SOL     OW30856   5.255   4.397   4.561
 9986SOL    HW130857   5.280   4.328   4.629
 9986SOL    HW230858   5.160   4.382   4.532
 9987SOL     OW30859   6.844   3.955   6.122
 9987SOL    HW130860   6.822   3.958   6.219
 9987SOL    HW230861   6.797   3.878   6.080
 9988SOL     OW30862   6.515   6.799   4.857
 9988SOL    HW130863   6.605   6.767   4.829
 9988SOL    HW230864   6.510   6.898   4.849
 9989SOL     OW30865   0.689   3.652   5.154
 9989SOL    HW130866   0.772   3.597   5.167
 9989SOL    HW230867   0.618   3.619   5.216
 9990SOL     OW30868   1.481   5.217   2.370
 9990SOL    HW130869   1.391   5.235   2.329
 9990SOL    HW230870   1.548   5.199   2.299
 9991SOL     OW30871   3.891   2.198   3.583
 9991SOL    HW130872   3.989   2.205   3.600
 9991SOL    HW230873   3.842   2.260   3.644
 9992SOL     OW30874   6.315   5.315   6.052
 9992SOL    HW130875   6.361   5.228   6.032
 9992SOL    HW230876   6.368   5.390   6.013
 9993SOL     OW30877   0.803   0.948   1.678
 9993SOL    HW130878   0.790   1.047   1.690
 9993SOL    HW230879   0.892   0.921   1.716
 9994SOL     OW30880   5.877   4.959   2.935
 9994SOL    HW130881   5.842   4.868   2.959
 9994SOL    HW230882   5.870   4.973   2.837
 9995SOL     OW30883   4.700   0.962   4.982
 9995SOL    HW130884   4.741   0.930   4.896
 9995SOL    HW230885   4.609   0.997   4.963
 9996SOL     OW30886   2.447   3.847   6.890
 9996SOL    HW130887   2.496   3.797   6.962
 9996SOL    HW230888   2.352   3.816   6.886
 9997SOL     OW30889   2.715   0.343   5.269
 9997SOL    HW130890   2.814   0.331   5.267
 9997SOL    HW230891   2.680   0.346   5.175
 9998SOL     OW30892   5.966   5.870   5.441
 9998SOL    HW130893   5.919   5.957   5.456
 9998SOL    HW230894   5.990   5.830   5.530
 9999SOL     OW30895   0.387   2.544   4.781
 9999SOL    HW130896   0.374   2.548   4.880
 9999SOL    HW230897   0.393   2.449   4.752
10000SOL     OW30898   6.945   3.366   6.667
10000SOL    HW130899   6.891   3.432   6.720
10000SOL    HW230900   6.884   3.294   6.633
10001SOL     OW30901   4.408   6.996   2.565
10001SOL    HW130902   4.485   0.034   2.557
10001SOL    HW230903   4.395   6.970   2.660
10002SOL     OW30904   1.030   1.303   2.067
10002SOL    HW130905   0.963   1.344   2.128
10002SOL    HW230906   1.009   1.206   2.055
10003SOL     OW30907   4.434   1.757   3.474
10003SOL    HW130908   4.410   1.688   3.405
10003SOL    HW230909   4.394   1.845   3.449
10004SOL     OW30910   0.526   1.896   3.030
10004SOL    HW130911   0.623   1.907   3.010
10004SOL    HW230912   0.491   1.817   2.980
10005SOL     OW30913   5.111   6.363   4.112
10005SOL    HW130914   5.115   6.414   4.198
10005SOL    HW230915   5.166   6.281   4.119
10006SOL     OW30916   3.998   0.774   4.738
10006SOL    HW130917   3.962   0.758   4.830
10006SOL    HW230918   3.974   0.696   4.680
10007SOL     OW30919   6.677   3.307   3.834
10007SOL    HW130920   6.648   3.306   3.929
10007SOL    HW230921   6.719   3.395   3.812
10008SOL     OW30922   3.715   0.154   4.021
10008SOL    HW130923   3.675   0.244   4.006
10008SOL    HW230924   3.809   0.153   3.985
10009SOL     OW30925   1.015   4.059   2.031
10009SOL    HW130926   0.937   4.079   2.091
10009SOL    HW230927   0.982   4.044   1.938
10010SOL     OW30928   0.618   1.595   6.399
10010SOL    HW130929   0.591   1.569   6.491
10010SOL    HW230930   0.596   1.691   6.383
10011SOL     OW30931   6.938   6.601   4.948
10011SOL    HW130932   0.012   6.601   4.956
10011SOL    HW230933   6.897   6.583   5.038
10012SOL     OW30934   5.929   1.221   3.939
10012SOL    HW130935   5.853   1.282   3.963
10012SOL    HW230936   5.911   1.178   3.850
10013SOL     OW30937   1.060   0.727   2.691
10013SOL    HW130938   1.120   0.650   2.672
10013SOL    HW230939   0.965   0.697   2.688
10014SOL     OW30940   1.623   5.083   5.887
10014SOL    HW130941   1.566   5.046   5.960
10014SOL    HW230942   1.565   5.125   5.817
10015SOL     OW30943   2.177   4.522   0.131
10015SOL    HW130944   2.123   4.453   0.179
10015SOL    HW230945   2.239   4.566   0.196
10016SOL     OW30946   2.391   0.865   5.633
10016SOL    HW130947   2.410   0.805   5.554
10016SOL    HW230948   2.468   0.928   5.646
10017SOL     OW30949   1.354   1.680   4.080
10017SOL    HW130950   1.437   1.689   4.135
10017SOL    HW230951   1.305   1.767   4.078
10018SOL     OW30952   4.715   6.692   6.671
10018SOL    HW130953   4.654   6.723   6.598
10018SOL    HW230954   4.766   6.770   6.706
10019SOL     OW30955   1.810   1.349   2.218
10019SOL    HW130956   1.718   1.381   2.195
10019SOL    HW230957   1.803   1.266   2.273
10020SOL     OW30958   0.114   3.302   0.595
10020SOL    HW130959   0.160   3.369   0.537
10020SOL    HW230960   0.085   3.224   0.541
10021SOL     OW30961   6.331   3.460   0.689
10021SOL    HW130962   6.300   3.515   0.767
10021SOL    HW230963   6.253   3.443   0.628
10022SOL     OW30964   1.565   0.732   6.686
10022SOL    HW130965   1.527   0.824   6.682
10022SOL    HW230966   1.654   0.735   6.732
10023SOL     OW30967   0.156   3.516   1.235
10023SOL    HW130968   0.253   3.511   1.258
10023SOL    HW230969   0.111   3.582   1.295
10024SOL     OW30970   1.202   4.428   3.387
10024SOL    HW130971   1.252   4.432   3.473
10024SOL    HW230972   1.265   4.449   3.311
10025SOL     OW30973   1.192   1.762   0.457
10025SOL    HW130974   1.135   1.841   0.480
10025SOL    HW230975   1.144   1.704   0.392
10026SOL     OW30976   0.022   0.877   3.740
10026SOL    HW130977   0.085   0.804   3.717
10026SOL    HW230978   6.963   0.866   3.688
10027SOL     OW30979   4.665   2.219   5.816
10027SOL    HW130980   4.759   2.212   5.784
10027SOL    HW230981   4.612   2.273   5.752
10028SOL     OW30982   2.056   0.935   0.936
10028SOL    HW130983   2.083   0.913   0.842
10028SOL    HW230984   1.958   0.920   0.946
10029SOL     OW30985   5.573   2.336   3.659
10029SOL    HW130986   5.615   2.365   3.573
10029SOL    HW230987   5.491   2.390   3.676
10030SOL     OW30988   2.356   0.908   3.481
10030SOL    HW130989   2.357   0.809   3.467
10030SOL    HW230990   2.262   0.939   3.495
10031SOL     OW30991   6.389   4.439   4.318
10031SOL    HW130992   6.404   4.403   4.411
10031SOL    HW230993   6.383   4.362   4.254
10032SOL     OW30994   3.176   1.570   5.274
10032SOL    HW130995   3.184   1.557   5.373
10032SOL    HW230996   3.118   1.498   5.236
10033SOL     OW30997   5.694   2.560   4.513
10033SOL    HW130998   5.595   2.556   4.525
10033SOL    HW230999   5.739   2.504   4.583
10034SOL     OW31000   4.768   0.548   6.280
10034SOL    HW131001   4.798   0.643   6.276
10034SOL    HW231002   4.835   0.490   6.235
10035SOL     OW31003   0.371   6.605   2.983
10035SOL    HW131004   0.443   6.552   3.030
10035SOL    HW231005   0.402   6.699   2.970
10036SOL     OW31006   6.973   0.910   0.428
10036SOL    HW131007   0.018   0.848   0.393
10036SOL    HW231008   6.913   0.939   0.354
10037SOL     OW31009   0.249   6.526   0.987
10037SOL    HW131010   0.158   6.501   1.021
10037SOL    HW231011   0.257   6.626   0.985
10038SOL     OW31012   6.676   0.771   0.831
10038SOL    HW131013   6.766   0.743   0.865
10038SOL    HW231014   6.605   0.715   0.873
10039SOL     OW31015   3.481   0.483   3.166
10039SOL    HW131016   3.490   0.550   3.240
10039SOL    HW231017   3.568   0.475   3.117
10040SOL     OW31018   0.263   2.391   1.025
10040SOL    HW131019   0.197   2.442   1.081
10040SOL    HW231020   0.337   2.452   0.996
10041SOL     OW31021   1.793   5.934   0.738
10041SOL    HW131022   1.761   5.947   0.645
10041SOL    HW231023   1.893   5.934   0.739
10042SOL     OW31024   5.787   2.756   2.813
10042SOL    HW131025   5.792   2.856   2.814
10042SOL    HW231026   5.874   2.719   2.781
10043SOL     OW31027   0.763   2.557   4.961
10043SOL    HW131028   0.760   2.563   4.862
10043SOL    HW231029   0.858   2.566   4.993
10044SOL     OW31030   3.772   1.242   6.366
10044SOL    HW131031   3.739   1.198   6.283
10044SOL    HW231032   3.866   1.212   6.384
10045SOL     OW31033   2.376   1.106   0.500
10045SOL    HW131034   2.462   1.156   0.507
10045SOL    HW231035   2.299   1.170   0.507
10046SOL     OW31036   1.199   5.111   1.124
10046SOL    HW131037   1.212   5.042   1.054
10046SOL    HW231038   1.128   5.081   1.188
10047SOL     OW31039   0.802   4.051   0.927
10047SOL    HW131040   0.819   4.079   1.022
10047SOL    HW231041   0.718   3.997   0.924
10048SOL     OW31042   5.473   5.277   2.911
10048SOL    HW131043   5.524   5.327   2.981
10048SOL    HW231044   5.389   5.326   2.890
10049SOL     OW31045   6.019   0.992   4.857
10049SOL    HW131046   5.928   1.022   4.884
10049SOL    HW231047   6.046   1.041   4.774
10050SOL     OW31048   0.323   2.824   6.474
10050SOL    HW131049   0.386   2.750   6.453
10050SOL    HW231050   0.340   2.858   6.567
10051SOL     OW31051   2.534   2.171   4.086
10051SOL    HW131052   2.633   2.189   4.086
10051SOL    HW231053   2.516   2.089   4.139
10052SOL     OW31054   1.729   0.047   3.542
10052SOL    HW131055   1.800   0.045   3.471
10052SOL    HW231056   1.717   0.140   3.575
10053SOL     OW31057   5.749   5.337   3.437
10053SOL    HW131058   5.809   5.259   3.420
10053SOL    HW231059   5.756   5.364   3.533
10054SOL     OW31060   7.002   4.257   4.602
10054SOL    HW131061   7.007   4.344   4.552
10054SOL    HW231062   0.061   4.244   4.655
10055SOL     OW31063   1.601   2.888   6.684
10055SOL    HW131064   1.675   2.906   6.620
10055SOL    HW231065   1.616   2.939   6.768
10056SOL     OW31066   6.186   2.054   3.921
10056SOL    HW131067   6.279   2.025   3.899
10056SOL    HW231068   6.147   1.992   3.990
10057SOL     OW31069   5.238   4.836   5.632
10057SOL    HW131070   5.185   4.784   5.699
10057SOL    HW231071   5.293   4.773   5.576
10058SOL     OW31072   0.189   3.951   4.727
10058SOL    HW131073   0.196   3.885   4.802
10058SOL    HW231074   0.109   3.929   4.671
10059SOL     OW31075   5.485   6.917   6.690
10059SOL    HW131076   5.547   6.996   6.692
10059SOL    HW231077   5.413   6.933   6.623
10060SOL     OW31078   2.935   1.945   1.823
10060SOL    HW131079   2.963   1.882   1.895
10060SOL    HW231080   2.888   1.894   1.750
10061SOL     OW31081   3.337   0.155   2.003
10061SOL    HW131082   3.265   0.225   2.000
10061SOL    HW231083   3.424   0.198   2.028
10062SOL     OW31084   0.943   6.397   4.814
10062SOL    HW131085   0.924   6.354   4.726
10062SOL    HW231086   1.028   6.449   4.808
10063SOL     OW31087   2.611   2.460   5.016
10063SOL    HW131088   2.617   2.362   5.032
10063SOL    HW231089   2.629   2.509   5.102
10064SOL     OW31090   2.668   6.813   1.246
10064SOL    HW131091   2.745   6.867   1.211
10064SOL    HW231092   2.593   6.816   1.180
10065SOL     OW31093   0.465   1.574   1.743
10065SOL    HW131094   0.370   1.560   1.715
10065SOL    HW231095   0.500   1.659   1.703
10066SOL     OW31096   6.440   5.073   3.718
10066SOL    HW131097   6.468   5.077   3.622
10066SOL    HW231098   6.341   5.085   3.724
10067SOL     OW31099   0.087   2.760   5.046
10067SOL    HW131100   0.002   2.714   5.024
10067SOL    HW231101   0.078   2.858   5.027
10068SOL     OW31102   1.476   3.686   2.698
10068SOL    HW131103   1.567   3.645   2.702
10068SOL    HW231104   1.446   3.709   2.791
10069SOL     OW31105   3.414   4.479   0.770
10069SOL    HW131106   3.408   4.553   0.837
10069SOL    HW231107   3.390   4.392   0.815
10070SOL     OW31108   5.150   6.783   6.896
10070SOL    HW131109   5.203   6.746   6.820
10070SOL    HW231110   5.056   6.802   6.866
10071SOL     OW31111   5.754   0.933   5.205
10071SOL    HW131112   5.814   0.876   5.149
10071SOL    HW231113   5.667   0.886   5.220
10072SOL     OW31114   5.816   3.081   1.618
10072SOL    HW131115   5.881   3.093   1.544
10072SOL    HW231116   5.749   3.011   1.593
10073SOL     OW31117   5.789   4.915   4.753
10073SOL    HW131118   5.865   4.850   4.740
10073SOL    HW231119   5.813   5.002   4.710
10074SOL     OW31120   2.481   4.607   0.023
10074SOL    HW131121   2.426   4.528   0.048
10074SOL    HW231122   2.546   4.627   0.097
10075SOL     OW31123   1.028   3.273   1.759
10075SOL    HW131124   1.066   3.242   1.672
10075SOL    HW231125   0.935   3.308   1.744
10076SOL     OW31126   5.637   4.989   4.247
10076SOL    HW131127   5.728   5.024   4.267
10076SOL    HW231128   5.623   4.902   4.295
10077SOL     OW31129   4.536   3.512   6.532
10077SOL    HW131130   4.571   3.529   6.624
10077SOL    HW231131   4.498   3.597   6.495
10078SOL     OW31132   6.594   5.660   4.549
10078SOL    HW131133   6.605   5.577   4.493
10078SOL    HW231134   6.508   5.705   4.525
10079SOL     OW31135   4.865   4.566   3.921
10079SOL    HW131136   4.835   4.544   3.828
10079SOL    HW231137   4.946   4.625   3.916
10080SOL     OW31138   5.051   1.579   5.604
10080SOL    HW131139   4.987   1.532   5.543
10080SOL    HW231140   5.141   1.584   5.560
10081SOL     OW31141   0.915   4.779   0.972
10081SOL    HW131142   0.981   4.793   1.046
10081SOL    HW231143   0.914   4.682   0.947
10082SOL     OW31144   0.836   4.656   1.402
10082SOL    HW131145   0.889   4.624   1.480
10082SOL    HW231146   0.850   4.594   1.324
10083SOL     OW31147   2.871   6.112   2.747
10083SOL    HW131148   2.842   6.160   2.830
10083SOL    HW231149   2.970   6.101   2.749
10084SOL     OW31150   0.810   2.038   4.692
10084SOL    HW131151   0.892   2.026   4.749
10084SOL    HW231152   0.812   1.973   4.616
10085SOL     OW31153   5.394   6.842   1.048
10085SOL    HW131154   5.385   6.831   1.147
10085SOL    HW231155   5.303   6.850   1.007
10086SOL     OW31156   4.820   6.247   3.190
10086SOL    HW131157   4.753   6.194   3.242
10086SOL    HW231158   4.865   6.187   3.123
10087SOL     OW31159   2.094   5.841   5.470
10087SOL    HW131160   2.122   5.746   5.473
10087SOL    HW231161   2.080   5.875   5.563
10088SOL     OW31162   6.467   2.361   1.548
10088SOL    HW131163   6.378   2.387   1.509
10088SOL    HW231164   6.531   2.339   1.475
10089SOL     OW31165   3.740   0.634   1.607
10089SOL    HW131166   3.781   0.580   1.680
10089SOL    HW231167   3.808   0.650   1.535
10090SOL     OW31168   1.888   6.356   3.277
10090SOL    HW131169   1.911   6.369   3.373
10090SOL    HW231170   1.941   6.279   3.241
10091SOL     OW31171   5.536   4.859   4.635
10091SOL    HW131172   5.620   4.911   4.645
10091SOL    HW231173   5.467   4.894   4.698
10092SOL     OW31174   0.903   1.933   3.476
10092SOL    HW131175   0.907   1.837   3.449
10092SOL    HW231176   0.985   1.956   3.530
10093SOL     OW31177   4.221   3.975   6.125
10093SOL    HW131178   4.158   4.050   6.110
10093SOL    HW231179   4.172   3.897   6.164
10094SOL     OW31180   3.753   2.136   0.555
10094SOL    HW131181   3.709   2.048   0.574
10094SOL    HW231182   3.684   2.200   0.519
10095SOL     OW31183   4.121   3.457   5.152
10095SOL    HW131184   4.069   3.391   5.206
10095SOL    HW231185   4.095   3.550   5.177
10096SOL     OW31186   6.449   3.664   2.574
10096SOL    HW131187   6.371   3.601   2.580
10096SOL    HW231188   6.534   3.612   2.571
10097SOL     OW31189   0.689   1.338   1.145
10097SOL    HW131190   0.609   1.393   1.168
10097SOL    HW231191   0.728   1.371   1.060
10098SOL     OW31192   3.438   5.275   4.532
10098SOL    HW131193   3.498   5.350   4.562
10098SOL    HW231194   3.478   5.188   4.561
10099SOL     OW31195   0.043   4.789   3.640
10099SOL    HW131196   0.090   4.849   3.706
10099SOL    HW231197   0.070   4.814   3.547
10100SOL     OW31198   5.330   4.985   3.621
10100SOL    HW131199   5.238   4.970   3.585
10100SOL    HW231200   5.335   4.952   3.716
10101SOL     OW31201   6.286   3.466   0.247
10101SOL    HW131202   6.199   3.475   0.198
10101SOL    HW231203   6.268   3.443   0.342
10102SOL     OW31204   6.353   4.715   3.607
10102SOL    HW131205   6.371   4.749   3.514
10102SOL    HW231206   6.381   4.619   3.613
10103SOL     OW31207   0.513   6.723   6.898
10103SOL    HW131208   0.497   6.732   6.996
10103SOL    HW231209   0.501   6.813   6.854
10104SOL     OW31210   3.079   1.435   4.490
10104SOL    HW131211   2.984   1.461   4.504
10104SOL    HW231212   3.094   1.413   4.394
10105SOL     OW31213   3.134   1.087   3.779
10105SOL    HW131214   3.082   1.019   3.728
10105SOL    HW231215   3.096   1.178   3.761
10106SOL     OW31216   5.864   4.218   1.593
10106SOL    HW131217   5.794   4.237   1.661
10106SOL    HW231218   5.827   4.158   1.523
10107SOL     OW31219   5.396   5.416   0.038
10107SOL    HW131220   5.479   5.385   7.018
10107SOL    HW231221   5.398   5.515   0.047
10108SOL     OW31222   2.034   2.818   4.822
10108SOL    HW131223   2.095   2.879   4.771
10108SOL    HW231224   2.087   2.772   4.893
10109SOL     OW31225   1.173   2.304   0.740
10109SOL    HW131226   1.251   2.339   0.792
10109SOL    HW231227   1.199   2.292   0.644
10110SOL     OW31228   6.051   5.961   2.076
10110SOL    HW131229   6.137   5.992   2.116
10110SOL    HW231230   6.004   5.900   2.140
10111SOL     OW31231   6.755   2.220   2.077
10111SOL    HW131232   6.710   2.308   2.061
10111SOL    HW231233   6.729   2.184   2.166
10112SOL     OW31234   5.957   2.687   3.900
10112SOL    HW131235   6.040   2.665   3.850
10112SOL    HW231236   5.888   2.616   3.884
10113SOL     OW31237   6.357   6.859   5.883
10113SOL    HW131238   6.267   6.831   5.849
10113SOL    HW231239   6.360   6.848   5.982
10114SOL     OW31240   5.367   3.388   2.094
10114SOL    HW131241   5.419   3.341   2.166
10114SOL    HW231242   5.404   3.363   2.005
10115SOL     OW31243   2.928   2.842   6.074
10115SOL    HW131244   2.882   2.815   6.158
10115SOL    HW231245   2.869   2.822   5.996
10116SOL     OW31246   0.627   0.193   6.055
10116SOL    HW131247   0.688   0.116   6.038
10116SOL    HW231248   0.681   0.275   6.074
10117SOL     OW31249   6.508   4.451   2.441
10117SOL    HW131250   6.567   4.474   2.518
10117SOL    HW231251   6.555   4.388   2.380
10118SOL     OW31252   3.736   5.450   3.448
10118SOL    HW131253   3.650   5.495   3.472
10118SOL    HW231254   3.808   5.483   3.510
10119SOL     OW31255   5.916   6.066   6.613
10119SOL    HW131256   5.865   6.084   6.529
10119SOL    HW231257   5.900   6.139   6.678
10120SOL     OW31258   2.536   2.604   3.268
10120SOL    HW131259   2.557   2.593   3.365
10120SOL    HW231260   2.575   2.528   3.216
10121SOL     OW31261   6.667   4.936   1.569
10121SOL    HW131262   6.649   4.871   1.495
10121SOL    HW231263   6.656   4.889   1.657
10122SOL     OW31264   2.198   6.955   3.557
10122SOL    HW131265   2.282   6.900   3.552
10122SOL    HW231266   2.124   6.898   3.593
10123SOL     OW31267   6.438   5.662   6.268
10123SOL    HW131268   6.423   5.730   6.197
10123SOL    HW231269   6.350   5.636   6.309
10124SOL     OW31270   2.634   4.902   3.032
10124SOL    HW131271   2.653   5.000   3.029
10124SOL    HW231272   2.670   4.859   2.950
10125SOL     OW31273   1.162   0.698   5.119
10125SOL    HW131274   1.173   0.612   5.070
10125SOL    HW231275   1.069   0.705   5.154
10126SOL     OW31276   6.687   6.087   5.155
10126SOL    HW131277   6.600   6.100   5.203
10126SOL    HW231278   6.692   6.152   5.079
10127SOL     OW31279   2.089   6.884   5.505
10127SOL    HW131280   2.188   6.888   5.517
10127SOL    HW231281   2.069   6.877   5.407
10128SOL     OW31282   2.238   2.253   0.158
10128SOL    HW131283   2.146   2.292   0.159
10128SOL    HW231284   2.293   2.298   0.088
10129SOL     OW31285   6.151   2.126   4.844
10129SOL    HW131286   6.205   2.081   4.773
10129SOL    HW231287   6.156   2.225   4.834
10130SOL     OW31288   0.752   2.133   3.352
10130SOL    HW131289   0.657   2.100   3.351
10130SOL    HW231290   0.805   2.082   3.420
10131SOL     OW31291   1.892   6.760   5.263
10131SOL    HW131292   1.918   6.685   5.323
10131SOL    HW231293   1.973   6.813   5.239
10132SOL     OW31294   6.106   0.267   2.167
10132SOL    HW131295   6.066   0.357   2.148
10132SOL    HW231296   6.162   0.271   2.250
10133SOL     OW31297   5.118   6.795   1.182
10133SOL    HW131298   5.201   6.764   1.228
10133SOL    HW231299   5.077   6.870   1.234
10134SOL     OW31300   0.608   6.845   3.524
10134SOL    HW131301   0.570   6.886   3.608
10134SOL    HW231302   0.577   6.750   3.517
10135SOL     OW31303   6.453   6.574   3.234
10135SOL    HW131304   6.381   6.644   3.229
10135SOL    HW231305   6.468   6.548   3.330
10136SOL     OW31306   4.868   1.339   3.164
10136SOL    HW131307   4.894   1.282   3.243
10136SOL    HW231308   4.920   1.425   3.166
10137SOL     OW31309   0.116   6.110   4.306
10137SOL    HW131310   0.017   6.124   4.298
10137SOL    HW231311   0.137   6.014   4.292
10138SOL     OW31312   0.161   2.337   2.041
10138SOL    HW131313   0.219   2.287   1.976
10138SOL    HW231314   0.099   2.397   1.990
10139SOL     OW31315   3.675   2.730   6.450
10139SOL    HW131316   3.599   2.686   6.498
10139SOL    HW231317   3.655   2.827   6.439
10140SOL     OW31318   0.200   6.074   5.175
10140SOL    HW131319   0.121   6.020   5.205
10140SOL    HW231320   0.191   6.168   5.207
10141SOL     OW31321   1.599   2.626   4.292
10141SOL    HW131322   1.627   2.708   4.344
10141SOL    HW231323   1.629   2.544   4.341
10142SOL     OW31324   4.847   5.591   2.553
10142SOL    HW131325   4.888   5.678   2.580
10142SOL    HW231326   4.815   5.543   2.635
10143SOL     OW31327   5.480   2.774   5.629
10143SOL    HW131328   5.553   2.842   5.637
10143SOL    HW231329   5.445   2.752   5.721
10144SOL     OW31330   3.416   0.086   0.613
10144SOL    HW131331   3.411   0.175   0.658
10144SOL    HW231332   3.404   0.014   0.681
10145SOL     OW31333   6.591   6.694   5.925
10145SOL    HW131334   6.507   6.744   5.903
10145SOL    HW231335   6.665   6.759   5.941
10146SOL     OW31336   1.579   2.871   5.085
10146SOL    HW131337   1.671   2.834   5.071
10146SOL    HW231338   1.547   2.848   5.177
10147SOL     OW31339   3.857   5.644   6.610
10147SOL    HW131340   3.873   5.546   6.601
10147SOL    HW231341   3.904   5.678   6.692
10148SOL     OW31342   0.580   4.951   6.785
10148SOL    HW131343   0.518   4.993   6.852
10148SOL    HW231344   0.666   4.927   6.830
10149SOL     OW31345   3.846   3.504   1.673
10149SOL    HW131346   3.857   3.602   1.689
10149SOL    HW231347   3.894   3.453   1.745
10150SOL     OW31348   4.624   4.134   1.053
10150SOL    HW131349   4.665   4.198   1.119
10150SOL    HW231350   4.550   4.084   1.097
10151SOL     OW31351   6.943   0.907   6.092
10151SOL    HW131352   6.866   0.951   6.044
10151SOL    HW231353   6.944   0.939   6.187
10152SOL     OW31354   4.087   6.955   2.711
10152SOL    HW131355   4.087   6.966   2.612
10152SOL    HW231356   4.180   6.967   2.746
10153SOL     OW31357   4.823   3.847   1.781
10153SOL    HW131358   4.848   3.889   1.868
10153SOL    HW231359   4.741   3.891   1.745
10154SOL     OW31360   4.549   5.357   5.142
10154SOL    HW131361   4.587   5.439   5.099
10154SOL    HW231362   4.449   5.360   5.136
10155SOL     OW31363   4.785   1.883   4.013
10155SOL    HW131364   4.792   1.953   3.942
10155SOL    HW231365   4.877   1.863   4.049
10156SOL     OW31366   4.116   1.805   6.022
10156SOL    HW131367   4.185   1.847   5.962
10156SOL    HW231368   4.101   1.710   5.994
10157SOL     OW31369   0.584   4.514   1.036
10157SOL    HW131370   0.525   4.547   1.109
10157SOL    HW231371   0.664   4.469   1.075
10158SOL     OW31372   5.497   4.940   0.072
10158SOL    HW131373   5.512   4.841   0.074
10158SOL    HW231374   5.535   4.981   0.154
10159SOL     OW31375   3.777   2.999   2.195
10159SOL    HW131376   3.838   3.004   2.115
10159SOL    HW231377   3.832   3.006   2.278
10160SOL     OW31378   0.265   4.017   2.713
10160SOL    HW131379   0.313   4.069   2.643
10160SOL    HW231380   0.332   3.973   2.774
10161SOL     OW31381   5.540   3.497   6.001
10161SOL    HW131382   5.576   3.580   6.044
10161SOL    HW231383   5.560   3.499   5.903
10162SOL     OW31384   1.934   2.514   2.466
10162SOL    HW131385   1.867   2.449   2.430
10162SOL    HW231386   1.978   2.562   2.391
10163SOL     OW31387   3.575   5.029   5.094
10163SOL    HW131388   3.574   4.974   5.010
10163SOL    HW231389   3.531   4.978   5.168
10164SOL     OW31390   0.361   1.398   3.657
10164SOL    HW131391   0.425   1.474   3.644
10164SOL    HW231392   0.290   1.401   3.586
10165SOL     OW31393   1.447   2.993   4.255
10165SOL    HW131394   1.355   2.990   4.216
10165SOL    HW231395   1.510   3.035   4.189
10166SOL     OW31396   2.895   6.464   2.730
10166SOL    HW131397   2.922   6.419   2.645
10166SOL    HW231398   2.935   6.416   2.808
10167SOL     OW31399   2.855   2.435   6.451
10167SOL    HW131400   2.849   2.465   6.356
10167SOL    HW231401   2.948   2.403   6.470
10168SOL     OW31402   0.429   0.728   6.903
10168SOL    HW131403   0.363   0.714   6.977
10168SOL    HW231404   0.379   0.742   6.817
10169SOL     OW31405   4.690   5.471   3.335
10169SOL    HW131406   4.599   5.490   3.374
10169SOL    HW231407   4.682   5.400   3.265
10170SOL     OW31408   5.259   6.886   0.506
10170SOL    HW131409   5.336   6.907   0.445
10170SOL    HW231410   5.277   6.799   0.552
10171SOL     OW31411   2.349   4.249   4.343
10171SOL    HW131412   2.289   4.243   4.422
10171SOL    HW231413   2.345   4.164   4.291
10172SOL     OW31414   0.183   0.808   2.895
10172SOL    HW131415   0.140   0.728   2.936
10172SOL    HW231416   0.126   0.843   2.821
10173SOL     OW31417   3.777   3.764   4.859
10173SOL    HW131418   3.789   3.723   4.949
10173SOL    HW231419   3.843   3.724   4.795
10174SOL     OW31420   4.654   4.670   1.214
10174SOL    HW131421   4.721   4.716   1.272
10174SOL    HW231422   4.575   4.731   1.199
10175SOL     OW31423   6.848   6.951   4.381
10175SOL    HW131424   6.938   6.994   4.383
10175SOL    HW231425   6.857   6.855   4.408
10176SOL     OW31426   0.169   0.850   4.691
10176SOL    HW131427   0.077   0.868   4.726
10176SOL    HW231428   0.183   0.901   4.606
10177SOL     OW31429   2.540   1.375   3.641
10177SOL    HW131430   2.530   1.318   3.560
10177SOL    HW231431   2.507   1.326   3.721
10178SOL     OW31432   0.637   1.540   1.945
10178SOL    HW131433   0.572   1.540   1.869
10178SOL    HW231434   0.720   1.492   1.916
10179SOL     OW31435   0.042   6.156   1.000
10179SOL    HW131436   0.013   6.246   0.969
10179SOL    HW231437   0.104   6.115   0.933
10180SOL     OW31438   3.462   6.720   6.647
10180SOL    HW131439   3.393   6.718   6.574
10180SOL    HW231440   3.552   6.738   6.607
10181SOL     OW31441   7.020   3.936   3.473
10181SOL    HW131442   0.026   3.904   3.562
10181SOL    HW231443   0.074   3.959   3.416
10182SOL     OW31444   4.030   0.474   0.587
10182SOL    HW131445   4.008   0.518   0.500
10182SOL    HW231446   4.073   0.385   0.569
10183SOL     OW31447   4.537   6.241   5.713
10183SOL    HW131448   4.478   6.204   5.784
10183SOL    HW231449   4.486   6.308   5.659
10184SOL     OW31450   5.595   1.810   5.305
10184SOL    HW131451   5.507   1.816   5.351
10184SOL    HW231452   5.591   1.742   5.232
10185SOL     OW31453   3.146   5.103   2.149
10185SOL    HW131454   3.158   5.026   2.212
10185SOL    HW231455   3.089   5.075   2.072
10186SOL     OW31456   3.320   2.720   6.956
10186SOL    HW131457   3.247   2.654   6.975
10186SOL    HW231458   3.409   2.675   6.966
10187SOL     OW31459   2.153   4.059   5.695
10187SOL    HW131460   2.208   4.141   5.711
10187SOL    HW231461   2.210   3.988   5.654
10188SOL     OW31462   2.190   6.844   6.759
10188SOL    HW131463   2.231   6.933   6.742
10188SOL    HW231464   2.261   6.774   6.758
10189SOL     OW31465   2.111   1.653   4.782
10189SOL    HW131466   2.193   1.665   4.727
10189SOL    HW231467   2.093   1.738   4.833
10190SOL     OW31468   4.487   4.416   1.084
10190SOL    HW131469   4.407   4.459   1.124
10190SOL    HW231470   4.549   4.385   1.156
10191SOL     OW31471   5.468   0.261   0.275
10191SOL    HW131472   5.441   0.221   0.362
10191SOL    HW231473   5.491   0.357   0.288
10192SOL     OW31474   2.265   0.808   4.004
10192SOL    HW131475   2.326   0.821   4.082
10192SOL    HW231476   2.279   0.716   3.966
10193SOL     OW31477   3.512   4.175   3.971
10193SOL    HW131478   3.572   4.128   4.037
10193SOL    HW231479   3.450   4.236   4.020
10194SOL     OW31480   3.082   6.603   3.015
10194SOL    HW131481   3.138   6.630   2.936
10194SOL    HW231482   3.065   6.682   3.073
10195SOL     OW31483   5.850   0.168   2.873
10195SOL    HW131484   5.784   0.121   2.931
10195SOL    HW231485   5.807   0.194   2.787
10196SOL     OW31486   5.117   4.123   4.233
10196SOL    HW131487   5.147   4.090   4.322
10196SOL    HW231488   5.020   4.146   4.237
10197SOL     OW31489   5.401   1.453   3.104
10197SOL    HW131490   5.467   1.404   3.161
10197SOL    HW231491   5.405   1.550   3.125
10198SOL     OW31492   3.211   1.204   1.618
10198SOL    HW131493   3.190   1.126   1.559
10198SOL    HW231494   3.147   1.205   1.695
10199SOL     OW31495   1.241   2.280   0.165
10199SOL    HW131496   1.172   2.210   0.148
10199SOL    HW231497   1.275   2.315   0.078
10200SOL     OW31498   5.650   6.069   5.067
10200SOL    HW131499   5.612   5.976   5.062
10200SOL    HW231500   5.577   6.132   5.094
10201SOL     OW31501   1.817   4.642   2.780
10201SOL    HW131502   1.881   4.632   2.856
10201SOL    HW231503   1.737   4.584   2.795
10202SOL     OW31504   0.260   1.948   3.508
10202SOL    HW131505   0.343   1.963   3.454
10202SOL    HW231506   0.218   2.036   3.531
10203SOL     OW31507   0.556   3.028   1.354
10203SOL    HW131508   0.631   3.047   1.290
10203SOL    HW231509   0.591   2.975   1.431
10204SOL     OW31510   2.736   5.228   4.443
10204SOL    HW131511   2.756   5.154   4.507
10204SOL    HW231512   2.725   5.313   4.494
10205SOL     OW31513   4.322   0.916   0.855
10205SOL    HW131514   4.327   1.016   0.850
10205SOL    HW231515   4.405   0.881   0.899
10206SOL     OW31516   4.802   6.939   6.526
10206SOL    HW131517   4.765   6.942   6.433
10206SOL    HW231518   4.863   6.860   6.535
10207SOL     OW31519   4.068   1.387   3.007
10207SOL    HW131520   4.049   1.401   2.910
10207SOL    HW231521   4.093   1.292   3.023
10208SOL     OW31522   6.746   3.745   5.740
10208SOL    HW131523   6.782   3.654   5.718
10208SOL    HW231524   6.809   3.815   5.707
10209SOL     OW31525   4.583   6.273   6.998
10209SOL    HW131526   4.642   6.204   0.015
10209SOL    HW231527   4.637   6.355   6.977
10210SOL     OW31528   5.479   5.615   0.341
10210SOL    HW131529   5.490   5.518   0.364
10210SOL    HW231530   5.551   5.668   0.384
10211SOL     OW31531   3.553   5.480   5.179
10211SOL    HW131532   3.496   5.414   5.228
10211SOL    HW231533   3.518   5.492   5.086
10212SOL     OW31534   6.263   6.342   6.221
10212SOL    HW131535   6.306   6.392   6.146
10212SOL    HW231536   6.193   6.400   6.264
10213SOL     OW31537   4.489   0.948   4.667
10213SOL    HW131538   4.457   0.972   4.759
10213SOL    HW231539   4.416   0.901   4.618
10214SOL     OW31540   0.432   0.986   0.654
10214SOL    HW131541   0.443   1.070   0.708
10214SOL    HW231542   0.513   0.971   0.598
10215SOL     OW31543   3.659   2.231   0.027
10215SOL    HW131544   3.650   2.325   0.061
10215SOL    HW231545   3.660   2.167   0.103
10216SOL     OW31546   4.684   0.026   2.285
10216SOL    HW131547   4.731   0.061   2.204
10216SOL    HW231548   4.620   0.095   2.319
10217SOL     OW31549   3.263   2.229   5.824
10217SOL    HW131550   3.341   2.285   5.852
10217SOL    HW231551   3.253   2.231   5.725
10218SOL     OW31552   2.823   2.424   0.011
10218SOL    HW131553   2.781   2.497   6.981
10218SOL    HW231554   2.769   2.411   0.094
10219SOL     OW31555   0.511   4.637   6.643
10219SOL    HW131556   0.442   4.679   6.702
10219SOL    HW231557   0.588   4.608   6.700
10220SOL     OW31558   4.006   2.574   0.528
10220SOL    HW131559   4.050   2.573   0.438
10220SOL    HW231560   4.044   2.501   0.584
10221SOL     OW31561   3.079   1.091   4.697
10221SOL    HW131562   3.126   1.179   4.685
10221SOL    HW231563   3.043   1.061   4.608
10222SOL     OW31564   2.087   4.942   5.836
10222SOL    HW131565   2.097   5.018   5.771
10222SOL    HW231566   2.098   4.977   5.929
10223SOL     OW31567   6.922   4.360   0.459
10223SOL    HW131568   6.885   4.414   0.383
10223SOL    HW231569   7.017   4.386   0.476
10224SOL     OW31570   2.742   0.657   4.558
10224SOL    HW131571   2.755   0.582   4.622
10224SOL    HW231572   2.809   0.652   4.485
10225SOL     OW31573   4.709   5.610   4.294
10225SOL    HW131574   4.626   5.653   4.329
10225SOL    HW231575   4.708   5.513   4.317
10226SOL     OW31576   0.148   3.054   6.844
10226SOL    HW131577   0.096   2.968   6.851
10226SOL    HW231578   0.086   3.131   6.857
10227SOL     OW31579   5.493   5.030   5.474
10227SOL    HW131580   5.431   4.954   5.453
10227SOL    HW231581   5.462   5.076   5.556
10228SOL     OW31582   1.279   3.524   2.562
10228SOL    HW131583   1.269   3.462   2.640
10228SOL    HW231584   1.365   3.576   2.571
10229SOL     OW31585   2.062   1.262   1.021
10229SOL    HW131586   2.001   1.250   1.099
10229SOL    HW231587   2.071   1.176   0.972
10230SOL     OW31588   6.254   6.747   3.706
10230SOL    HW131589   6.243   6.829   3.763
10230SOL    HW231590   6.352   6.726   3.696
10231SOL     OW31591   4.816   0.157   4.291
10231SOL    HW131592   4.888   0.091   4.268
10231SOL    HW231593   4.809   0.225   4.219
10232SOL     OW31594   3.965   1.905   3.978
10232SOL    HW131595   4.020   1.860   4.048
10232SOL    HW231596   3.913   1.980   4.019
10233SOL     OW31597   4.867   0.621   5.666
10233SOL    HW131598   4.906   0.673   5.743
10233SOL    HW231599   4.845   0.528   5.697
10234SOL     OW31600   4.726   5.632   1.172
10234SOL    HW131601   4.634   5.595   1.180
10234SOL    HW231602   4.726   5.707   1.106
10235SOL     OW31603   4.652   1.274   0.156
10235SOL    HW131604   4.631   1.359   0.108
10235SOL    HW231605   4.725   1.225   0.108
10236SOL     OW31606   2.067   6.080   1.715
10236SOL    HW131607   1.996   6.018   1.681
10236SOL    HW231608   2.054   6.095   1.813
10237SOL     OW31609   5.613   2.798   3.675
10237SOL    HW131610   5.542   2.736   3.639
10237SOL    HW231611   5.600   2.889   3.636
10238SOL     OW31612   4.489   6.183   4.832
10238SOL    HW131613   4.577   6.156   4.794
10238SOL    HW231614   4.452   6.108   4.887
10239SOL     OW31615   6.324   3.451   4.308
10239SOL    HW131616   6.422   3.433   4.322
10239SOL    HW231617   6.279   3.463   4.396
10240SOL     OW31618   5.513   3.700   3.683
10240SOL    HW131619   5.427   3.649   3.673
10240SOL    HW231620   5.590   3.639   3.667
10241SOL     OW31621   1.936   1.597   2.966
10241SOL    HW131622   1.899   1.598   3.059
10241SOL    HW231623   1.920   1.508   2.925
10242SOL     OW31624   0.756   5.785   6.185
10242SOL    HW131625   0.695   5.746   6.116
10242SOL    HW231626   0.736   5.746   6.274
10243SOL     OW31627   1.050   6.052   2.852
10243SOL    HW131628   1.125   5.993   2.823
10243SOL    HW231629   0.980   6.055   2.781
10244SOL     OW31630   1.404   5.891   0.140
10244SOL    HW131631   1.394   5.987   0.114
10244SOL    HW231632   1.499   5.875   0.169
10245SOL     OW31633   2.167   2.475   6.961
10245SOL    HW131634   2.109   2.463   6.880
10245SOL    HW231635   2.113   2.457   0.018
10246SOL     OW31636   3.294   3.733   3.785
10246SOL    HW131637   3.257   3.659   3.729
10246SOL    HW231638   3.391   3.714   3.804
10247SOL     OW31639   0.883   6.220   5.371
10247SOL    HW131640   0.920   6.312   5.385
10247SOL    HW231641   0.815   6.200   5.442
10248SOL     OW31642   5.200   1.051   2.696
10248SOL    HW131643   5.155   1.123   2.643
10248SOL    HW231644   5.195   1.073   2.793
10249SOL     OW31645   4.546   1.171   6.623
10249SOL    HW131646   4.497   1.121   6.551
10249SOL    HW231647   4.627   1.120   6.650
10250SOL     OW31648   5.401   0.233   0.557
10250SOL    HW131649   5.332   0.161   0.562
10250SOL    HW231650   5.413   0.275   0.647
10251SOL     OW31651   4.108   4.537   0.552
10251SOL    HW131652   4.032   4.487   0.595
10251SOL    HW231653   4.163   4.581   0.622
10252SOL     OW31654   6.964   4.681   1.573
10252SOL    HW131655   6.917   4.711   1.656
10252SOL    HW231656   0.005   4.610   1.596
10253SOL     OW31657   3.823   4.643   0.498
10253SOL    HW131658   3.798   4.553   0.534
10253SOL    HW231659   3.917   4.642   0.466
10254SOL     OW31660   2.205   1.338   4.673
10254SOL    HW131661   2.113   1.378   4.675
10254SOL    HW231662   2.239   1.329   4.767
10255SOL     OW31663   3.106   5.358   2.818
10255SOL    HW131664   3.132   5.315   2.731
10255SOL    HW231665   3.169   5.433   2.838
10256SOL     OW31666   5.559   6.237   6.989
10256SOL    HW131667   5.590   6.316   6.936
10256SOL    HW231668   5.582   6.250   0.060
10257SOL     OW31669   1.727   6.182   5.730
10257SOL    HW131670   1.717   6.252   5.801
10257SOL    HW231671   1.695   6.094   5.765
10258SOL     OW31672   4.421   0.890   3.573
10258SOL    HW131673   4.498   0.828   3.562
10258SOL    HW231674   4.349   0.846   3.627
10259SOL     OW31675   0.956   3.540   3.971
10259SOL    HW131676   0.910   3.458   4.004
10259SOL    HW231677   1.039   3.514   3.921
10260SOL     OW31678   6.642   6.371   2.096
10260SOL    HW131679   6.712   6.401   2.162
10260SOL    HW231680   6.644   6.430   2.016
10261SOL     OW31681   2.056   0.138   1.876
10261SOL    HW131682   2.145   0.114   1.837
10261SOL    HW231683   2.040   0.082   1.958
10262SOL     OW31684   1.332   5.557   4.759
10262SOL    HW131685   1.425   5.545   4.794
10262SOL    HW231686   1.276   5.479   4.788
10263SOL     OW31687   6.547   2.770   5.687
10263SOL    HW131688   6.551   2.854   5.740
10263SOL    HW231689   6.637   2.725   5.689
10264SOL     OW31690   0.327   0.129   0.094
10264SOL    HW131691   0.379   0.207   0.129
10264SOL    HW231692   0.376   0.044   0.113
10265SOL     OW31693   4.340   2.151   2.391
10265SOL    HW131694   4.422   2.198   2.424
10265SOL    HW231695   4.319   2.180   2.298
10266SOL     OW31696   4.170   3.576   6.748
10266SOL    HW131697   4.250   3.519   6.763
10266SOL    HW231698   4.196   3.657   6.696
10267SOL     OW31699   0.259   1.467   6.305
10267SOL    HW131700   0.160   1.471   6.293
10267SOL    HW231701   0.294   1.381   6.267
10268SOL     OW31702   6.214   4.514   1.524
10268SOL    HW131703   6.168   4.599   1.548
10268SOL    HW231704   6.313   4.528   1.527
10269SOL     OW31705   2.882   1.921   6.050
10269SOL    HW131706   2.885   1.891   6.145
10269SOL    HW231707   2.956   1.877   5.998
10270SOL     OW31708   2.994   6.939   1.513
10270SOL    HW131709   2.955   0.003   1.492
10270SOL    HW231710   2.963   6.910   1.604
10271SOL     OW31711   2.892   5.553   1.042
10271SOL    HW131712   2.954   5.530   1.117
10271SOL    HW231713   2.808   5.500   1.049
10272SOL     OW31714   1.706   2.013   4.603
10272SOL    HW131715   1.729   2.097   4.553
10272SOL    HW231716   1.635   1.963   4.553
10273SOL     OW31717   3.843   7.015   4.287
10273SOL    HW131718   3.859   0.015   4.191
10273SOL    HW231719   3.917   6.956   4.319
10274SOL     OW31720   2.554   5.098   6.535
10274SOL    HW131721   2.556   5.184   6.585
10274SOL    HW231722   2.645   5.057   6.533
10275SOL     OW31723   1.047   6.567   1.992
10275SOL    HW131724   1.094   6.569   2.081
10275SOL    HW231725   1.113   6.583   1.919
10276SOL     OW31726   7.015   6.129   6.801
10276SOL    HW131727   0.039   6.069   6.737
10276SOL    HW231728   6.971   6.203   6.751
10277SOL     OW31729   1.027   5.649   2.215
10277SOL    HW131730   1.122   5.619   2.217
10277SOL    HW231731   1.022   5.747   2.236
10278SOL     OW31732   6.460   0.091   5.742
10278SOL    HW131733   6.445   0.171   5.684
10278SOL    HW231734   6.471   0.010   5.684
10279SOL     OW31735   3.935   6.283   4.781
10279SOL    HW131736   3.946   6.381   4.794
10279SOL    HW231737   4.020   6.236   4.805
10280SOL     OW31738   3.262   2.830   6.701
10280SOL    HW131739   3.311   2.910   6.735
10280SOL    HW231740   3.209   2.788   6.775
10281SOL     OW31741   4.267   0.525   4.121
10281SOL    HW131742   4.189   0.551   4.064
10281SOL    HW231743   4.235   0.483   4.205
10282SOL     OW31744   1.124   2.866   4.409
10282SOL    HW131745   1.210   2.816   4.404
10282SOL    HW231746   1.109   2.897   4.503
10283SOL     OW31747   1.677   3.985   6.166
10283SOL    HW131748   1.583   4.011   6.141
10283SOL    HW231749   1.731   3.973   6.083
10284SOL     OW31750   5.126   2.874   0.163
10284SOL    HW131751   5.061   2.868   0.239
10284SOL    HW231752   5.210   2.827   0.187
10285SOL     OW31753   5.712   0.825   0.524
10285SOL    HW131754   5.629   0.777   0.554
10285SOL    HW231755   5.749   0.780   0.444
10286SOL     OW31756   4.526   0.898   3.961
10286SOL    HW131757   4.434   0.932   3.943
10286SOL    HW231758   4.592   0.971   3.943
10287SOL     OW31759   1.358   4.680   1.957
10287SOL    HW131760   1.297   4.750   1.994
10287SOL    HW231761   1.377   4.612   2.028
10288SOL     OW31762   4.775   6.431   4.545
10288SOL    HW131763   4.819   6.521   4.539
10288SOL    HW231764   4.845   6.360   4.550
10289SOL     OW31765   2.558   1.385   1.344
10289SOL    HW131766   2.595   1.437   1.267
10289SOL    HW231767   2.632   1.341   1.394
10290SOL     OW31768   3.000   3.282   1.788
10290SOL    HW131769   3.067   3.333   1.735
10290SOL    HW231770   3.032   3.188   1.801
10291SOL     OW31771   4.314   0.193   5.703
10291SOL    HW131772   4.265   0.275   5.730
10291SOL    HW231773   4.263   0.145   5.632
10292SOL     OW31774   0.621   1.309   4.911
10292SOL    HW131775   0.640   1.219   4.871
10292SOL    HW231776   0.703   1.367   4.904
10293SOL     OW31777   3.195   5.467   3.358
10293SOL    HW131778   3.135   5.547   3.366
10293SOL    HW231779   3.212   5.430   3.449
10294SOL     OW31780   6.701   1.308   2.937
10294SOL    HW131781   6.693   1.314   2.838
10294SOL    HW231782   6.668   1.219   2.968
10295SOL     OW31783   2.064   4.297   4.135
10295SOL    HW131784   2.035   4.313   4.229
10295SOL    HW231785   2.151   4.345   4.118
10296SOL     OW31786   6.834   2.670   1.704
10296SOL    HW131787   6.899   2.743   1.680
10296SOL    HW231788   6.871   2.582   1.674
10297SOL     OW31789   2.848   5.055   4.671
10297SOL    HW131790   2.840   4.958   4.695
10297SOL    HW231791   2.939   5.088   4.695
10298SOL     OW31792   6.034   3.445   2.982
10298SOL    HW131793   6.073   3.476   3.069
10298SOL    HW231794   6.071   3.500   2.908
10299SOL     OW31795   4.814   3.933   2.066
10299SOL    HW131796   4.848   3.865   2.132
10299SOL    HW231797   4.752   3.996   2.112
10300SOL     OW31798   1.853   5.916   1.607
10300SOL    HW131799   1.866   5.924   1.508
10300SOL    HW231800   1.803   5.831   1.627
10301SOL     OW31801   5.019   1.200   1.801
10301SOL    HW131802   4.964   1.137   1.855
10301SOL    HW231803   4.959   1.268   1.758
10302SOL     OW31804   1.112   4.753   3.769
10302SOL    HW131805   1.193   4.792   3.813
10302SOL    HW231806   1.136   4.724   3.676
10303SOL     OW31807   3.829   3.052   1.327
10303SOL    HW131808   3.924   3.070   1.352
10303SOL    HW231809   3.809   3.094   1.238
10304SOL     OW31810   5.905   6.446   3.905
10304SOL    HW131811   5.843   6.501   3.961
10304SOL    HW231812   5.912   6.355   3.944
10305SOL     OW31813   1.758   5.380   0.929
10305SOL    HW131814   1.850   5.411   0.952
10305SOL    HW231815   1.721   5.326   1.005
10306SOL     OW31816   3.957   4.486   0.791
10306SOL    HW131817   3.861   4.469   0.766
10306SOL    HW231818   3.966   4.580   0.825
10307SOL     OW31819   2.307   1.436   5.294
10307SOL    HW131820   2.364   1.422   5.375
10307SOL    HW231821   2.219   1.389   5.308
10308SOL     OW31822   2.940   5.194   3.716
10308SOL    HW131823   2.958   5.200   3.815
10308SOL    HW231824   2.845   5.219   3.699
10309SOL     OW31825   0.258   6.362   3.599
10309SOL    HW131826   0.163   6.333   3.611
10309SOL    HW231827   0.261   6.446   3.546
10310SOL     OW31828   3.486   3.204   4.203
10310SOL    HW131829   3.563   3.158   4.158
10310SOL    HW231830   3.503   3.210   4.301
10311SOL     OW31831   0.680   6.829   0.631
10311SOL    HW131832   0.668   6.802   0.727
10311SOL    HW231833   0.645   6.921   0.617
10312SOL     OW31834   2.094   4.915   1.055
10312SOL    HW131835   2.049   5.001   1.029
10312SOL    HW231836   2.115   4.917   1.153
10313SOL     OW31837   6.496   6.037   4.007
10313SOL    HW131838   6.517   6.099   3.932
10313SOL    HW231839   6.502   6.086   4.094
10314SOL     OW31840   6.002   5.121   5.060
10314SOL    HW131841   6.027   5.161   4.972
10314SOL    HW231842   6.011   5.021   5.055
10315SOL     OW31843   4.758   6.678   5.731
10315SOL    HW131844   4.791   6.596   5.778
10315SOL    HW231845   4.793   6.678   5.637
10316SOL     OW31846   0.150   3.331   2.773
10316SOL    HW131847   0.223   3.345   2.839
10316SOL    HW231848   0.066   3.306   2.822
10317SOL     OW31849   4.761   4.924   0.792
10317SOL    HW131850   4.802   4.947   0.880
10317SOL    HW231851   4.661   4.929   0.799
10318SOL     OW31852   6.508   5.529   2.910
10318SOL    HW131853   6.562   5.480   2.979
10318SOL    HW231854   6.505   5.626   2.933
10319SOL     OW31855   5.453   6.490   4.792
10319SOL    HW131856   5.518   6.503   4.867
10319SOL    HW231857   5.376   6.552   4.804
10320SOL     OW31858   4.288   5.849   1.812
10320SOL    HW131859   4.276   5.851   1.713
10320SOL    HW231860   4.226   5.782   1.853
10321SOL     OW31861   3.843   0.478   4.121
10321SOL    HW131862   3.869   0.410   4.189
10321SOL    HW231863   3.762   0.446   4.072
10322SOL     OW31864   0.693   2.611   6.893
10322SOL    HW131865   0.630   2.604   6.971
10322SOL    HW231866   0.786   2.628   6.927
10323SOL     OW31867   0.479   2.383   5.716
10323SOL    HW131868   0.571   2.403   5.681
10323SOL    HW231869   0.411   2.420   5.652
10324SOL     OW31870   3.856   3.167   4.311
10324SOL    HW131871   3.788   3.240   4.327
10324SOL    HW231872   3.915   3.193   4.235
10325SOL     OW31873   0.312   4.202   2.994
10325SOL    HW131874   0.234   4.148   2.961
10325SOL    HW231875   0.359   4.151   3.066
10326SOL     OW31876   5.232   1.986   1.177
10326SOL    HW131877   5.159   1.926   1.144
10326SOL    HW231878   5.279   2.028   1.100
10327SOL     OW31879   6.667   0.631   3.023
10327SOL    HW131880   6.624   0.682   2.949
10327SOL    HW231881   6.742   0.685   3.061
10328SOL     OW31882   6.623   3.657   3.051
10328SOL    HW131883   6.707   3.623   3.094
10328SOL    HW231884   6.546   3.598   3.075
10329SOL     OW31885   3.523   6.348   3.124
10329SOL    HW131886   3.502   6.292   3.044
10329SOL    HW231887   3.443   6.353   3.184
10330SOL     OW31888   3.460   3.970   0.950
10330SOL    HW131889   3.458   3.955   1.048
10330SOL    HW231890   3.379   3.929   0.908
10331SOL     OW31891   4.939   0.669   4.591
10331SOL    HW131892   5.012   0.737   4.596
10331SOL    HW231893   4.920   0.646   4.496
10332SOL     OW31894   0.270   1.417   6.768
10332SOL    HW131895   0.293   1.475   6.691
10332SOL    HW231896   0.194   1.457   6.819
10333SOL     OW31897   5.972   4.435   5.350
10333SOL    HW131898   6.068   4.463   5.360
10333SOL    HW231899   5.933   4.480   5.270
10334SOL     OW31900   1.232   4.893   5.012
10334SOL    HW131901   1.197   4.803   4.989
10334SOL    HW231902   1.331   4.896   4.997
10335SOL     OW31903   3.244   5.415   1.990
10335SOL    HW131904   3.170   5.379   2.047
10335SOL    HW231905   3.247   5.514   1.997
10336SOL     OW31906   4.777   6.560   2.692
10336SOL    HW131907   4.844   6.610   2.746
10336SOL    HW231908   4.731   6.493   2.751
10337SOL     OW31909   0.137   4.853   5.530
10337SOL    HW131910   0.040   4.869   5.511
10337SOL    HW231911   0.187   4.938   5.519
10338SOL     OW31912   2.940   5.084   2.910
10338SOL    HW131913   2.886   5.158   2.948
10338SOL    HW231914   2.914   5.069   2.815
10339SOL     OW31915   2.915   6.035   0.801
10339SOL    HW131916   2.830   6.071   0.838
10339SOL    HW231917   2.897   5.951   0.750
10340SOL     OW31918   1.484   6.545   0.319
10340SOL    HW131919   1.410   6.560   0.254
10340SOL    HW231920   1.567   6.519   0.270
10341SOL     OW31921   0.709   2.664   1.997
10341SOL    HW131922   0.657   2.727   2.055
10341SOL    HW231923   0.728   2.580   2.048
10342SOL     OW31924   3.346   6.222   3.994
10342SOL    HW131925   3.394   6.269   3.920
10342SOL    HW231926   3.265   6.176   3.956
10343SOL     OW31927   2.418   2.756   4.016
10343SOL    HW131928   2.499   2.701   4.035
10343SOL    HW231929   2.345   2.731   4.081
10344SOL     OW31930   4.760   3.944   1.326
10344SOL    HW131931   4.823   4.012   1.364
10344SOL    HW231932   4.676   3.988   1.296
10345SOL     OW31933   2.396   2.406   5.406
10345SOL    HW131934   2.346   2.392   5.491
10345SOL    HW231935   2.462   2.480   5.418
10346SOL     OW31936   5.777   4.918   0.233
10346SOL    HW131937   5.860   4.922   0.288
10346SOL    HW231938   5.773   4.999   0.173
10347SOL     OW31939   4.913   0.325   1.590
10347SOL    HW131940   4.916   0.425   1.602
10347SOL    HW231941   4.846   0.302   1.520
10348SOL     OW31942   6.603   5.008   5.587
10348SOL    HW131943   6.646   5.080   5.532
10348SOL    HW231944   6.629   5.020   5.683
10349SOL     OW31945   6.660   2.197   0.671
10349SOL    HW131946   6.746   2.215   0.719
10349SOL    HW231947   6.661   2.104   0.635
10350SOL     OW31948   2.271   5.136   4.756
10350SOL    HW131949   2.332   5.133   4.835
10350SOL    HW231950   2.238   5.043   4.736
10351SOL     OW31951   4.171   4.923   4.871
10351SOL    HW131952   4.164   4.892   4.777
10351SOL    HW231953   4.233   4.864   4.922
10352SOL     OW31954   6.606   1.353   0.197
10352SOL    HW131955   6.621   1.443   0.157
10352SOL    HW231956   6.525   1.311   0.156
10353SOL     OW31957   6.563   2.285   3.791
10353SOL    HW131958   6.606   2.350   3.854
10353SOL    HW231959   6.478   2.324   3.756
10354SOL     OW31960   6.068   2.700   1.321
10354SOL    HW131961   6.086   2.784   1.373
10354SOL    HW231962   6.048   2.724   1.226
10355SOL     OW31963   0.576   2.144   0.654
10355SOL    HW131964   0.585   2.192   0.741
10355SOL    HW231965   0.556   2.047   0.672
10356SOL     OW31966   5.063   2.199   6.420
10356SOL    HW131967   4.976   2.171   6.459
10356SOL    HW231968   5.055   2.290   6.380
10357SOL     OW31969   1.263   0.175   6.140
10357SOL    HW131970   1.164   0.181   6.145
10357SOL    HW231971   1.302   0.266   6.128
10358SOL     OW31972   0.066   2.909   3.112
10358SOL    HW131973   7.015   2.863   3.158
10358SOL    HW231974   0.152   2.883   3.155
10359SOL     OW31975   0.511   1.877   2.339
10359SOL    HW131976   0.519   1.817   2.260
10359SOL    HW231977   0.418   1.914   2.344
10360SOL     OW31978   6.023   3.885   1.366
10360SOL    HW131979   6.091   3.943   1.322
10360SOL    HW231980   5.945   3.941   1.396
10361SOL     OW31981   6.219   1.784   1.940
10361SOL    HW131982   6.249   1.874   1.973
10361SOL    HW231983   6.196   1.790   1.843
10362SOL     OW31984   1.312   5.592   1.604
10362SOL    HW131985   1.326   5.554   1.695
10362SOL    HW231986   1.219   5.571   1.572
10363SOL     OW31987   5.468   4.818   6.534
10363SOL    HW131988   5.484   4.732   6.487
10363SOL    HW231989   5.517   4.818   6.621
10364SOL     OW31990   5.720   5.448   2.700
10364SOL    HW131991   5.654   5.398   2.756
10364SOL    HW231992   5.714   5.546   2.721
10365SOL     OW31993   6.034   5.506   0.570
10365SOL    HW131994   6.124   5.481   0.605
10365SOL    HW231995   6.043   5.588   0.512
10366SOL     OW31996   3.009   6.449   4.091
10366SOL    HW131997   3.090   6.483   4.043
10366SOL    HW231998   3.037   6.399   4.172
10367SOL     OW31999   5.347   6.697   1.600
10367SOL    HW132000   5.386   6.789   1.594
10367SOL    HW232001   5.407   6.639   1.656
10368SOL     OW32002   1.557   5.563   1.471
10368SOL    HW132003   1.519   5.627   1.405
10368SOL    HW232004   1.487   5.538   1.538
10369SOL     OW32005   2.369   0.396   6.344
10369SOL    HW132006   2.438   0.440   6.401
10369SOL    HW232007   2.395   0.405   6.247
10370SOL     OW32008   1.978   1.561   5.615
10370SOL    HW132009   1.955   1.659   5.613
10370SOL    HW232010   2.057   1.547   5.675
10371SOL     OW32011   4.190   5.779   3.152
10371SOL    HW132012   4.114   5.838   3.178
10371SOL    HW232013   4.265   5.834   3.116
10372SOL     OW32014   2.134   6.838   1.378
10372SOL    HW132015   2.109   6.802   1.288
10372SOL    HW232016   2.178   6.766   1.432
10373SOL     OW32017   5.917   1.023   6.634
10373SOL    HW132018   5.949   0.950   6.693
10373SOL    HW232019   5.995   1.067   6.589
10374SOL     OW32020   3.336   4.971   3.423
10374SOL    HW132021   3.351   4.915   3.505
10374SOL    HW232022   3.410   4.954   3.358
10375SOL     OW32023   2.421   5.426   0.915
10375SOL    HW132024   2.425   5.327   0.898
10375SOL    HW232025   2.444   5.475   0.832
10376SOL     OW32026   2.394   4.787   3.966
10376SOL    HW132027   2.459   4.854   4.004
10376SOL    HW232028   2.384   4.802   3.868
10377SOL     OW32029   1.816   0.707   2.095
10377SOL    HW132030   1.810   0.799   2.134
10377SOL    HW232031   1.841   0.714   1.998
10378SOL     OW32032   0.606   5.934   4.563
10378SOL    HW132033   0.530   5.982   4.517
10378SOL    HW232034   0.688   5.990   4.557
10379SOL     OW32035   2.396   0.112   3.702
10379SOL    HW132036   2.325   0.063   3.753
10379SOL    HW232037   2.474   0.051   3.687
10380SOL     OW32038   3.077   2.112   4.458
10380SOL    HW132039   3.176   2.107   4.474
10380SOL    HW232040   3.038   2.185   4.513
10381SOL     OW32041   4.051   6.433   2.743
10381SOL    HW132042   4.001   6.370   2.683
10381SOL    HW232043   3.995   6.513   2.764
10382SOL     OW32044   4.198   5.567   1.555
10382SOL    HW132045   4.193   5.664   1.533
10382SOL    HW232046   4.281   5.528   1.515
10383SOL     OW32047   0.826   4.897   6.966
10383SOL    HW132048   0.911   4.940   6.997
10383SOL    HW232049   0.788   4.843   0.016
10384SOL     OW32050   5.585   5.427   1.274
10384SOL    HW132051   5.572   5.502   1.339
10384SOL    HW232052   5.503   5.369   1.273
10385SOL     OW32053   4.408   4.633   0.236
10385SOL    HW132054   4.440   4.603   0.146
10385SOL    HW232055   4.344   4.565   0.273
10386SOL     OW32056   0.248   0.837   0.978
10386SOL    HW132057   0.227   0.922   0.929
10386SOL    HW232058   0.225   0.759   0.921
10387SOL     OW32059   4.992   2.960   2.135
10387SOL    HW132060   4.910   2.998   2.093
10387SOL    HW232061   5.073   3.000   2.093
10388SOL     OW32062   1.657   6.907   5.200
10388SOL    HW132063   1.579   6.848   5.222
10388SOL    HW232064   1.742   6.857   5.216
10389SOL     OW32065   0.559   4.226   6.831
10389SOL    HW132066   0.575   4.198   6.736
10389SOL    HW232067   0.469   4.194   6.861
10390SOL     OW32068   2.230   2.456   1.980
10390SOL    HW132069   2.254   2.396   2.057
10390SOL    HW232070   2.140   2.497   1.998
10391SOL     OW32071   5.770   6.581   4.110
10391SOL    HW132072   5.822   6.643   4.168
10391SOL    HW232073   5.747   6.498   4.161
10392SOL     OW32074   6.546   3.808   4.770
10392SOL    HW132075   6.566   3.712   4.748
10392SOL    HW232076   6.472   3.812   4.836
10393SOL     OW32077   1.766   3.201   3.207
10393SOL    HW132078   1.754   3.201   3.108
10393SOL    HW232079   1.678   3.186   3.252
10394SOL     OW32080   3.262   0.411   4.487
10394SOL    HW132081   3.292   0.343   4.554
10394SOL    HW232082   3.309   0.395   4.400
10395SOL     OW32083   0.942   6.880   1.089
10395SOL    HW132084   0.927   6.876   1.188
10395SOL    HW232085   0.921   6.972   1.056
10396SOL     OW32086   3.340   2.112   4.804
10396SOL    HW132087   3.317   2.162   4.888
10396SOL    HW232088   3.439   2.117   4.788
10397SOL     OW32089   4.653   1.625   3.551
10397SOL    HW132090   4.679   1.540   3.506
10397SOL    HW232091   4.566   1.658   3.513
10398SOL     OW32092   5.776   2.984   1.955
10398SOL    HW132093   5.696   3.012   2.009
10398SOL    HW232094   5.859   2.994   2.010
10399SOL     OW32095   0.971   3.967   1.386
10399SOL    HW132096   1.018   3.986   1.472
10399SOL    HW232097   1.038   3.954   1.313
10400SOL     OW32098   2.195   6.393   0.684
10400SOL    HW132099   2.101   6.399   0.719
10400SOL    HW232100   2.251   6.338   0.746
10401SOL     OW32101   0.703   1.083   5.935
10401SOL    HW132102   0.624   1.142   5.912
10401SOL    HW232103   0.673   1.009   5.994
10402SOL     OW32104   0.312   2.575   5.040
10402SOL    HW132105   0.308   2.504   5.110
10402SOL    HW232106   0.234   2.637   5.051
10403SOL     OW32107   3.334   0.667   0.814
10403SOL    HW132108   3.334   0.689   0.911
10403SOL    HW232109   3.249   0.619   0.790
10404SOL     OW32110   0.056   6.724   6.396
10404SOL    HW132111   7.006   6.678   6.445
10404SOL    HW232112   0.143   6.689   6.429
10405SOL     OW32113   0.638   2.451   6.216
10405SOL    HW132114   0.665   2.371   6.269
10405SOL    HW232115   0.612   2.525   6.277
10406SOL     OW32116   2.569   5.104   1.881
10406SOL    HW132117   2.647   5.153   1.919
10406SOL    HW232118   2.485   5.154   1.899
10407SOL     OW32119   2.429   6.473   6.564
10407SOL    HW132120   2.378   6.438   6.486
10407SOL    HW232121   2.414   6.414   6.643
10408SOL     OW32122   4.053   1.815   0.127
10408SOL    HW132123   4.019   1.842   0.037
10408SOL    HW232124   4.123   1.880   0.157
10409SOL     OW32125   6.042   4.953   1.332
10409SOL    HW132126   6.074   4.936   1.239
10409SOL    HW232127   6.071   5.043   1.362
10410SOL     OW32128   5.226   0.733   0.953
10410SOL    HW132129   5.297   0.800   0.935
10410SOL    HW232130   5.139   0.765   0.914
10411SOL     OW32131   2.651   5.262   3.695
10411SOL    HW132132   2.638   5.339   3.632
10411SOL    HW232133   2.573   5.200   3.687
10412SOL     OW32134   6.238   0.459   0.502
10412SOL    HW132135   6.221   0.406   0.586
10412SOL    HW232136   6.297   0.537   0.524
10413SOL     OW32137   0.098   2.818   1.961
10413SOL    HW132138   0.170   2.886   1.974
10413SOL    HW232139   0.014   2.851   2.005
10414SOL     OW32140   5.112   2.810   3.855
10414SOL    HW132141   5.135   2.775   3.764
10414SOL    HW232142   5.166   2.761   3.924
10415SOL     OW32143   0.132   7.014   6.466
10415SOL    HW132144   0.230   6.997   6.450
10415SOL    HW232145   0.081   6.930   6.449
10416SOL     OW32146   5.545   3.042   4.691
10416SOL    HW132147   5.614   3.027   4.762
10416SOL    HW232148   5.538   2.960   4.634
10417SOL     OW32149   2.522   4.573   3.685
10417SOL    HW132150   2.505   4.583   3.783
10417SOL    HW232151   2.455   4.509   3.647
10418SOL     OW32152   1.130   5.167   6.176
10418SOL    HW132153   1.072   5.107   6.232
10418SOL    HW232154   1.083   5.255   6.163
10419SOL     OW32155   0.793   1.491   0.855
10419SOL    HW132156   0.781   1.590   0.864
10419SOL    HW232157   0.878   1.464   0.901
10420SOL     OW32158   0.246   3.473   3.366
10420SOL    HW132159   0.186   3.526   3.426
10420SOL    HW232160   0.289   3.400   3.418
10421SOL     OW32161   0.513   1.247   3.322
10421SOL    HW132162   0.480   1.328   3.273
10421SOL    HW232163   0.613   1.251   3.327
10422SOL     OW32164   5.810   3.151   5.880
10422SOL    HW132165   5.748   3.163   5.802
10422SOL    HW232166   5.771   3.085   5.944
10423SOL     OW32167   5.222   4.490   2.861
10423SOL    HW132168   5.225   4.500   2.961
10423SOL    HW232169   5.130   4.510   2.828
10424SOL     OW32170   4.577   1.934   6.267
10424SOL    HW132171   4.502   1.979   6.315
10424SOL    HW232172   4.574   1.957   6.170
10425SOL     OW32173   2.086   6.142   1.997
10425SOL    HW132174   2.184   6.127   1.986
10425SOL    HW232175   2.061   6.134   2.093
10426SOL     OW32176   6.326   3.764   6.610
10426SOL    HW132177   6.348   3.737   6.516
10426SOL    HW232178   6.394   3.828   6.643
10427SOL     OW32179   4.785   1.512   0.638
10427SOL    HW132180   4.744   1.471   0.557
10427SOL    HW232181   4.857   1.452   0.672
10428SOL     OW32182   4.594   1.193   4.453
10428SOL    HW132183   4.666   1.156   4.395
10428SOL    HW232184   4.619   1.184   4.549
10429SOL     OW32185   6.309   6.448   2.393
10429SOL    HW132186   6.353   6.489   2.313
10429SOL    HW232187   6.324   6.349   2.392
10430SOL     OW32188   4.124   6.385   3.007
10430SOL    HW132189   4.092   6.394   2.913
10430SOL    HW232190   4.071   6.315   3.054
10431SOL     OW32191   2.494   1.389   5.090
10431SOL    HW132192   2.420   1.383   5.156
10431SOL    HW232193   2.577   1.350   5.129
10432SOL     OW32194   5.715   1.021   4.854
10432SOL    HW132195   5.698   0.974   4.941
10432SOL    HW232196   5.652   1.098   4.845
10433SOL     OW32197   2.205   6.721   0.847
10433SOL    HW132198   2.292   6.755   0.810
10433SOL    HW232199   2.216   6.625   0.872
10434SOL     OW32200   2.415   1.634   3.677
10434SOL    HW132201   2.377   1.656   3.767
10434SOL    HW232202   2.463   1.547   3.681
10435SOL     OW32203   5.283   6.226   0.219
10435SOL    HW132204   5.373   6.184   0.229
10435SOL    HW232205   5.217   6.180   0.279
10436SOL     OW32206   1.617   6.717   2.792
10436SOL    HW132207   1.594   6.651   2.863
10436SOL    HW232208   1.666   6.671   2.718
10437SOL     OW32209   6.360   5.046   5.949
10437SOL    HW132210   6.398   5.064   5.858
10437SOL    HW232211   6.262   5.028   5.940
10438SOL     OW32212   3.619   5.858   6.451
10438SOL    HW132213   3.718   5.858   6.435
10438SOL    HW232214   3.594   5.776   6.503
10439SOL     OW32215   4.158   6.922   5.829
10439SOL    HW132216   4.190   6.906   5.736
10439SOL    HW232217   4.073   6.975   5.827
10440SOL     OW32218   2.314   5.403   0.222
10440SOL    HW132219   2.230   5.349   0.228
10440SOL    HW232220   2.319   5.466   0.300
10441SOL     OW32221   3.882   1.099   6.853
10441SOL    HW132222   3.971   1.085   6.898
10441SOL    HW232223   3.846   1.010   6.824
10442SOL     OW32224   4.449   5.380   5.923
10442SOL    HW132225   4.451   5.442   5.845
10442SOL    HW232226   4.358   5.379   5.963
10443SOL     OW32227   6.226   2.818   5.118
10443SOL    HW132228   6.228   2.848   5.213
10443SOL    HW232229   6.254   2.722   5.113
10444SOL     OW32230   4.049   4.823   4.098
10444SOL    HW132231   4.119   4.876   4.050
10444SOL    HW232232   4.067   4.824   4.196
10445SOL     OW32233   6.085   6.130   4.229
10445SOL    HW132234   6.063   6.164   4.320
10445SOL    HW232235   6.063   6.033   4.224
10446SOL     OW32236   1.030   5.709   6.270
10446SOL    HW132237   0.989   5.653   6.342
10446SOL    HW232238   0.958   5.745   6.210
10447SOL     OW32239   5.904   2.412   1.479
10447SOL    HW132240   5.814   2.377   1.506
10447SOL    HW232241   5.919   2.501   1.521
10448SOL     OW32242   3.265   3.995   2.271
10448SOL    HW132243   3.193   4.013   2.204
10448SOL    HW232244   3.350   3.973   2.222
10449SOL     OW32245   1.635   4.813   4.267
10449SOL    HW132246   1.692   4.735   4.242
10449SOL    HW232247   1.552   4.813   4.211
10450SOL     OW32248   0.033   3.202   1.118
10450SOL    HW132249   0.115   3.246   1.155
10450SOL    HW232250   0.039   3.198   1.018
10451SOL     OW32251   2.166   4.040   2.543
10451SOL    HW132252   2.198   3.964   2.485
10451SOL    HW232253   2.232   4.114   2.540
10452SOL     OW32254   1.324   3.762   5.094
10452SOL    HW132255   1.412   3.732   5.056
10452SOL    HW232256   1.329   3.762   5.194
10453SOL     OW32257   5.423   6.988   1.664
10453SOL    HW132258   5.485   6.992   1.585
10453SOL    HW232259   5.430   0.047   1.716
10454SOL     OW32260   5.156   3.139   1.955
10454SOL    HW132261   5.175   3.237   1.946
10454SOL    HW232262   5.226   3.086   1.907
10455SOL     OW32263   6.836   4.358   3.038
10455SOL    HW132264   6.847   4.259   3.025
10455SOL    HW232265   6.856   4.382   3.133
10456SOL     OW32266   3.976   5.995   0.794
10456SOL    HW132267   3.913   6.073   0.788
10456SOL    HW232268   4.051   6.007   0.728
10457SOL     OW32269   3.724   3.779   3.984
10457SOL    HW132270   3.636   3.817   3.955
10457SOL    HW232271   3.778   3.756   3.903
10458SOL     OW32272   6.907   0.241   2.061
10458SOL    HW132273   6.951   0.262   1.974
10458SOL    HW232274   6.892   0.325   2.113
10459SOL     OW32275   6.929   5.233   2.465
10459SOL    HW132276   7.020   5.275   2.457
10459SOL    HW232277   6.859   5.300   2.441
10460SOL     OW32278   2.227   5.599   2.097
10460SOL    HW132279   2.193   5.559   2.012
10460SOL    HW232280   2.212   5.698   2.095
10461SOL     OW32281   2.425   1.725   6.036
10461SOL    HW132282   2.474   1.811   6.053
10461SOL    HW232283   2.330   1.746   6.013
10462SOL     OW32284   6.399   6.926   1.100
10462SOL    HW132285   6.491   6.965   1.104
10462SOL    HW232286   6.336   6.992   1.060
10463SOL     OW32287   2.836   4.044   1.472
10463SOL    HW132288   2.884   4.129   1.452
10463SOL    HW232289   2.901   3.976   1.507
10464SOL     OW32290   5.389   0.350   1.545
10464SOL    HW132291   5.453   0.408   1.595
10464SOL    HW232292   5.320   0.314   1.608
10465SOL     OW32293   6.420   5.346   5.204
10465SOL    HW132294   6.519   5.330   5.199
10465SOL    HW232295   6.372   5.266   5.168
10466SOL     OW32296   5.266   5.832   6.050
10466SOL    HW132297   5.201   5.902   6.022
10466SOL    HW232298   5.251   5.748   5.998
10467SOL     OW32299   4.103   1.194   4.222
10467SOL    HW132300   4.128   1.226   4.130
10467SOL    HW232301   4.179   1.208   4.285
10468SOL     OW32302   3.587   5.860   2.787
10468SOL    HW132303   3.488   5.847   2.783
10468SOL    HW232304   3.623   5.819   2.871
10469SOL     OW32305   1.624   4.570   0.586
10469SOL    HW132306   1.719   4.578   0.617
10469SOL    HW232307   1.598   4.653   0.538
10470SOL     OW32308   2.596   1.558   3.952
10470SOL    HW132309   2.693   1.581   3.965
10470SOL    HW232310   2.588   1.463   3.920
10471SOL     OW32311   4.274   3.729   0.609
10471SOL    HW132312   4.307   3.689   0.694
10471SOL    HW232313   4.175   3.740   0.612
10472SOL     OW32314   4.883   1.426   2.846
10472SOL    HW132315   4.886   1.516   2.804
10472SOL    HW232316   4.818   1.426   2.922
10473SOL     OW32317   5.201   5.369   0.822
10473SOL    HW132318   5.278   5.407   0.874
10473SOL    HW232319   5.118   5.377   0.876
10474SOL     OW32320   4.292   0.094   4.197
10474SOL    HW132321   4.299   0.047   4.109
10474SOL    HW232322   4.381   0.130   4.223
10475SOL     OW32323   4.225   5.854   1.546
10475SOL    HW132324   4.260   5.885   1.457
10475SOL    HW232325   4.125   5.853   1.544
10476SOL     OW32326   0.040   4.598   0.308
10476SOL    HW132327   0.107   4.658   0.264
10476SOL    HW232328   0.086   4.516   0.342
10477SOL     OW32329   4.774   4.712   5.182
10477SOL    HW132330   4.683   4.696   5.219
10477SOL    HW232331   4.778   4.803   5.142
10478SOL     OW32332   0.478   6.240   2.185
10478SOL    HW132333   0.484   6.334   2.149
10478SOL    HW232334   0.399   6.233   2.245
10479SOL     OW32335   1.640   4.503   2.958
10479SOL    HW132336   1.553   4.458   2.939
10479SOL    HW232337   1.692   4.449   3.025
10480SOL     OW32338   6.392   0.117   2.832
10480SOL    HW132339   6.488   0.134   2.806
10480SOL    HW232340   6.332   0.143   2.756
10481SOL     OW32341   2.395   0.765   4.893
10481SOL    HW132342   2.344   0.767   4.807
10481SOL    HW232343   2.464   0.837   4.893
10482SOL     OW32344   0.865   5.375   5.821
10482SOL    HW132345   0.859   5.380   5.920
10482SOL    HW232346   0.773   5.381   5.781
10483SOL     OW32347   6.929   5.325   0.822
10483SOL    HW132348   6.847   5.380   0.804
10483SOL    HW232349   6.999   5.383   0.863
10484SOL     OW32350   6.028   2.167   1.670
10484SOL    HW132351   6.051   2.105   1.595
10484SOL    HW232352   6.079   2.253   1.658
10485SOL     OW32353   3.220   4.094   3.381
10485SOL    HW132354   3.133   4.103   3.331
10485SOL    HW232355   3.200   4.077   3.477
10486SOL     OW32356   5.818   5.725   5.264
10486SOL    HW132357   5.854   5.753   5.353
10486SOL    HW232358   5.719   5.741   5.262
10487SOL     OW32359   4.968   2.301   2.732
10487SOL    HW132360   4.870   2.301   2.713
10487SOL    HW232361   5.017   2.261   2.654
10488SOL     OW32362   7.021   2.234   5.381
10488SOL    HW132363   7.018   2.248   5.282
10488SOL    HW232364   6.971   2.151   5.404
10489SOL     OW32365   6.264   3.914   4.620
10489SOL    HW132366   6.307   4.004   4.625
10489SOL    HW232367   6.164   3.925   4.619
10490SOL     OW32368   5.767   6.916   0.086
10490SOL    HW132369   5.677   6.959   0.089
10490SOL    HW232370   5.762   6.825   0.129
10491SOL     OW32371   2.006   2.776   5.506
10491SOL    HW132372   1.979   2.872   5.520
10491SOL    HW232373   2.022   2.760   5.409
10492SOL     OW32374   3.863   6.315   0.395
10492SOL    HW132375   3.811   6.365   0.465
10492SOL    HW232376   3.867   6.370   0.312
10493SOL     OW32377   3.717   5.371   1.718
10493SOL    HW132378   3.762   5.319   1.791
10493SOL    HW232379   3.632   5.326   1.693
10494SOL     OW32380   0.997   4.221   4.442
10494SOL    HW132381   1.063   4.151   4.467
10494SOL    HW232382   0.918   4.179   4.396
10495SOL     OW32383   6.943   6.409   0.982
10495SOL    HW132384   6.976   6.497   0.948
10495SOL    HW232385   6.923   6.416   1.080
10496SOL     OW32386   0.627   3.733   6.230
10496SOL    HW132387   0.721   3.762   6.248
10496SOL    HW232388   0.567   3.813   6.235
10497SOL     OW32389   2.778   0.649   1.844
10497SOL    HW132390   2.871   0.626   1.815
10497SOL    HW232391   2.768   0.629   1.942
10498SOL     OW32392   4.900   4.310   6.802
10498SOL    HW132393   4.944   4.301   6.714
10498SOL    HW232394   4.856   4.400   6.808
10499SOL     OW32395   5.885   4.001   2.957
10499SOL    HW132396   5.875   3.941   2.878
10499SOL    HW232397   5.982   4.019   2.973
10500SOL     OW32398   0.916   3.508   5.236
10500SOL    HW132399   1.012   3.487   5.250
10500SOL    HW232400   0.875   3.535   5.323
10501SOL     OW32401   3.757   4.875   3.028
10501SOL    HW132402   3.852   4.874   2.995
10501SOL    HW232403   3.695   4.870   2.950
10502SOL     OW32404   3.831   3.472   2.639
10502SOL    HW132405   3.841   3.454   2.542
10502SOL    HW232406   3.874   3.560   2.661
10503SOL     OW32407   0.386   1.653   6.140
10503SOL    HW132408   0.315   1.705   6.092
10503SOL    HW232409   0.343   1.592   6.207
10504SOL     OW32410   0.527   3.585   5.597
10504SOL    HW132411   0.504   3.674   5.635
10504SOL    HW232412   0.450   3.551   5.542
10505SOL     OW32413   6.021   0.362   0.959
10505SOL    HW132414   6.070   0.449   0.958
10505SOL    HW232415   5.925   0.378   0.937
10506SOL     OW32416   1.148   4.300   6.348
10506SOL    HW132417   1.239   4.316   6.385
10506SOL    HW232418   1.100   4.232   6.405
10507SOL     OW32419   1.067   5.600   5.946
10507SOL    HW132420   0.990   5.612   5.884
10507SOL    HW232421   1.033   5.575   6.037
10508SOL     OW32422   1.743   5.388   6.026
10508SOL    HW132423   1.688   5.327   6.084
10508SOL    HW232424   1.824   5.339   5.994
10509SOL     OW32425   4.635   2.302   2.604
10509SOL    HW132426   4.593   2.376   2.658
10509SOL    HW232427   4.584   2.217   2.619
10510SOL     OW32428   5.713   5.744   3.669
10510SOL    HW132429   5.667   5.770   3.584
10510SOL    HW232430   5.696   5.813   3.739
10511SOL     OW32431   4.030   1.559   1.043
10511SOL    HW132432   4.089   1.583   1.120
10511SOL    HW232433   4.038   1.461   1.024
10512SOL     OW32434   4.113   1.266   5.296
10512SOL    HW132435   4.083   1.350   5.251
10512SOL    HW232436   4.033   1.213   5.324
10513SOL     OW32437   3.493   2.897   0.551
10513SOL    HW132438   3.535   2.986   0.568
10513SOL    HW232439   3.509   2.837   0.629
10514SOL     OW32440   1.960   4.514   1.695
10514SOL    HW132441   2.012   4.490   1.613
10514SOL    HW232442   1.862   4.520   1.673
10515SOL     OW32443   2.277   2.958   4.811
10515SOL    HW132444   2.321   2.869   4.805
10515SOL    HW232445   2.295   2.998   4.901
10516SOL     OW32446   4.889   2.355   1.647
10516SOL    HW132447   4.800   2.313   1.628
10516SOL    HW232448   4.878   2.424   1.719
10517SOL     OW32449   0.919   2.803   1.934
10517SOL    HW132450   0.978   2.796   2.014
10517SOL    HW232451   0.831   2.758   1.953
10518SOL     OW32452   1.104   5.543   1.840
10518SOL    HW132453   1.059   5.632   1.847
10518SOL    HW232454   1.034   5.471   1.835
10519SOL     OW32455   3.730   7.009   1.253
10519SOL    HW132456   3.670   7.020   1.173
10519SOL    HW232457   3.816   0.032   1.237
10520SOL     OW32458   0.927   2.551   6.358
10520SOL    HW132459   0.920   2.485   6.283
10520SOL    HW232460   0.996   2.620   6.335
10521SOL     OW32461   6.603   2.447   3.435
10521SOL    HW132462   6.680   2.504   3.463
10521SOL    HW232463   6.600   2.442   3.335
10522SOL     OW32464   5.551   1.575   3.987
10522SOL    HW132465   5.530   1.673   3.982
10522SOL    HW232466   5.466   1.524   3.998
10523SOL     OW32467   1.278   4.264   2.591
10523SOL    HW132468   1.242   4.304   2.676
10523SOL    HW232469   1.215   4.285   2.516
10524SOL     OW32470   6.672   6.325   4.998
10524SOL    HW132471   6.635   6.389   4.930
10524SOL    HW232472   6.696   6.376   5.081
10525SOL     OW32473   5.279   1.963   3.634
10525SOL    HW132474   5.345   1.909   3.581
10525SOL    HW232475   5.192   1.915   3.638
10526SOL     OW32476   0.702   5.201   6.886
10526SOL    HW132477   0.619   5.210   6.940
10526SOL    HW232478   0.690   5.128   6.818
10527SOL     OW32479   0.455   6.703   5.523
10527SOL    HW132480   0.486   6.615   5.488
10527SOL    HW232481   0.373   6.689   5.580
10528SOL     OW32482   1.441   4.652   5.647
10528SOL    HW132483   1.513   4.713   5.614
10528SOL    HW232484   1.449   4.643   5.746
10529SOL     OW32485   6.883   5.713   1.107
10529SOL    HW132486   6.793   5.671   1.092
10529SOL    HW232487   6.871   5.811   1.124
10530SOL     OW32488   6.968   6.203   1.858
10530SOL    HW132489   6.887   6.150   1.835
10530SOL    HW232490   0.009   6.197   1.783
10531SOL     OW32491   3.019   3.103   5.500
10531SOL    HW132492   2.934   3.049   5.499
10531SOL    HW232493   3.090   3.054   5.449
10532SOL     OW32494   5.009   5.820   6.233
10532SOL    HW132495   4.955   5.898   6.264
10532SOL    HW232496   5.058   5.780   6.310
10533SOL     OW32497   3.872   0.266   2.939
10533SOL    HW132498   3.788   0.282   2.886
10533SOL    HW232499   3.867   0.176   2.983
10534SOL     OW32500   1.322   5.603   3.968
10534SOL    HW132501   1.339   5.634   4.062
10534SOL    HW232502   1.361   5.512   3.956
10535SOL     OW32503   3.329   2.057   2.753
10535SOL    HW132504   3.232   2.060   2.728
10535SOL    HW232505   3.338   2.050   2.852
10536SOL     OW32506   5.192   3.377   4.956
10536SOL    HW132507   5.159   3.289   4.921
10536SOL    HW232508   5.286   3.392   4.926
10537SOL     OW32509   3.926   0.727   4.261
10537SOL    HW132510   3.884   0.638   4.240
10537SOL    HW232511   3.883   0.765   4.343
10538SOL     OW32512   6.860   3.149   3.335
10538SOL    HW132513   6.944   3.141   3.389
10538SOL    HW232514   6.799   3.073   3.357
10539SOL     OW32515   0.062   6.953   3.182
10539SOL    HW132516   0.103   6.973   3.093
10539SOL    HW232517   0.036   0.014   3.226
10540SOL     OW32518   1.422   4.640   6.808
10540SOL    HW132519   1.372   4.696   6.874
10540SOL    HW232520   1.362   4.570   6.771
10541SOL     OW32521   2.782   3.237   5.270
10541SOL    HW132522   2.706   3.233   5.204
10541SOL    HW232523   2.762   3.178   5.348
10542SOL     OW32524   5.111   6.646   3.083
10542SOL    HW132525   5.153   6.734   3.106
10542SOL    HW232526   5.108   6.588   3.165
10543SOL     OW32527   1.542   3.684   3.628
10543SOL    HW132528   1.627   3.646   3.592
10543SOL    HW232529   1.481   3.610   3.656
10544SOL     OW32530   3.303   1.311   3.251
10544SOL    HW132531   3.397   1.319   3.219
10544SOL    HW232532   3.242   1.352   3.183
10545SOL     OW32533   2.227   2.760   2.476
10545SOL    HW132534   2.154   2.716   2.424
10545SOL    HW232535   2.315   2.723   2.447
10546SOL     OW32536   2.304   0.142   6.896
10546SOL    HW132537   2.260   0.231   6.885
10546SOL    HW232538   2.297   0.090   6.810
10547SOL     OW32539   4.209   6.281   5.773
10547SOL    HW132540   4.162   6.217   5.834
10547SOL    HW232541   4.214   6.242   5.681
10548SOL     OW32542   0.411   5.743   3.240
10548SOL    HW132543   0.500   5.725   3.283
10548SOL    HW232544   0.422   5.809   3.166
10549SOL     OW32545   6.244   0.604   1.674
10549SOL    HW132546   6.248   0.524   1.733
10549SOL    HW232547   6.250   0.687   1.730
10550SOL     OW32548   5.280   5.972   2.577
10550SOL    HW132549   5.243   6.064   2.564
10550SOL    HW232550   5.338   5.971   2.659
10551SOL     OW32551   3.340   0.304   5.463
10551SOL    HW132552   3.254   0.312   5.514
10551SOL    HW232553   3.386   0.393   5.460
10552SOL     OW32554   2.907   0.237   3.806
10552SOL    HW132555   2.841   0.172   3.770
10552SOL    HW232556   2.931   0.212   3.900
10553SOL     OW32557   6.392   5.638   1.237
10553SOL    HW132558   6.419   5.566   1.301
10553SOL    HW232559   6.297   5.624   1.209
10554SOL     OW32560   6.549   6.253   2.775
10554SOL    HW132561   6.565   6.263   2.874
10554SOL    HW232562   6.517   6.160   2.757
10555SOL     OW32563   3.328   3.694   0.867
10555SOL    HW132564   3.316   3.596   0.883
10555SOL    HW232565   3.289   3.718   0.778
10556SOL     OW32566   2.609   1.380   2.122
10556SOL    HW132567   2.652   1.386   2.212
10556SOL    HW232568   2.514   1.350   2.132
10557SOL     OW32569   2.054   4.599   2.941
10557SOL    HW132570   2.068   4.698   2.942
10557SOL    HW232571   2.140   4.554   2.916
10558SOL     OW32572   3.574   5.254   4.883
10558SOL    HW132573   3.582   5.184   4.812
10558SOL    HW232574   3.579   5.211   4.973
10559SOL     OW32575   4.131   6.429   1.147
10559SOL    HW132576   4.097   6.523   1.149
10559SOL    HW232577   4.085   6.379   1.074
10560SOL     OW32578   5.681   6.826   3.105
10560SOL    HW132579   5.650   6.793   3.195
10560SOL    HW232580   5.745   6.760   3.065
10561SOL     OW32581   6.899   5.267   6.811
10561SOL    HW132582   6.875   5.179   6.770
10561SOL    HW232583   6.962   5.252   6.888
10562SOL     OW32584   4.561   5.961   2.517
10562SOL    HW132585   4.483   6.010   2.478
10562SOL    HW232586   4.557   5.865   2.490
10563SOL     OW32587   0.327   0.102   2.303
10563SOL    HW132588   0.228   0.093   2.312
10563SOL    HW232589   0.348   0.153   2.219
10564SOL     OW32590   4.852   4.714   3.328
10564SOL    HW132591   4.894   4.660   3.256
10564SOL    HW232592   4.775   4.664   3.366
10565SOL     OW32593   0.481   0.896   6.021
10565SOL    HW132594   0.383   0.895   5.999
10565SOL    HW232595   0.515   0.802   6.027
10566SOL     OW32596   3.567   2.341   0.529
10566SOL    HW132597   3.595   2.436   0.537
10566SOL    HW232598   3.509   2.330   0.447
10567SOL     OW32599   1.567   2.425   6.145
10567SOL    HW132600   1.630   2.503   6.148
10567SOL    HW232601   1.612   2.347   6.103
10568SOL     OW32602   4.819   2.193   6.171
10568SOL    HW132603   4.746   2.131   6.140
10568SOL    HW232604   4.783   2.253   6.242
10569SOL     OW32605   5.607   0.439   0.452
10569SOL    HW132606   5.534   0.429   0.519
10569SOL    HW232607   5.690   0.469   0.498
10570SOL     OW32608   1.282   3.313   2.720
10570SOL    HW132609   1.366   3.275   2.760
10570SOL    HW232610   1.207   3.302   2.785
10571SOL     OW32611   6.525   4.142   5.269
10571SOL    HW132612   6.444   4.199   5.279
10571SOL    HW232613   6.534   4.113   5.173
10572SOL     OW32614   5.972   3.906   0.955
10572SOL    HW132615   5.945   3.830   0.896
10572SOL    HW232616   5.891   3.960   0.978
10573SOL     OW32617   6.678   2.632   2.660
10573SOL    HW132618   6.647   2.603   2.751
10573SOL    HW232619   6.613   2.598   2.592
10574SOL     OW32620   5.404   2.432   2.720
10574SOL    HW132621   5.339   2.473   2.785
10574SOL    HW232622   5.476   2.498   2.700
10575SOL     OW32623   5.866   6.844   2.698
10575SOL    HW132624   5.820   6.757   2.720
10575SOL    HW232625   5.800   6.907   2.658
10576SOL     OW32626   1.128   4.433   4.248
10576SOL    HW132627   1.224   4.410   4.233
10576SOL    HW232628   1.075   4.349   4.262
10577SOL     OW32629   4.313   4.429   0.432
10577SOL    HW132630   4.243   4.473   0.488
10577SOL    HW232631   4.278   4.341   0.399
10578SOL     OW32632   0.552   3.561   3.628
10578SOL    HW132633   0.554   3.561   3.728
10578SOL    HW232634   0.498   3.483   3.596
10579SOL     OW32635   0.672   3.880   6.983
10579SOL    HW132636   0.702   3.968   6.947
10579SOL    HW232637   0.752   3.823   7.004
10580SOL     OW32638   5.514   6.702   6.902
10580SOL    HW132639   5.493   6.761   6.824
10580SOL    HW232640   5.440   6.708   6.969
10581SOL     OW32641   4.609   0.392   3.114
10581SOL    HW132642   4.667   0.321   3.075
10581SOL    HW232643   4.586   0.369   3.208
10582SOL     OW32644   6.494   3.515   6.352
10582SOL    HW132645   6.580   3.516   6.402
10582SOL    HW232646   6.427   3.459   6.402
10583SOL     OW32647   3.446   1.861   5.400
10583SOL    HW132648   3.468   1.945   5.350
10583SOL    HW232649   3.411   1.792   5.337
10584SOL     OW32650   0.930   6.127   3.416
10584SOL    HW132651   0.952   6.031   3.396
10584SOL    HW232652   0.832   6.135   3.435
10585SOL     OW32653   1.741   1.173   5.344
10585SOL    HW132654   1.800   1.163   5.424
10585SOL    HW232655   1.779   1.243   5.283
10586SOL     OW32656   4.378   4.197   5.314
10586SOL    HW132657   4.364   4.099   5.329
10586SOL    HW232658   4.340   4.223   5.226
10587SOL     OW32659   2.131   4.881   5.383
10587SOL    HW132660   2.059   4.811   5.382
10587SOL    HW232661   2.217   4.840   5.413
10588SOL     OW32662   1.355   3.473   3.590
10588SOL    HW132663   1.284   3.417   3.633
10588SOL    HW232664   1.322   3.510   3.504
10589SOL     OW32665   6.001   6.350   3.671
10589SOL    HW132666   5.953   6.388   3.750
10589SOL    HW232667   6.090   6.395   3.661
10590SOL     OW32668   0.625   4.761   1.985
10590SOL    HW132669   0.622   4.663   2.002
10590SOL    HW232670   0.537   4.802   2.009
10591SOL     OW32671   0.053   3.979   2.229
10591SOL    HW132672   0.142   3.937   2.249
10591SOL    HW232673   7.006   3.928   2.274
10592SOL     OW32674   0.410   1.451   4.927
10592SOL    HW132675   0.338   1.425   4.992
10592SOL    HW232676   0.488   1.388   4.938
10593SOL     OW32677   2.917   4.775   3.539
10593SOL    HW132678   3.014   4.791   3.556
10593SOL    HW232679   2.893   4.809   3.448
10594SOL     OW32680   3.452   5.411   3.623
10594SOL    HW132681   3.475   5.333   3.563
10594SOL    HW232682   3.490   5.395   3.714
10595SOL     OW32683   5.098   0.060   0.622
10595SOL    HW132684   5.167   0.000   0.581
10595SOL    HW232685   5.108   0.060   0.721
10596SOL     OW32686   5.172   3.555   0.071
10596SOL    HW132687   5.192   3.512   7.008
10596SOL    HW232688   5.258   3.568   0.122
10597SOL     OW32689   2.276   6.612   4.661
10597SOL    HW132690   2.361   6.647   4.622
10597SOL    HW232691   2.294   6.523   4.704
10598SOL     OW32692   3.086   0.570   6.707
10598SOL    HW132693   3.174   0.617   6.695
10598SOL    HW232694   3.044   0.601   6.793
10599SOL     OW32695   0.793   2.307   0.453
10599SOL    HW132696   0.868   2.343   0.509
10599SOL    HW232697   0.721   2.271   0.513
10600SOL     OW32698   3.494   1.618   1.787
10600SOL    HW132699   3.530   1.526   1.773
10600SOL    HW232700   3.556   1.669   1.846
10601SOL     OW32701   2.204   1.135   4.936
10601SOL    HW132702   2.298   1.166   4.944
10601SOL    HW232703   2.169   1.110   5.026
10602SOL     OW32704   6.749   0.481   2.173
10602SOL    HW132705   6.754   0.566   2.226
10602SOL    HW232706   6.655   0.448   2.170
10603SOL     OW32707   5.856   0.427   2.523
10603SOL    HW132708   5.949   0.398   2.499
10603SOL    HW232709   5.811   0.355   2.575
10604SOL     OW32710   4.747   0.884   4.737
10604SOL    HW132711   4.788   0.816   4.676
10604SOL    HW232712   4.657   0.910   4.702
10605SOL     OW32713   3.174   2.259   0.996
10605SOL    HW132714   3.157   2.345   1.044
10605SOL    HW232715   3.246   2.273   0.928
10606SOL     OW32716   6.892   0.305   6.806
10606SOL    HW132717   6.839   0.285   6.889
10606SOL    HW232718   6.973   0.247   6.803
10607SOL     OW32719   2.994   4.329   0.162
10607SOL    HW132720   2.991   4.421   0.200
10607SOL    HW232721   3.056   4.273   0.216
10608SOL     OW32722   5.272   4.522   4.033
10608SOL    HW132723   5.225   4.495   3.949
10608SOL    HW232724   5.371   4.526   4.016
10609SOL     OW32725   6.047   0.802   6.729
10609SOL    HW132726   6.131   0.787   6.780
10609SOL    HW232727   6.060   0.774   6.634
10610SOL     OW32728   0.776   1.265   3.390
10610SOL    HW132729   0.774   1.223   3.481
10610SOL    HW232730   0.820   1.203   3.325
10611SOL     OW32731   4.026   5.374   5.036
10611SOL    HW132732   4.088   5.330   4.971
10611SOL    HW232733   3.952   5.311   5.059
10612SOL     OW32734   6.659   2.798   3.727
10612SOL    HW132735   6.647   2.895   3.709
10612SOL    HW232736   6.594   2.769   3.798
10613SOL     OW32737   4.286   6.281   4.311
10613SOL    HW132738   4.285   6.308   4.215
10613SOL    HW232739   4.202   6.231   4.332
10614SOL     OW32740   3.516   1.827   6.102
10614SOL    HW132741   3.613   1.822   6.079
10614SOL    HW232742   3.505   1.851   6.198
10615SOL     OW32743   2.108   2.255   4.958
10615SOL    HW132744   2.142   2.248   5.052
10615SOL    HW232745   2.040   2.184   4.942
10616SOL     OW32746   1.525   5.867   6.685
10616SOL    HW132747   1.528   5.842   6.782
10616SOL    HW232748   1.535   5.786   6.629
10617SOL     OW32749   2.025   2.634   1.433
10617SOL    HW132750   2.008   2.554   1.376
10617SOL    HW232751   2.068   2.604   1.519
10618SOL     OW32752   0.742   4.986   3.656
10618SOL    HW132753   0.782   4.919   3.594
10618SOL    HW232754   0.814   5.047   3.691
10619SOL     OW32755   1.371   2.833   2.074
10619SOL    HW132756   1.315   2.754   2.100
10619SOL    HW232757   1.316   2.894   2.016
10620SOL     OW32758   3.093   0.318   5.583
10620SOL    HW132759   2.996   0.337   5.566
10620SOL    HW232760   3.118   0.351   5.674
10621SOL     OW32761   0.366   3.371   2.938
10621SOL    HW132762   0.381   3.437   2.864
10621SOL    HW232763   0.453   3.349   2.981
10622SOL     OW32764   4.282   2.498   6.955
10622SOL    HW132765   4.195   2.483   6.909
10622SOL    HW232766   4.269   2.561   0.007
10623SOL     OW32767   5.156   6.038   5.357
10623SOL    HW132768   5.156   6.138   5.365
10623SOL    HW232769   5.246   6.007   5.330
10624SOL     OW32770   0.724   2.280   6.893
10624SOL    HW132771   0.717   2.247   6.799
10624SOL    HW232772   0.633   2.286   6.933
10625SOL     OW32773   6.278   5.432   0.684
10625SOL    HW132774   6.320   5.371   0.618
10625SOL    HW232775   6.342   5.505   0.709
10626SOL     OW32776   5.524   2.691   1.108
10626SOL    HW132777   5.580   2.666   1.187
10626SOL    HW232778   5.583   2.717   1.031
10627SOL     OW32779   5.858   5.197   4.774
10627SOL    HW132780   5.819   5.204   4.682
10627SOL    HW232781   5.863   5.288   4.815
10628SOL     OW32782   2.967   6.435   0.283
10628SOL    HW132783   2.919   6.508   0.332
10628SOL    HW232784   3.046   6.406   0.336
10629SOL     OW32785   4.450   5.244   4.883
10629SOL    HW132786   4.504   5.321   4.914
10629SOL    HW232787   4.507   5.183   4.827
10630SOL     OW32788   3.918   1.317   1.694
10630SOL    HW132789   4.004   1.367   1.682
10630SOL    HW232790   3.904   1.298   1.791
10631SOL     OW32791   3.537   5.957   1.670
10631SOL    HW132792   3.520   5.889   1.741
10631SOL    HW232793   3.626   5.999   1.684
10632SOL     OW32794   5.499   6.218   4.285
10632SOL    HW132795   5.559   6.143   4.311
10632SOL    HW232796   5.425   6.183   4.228
10633SOL     OW32797   2.139   3.777   0.782
10633SOL    HW132798   2.103   3.744   0.695
10633SOL    HW232799   2.238   3.761   0.785
10634SOL     OW32800   6.919   4.653   6.862
10634SOL    HW132801   6.926   4.616   6.769
10634SOL    HW232802   6.866   4.591   6.919
10635SOL     OW32803   3.047   5.872   6.819
10635SOL    HW132804   3.001   5.802   6.765
10635SOL    HW232805   3.127   5.905   6.769
10636SOL     OW32806   6.822   2.809   0.130
10636SOL    HW132807   6.763   2.728   0.126
10636SOL    HW232808   6.808   2.865   0.049
10637SOL     OW32809   2.312   1.050   6.761
10637SOL    HW132810   2.264   1.076   6.845
10637SOL    HW232811   2.297   0.953   6.742
10638SOL     OW32812   5.801   4.968   0.842
10638SOL    HW132813   5.875   5.006   0.898
10638SOL    HW232814   5.813   4.996   0.747
10639SOL     OW32815   0.355   5.348   1.588
10639SOL    HW132816   0.314   5.316   1.503
10639SOL    HW232817   0.289   5.339   1.663
10640SOL     OW32818   4.790   6.415   3.570
10640SOL    HW132819   4.823   6.321   3.562
10640SOL    HW232820   4.690   6.415   3.574
10641SOL     OW32821   1.206   1.771   3.227
10641SOL    HW132822   1.254   1.712   3.161
10641SOL    HW232823   1.227   1.867   3.208
10642SOL     OW32824   6.742   3.272   6.272
10642SOL    HW132825   6.709   3.336   6.203
10642SOL    HW232826   6.842   3.266   6.267
10643SOL     OW32827   2.355   5.099   5.758
10643SOL    HW132828   2.364   5.019   5.699
10643SOL    HW232829   2.257   5.119   5.771
10644SOL     OW32830   6.170   3.080   2.887
10644SOL    HW132831   6.231   3.019   2.837
10644SOL    HW232832   6.223   3.158   2.921
10645SOL     OW32833   1.854   2.255   3.119
10645SOL    HW132834   1.779   2.212   3.170
10645SOL    HW232835   1.816   2.317   3.051
10646SOL     OW32836   5.387   0.279   3.609
10646SOL    HW132837   5.439   0.353   3.565
10646SOL    HW232838   5.406   0.278   3.707
10647SOL     OW32839   3.771   5.502   5.552
10647SOL    HW132840   3.779   5.406   5.523
10647SOL    HW232841   3.861   5.544   5.555
10648SOL     OW32842   4.890   4.126   5.853
10648SOL    HW132843   4.897   4.028   5.839
10648SOL    HW232844   4.817   4.163   5.795
10649SOL     OW32845   6.216   3.737   3.081
10649SOL    HW132846   6.205   3.834   3.058
10649SOL    HW232847   6.188   3.722   3.176
10650SOL     OW32848   1.163   0.067   3.192
10650SOL    HW132849   1.231   0.137   3.216
10650SOL    HW232850   1.171   7.015   3.255
10651SOL     OW32851   2.720   5.847   6.072
10651SOL    HW132852   2.682   5.784   6.140
10651SOL    HW232853   2.820   5.847   6.080
10652SOL     OW32854   1.692   0.295   0.189
10652SOL    HW132855   1.673   0.392   0.174
10652SOL    HW232856   1.779   0.271   0.146
10653SOL     OW32857   4.749   6.130   4.511
10653SOL    HW132858   4.813   6.137   4.435
10653SOL    HW232859   4.673   6.071   4.485
10654SOL     OW32860   6.465   2.254   4.321
10654SOL    HW132861   6.426   2.304   4.398
10654SOL    HW232862   6.395   2.195   4.281
10655SOL     OW32863   0.034   3.990   1.453
10655SOL    HW132864   7.023   4.040   1.374
10655SOL    HW232865   6.983   3.959   1.510
10656SOL     OW32866   5.785   1.849   4.415
10656SOL    HW132867   5.780   1.888   4.323
10656SOL    HW232868   5.754   1.916   4.482
10657SOL     OW32869   4.889   6.712   4.517
10657SOL    HW132870   4.954   6.652   4.563
10657SOL    HW232871   4.879   6.797   4.569
10658SOL     OW32872   0.893   1.889   5.824
10658SOL    HW132873   0.871   1.845   5.912
10658SOL    HW232874   0.808   1.914   5.778
10659SOL     OW32875   0.571   5.507   0.749
10659SOL    HW132876   0.509   5.429   0.756
10659SOL    HW232877   0.522   5.591   0.772
10660SOL     OW32878   5.561   2.620   5.349
10660SOL    HW132879   5.561   2.556   5.426
10660SOL    HW232880   5.610   2.580   5.272
10661SOL     OW32881   2.758   5.267   5.299
10661SOL    HW132882   2.746   5.212   5.382
10661SOL    HW232883   2.847   5.246   5.257
10662SOL     OW32884   2.259   0.942   1.356
10662SOL    HW132885   2.198   0.905   1.286
10662SOL    HW232886   2.297   1.029   1.325
10663SOL     OW32887   0.986   1.645   3.803
10663SOL    HW132888   0.915   1.651   3.874
10663SOL    HW232889   0.949   1.596   3.724
10664SOL     OW32890   0.777   5.253   4.957
10664SOL    HW132891   0.825   5.224   5.040
10664SOL    HW232892   0.818   5.338   4.924
10665SOL     OW32893   3.102   3.599   0.311
10665SOL    HW132894   3.054   3.577   0.396
10665SOL    HW232895   3.061   3.549   0.235
10666SOL     OW32896   3.641   3.890   1.331
10666SOL    HW132897   3.589   3.821   1.280
10666SOL    HW232898   3.607   3.895   1.425
10667SOL     OW32899   5.406   2.872   3.271
10667SOL    HW132900   5.325   2.926   3.296
10667SOL    HW232901   5.485   2.932   3.264
10668SOL     OW32902   3.300   2.617   5.933
10668SOL    HW132903   3.206   2.601   5.964
10668SOL    HW232904   3.299   2.631   5.834
10669SOL     OW32905   5.817   1.890   1.373
10669SOL    HW132906   5.786   1.852   1.461
10669SOL    HW232907   5.814   1.818   1.304
10670SOL     OW32908   4.846   3.854   4.327
10670SOL    HW132909   4.750   3.828   4.333
10670SOL    HW232910   4.904   3.778   4.357
10671SOL     OW32911   1.342   3.755   5.381
10671SOL    HW132912   1.277   3.692   5.424
10671SOL    HW232913   1.334   3.845   5.425
10672SOL     OW32914   5.617   3.635   2.014
10672SOL    HW132915   5.678   3.655   1.937
10672SOL    HW232916   5.570   3.548   1.997
10673SOL     OW32917   2.025   1.950   0.823
10673SOL    HW132918   2.028   1.912   0.731
10673SOL    HW232919   1.935   1.933   0.864
10674SOL     OW32920   3.470   4.161   3.429
10674SOL    HW132921   3.371   4.144   3.422
10674SOL    HW232922   3.512   4.153   3.339
10675SOL     OW32923   4.201   6.685   5.353
10675SOL    HW132924   4.178   6.763   5.412
10675SOL    HW232925   4.205   6.602   5.409
10676SOL     OW32926   1.743   0.011   5.901
10676SOL    HW132927   1.814   6.968   5.920
10676SOL    HW232928   1.758   0.092   5.958
10677SOL     OW32929   0.031   1.555   0.360
10677SOL    HW132930   0.130   1.564   0.367
10677SOL    HW232931   7.023   1.493   0.431
10678SOL     OW32932   3.699   5.806   2.530
10678SOL    HW132933   3.792   5.802   2.567
10678SOL    HW232934   3.637   5.842   2.600
10679SOL     OW32935   4.013   3.383   6.591
10679SOL    HW132936   4.029   3.459   6.654
10679SOL    HW232937   4.099   3.355   6.549
10680SOL     OW32938   3.834   0.948   5.061
10680SOL    HW132939   3.772   0.876   5.092
10680SOL    HW232940   3.799   0.988   4.977
10681SOL     OW32941   1.802   3.474   5.286
10681SOL    HW132942   1.832   3.498   5.193
10681SOL    HW232943   1.718   3.524   5.307
10682SOL     OW32944   5.141   3.194   6.388
10682SOL    HW132945   5.074   3.126   6.417
10682SOL    HW232946   5.212   3.151   6.334
10683SOL     OW32947   3.113   0.388   3.636
10683SOL    HW132948   3.046   0.456   3.607
10683SOL    HW232949   3.080   0.343   3.719
10684SOL     OW32950   4.564   4.736   2.070
10684SOL    HW132951   4.656   4.774   2.076
10684SOL    HW232952   4.496   4.809   2.076
10685SOL     OW32953   0.858   6.549   1.583
10685SOL    HW132954   0.868   6.648   1.591
10685SOL    HW232955   0.948   6.507   1.580
10686SOL     OW32956   2.574   1.089   6.701
10686SOL    HW132957   2.478   1.088   6.731
10686SOL    HW232958   2.593   1.006   6.648
10687SOL     OW32959   0.627   3.929   3.670
10687SOL    HW132960   0.637   3.988   3.590
10687SOL    HW232961   0.717   3.907   3.708
10688SOL     OW32962   5.042   1.778   2.372
10688SOL    HW132963   5.068   1.875   2.368
10688SOL    HW232964   4.960   1.768   2.428
10689SOL     OW32965   0.424   0.544   2.678
10689SOL    HW132966   0.330   0.573   2.697
10689SOL    HW232967   0.450   0.471   2.741
10690SOL     OW32968   0.307   6.792   4.168
10690SOL    HW132969   0.361   6.864   4.125
10690SOL    HW232970   0.359   6.751   4.242
10691SOL     OW32971   3.655   0.368   2.332
10691SOL    HW132972   3.719   0.319   2.391
10691SOL    HW232973   3.674   0.466   2.337
10692SOL     OW32974   2.478   0.997   3.983
10692SOL    HW132975   2.493   0.954   3.894
10692SOL    HW232976   2.500   0.931   4.055
10693SOL     OW32977   1.580   5.376   6.965
10693SOL    HW132978   1.638   5.425   0.005
10693SOL    HW232979   1.563   5.435   6.886
10694SOL     OW32980   4.305   0.103   5.373
10694SOL    HW132981   4.280   0.016   5.416
10694SOL    HW232982   4.336   0.086   5.279
10695SOL     OW32983   5.647   4.215   2.300
10695SOL    HW132984   5.587   4.194   2.377
10695SOL    HW232985   5.736   4.246   2.334
10696SOL     OW32986   6.656   4.681   3.588
10696SOL    HW132987   6.580   4.617   3.601
10696SOL    HW232988   6.664   4.740   3.668
10697SOL     OW32989   1.999   5.240   5.308
10697SOL    HW132990   1.931   5.313   5.316
10697SOL    HW232991   2.085   5.270   5.350
10698SOL     OW32992   4.250   3.093   0.155
10698SOL    HW132993   4.338   3.084   0.109
10698SOL    HW232994   4.187   3.144   0.097
10699SOL     OW32995   3.257   2.895   0.777
10699SOL    HW132996   3.284   2.814   0.726
10699SOL    HW232997   3.180   2.874   0.837
10700SOL     OW32998   4.777   1.112   1.536
10700SOL    HW132999   4.852   1.176   1.523
10700SOL    HW233000   4.692   1.163   1.555
10701SOL     OW33001   3.079   0.107   6.528
10701SOL    HW133002   3.132   0.026   6.551
10701SOL    HW233003   2.998   0.111   6.586
10702SOL     OW33004   6.106   2.470   2.194
10702SOL    HW133005   6.016   2.462   2.237
10702SOL    HW233006   6.096   2.505   2.101
10703SOL     OW33007   0.895   3.226   5.926
10703SOL    HW133008   0.953   3.292   5.975
10703SOL    HW233009   0.817   3.203   5.983
10704SOL     OW33010   5.599   6.842   1.505
10704SOL    HW133011   5.636   6.785   1.578
10704SOL    HW233012   5.658   6.835   1.424
10705SOL     OW33013   5.767   4.045   1.378
10705SOL    HW133014   5.700   4.025   1.450
10705SOL    HW233015   5.726   4.030   1.288
10706SOL     OW33016   4.600   0.290   0.812
10706SOL    HW133017   4.673   0.262   0.750
10706SOL    HW233018   4.521   0.321   0.758
10707SOL     OW33019   6.065   0.336   4.077
10707SOL    HW133020   6.140   0.277   4.107
10707SOL    HW233021   6.074   0.426   4.118
10708SOL     OW33022   4.127   1.560   2.142
10708SOL    HW133023   4.145   1.651   2.105
10708SOL    HW233024   4.031   1.537   2.127
10709SOL     OW33025   5.941   4.893   3.636
10709SOL    HW133026   5.944   4.826   3.710
10709SOL    HW233027   5.849   4.933   3.631
10710SOL     OW33028   5.366   0.972   3.800
10710SOL    HW133029   5.313   0.930   3.875
10710SOL    HW233030   5.303   1.008   3.731
10711SOL     OW33031   4.291   6.938   1.501
10711SOL    HW133032   4.205   6.968   1.458
10711SOL    HW233033   4.324   7.010   1.562
10712SOL     OW33034   5.120   0.034   2.957
10712SOL    HW133035   5.021   0.024   2.943
10712SOL    HW233036   5.146   0.130   2.942
10713SOL     OW33037   1.510   4.282   1.425
10713SOL    HW133038   1.457   4.247   1.348
10713SOL    HW233039   1.512   4.213   1.498
10714SOL     OW33040   3.155   3.937   4.337
10714SOL    HW133041   3.217   3.866   4.369
10714SOL    HW233042   3.060   3.907   4.350
10715SOL     OW33043   6.477   0.966   1.750
10715SOL    HW133044   6.424   0.993   1.670
10715SOL    HW233045   6.555   0.910   1.721
10716SOL     OW33046   5.910   1.903   3.428
10716SOL    HW133047   5.973   1.883   3.353
10716SOL    HW233048   5.877   1.997   3.419
10717SOL     OW33049   1.606   2.506   0.168
10717SOL    HW133050   1.628   2.477   0.075
10717SOL    HW233051   1.579   2.425   0.222
10718SOL     OW33052   1.452   5.028   5.569
10718SOL    HW133053   1.446   5.118   5.528
10718SOL    HW233054   1.407   5.028   5.659
10719SOL     OW33055   6.034   5.878   4.572
10719SOL    HW133056   5.985   5.857   4.657
10719SOL    HW233057   6.130   5.851   4.582
10720SOL     OW33058   6.424   5.449   3.686
10720SOL    HW133059   6.338   5.404   3.712
10720SOL    HW233060   6.416   5.547   3.700
10721SOL     OW33061   5.010   3.858   5.153
10721SOL    HW133062   5.057   3.868   5.065
10721SOL    HW233063   5.069   3.890   5.227
10722SOL     OW33064   6.694   4.260   5.624
10722SOL    HW133065   6.685   4.303   5.535
10722SOL    HW233066   6.633   4.305   5.689
10723SOL     OW33067   5.852   0.117   0.292
10723SOL    HW133068   5.787   0.116   0.368
10723SOL    HW233069   5.906   0.033   0.292
10724SOL     OW33070   6.717   6.501   0.397
10724SOL    HW133071   6.623   6.484   0.426
10724SOL    HW233072   6.767   6.548   0.469
10725SOL     OW33073   2.702   5.513   5.433
10725SOL    HW133074   2.730   5.432   5.382
10725SOL    HW233075   2.732   5.506   5.528
10726SOL     OW33076   4.926   1.001   4.363
10726SOL    HW133077   4.949   1.042   4.451
10726SOL    HW233078   4.881   0.912   4.379
10727SOL     OW33079   1.672   5.906   5.808
10727SOL    HW133080   1.710   5.883   5.718
10727SOL    HW233081   1.634   5.823   5.850
10728SOL     OW33082   6.277   6.030   1.034
10728SOL    HW133083   6.313   5.985   0.953
10728SOL    HW233084   6.181   6.005   1.047
10729SOL     OW33085   6.660   2.759   1.505
10729SOL    HW133086   6.737   2.739   1.566
10729SOL    HW233087   6.664   2.699   1.425
10730SOL     OW33088   4.403   0.256   1.471
10730SOL    HW133089   4.428   0.231   1.565
10730SOL    HW233090   4.442   0.345   1.448
10731SOL     OW33091   4.287   1.203   0.848
10731SOL    HW133092   4.242   1.259   0.918
10731SOL    HW233093   4.323   1.263   0.777
10732SOL     OW33094   0.802   4.975   5.311
10732SOL    HW133095   0.741   4.967   5.232
10732SOL    HW233096   0.752   4.951   5.394
10733SOL     OW33097   5.804   2.855   6.901
10733SOL    HW133098   5.747   2.776   6.878
10733SOL    HW233099   5.892   2.822   6.935
10734SOL     OW33100   7.018   2.079   1.522
10734SOL    HW133101   0.085   2.108   1.548
10734SOL    HW233102   6.985   2.011   1.586
10735SOL     OW33103   0.371   3.598   2.766
10735SOL    HW133104   0.418   3.535   2.704
10735SOL    HW233105   0.286   3.629   2.722
10736SOL     OW33106   3.381   0.117   3.666
10736SOL    HW133107   3.337   0.040   3.620
10736SOL    HW233108   3.421   0.178   3.597
10737SOL     OW33109   0.273   2.082   1.581
10737SOL    HW133110   0.267   2.160   1.519
10737SOL    HW233111   0.368   2.068   1.608
10738SOL     OW33112   4.735   0.875   2.989
10738SOL    HW133113   4.687   0.838   2.910
10738SOL    HW233114   4.681   0.860   3.071
10739SOL     OW33115   2.008   2.000   1.810
10739SOL    HW133116   2.095   2.045   1.830
10739SOL    HW233117   1.941   2.024   1.881
10740SOL     OW33118   5.066   4.710   3.784
10740SOL    HW133119   5.100   4.707   3.690
10740SOL    HW233120   5.030   4.801   3.803
10741SOL     OW33121   4.022   0.558   2.386
10741SOL    HW133122   4.073   0.484   2.429
10741SOL    HW233123   3.943   0.582   2.442
10742SOL     OW33124   5.874   5.351   0.743
10742SOL    HW133125   5.942   5.297   0.793
10742SOL    HW233126   5.919   5.405   0.673
10743SOL     OW33127   2.011   1.998   4.144
10743SOL    HW133128   2.026   2.089   4.181
10743SOL    HW233129   2.086   1.938   4.173
10744SOL     OW33130   3.722   2.416   0.999
10744SOL    HW133131   3.743   2.364   1.081
10744SOL    HW233132   3.764   2.372   0.920
10745SOL     OW33133   0.129   5.743   5.776
10745SOL    HW133134   0.114   5.755   5.874
10745SOL    HW233135   0.173   5.825   5.739
10746SOL     OW33136   0.105   4.230   5.282
10746SOL    HW133137   0.113   4.272   5.373
10746SOL    HW233138   0.018   4.182   5.275
10747SOL     OW33139   2.868   1.090   4.854
10747SOL    HW133140   2.957   1.105   4.810
10747SOL    HW233141   2.798   1.139   4.803
10748SOL     OW33142   4.854   1.457   2.003
10748SOL    HW133143   4.907   1.391   2.054
10748SOL    HW233144   4.887   1.550   2.023
10749SOL     OW33145   2.052   7.008   5.243
10749SOL    HW133146   2.142   6.964   5.244
10749SOL    HW233147   2.062   0.078   5.274
10750SOL     OW33148   3.334   0.653   6.012
10750SOL    HW133149   3.271   0.576   6.012
10750SOL    HW233150   3.391   0.651   5.930
10751SOL     OW33151   2.266   4.502   4.177
10751SOL    HW133152   2.360   4.477   4.201
10751SOL    HW233153   2.234   4.574   4.239
10752SOL     OW33154   5.262   5.090   4.246
10752SOL    HW133155   5.170   5.088   4.207
10752SOL    HW233156   5.298   4.997   4.253
10753SOL     OW33157   0.284   3.205   4.081
10753SOL    HW133158   0.302   3.112   4.112
10753SOL    HW233159   0.305   3.269   4.155
10754SOL     OW33160   1.609   0.802   2.578
10754SOL    HW133161   1.596   0.735   2.504
10754SOL    HW233162   1.566   0.768   2.662
10755SOL     OW33163   6.485   5.884   1.742
10755SOL    HW133164   6.481   5.984   1.742
10755SOL    HW233165   6.479   5.851   1.836
10756SOL     OW33166   6.583   6.779   5.103
10756SOL    HW133167   6.499   6.742   5.142
10756SOL    HW233168   6.571   6.793   5.005
10757SOL     OW33169   2.173   3.181   0.902
10757SOL    HW133170   2.090   3.136   0.868
10757SOL    HW233171   2.161   3.280   0.898
10758SOL     OW33172   0.531   5.564   3.566
10758SOL    HW133173   0.468   5.523   3.500
10758SOL    HW233174   0.555   5.495   3.635
10759SOL     OW33175   0.265   3.032   0.263
10759SOL    HW133176   0.313   3.117   0.243
10759SOL    HW233177   0.241   2.986   0.178
10760SOL     OW33178   6.396   0.859   3.268
10760SOL    HW133179   6.495   0.847   3.253
10760SOL    HW233180   6.347   0.781   3.229
10761SOL     OW33181   2.797   5.065   5.530
10761SOL    HW133182   2.783   5.067   5.629
10761SOL    HW233183   2.744   4.990   5.490
10762SOL     OW33184   3.488   0.714   4.346
10762SOL    HW133185   3.498   0.801   4.394
10762SOL    HW233186   3.566   0.655   4.367
10763SOL     OW33187   3.977   0.149   3.668
10763SOL    HW133188   3.895   0.092   3.667
10763SOL    HW233189   3.980   0.203   3.584
10764SOL     OW33190   5.461   0.319   3.893
10764SOL    HW133191   5.530   0.266   3.943
10764SOL    HW233192   5.487   0.415   3.892
10765SOL     OW33193   5.125   3.161   0.996
10765SOL    HW133194   5.091   3.249   0.963
10765SOL    HW233195   5.160   3.171   1.089
10766SOL     OW33196   4.099   3.038   1.407
10766SOL    HW133197   4.153   3.123   1.405
10766SOL    HW233198   4.118   2.989   1.492
10767SOL     OW33199   2.425   1.375   1.824
10767SOL    HW133200   2.360   1.405   1.754
10767SOL    HW233201   2.390   1.399   1.915
10768SOL     OW33202   6.864   4.953   0.213
10768SOL    HW133203   6.879   4.926   0.118
10768SOL    HW233204   6.778   4.912   0.245
10769SOL     OW33205   1.680   3.675   6.317
10769SOL    HW133206   1.624   3.642   6.241
10769SOL    HW233207   1.687   3.775   6.313
10770SOL     OW33208   5.088   5.998   3.295
10770SOL    HW133209   5.091   6.086   3.342
10770SOL    HW233210   5.180   5.959   3.291
10771SOL     OW33211   2.970   0.765   3.439
10771SOL    HW133212   2.915   0.688   3.471
10771SOL    HW233213   2.921   0.814   3.368
10772SOL     OW33214   6.030   5.520   3.400
10772SOL    HW133215   6.000   5.594   3.461
10772SOL    HW233216   6.124   5.494   3.424
10773SOL     OW33217   4.991   5.109   4.092
10773SOL    HW133218   4.917   5.154   4.041
10773SOL    HW233219   4.995   5.013   4.067
10774SOL     OW33220   1.362   1.173   3.827
10774SOL    HW133221   1.393   1.080   3.845
10774SOL    HW233222   1.394   1.234   3.900
10775SOL     OW33223   0.428   3.951   1.978
10775SOL    HW133224   0.328   3.947   1.983
10775SOL    HW233225   0.457   4.046   1.968
10776SOL     OW33226   1.901   0.247   0.043
10776SOL    HW133227   1.891   0.186   6.990
10776SOL    HW233228   1.952   0.328   0.016
10777SOL     OW33229   3.394   6.466   1.911
10777SOL    HW133230   3.409   6.454   1.813
10777SOL    HW233231   3.458   6.535   1.945
10778SOL     OW33232   5.908   5.970   3.306
10778SOL    HW133233   5.974   5.943   3.376
10778SOL    HW233234   5.952   6.033   3.242
10779SOL     OW33235   5.791   2.218   3.481
10779SOL    HW133236   5.816   2.224   3.384
10779SOL    HW233237   5.870   2.244   3.537
10780SOL     OW33238   1.075   1.245   2.994
10780SOL    HW133239   1.158   1.225   3.045
10780SOL    HW233240   1.025   1.160   2.977
10781SOL     OW33241   3.128   0.210   4.016
10781SOL    HW133242   3.129   0.310   4.010
10781SOL    HW233243   3.136   0.183   4.112
10782SOL     OW33244   6.405   6.019   4.587
10782SOL    HW133245   6.469   6.075   4.639
10782SOL    HW233246   6.398   6.052   4.493
10783SOL     OW33247   6.706   2.192   2.926
10783SOL    HW133248   6.616   2.216   2.890
10783SOL    HW233249   6.758   2.142   2.856
10784SOL     OW33250   2.499   1.217   4.232
10784SOL    HW133251   2.430   1.153   4.196
10784SOL    HW233252   2.574   1.165   4.273
10785SOL     OW33253   0.295   4.138   6.856
10785SOL    HW133254   0.234   4.112   6.780
10785SOL    HW233255   0.243   4.137   6.941
10786SOL     OW33256   0.001   5.278   3.181
10786SOL    HW133257   0.027   5.372   3.157
10786SOL    HW233258   7.012   5.272   3.279
10787SOL     OW33259   1.710   2.425   5.481
10787SOL    HW133260   1.808   2.411   5.494
10787SOL    HW233261   1.660   2.374   5.551
10788SOL     OW33262   6.420   3.998   6.080
10788SOL    HW133263   6.406   4.060   6.003
10788SOL    HW233264   6.512   4.013   6.118
10789SOL     OW33265   6.541   1.909   0.250
10789SOL    HW133266   6.475   1.856   0.197
10789SOL    HW233267   6.625   1.856   0.260
10790SOL     OW33268   6.869   7.012   2.883
10790SOL    HW133269   6.954   6.965   2.859
10790SOL    HW233270   6.792   6.960   2.847
10791SOL     OW33271   6.807   6.115   2.606
10791SOL    HW133272   6.709   6.115   2.584
10791SOL    HW233273   6.858   6.147   2.526
10792SOL     OW33274   3.717   3.995   5.151
10792SOL    HW133275   3.727   4.004   5.250
10792SOL    HW233276   3.640   3.936   5.129
10793SOL     OW33277   5.697   3.080   4.980
10793SOL    HW133278   5.776   3.023   5.003
10793SOL    HW233279   5.709   3.170   5.022
10794SOL     OW33280   3.233   3.518   3.646
10794SOL    HW133281   3.193   3.427   3.655
10794SOL    HW233282   3.207   3.557   3.557
10795SOL     OW33283   1.066   4.162   3.085
10795SOL    HW133284   1.123   4.199   3.011
10795SOL    HW233285   1.092   4.067   3.103
10796SOL     OW33286   1.450   5.770   5.121
10796SOL    HW133287   1.497   5.812   5.043
10796SOL    HW233288   1.405   5.841   5.175
10797SOL     OW33289   3.760   2.542   0.666
10797SOL    HW133290   3.778   2.447   0.691
10797SOL    HW233291   3.844   2.583   0.630
10798SOL     OW33292   0.510   1.877   0.730
10798SOL    HW133293   0.608   1.859   0.720
10798SOL    HW233294   0.459   1.791   0.721
10799SOL     OW33295   4.191   1.429   2.412
10799SOL    HW133296   4.179   1.480   2.327
10799SOL    HW233297   4.289   1.416   2.429
10800SOL     OW33298   1.248   6.744   0.642
10800SOL    HW133299   1.227   6.647   0.641
10800SOL    HW233300   1.178   6.794   0.590
10801SOL     OW33301   1.270   1.163   0.875
10801SOL    HW133302   1.250   1.144   0.779
10801SOL    HW233303   1.331   1.242   0.881
10802SOL     OW33304   6.341   0.108   3.546
10802SOL    HW133305   6.336   0.138   3.641
10802SOL    HW233306   6.251   0.116   3.503
10803SOL     OW33307   2.343   4.913   6.519
10803SOL    HW133308   2.418   4.979   6.526
10803SOL    HW233309   2.306   4.915   6.426
10804SOL     OW33310   0.227   3.349   3.845
10804SOL    HW133311   0.246   3.314   3.937
10804SOL    HW233312   0.140   3.397   3.845
10805SOL     OW33313   6.246   0.712   5.030
10805SOL    HW133314   6.323   0.709   4.966
10805SOL    HW233315   6.242   0.802   5.074
10806SOL     OW33316   1.831   4.668   6.671
10806SOL    HW133317   1.779   4.751   6.694
10806SOL    HW233318   1.853   4.618   6.755
10807SOL     OW33319   3.064   6.601   4.525
10807SOL    HW133320   3.105   6.509   4.522
10807SOL    HW233321   3.054   6.637   4.432
10808SOL     OW33322   0.480   2.232   6.037
10808SOL    HW133323   0.574   2.219   6.006
10808SOL    HW233324   0.474   2.314   6.093
10809SOL     OW33325   2.311   5.713   4.607
10809SOL    HW133326   2.251   5.783   4.645
10809SOL    HW233327   2.259   5.651   4.549
10810SOL     OW33328   0.482   0.360   4.382
10810SOL    HW133329   0.453   0.401   4.295
10810SOL    HW233330   0.507   0.433   4.445
10811SOL     OW33331   4.976   4.833   5.329
10811SOL    HW133332   4.910   4.763   5.304
10811SOL    HW233333   5.039   4.849   5.253
10812SOL     OW33334   6.708   2.661   6.811
10812SOL    HW133335   6.787   2.658   6.873
10812SOL    HW233336   6.660   2.574   6.815
10813SOL     OW33337   0.575   4.147   6.340
10813SOL    HW133338   0.534   4.235   6.317
10813SOL    HW233339   0.532   4.075   6.285
10814SOL     OW33340   2.569   0.389   1.162
10814SOL    HW133341   2.553   0.463   1.096
10814SOL    HW233342   2.571   0.427   1.254
10815SOL     OW33343   5.222   1.223   4.585
10815SOL    HW133344   5.268   1.145   4.627
10815SOL    HW233345   5.123   1.213   4.593
10816SOL     OW33346   3.886   3.218   3.710
10816SOL    HW133347   3.935   3.206   3.796
10816SOL    HW233348   3.806   3.158   3.707
10817SOL     OW33349   2.850   6.559   3.363
10817SOL    HW133350   2.770   6.586   3.417
10817SOL    HW233351   2.909   6.501   3.420
10818SOL     OW33352   4.318   5.014   6.220
10818SOL    HW133353   4.294   5.090   6.281
10818SOL    HW233354   4.309   4.927   6.270
10819SOL     OW33355   6.684   5.661   6.156
10819SOL    HW133356   6.677   5.601   6.076
10819SOL    HW233357   6.602   5.653   6.212
10820SOL     OW33358   2.728   4.583   6.082
10820SOL    HW133359   2.676   4.548   6.004
10820SOL    HW233360   2.741   4.511   6.149
10821SOL     OW33361   4.757   5.370   3.070
10821SOL    HW133362   4.688   5.430   3.029
10821SOL    HW233363   4.848   5.412   3.060
10822SOL     OW33364   5.537   2.331   1.752
10822SOL    HW133365   5.500   2.371   1.836
10822SOL    HW233366   5.570   2.403   1.692
10823SOL     OW33367   6.715   6.436   2.596
10823SOL    HW133368   6.639   6.393   2.643
10823SOL    HW233369   6.781   6.366   2.567
10824SOL     OW33370   0.858   2.450   4.094
10824SOL    HW133371   0.906   2.534   4.068
10824SOL    HW233372   0.827   2.458   4.189
10825SOL     OW33373   0.826   2.086   0.312
10825SOL    HW133374   0.816   2.182   0.337
10825SOL    HW233375   0.855   2.034   0.393
10826SOL     OW33376   0.762   2.945   2.866
10826SOL    HW133377   0.684   2.978   2.919
10826SOL    HW233378   0.847   2.969   2.914
10827SOL     OW33379   0.240   3.296   4.647
10827SOL    HW133380   0.183   3.286   4.565
10827SOL    HW233381   0.319   3.234   4.640
10828SOL     OW33382   6.297   4.998   5.441
10828SOL    HW133383   6.241   4.999   5.524
10828SOL    HW233384   6.387   4.959   5.462
10829SOL     OW33385   4.027   3.481   5.444
10829SOL    HW133386   3.942   3.528   5.470
10829SOL    HW233387   4.042   3.404   5.506
10830SOL     OW33388   4.817   1.303   3.593
10830SOL    HW133389   4.720   1.298   3.568
10830SOL    HW233390   4.872   1.259   3.521
10831SOL     OW33391   3.777   1.272   3.320
10831SOL    HW133392   3.799   1.203   3.390
10831SOL    HW233393   3.819   1.359   3.345
10832SOL     OW33394   6.843   3.567   0.377
10832SOL    HW133395   6.837   3.512   0.461
10832SOL    HW233396   6.755   3.566   0.330
10833SOL     OW33397   0.659   1.367   0.305
10833SOL    HW133398   0.612   1.282   0.285
10833SOL    HW233399   0.620   1.408   0.388
10834SOL     OW33400   7.013   6.656   0.941
10834SOL    HW133401   0.062   6.711   0.902
10834SOL    HW233402   6.925   6.702   0.925
10835SOL     OW33403   6.849   2.604   6.064
10835SOL    HW133404   6.900   2.523   6.034
10835SOL    HW233405   6.885   2.636   6.151
10836SOL     OW33406   0.103   1.650   3.745
10836SOL    HW133407   0.040   1.597   3.688
10836SOL    HW233408   0.197   1.624   3.725
10837SOL     OW33409   0.441   4.022   3.232
10837SOL    HW133410   0.528   4.033   3.185
10837SOL    HW233411   0.440   3.935   3.281
10838SOL     OW33412   0.037   5.796   2.837
10838SOL    HW133413   0.050   5.788   2.935
10838SOL    HW233414   6.985   5.739   2.808
10839SOL     OW33415   4.880   2.724   1.009
10839SOL    HW133416   4.826   2.643   1.034
10839SOL    HW233417   4.869   2.742   0.911
10840SOL     OW33418   3.033   0.572   1.339
10840SOL    HW133419   2.954   0.627   1.313
10840SOL    HW233420   3.058   0.593   1.434
10841SOL     OW33421   1.419   5.287   5.449
10841SOL    HW133422   1.389   5.261   5.357
10841SOL    HW233423   1.366   5.366   5.480
10842SOL     OW33424   5.209   4.385   0.377
10842SOL    HW133425   5.135   4.436   0.333
10842SOL    HW233426   5.213   4.409   0.474
10843SOL     OW33427   2.233   2.188   1.843
10843SOL    HW133428   2.325   2.149   1.848
10843SOL    HW233429   2.231   2.275   1.892
10844SOL     OW33430   1.413   5.553   5.593
10844SOL    HW133431   1.346   5.509   5.652
10844SOL    HW233432   1.366   5.602   5.520
10845SOL     OW33433   4.464   6.599   5.095
10845SOL    HW133434   4.552   6.640   5.117
10845SOL    HW233435   4.424   6.559   5.177
10846SOL     OW33436   5.283   0.763   0.065
10846SOL    HW133437   5.197   0.768   0.013
10846SOL    HW233438   5.298   0.669   0.095
10847SOL     OW33439   1.925   1.075   6.978
10847SOL    HW133440   1.889   1.118   0.036
10847SOL    HW233441   1.934   1.144   6.906
10848SOL     OW33442   1.914   4.621   1.951
10848SOL    HW133443   1.944   4.566   1.873
10848SOL    HW233444   1.993   4.653   2.002
10849SOL     OW33445   2.493   6.459   4.389
10849SOL    HW133446   2.524   6.397   4.460
10849SOL    HW233447   2.489   6.552   4.425
10850SOL     OW33448   3.343   5.337   0.240
10850SOL    HW133449   3.359   5.397   0.319
10850SOL    HW233450   3.245   5.320   0.231
10851SOL     OW33451   2.172   5.198   0.784
10851SOL    HW133452   2.099   5.264   0.766
10851SOL    HW233453   2.205   5.159   0.698
10852SOL     OW33454   2.162   1.739   1.517
10852SOL    HW133455   2.110   1.824   1.530
10852SOL    HW233456   2.152   1.681   1.598
10853SOL     OW33457   2.784   2.229   6.067
10853SOL    HW133458   2.750   2.175   6.144
10853SOL    HW233459   2.861   2.181   6.024
10854SOL     OW33460   3.859   6.209   5.697
10854SOL    HW133461   3.775   6.198   5.750
10854SOL    HW233462   3.912   6.124   5.699
10855SOL     OW33463   3.403   1.575   6.989
10855SOL    HW133464   3.404   1.632   6.907
10855SOL    HW233465   3.489   1.525   6.997
10856SOL     OW33466   0.272   1.233   0.363
10856SOL    HW133467   0.291   1.135   0.360
10856SOL    HW233468   0.338   1.282   0.305
10857SOL     OW33469   6.622   2.199   2.506
10857SOL    HW133470   6.639   2.178   2.602
10857SOL    HW233471   6.527   2.230   2.495
10858SOL     OW33472   2.601   6.055   1.801
10858SOL    HW133473   2.652   6.133   1.764
10858SOL    HW233474   2.666   5.989   1.838
10859SOL     OW33475   1.719   5.555   3.950
10859SOL    HW133476   1.708   5.495   3.871
10859SOL    HW233477   1.668   5.518   4.028
10860SOL     OW33478   0.031   2.714   3.626
10860SOL    HW133479   0.016   2.682   3.719
10860SOL    HW233480   0.119   2.679   3.592
10861SOL     OW33481   3.991   3.138   4.528
10861SOL    HW133482   3.930   3.119   4.605
10861SOL    HW233483   3.939   3.136   4.442
10862SOL     OW33484   1.597   0.577   4.528
10862SOL    HW133485   1.527   0.547   4.594
10862SOL    HW233486   1.554   0.631   4.456
10863SOL     OW33487   3.243   5.650   4.516
10863SOL    HW133488   3.170   5.710   4.549
10863SOL    HW233489   3.221   5.555   4.537
10864SOL     OW33490   3.141   6.081   2.792
10864SOL    HW133491   3.218   6.025   2.822
10864SOL    HW233492   3.128   6.156   2.857
10865SOL     OW33493   5.884   2.162   6.083
10865SOL    HW133494   5.815   2.090   6.094
10865SOL    HW233495   5.839   2.252   6.087
10866SOL     OW33496   5.698   4.776   0.471
10866SOL    HW133497   5.721   4.786   0.375
10866SOL    HW233498   5.607   4.736   0.480
10867SOL     OW33499   3.452   2.273   0.284
10867SOL    HW133500   3.373   2.308   0.233
10867SOL    HW233501   3.510   2.219   0.224
10868SOL     OW33502   2.681   2.304   2.518
10868SOL    HW133503   2.741   2.309   2.438
10868SOL    HW233504   2.673   2.209   2.548
10869NA      NA33505   6.373   2.268   6.123
10870NA      NA33506   4.347   4.550   5.281
10871NA      NA33507   2.575   3.731   1.501
10872NA      NA33508   4.800   3.747   5.208
10873NA      NA33509   4.201   2.381   5.312
10874NA      NA33510   3.709   4.777   1.709
10875NA      NA33511   6.717   5.827   5.204
10876NA      NA33512   3.832   3.985   4.938
10877NA      NA33513   4.508   6.842   0.106
10878NA      NA33514   4.008   6.733   5.214
10879NA      NA33515   6.998   4.884   2.733
10880NA      NA33516   2.630   0.421   3.062
10881NA      NA33517   3.616   4.172   0.941
10882NA      NA33518   3.479   3.470   2.841
   7.02519   7.02519   7.02519
