Generated by trjconv : CNT in water t=  60.00000
33518
    1C        C    1   2.843   2.768   4.747
    1C        C    2   2.901   2.721   4.867
    1C        C    3   2.841   2.770   4.983
    1C        C    4   2.842   2.769   4.259
    1C        C    5   2.900   2.728   4.381
    1C        C    6   2.847   2.773   4.504
    1C        C    7   3.006   2.632   4.622
    1C        C    8   2.895   2.719   4.626
    1C        C    9   3.072   2.594   4.742
    1C        C   10   3.007   2.627   4.863
    1C        C   11   3.176   2.486   4.972
    1C        C   12   3.057   2.559   4.975
    1C        C   13   2.842   2.767   3.769
    1C        C   14   2.894   2.716   3.891
    1C        C   15   2.847   2.766   4.014
    1C        C   16   3.014   2.642   4.135
    1C        C   17   2.899   2.724   4.138
    1C        C   18   3.074   2.611   4.260
    1C        C   19   3.016   2.647   4.384
    1C        C   20   3.208   2.552   4.502
    1C        C   21   3.075   2.600   4.503
    1C        C   22   3.277   2.537   4.624
    1C        C   23   3.205   2.546   4.746
    1C        C   24   3.412   2.485   4.863
    1C        C   25   3.269   2.498   4.864
    1C        C   26   3.489   2.478   4.980
    1C        C   27   2.845   2.765   3.280
    1C        C   28   2.901   2.721   3.402
    1C        C   29   2.851   2.771   3.525
    1C        C   30   3.012   2.637   3.647
    1C        C   31   2.899   2.722   3.648
    1C        C   32   3.071   2.600   3.769
    1C        C   33   3.010   2.635   3.892
    1C        C   34   3.204   2.549   4.014
    1C        C   35   3.073   2.602   4.014
    1C        C   36   3.273   2.534   4.137
    1C        C   37   3.205   2.558   4.258
    1C        C   38   3.412   2.507   4.381
    1C        C   39   3.273   2.531   4.379
    1C        C   40   3.486   2.505   4.501
    1C        C   41   3.414   2.505   4.623
    1C        C   42   3.629   2.482   4.742
    1C        C   43   3.487   2.487   4.742
    1C        C   44   3.703   2.483   4.862
    1C        C   45   3.628   2.479   4.980
    1C        C   46   2.837   2.752   2.795
    1C        C   47   2.892   2.705   2.916
    1C        C   48   2.846   2.765   3.036
    1C        C   49   3.014   2.636   3.161
    1C        C   50   2.899   2.719   3.158
    1C        C   51   3.079   2.602   3.282
    1C        C   52   3.020   2.644   3.403
    1C        C   53   3.206   2.547   3.529
    1C        C   54   3.077   2.605   3.526
    1C        C   55   3.271   2.523   3.652
    1C        C   56   3.201   2.545   3.773
    1C        C   57   3.413   2.505   3.893
    1C        C   58   3.273   2.526   3.893
    1C        C   59   3.483   2.503   4.015
    1C        C   60   3.413   2.511   4.138
    1C        C   61   3.625   2.501   4.258
    1C        C   62   3.484   2.500   4.259
    1C        C   63   3.699   2.505   4.378
    1C        C   64   3.627   2.504   4.500
    1C        C   65   3.835   2.542   4.623
    1C        C   66   3.700   2.501   4.621
    1C        C   67   3.902   2.559   4.746
    1C        C   68   3.839   2.520   4.866
    1C        C   69   4.054   2.581   4.975
    1C        C   70   3.924   2.531   4.977
    1C        C   71   2.819   2.729   2.309
    1C        C   72   2.876   2.683   2.429
    1C        C   73   2.829   2.740   2.550
    1C        C   74   3.003   2.622   2.671
    1C        C   75   2.884   2.697   2.673
    1C        C   76   3.069   2.592   2.793
    1C        C   77   3.009   2.626   2.916
    1C        C   78   3.203   2.542   3.037
    1C        C   79   3.072   2.595   3.039
    1C        C   80   3.272   2.520   3.159
    1C        C   81   3.207   2.543   3.282
    1C        C   82   3.411   2.496   3.403
    1C        C   83   3.273   2.525   3.406
    1C        C   84   3.480   2.490   3.526
    1C        C   85   3.410   2.498   3.649
    1C        C   86   3.624   2.494   3.768
    1C        C   87   3.483   2.494   3.770
    1C        C   88   3.695   2.509   3.890
    1C        C   89   3.624   2.505   4.012
    1C        C   90   3.830   2.547   4.134
    1C        C   91   3.693   2.513   4.135
    1C        C   92   3.900   2.570   4.255
    1C        C   93   3.836   2.541   4.378
    1C        C   94   4.027   2.631   4.498
    1C        C   95   3.902   2.565   4.500
    1C        C   96   4.087   2.669   4.620
    1C        C   97   4.027   2.627   4.741
    1C        C   98   4.190   2.766   4.863
    1C        C   99   4.096   2.658   4.861
    1C        C  100   4.210   2.844   4.978
    1C        C  101   2.823   2.727   2.069
    1C        C  102   2.987   2.588   2.189
    1C        C  103   2.873   2.675   2.189
    1C        C  104   3.060   2.571   2.310
    1C        C  105   2.997   2.611   2.430
    1C        C  106   3.198   2.533   2.549
    1C        C  107   3.068   2.588   2.550
    1C        C  108   3.266   2.516   2.672
    1C        C  109   3.199   2.537   2.795
    1C        C  110   3.409   2.496   2.911
    1C        C  111   3.269   2.516   2.915
    1C        C  112   3.479   2.490   3.033
    1C        C  113   3.411   2.495   3.157
    1C        C  114   3.622   2.497   3.278
    1C        C  115   3.480   2.495   3.280
    1C        C  116   3.689   2.509   3.402
    1C        C  117   3.621   2.499   3.525
    1C        C  118   3.831   2.536   3.645
    1C        C  119   3.694   2.500   3.646
    1C        C  120   3.897   2.566   3.767
    1C        C  121   3.833   2.541   3.890
    1C        C  122   4.017   2.645   4.013
    1C        C  123   3.899   2.567   4.012
    1C        C  124   4.087   2.671   4.133
    1C        C  125   4.027   2.632   4.254
    1C        C  126   4.195   2.762   4.376
    1C        C  127   4.086   2.672   4.376
    1C        C  128   4.241   2.815   4.499
    1C        C  129   4.188   2.768   4.621
    1C        C  130   4.324   2.934   4.739
    1C        C  131   4.239   2.820   4.742
    1C        C  132   4.355   3.001   4.859
    1C        C  133   4.287   2.960   4.975
    1C        C  134   3.170   2.468   2.082
    1C        C  135   3.035   2.507   2.081
    1C        C  136   3.258   2.482   2.190
    1C        C  137   3.192   2.518   2.310
    1C        C  138   3.403   2.476   2.427
    1C        C  139   3.264   2.497   2.430
    1C        C  140   3.476   2.475   2.548
    1C        C  141   3.405   2.492   2.668
    1C        C  142   3.620   2.488   2.789
    1C        C  143   3.479   2.487   2.788
    1C        C  144   3.691   2.496   2.911
    1C        C  145   3.620   2.487   3.032
    1C        C  146   3.826   2.541   3.155
    1C        C  147   3.690   2.501   3.154
    1C        C  148   3.892   2.564   3.278
    1C        C  149   3.826   2.543   3.401
    1C        C  150   4.020   2.629   3.522
    1C        C  151   3.897   2.560   3.523
    1C        C  152   4.081   2.668   3.644
    1C        C  153   4.022   2.631   3.767
    1C        C  154   4.189   2.763   3.884
    1C        C  155   4.075   2.678   3.889
    1C        C  156   4.238   2.814   4.006
    1C        C  157   4.196   2.760   4.130
    1C        C  158   4.334   2.920   4.252
    1C        C  159   4.246   2.809   4.253
    1C        C  160   4.365   2.985   4.373
    1C        C  161   4.327   2.927   4.497
    1C        C  162   4.435   3.114   4.612
    1C        C  163   4.371   2.988   4.617
    1C        C  164   4.464   3.184   4.731
    1C        C  165   4.432   3.120   4.853
    1C        C  166   4.508   3.324   4.970
    1C        C  167   4.474   3.189   4.967
    1C        C  168   3.472   2.430   2.071
    1C        C  169   3.396   2.456   2.186
    1C        C  170   3.615   2.465   2.306
    1C        C  171   3.473   2.458   2.305
    1C        C  172   3.689   2.486   2.424
    1C        C  173   3.617   2.483   2.546
    1C        C  174   3.825   2.540   2.666
    1C        C  175   3.689   2.502   2.666
    1C        C  176   3.892   2.561   2.788
    1C        C  177   3.827   2.537   2.911
    1C        C  178   4.019   2.626   3.030
    1C        C  179   3.893   2.564   3.033
    1C        C  180   4.080   2.662   3.153
    1C        C  181   4.020   2.624   3.275
    1C        C  182   4.191   2.747   3.394
    1C        C  183   4.077   2.663   3.398
    1C        C  184   4.239   2.803   3.515
    1C        C  185   4.192   2.756   3.639
    1C        C  186   4.333   2.915   3.763
    1C        C  187   4.243   2.806   3.761
    1C        C  188   4.367   2.979   3.884
    1C        C  189   4.324   2.926   4.007
    1C        C  190   4.438   3.104   4.126
    1C        C  191   4.371   2.979   4.129
    1C        C  192   4.463   3.171   4.247
    1C        C  193   4.430   3.111   4.371
    1C        C  194   4.501   3.316   4.490
    1C        C  195   4.459   3.181   4.490
    1C        C  196   4.518   3.386   4.612
    1C        C  197   4.506   3.319   4.736
    1C        C  198   4.557   3.537   4.850
    1C        C  199   4.533   3.396   4.853
    1C        C  200   4.578   3.617   4.966
    1C        C  201   3.612   2.423   2.070
    1C        C  202   3.825   2.503   2.182
    1C        C  203   3.689   2.460   2.185
    1C        C  204   3.895   2.538   2.300
    1C        C  205   3.827   2.520   2.422
    1C        C  206   4.019   2.616   2.542
    1C        C  207   3.892   2.554   2.543
    1C        C  208   4.080   2.660   2.662
    1C        C  209   4.016   2.629   2.784
    1C        C  210   4.187   2.753   2.907
    1C        C  211   4.075   2.667   2.907
    1C        C  212   4.243   2.799   3.029
    1C        C  213   4.191   2.750   3.150
    1C        C  214   4.333   2.906   3.273
    1C        C  215   4.245   2.796   3.273
    1C        C  216   4.369   2.968   3.395
    1C        C  217   4.328   2.913   3.518
    1C        C  218   4.434   3.098   3.638
    1C        C  219   4.374   2.970   3.639
    1C        C  220   4.460   3.169   3.758
    1C        C  221   4.436   3.103   3.881
    1C        C  222   4.501   3.304   4.001
    1C        C  223   4.466   3.167   4.003
    1C        C  224   4.510   3.376   4.122
    1C        C  225   4.499   3.308   4.245
    1C        C  226   4.516   3.522   4.369
    1C        C  227   4.511   3.381   4.365
    1C        C  228   4.519   3.599   4.487
    1C        C  229   4.524   3.527   4.608
    1C        C  230   4.502   3.742   4.728
    1C        C  231   4.534   3.604   4.726
    1C        C  232   4.494   3.819   4.846
    1C        C  233   4.541   3.752   4.960
    1C        C  234   4.017   2.601   2.064
    1C        C  235   3.893   2.538   2.064
    1C        C  236   4.083   2.646   2.179
    1C        C  237   4.022   2.604   2.299
    1C        C  238   4.197   2.730   2.422
    1C        C  239   4.082   2.645   2.420
    1C        C  240   4.251   2.782   2.541
    1C        C  241   4.193   2.744   2.665
    1C        C  242   4.334   2.906   2.783
    1C        C  243   4.244   2.798   2.785
    1C        C  244   4.378   2.961   2.906
    1C        C  245   4.333   2.908   3.029
    1C        C  246   4.428   3.097   3.148
    1C        C  247   4.367   2.969   3.151
    1C        C  248   4.451   3.162   3.271
    1C        C  249   4.427   3.097   3.394
    1C        C  250   4.494   3.300   3.513
    1C        C  251   4.458   3.163   3.515
    1C        C  252   4.505   3.372   3.634
    1C        C  253   4.497   3.305   3.757
    1C        C  254   4.516   3.516   3.878
    1C        C  255   4.513   3.375   3.879
    1C        C  256   4.514   3.588   3.999
    1C        C  257   4.517   3.518   4.122
    1C        C  258   4.491   3.728   4.241
    1C        C  259   4.508   3.588   4.245
    1C        C  260   4.471   3.799   4.361
    1C        C  261   4.491   3.738   4.487
    1C        C  262   4.432   3.944   4.600
    1C        C  263   4.478   3.811   4.607
    1C        C  264   4.405   4.011   4.722
    1C        C  265   4.433   3.947   4.845
    1C        C  266   4.314   4.130   4.958
    1C        C  267   4.394   4.016   4.960
    1C        C  268   4.256   2.772   2.060
    1C        C  269   4.196   2.730   2.180
    1C        C  270   4.336   2.893   2.299
    1C        C  271   4.249   2.781   2.301
    1C        C  272   4.379   2.952   2.419
    1C        C  273   4.340   2.892   2.541
    1C        C  274   4.444   3.083   2.661
    1C        C  275   4.379   2.957   2.660
    1C        C  276   4.466   3.154   2.781
    1C        C  277   4.440   3.088   2.903
    1C        C  278   4.499   3.293   3.021
    1C        C  279   4.460   3.157   3.024
    1C        C  280   4.507   3.364   3.143
    1C        C  281   4.487   3.299   3.267
    1C        C  282   4.508   3.509   3.387
    1C        C  283   4.504   3.368   3.389
    1C        C  284   4.511   3.581   3.509
    1C        C  285   4.513   3.513   3.632
    1C        C  286   4.495   3.725   3.751
    1C        C  287   4.515   3.585   3.754
    1C        C  288   4.479   3.794   3.873
    1C        C  289   4.494   3.727   3.997
    1C        C  290   4.433   3.932   4.117
    1C        C  291   4.478   3.798   4.118
    1C        C  292   4.399   3.997   4.237
    1C        C  293   4.424   3.932   4.360
    1C        C  294   4.326   4.127   4.474
    1C        C  295   4.397   4.005   4.478
    1C        C  296   4.284   4.185   4.595
    1C        C  297   4.326   4.129   4.718
    1C        C  298   4.203   4.313   4.834
    1C        C  299   4.282   4.193   4.837
    1C        C  300   4.167   4.400   4.942
    1C        C  301   4.349   2.875   2.062
    1C        C  302   4.465   3.066   2.176
    1C        C  303   4.390   2.944   2.177
    1C        C  304   4.479   3.140   2.296
    1C        C  305   4.448   3.076   2.418
    1C        C  306   4.507   3.282   2.535
    1C        C  307   4.478   3.143   2.538
    1C        C  308   4.511   3.357   2.654
    1C        C  309   4.505   3.290   2.779
    1C        C  310   4.528   3.503   2.898
    1C        C  311   4.511   3.363   2.900
    1C        C  312   4.523   3.573   3.021
    1C        C  313   4.519   3.505   3.144
    1C        C  314   4.488   3.718   3.263
    1C        C  315   4.511   3.579   3.264
    1C        C  316   4.473   3.788   3.385
    1C        C  317   4.494   3.722   3.508
    1C        C  318   4.427   3.925   3.626
    1C        C  319   4.478   3.794   3.629
    1C        C  320   4.398   3.990   3.749
    1C        C  321   4.428   3.926   3.871
    1C        C  322   4.315   4.105   3.989
    1C        C  323   4.398   3.991   3.993
    1C        C  324   4.278   4.169   4.109
    1C        C  325   4.324   4.117   4.232
    1C        C  326   4.184   4.283   4.352
    1C        C  327   4.281   4.180   4.351
    1C        C  328   4.134   4.335   4.473
    1C        C  329   4.193   4.293   4.594
    1C        C  330   4.021   4.427   4.711
    1C        C  331   4.140   4.349   4.712
    1C        C  332   3.967   4.486   4.828
    1C        C  333   4.045   4.468   4.943
    1C        C  334   4.541   3.264   2.058
    1C        C  335   4.531   3.125   2.064
    1C        C  336   4.529   3.347   2.171
    1C        C  337   4.511   3.279   2.293
    1C        C  338   4.526   3.493   2.407
    1C        C  339   4.523   3.352   2.413
    1C        C  340   4.521   3.564   2.530
    1C        C  341   4.518   3.498   2.654
    1C        C  342   4.489   3.710   2.773
    1C        C  343   4.516   3.572   2.775
    1C        C  344   4.474   3.780   2.895
    1C        C  345   4.491   3.711   3.018
    1C        C  346   4.427   3.916   3.136
    1C        C  347   4.475   3.783   3.138
    1C        C  348   4.397   3.982   3.257
    1C        C  349   4.426   3.921   3.381
    1C        C  350   4.321   4.105   3.500
    1C        C  351   4.399   3.987   3.502
    1C        C  352   4.281   4.164   3.622
    1C        C  353   4.322   4.109   3.745
    1C        C  354   4.176   4.265   3.864
    1C        C  355   4.269   4.158   3.866
    1C        C  356   4.122   4.314   3.985
    1C        C  357   4.178   4.269   4.107
    1C        C  358   4.012   4.403   4.228
    1C        C  359   4.127   4.321   4.228
    1C        C  360   3.950   4.443   4.348
    1C        C  361   4.018   4.415   4.469
    1C        C  362   3.827   4.513   4.590
    1C        C  363   3.957   4.458   4.589
    1C        C  364   3.760   4.549   4.710
    1C        C  365   3.838   4.543   4.827
    1C        C  366   3.633   4.593   4.944
    1C        C  367   3.771   4.580   4.945
    1C        C  368   4.509   3.562   2.048
    1C        C  369   4.521   3.488   2.166
    1C        C  370   4.508   3.704   2.286
    1C        C  371   4.524   3.564   2.285
    1C        C  372   4.486   3.774   2.406
    1C        C  373   4.499   3.703   2.528
    1C        C  374   4.426   3.907   2.648
    1C        C  375   4.473   3.774   2.648
    1C        C  376   4.398   3.975   2.768
    1C        C  377   4.431   3.914   2.891
    1C        C  378   4.322   4.097   3.010
    1C        C  379   4.398   3.978   3.012
    1C        C  380   4.280   4.157   3.131
    1C        C  381   4.317   4.098   3.254
    1C        C  382   4.176   4.256   3.374
    1C        C  383   4.273   4.154   3.376
    1C        C  384   4.121   4.300   3.496
    1C        C  385   4.179   4.261   3.619
    1C        C  386   4.009   4.391   3.741
    1C        C  387   4.125   4.310   3.740
    1C        C  388   3.944   4.423   3.862
    1C        C  389   4.003   4.390   3.986
    1C        C  390   3.814   4.487   4.107
    1C        C  391   3.944   4.432   4.108
    1C        C  392   3.747   4.512   4.229
    1C        C  393   3.820   4.498   4.349
    1C        C  394   3.614   4.554   4.470
    1C        C  395   3.753   4.526   4.470
    1C        C  396   3.545   4.559   4.593
    1C        C  397   3.620   4.563   4.713
    1C        C  398   3.408   4.550   4.837
    1C        C  399   3.548   4.569   4.834
    1C        C  400   3.339   4.509   4.951
    1C        C  401   4.505   3.701   2.051
    1C        C  402   4.454   3.915   2.165
    1C        C  403   4.494   3.780   2.167
    1C        C  404   4.411   3.976   2.285
    1C        C  405   4.433   3.905   2.406
    1C        C  406   4.324   4.091   2.523
    1C        C  407   4.404   3.974   2.525
    1C        C  408   4.276   4.146   2.643
    1C        C  409   4.321   4.094   2.766
    1C        C  410   4.177   4.250   2.886
    1C        C  411   4.275   4.149   2.888
    1C        C  412   4.124   4.299   3.008
    1C        C  413   4.176   4.253   3.131
    1C        C  414   4.001   4.376   3.251
    1C        C  415   4.120   4.300   3.252
    1C        C  416   3.941   4.408   3.375
    1C        C  417   4.002   4.376   3.498
    1C        C  418   3.812   4.474   3.616
    1C        C  419   3.943   4.420   3.619
    1C        C  420   3.748   4.499   3.739
    1C        C  421   3.814   4.478   3.862
    1C        C  422   3.609   4.533   3.981
    1C        C  423   3.748   4.506   3.983
    1C        C  424   3.540   4.542   4.104
    1C        C  425   3.609   4.541   4.227
    1C        C  426   3.400   4.549   4.354
    1C        C  427   3.541   4.556   4.350
    1C        C  428   3.329   4.542   4.476
    1C        C  429   3.404   4.553   4.595
    1C        C  430   3.194   4.515   4.718
    1C        C  431   3.333   4.545   4.717
    1C        C  432   3.124   4.496   4.841
    1C        C  433   3.201   4.495   4.958
    1C        C  434   4.385   4.120   2.047
    1C        C  435   4.451   3.996   2.052
    1C        C  436   4.299   4.156   2.156
    1C        C  437   4.331   4.093   2.280
    1C        C  438   4.184   4.249   2.398
    1C        C  439   4.283   4.148   2.400
    1C        C  440   4.124   4.291   2.519
    1C        C  441   4.175   4.245   2.642
    1C        C  442   4.003   4.371   2.762
    1C        C  443   4.120   4.292   2.764
    1C        C  444   3.942   4.406   2.884
    1C        C  445   4.005   4.375   3.007
    1C        C  446   3.811   4.466   3.129
    1C        C  447   3.941   4.410   3.128
    1C        C  448   3.744   4.488   3.251
    1C        C  449   3.811   4.463   3.373
    1C        C  450   3.606   4.522   3.496
    1C        C  451   3.745   4.494   3.493
    1C        C  452   3.537   4.532   3.618
    1C        C  453   3.609   4.527   3.740
    1C        C  454   3.395   4.538   3.863
    1C        C  455   3.537   4.537   3.860
    1C        C  456   3.328   4.532   3.987
    1C        C  457   3.399   4.537   4.109
    1C        C  458   3.193   4.500   4.237
    1C        C  459   3.330   4.534   4.232
    1C        C  460   3.124   4.480   4.359
    1C        C  461   3.193   4.506   4.479
    1C        C  462   2.994   4.431   4.600
    1C        C  463   3.120   4.494   4.600
    1C        C  464   2.929   4.403   4.723
    1C        C  465   2.990   4.446   4.844
    1C        C  466   2.799   4.338   4.957
    1C        C  467   2.909   4.424   4.960
    1C        C  468   4.125   4.282   2.037
    1C        C  469   4.186   4.243   2.157
    1C        C  470   4.006   4.366   2.275
    1C        C  471   4.130   4.295   2.277
    1C        C  472   3.938   4.393   2.396
    1C        C  473   4.005   4.367   2.517
    1C        C  474   3.813   4.457   2.641
    1C        C  475   3.945   4.407   2.639
    1C        C  476   3.745   4.483   2.762
    1C        C  477   3.812   4.460   2.884
    1C        C  478   3.605   4.513   3.007
    1C        C  479   3.744   4.485   3.006
    1C        C  480   3.534   4.526   3.129
    1C        C  481   3.606   4.520   3.250
    1C        C  482   3.395   4.529   3.376
    1C        C  483   3.536   4.527   3.373
    1C        C  484   3.324   4.529   3.498
    1C        C  485   3.396   4.535   3.619
    1C        C  486   3.186   4.501   3.746
    1C        C  487   3.324   4.532   3.741
    1C        C  488   3.124   4.474   3.870
    1C        C  489   3.190   4.499   3.993
    1C        C  490   2.998   4.417   4.111
    1C        C  491   3.123   4.482   4.116
    1C        C  492   2.937   4.386   4.234
    1C        C  493   2.995   4.423   4.357
    1C        C  494   2.822   4.303   4.482
    1C        C  495   2.931   4.393   4.480
    1C        C  496   2.767   4.257   4.604
    1C        C  497   2.818   4.314   4.723
    1C        C  498   2.666   4.162   4.847
    1C        C  499   2.753   4.273   4.841
    1C        C  500   2.590   4.120   4.956
    1C        C  501   4.005   4.352   2.040
    1C        C  502   3.812   4.458   2.156
    1C        C  503   3.942   4.402   2.155
    1C        C  504   3.741   4.477   2.276
    1C        C  505   3.807   4.446   2.397
    1C        C  506   3.604   4.505   2.522
    1C        C  507   3.741   4.471   2.520
    1C        C  508   3.533   4.516   2.643
    1C        C  509   3.606   4.512   2.764
    1C        C  510   3.393   4.519   2.887
    1C        C  511   3.534   4.515   2.885
    1C        C  512   3.319   4.518   3.007
    1C        C  513   3.393   4.526   3.127
    1C        C  514   3.188   4.498   3.256
    1C        C  515   3.328   4.521   3.252
    1C        C  516   3.119   4.474   3.377
    1C        C  517   3.185   4.499   3.499
    1C        C  518   2.995   4.417   3.622
    1C        C  519   3.120   4.482   3.623
    1C        C  520   2.939   4.373   3.744
    1C        C  521   2.998   4.412   3.866
    1C        C  522   2.829   4.287   3.994
    1C        C  523   2.938   4.377   3.989
    1C        C  524   2.784   4.235   4.118
    1C        C  525   2.832   4.291   4.238
    1C        C  526   2.700   4.127   4.362
    1C        C  527   2.782   4.243   4.361
    1C        C  528   2.655   4.074   4.484
    1C        C  529   2.684   4.143   4.604
    1C        C  530   2.582   3.960   4.730
    1C        C  531   2.641   4.090   4.728
    1C        C  532   2.539   3.901   4.851
    1C        C  533   2.523   3.996   4.957
    1C        C  534   3.620   4.550   2.039
    1C        C  535   3.752   4.503   2.038
    1C        C  536   3.538   4.532   2.155
    1C        C  537   3.602   4.508   2.280
    1C        C  538   3.390   4.516   2.399
    1C        C  539   3.531   4.516   2.402
    1C        C  540   3.321   4.508   2.522
    1C        C  541   3.392   4.513   2.644
    1C        C  542   3.181   4.486   2.764
    1C        C  543   3.320   4.510   2.766
    1C        C  544   3.116   4.467   2.888
    1C        C  545   3.181   4.486   3.012
    1C        C  546   2.996   4.399   3.131
    1C        C  547   3.117   4.472   3.137
    1C        C  548   2.937   4.366   3.255
    1C        C  549   2.993   4.410   3.378
    1C        C  550   2.830   4.279   3.503
    1C        C  551   2.936   4.371   3.501
    1C        C  552   2.776   4.234   3.626
    1C        C  553   2.831   4.281   3.747
    1C        C  554   2.699   4.120   3.871
    1C        C  555   2.783   4.234   3.872
    1C        C  556   2.663   4.061   3.993
    1C        C  557   2.698   4.123   4.115
    1C        C  558   2.598   3.941   4.243
    1C        C  559   2.664   4.066   4.240
    1C        C  560   2.567   3.879   4.366
    1C        C  561   2.592   3.948   4.487
    1C        C  562   2.529   3.750   4.614
    1C        C  563   2.562   3.887   4.611
    1C        C  564   2.517   3.682   4.737
    1C        C  565   2.519   3.759   4.856
    1C        C  566   2.525   3.550   4.974
    1C        C  567   2.516   3.689   4.977
    1C        C  568   3.326   4.471   2.043
    1C        C  569   3.398   4.509   2.157
    1C        C  570   3.181   4.477   2.278
    1C        C  571   3.320   4.508   2.276
    1C        C  572   3.111   4.460   2.399
    1C        C  573   3.182   4.479   2.519
    1C        C  574   2.986   4.404   2.646
    1C        C  575   3.114   4.464   2.642
    1C        C  576   2.930   4.361   2.768
    1C        C  577   2.990   4.403   2.889
    1C        C  578   2.824   4.270   3.013
    1C        C  579   2.934   4.359   3.011
    1C        C  580   2.778   4.218   3.136
    1C        C  581   2.833   4.270   3.255
    1C        C  582   2.701   4.112   3.384
    1C        C  583   2.787   4.224   3.380
    1C        C  584   2.659   4.057   3.507
    1C        C  585   2.693   4.120   3.629
    1C        C  586   2.596   3.931   3.754
    1C        C  587   2.656   4.059   3.751
    1C        C  588   2.573   3.867   3.878
    1C        C  589   2.605   3.932   3.999
    1C        C  590   2.540   3.733   4.126
    1C        C  591   2.581   3.868   4.123
    1C        C  592   2.519   3.670   4.250
    1C        C  593   2.529   3.743   4.370
    1C        C  594   2.513   3.535   4.496
    1C        C  595   2.516   3.676   4.494
    1C        C  596   2.515   3.465   4.618
    1C        C  597   2.512   3.540   4.738
    1C        C  598   2.532   3.329   4.861
    1C        C  599   2.517   3.469   4.860
    1C        C  600   2.531   3.249   4.976
    1C        C  601   3.193   4.433   2.044
    1C        C  602   2.978   4.394   2.154
    1C        C  603   3.113   4.443   2.158
    1C        C  604   2.924   4.358   2.281
    1C        C  605   2.984   4.398   2.403
    1C        C  606   2.822   4.265   2.529
    1C        C  607   2.923   4.364   2.526
    1C        C  608   2.773   4.214   2.651
    1C        C  609   2.820   4.272   2.771
    1C        C  610   2.684   4.107   2.893
    1C        C  611   2.771   4.219   2.892
    1C        C  612   2.649   4.051   3.018
    1C        C  613   2.688   4.110   3.140
    1C        C  614   2.594   3.924   3.264
    1C        C  615   2.654   4.052   3.265
    1C        C  616   2.572   3.862   3.389
    1C        C  617   2.597   3.930   3.510
    1C        C  618   2.530   3.729   3.634
    1C        C  619   2.569   3.865   3.632
    1C        C  620   2.513   3.664   3.758
    1C        C  621   2.533   3.732   3.880
    1C        C  622   2.509   3.524   4.007
    1C        C  623   2.522   3.664   4.004
    1C        C  624   2.519   3.456   4.131
    1C        C  625   2.517   3.528   4.252
    1C        C  626   2.537   3.321   4.377
    1C        C  627   2.516   3.460   4.376
    1C        C  628   2.557   3.253   4.499
    1C        C  629   2.539   3.326   4.619
    1C        C  630   2.598   3.121   4.741
    1C        C  631   2.553   3.256   4.741
    1C        C  632   2.618   3.049   4.862
    1C        C  633   2.566   3.113   4.979
    1C        C  634   2.777   4.306   2.056
    1C        C  635   2.884   4.396   2.047
    1C        C  636   2.743   4.231   2.170
    1C        C  637   2.811   4.272   2.286
    1C        C  638   2.678   4.107   2.407
    1C        C  639   2.766   4.218   2.409
    1C        C  640   2.638   4.045   2.528
    1C        C  641   2.681   4.107   2.647
    1C        C  642   2.583   3.920   2.775
    1C        C  643   2.649   4.045   2.771
    1C        C  644   2.559   3.856   2.899
    1C        C  645   2.592   3.922   3.019
    1C        C  646   2.525   3.722   3.145
    1C        C  647   2.567   3.857   3.142
    1C        C  648   2.513   3.655   3.269
    1C        C  649   2.531   3.727   3.390
    1C        C  650   2.508   3.516   3.515
    1C        C  651   2.521   3.657   3.512
    1C        C  652   2.510   3.450   3.640
    1C        C  653   2.509   3.522   3.761
    1C        C  654   2.534   3.315   3.887
    1C        C  655   2.509   3.454   3.884
    1C        C  656   2.552   3.247   4.010
    1C        C  657   2.534   3.315   4.132
    1C        C  658   2.599   3.116   4.255
    1C        C  659   2.551   3.249   4.256
    1C        C  660   2.631   3.053   4.377
    1C        C  661   2.603   3.119   4.499
    1C        C  662   2.708   2.935   4.622
    1C        C  663   2.634   3.056   4.621
    1C        C  664   2.745   2.871   4.742
    1C        C  665   2.693   2.927   4.862
    1C        C  666   2.739   2.865   4.979
    1C        C  667   2.687   4.021   2.053
    1C        C  668   2.680   4.105   2.165
    1C        C  669   2.594   3.908   2.288
    1C        C  670   2.648   4.040   2.287
    1C        C  671   2.563   3.845   2.411
    1C        C  672   2.586   3.914   2.532
    1C        C  673   2.510   3.719   2.656
    1C        C  674   2.552   3.853   2.655
    1C        C  675   2.503   3.649   2.779
    1C        C  676   2.525   3.719   2.900
    1C        C  677   2.504   3.511   3.027
    1C        C  678   2.510   3.652   3.024
    1C        C  679   2.508   3.442   3.151
    1C        C  680   2.503   3.515   3.272
    1C        C  681   2.526   3.303   3.399
    1C        C  682   2.505   3.443   3.394
    1C        C  683   2.547   3.240   3.523
    1C        C  684   2.530   3.310   3.645
    1C        C  685   2.601   3.111   3.769
    1C        C  686   2.546   3.241   3.767
    1C        C  687   2.636   3.050   3.891
    1C        C  688   2.602   3.115   4.013
    1C        C  689   2.710   2.932   4.134
    1C        C  690   2.635   3.052   4.135
    1C        C  691   2.754   2.879   4.258
    1C        C  692   2.708   2.935   4.379
    1C        C  693   2.753   2.878   4.501
    1C        C  694   2.634   3.892   2.055
    1C        C  695   2.523   3.703   2.173
    1C        C  696   2.583   3.831   2.170
    1C        C  697   2.505   3.635   2.296
    1C        C  698   2.523   3.709   2.414
    1C        C  699   2.492   3.502   2.538
    1C        C  700   2.498   3.644   2.537
    1C        C  701   2.501   3.437   2.663
    1C        C  702   2.496   3.508   2.785
    1C        C  703   2.519   3.297   2.909
    1C        C  704   2.502   3.437   2.907
    1C        C  705   2.539   3.230   3.032
    1C        C  706   2.530   3.303   3.152
    1C        C  707   2.592   3.103   3.276
    1C        C  708   2.546   3.236   3.276
    1C        C  709   2.625   3.042   3.400
    1C        C  710   2.599   3.108   3.522
    1C        C  711   2.706   2.929   3.646
    1C        C  712   2.631   3.049   3.646
    1C        C  713   2.752   2.876   3.768
    1C        C  714   2.711   2.930   3.892
    1C        C  715   2.754   2.873   4.014
    1C        C  716   2.450   3.501   2.061
    1C        C  717   2.493   3.634   2.055
    1C        C  718   2.467   3.419   2.178
    1C        C  719   2.486   3.494   2.297
    1C        C  720   2.515   3.286   2.423
    1C        C  721   2.489   3.425   2.420
    1C        C  722   2.539   3.224   2.548
    1C        C  723   2.523   3.298   2.667
    1C        C  724   2.590   3.096   2.786
    1C        C  725   2.535   3.226   2.788
    1C        C  726   2.622   3.035   2.910
    1C        C  727   2.591   3.098   3.032
    1C        C  728   2.705   2.922   3.157
    1C        C  729   2.621   3.036   3.155
    1C        C  730   2.751   2.871   3.281
    1C        C  731   2.708   2.928   3.403
    1C        C  732   2.754   2.874   3.525
    1C        C  733   2.492   3.196   2.068
    1C        C  734   2.489   3.278   2.182
    1C        C  735   2.584   3.084   2.302
    1C        C  736   2.521   3.212   2.303
    1C        C  737   2.619   3.023   2.424
    1C        C  738   2.587   3.091   2.544
    1C        C  739   2.698   2.909   2.668
    1C        C  740   2.622   3.028   2.666
    1C        C  741   2.747   2.860   2.791
    1C        C  742   2.702   2.918   2.911
    1C        C  743   2.750   2.869   3.035
    1C        C  744   2.542   3.066   2.070
    1C        C  745   2.683   2.895   2.184
    1C        C  746   2.609   3.015   2.182
    1C        C  747   2.727   2.838   2.305
    1C        C  748   2.689   2.901   2.426
    1C        C  749   2.739   2.849   2.547
    1C        C  750   2.737   2.836   2.068
    1C        C  751   3.665   2.322   1.976
    1C        O  752   3.612   2.207   1.984
    1C        O  753   3.694   2.345   1.841
    1C        C  754   4.632   3.053   1.982
    1C        O  755   4.607   3.028   1.861
    1C        O  756   4.721   2.962   2.040
    1C        C  757   4.436   4.227   1.958
    1C        O  758   4.532   4.300   1.995
    1C        O  759   4.432   4.221   1.819
    1C        C  760   3.601   4.664   1.947
    1C        O  761   3.578   4.778   1.995
    1C        O  762   3.655   4.660   1.818
    1C        C  763   2.861   4.511   1.957
    1C        O  764   2.841   4.486   1.835
    1C        O  765   2.786   4.625   1.991
    1C        C  766   2.324   3.477   1.986
    1C        O  767   2.327   3.473   1.861
    1C        O  768   2.204   3.537   2.028
    1C        C  769   4.701   3.593   5.045
    1C        O  770   4.705   3.557   5.165
    1C        O  771   4.827   3.630   4.996
    1C        C  772   4.269   4.455   5.035
    1C        O  773   4.287   4.394   5.143
    1C        O  774   4.352   4.561   4.994
    1C        C  775   4.144   2.516   5.073
    1C        O  776   4.252   2.461   5.039
    1C        O  777   4.123   2.500   5.211
    1C        C  778   2.880   4.531   5.059
    1C        O  779   2.887   4.651   5.021
    1C        O  780   2.913   4.520   5.194
    1C        C  781   2.488   3.051   5.089
    1C        O  782   2.375   2.997   5.076
    1C        O  783   2.513   3.063   5.225
    1C        C  784   2.417   4.000   5.059
    1C        O  785   2.305   4.054   5.040
    1C        O  786   2.423   3.936   5.184
    1C        C  787   2.944   2.428   1.996
    1C        O  788   2.970   2.424   1.873
    1C        O  789   2.869   2.323   2.048
    1C        C  790   3.176   2.351   5.031
    1C        O  791   3.118   2.261   4.965
    1C        O  792   3.164   2.343   5.171
    1C        H  793   4.308   2.995   5.073
    1C        H  794   4.131   2.847   5.050
    1C        H  795   4.494   3.130   5.055
    1C        H  796   4.587   3.336   5.041
    1C        H  797   4.547   3.806   5.052
    1C        H  798   4.450   4.002   5.050
    1C        H  799   4.265   4.164   5.047
    1C        H  800   3.994   4.478   5.036
    1C        H  801   3.824   4.593   5.037
    1C        H  802   3.593   4.658   5.019
    1C        H  803   3.401   4.475   5.032
    1C        H  804   3.166   4.438   5.042
    1C        H  805   3.881   2.500   5.070
    1C        H  806   3.668   2.429   5.065
    1C        H  807   2.997   2.549   5.063
    1C        H  808   3.443   2.469   5.077
    1C        H  809   2.854   2.724   5.079
    1C        H  810   2.670   2.857   5.061
    1C        H  811   2.550   3.293   5.071
    1C        H  812   2.540   3.507   5.071
    1C        H  813   2.455   3.734   5.053
    1C        H  814   2.579   4.188   5.038
    1C        H  815   2.757   4.316   5.053
    1C        H  816   2.700   2.863   1.972
    1C        H  817   2.880   2.704   1.981
    1C        H  818   3.212   2.424   1.994
    1C        H  819   3.423   2.384   1.988
    1C        H  820   3.828   2.576   1.987
    1C        H  821   4.065   2.602   1.968
    1C        H  822   4.244   2.709   1.975
    1C        H  823   4.356   2.934   1.972
    1C        H  824   4.581   3.308   1.970
    1C        H  825   4.507   3.517   1.952
    1C        H  826   4.566   3.740   1.972
    1C        H  827   3.817   4.532   1.958
    1C        H  828   3.948   4.346   1.950
    1C        H  829   4.145   4.229   1.946
    1C        H  830   4.450   3.950   1.955
    1C        H  831   2.629   3.842   1.960
    1C        H  832   2.666   4.065   1.957
    1C        H  833   2.706   4.305   1.976
    1C        H  834   3.378   4.430   1.959
    1C        H  835   3.146   4.407   1.952
    1C        H  836   2.508   3.006   1.988
    1C        H  837   2.448   3.229   1.976
    1C        H  838   2.541   3.660   1.963
    2V3OU   H29  839   2.804   3.542   1.089
    2V3OU   C27  840   2.779   3.498   1.189
    2V3OU   H27  841   2.720   3.570   1.252
    2V3OU   H28  842   2.724   3.401   1.174
    2V3OU   O11  843   2.902   3.480   1.259
    2V3OU   C15  844   2.921   3.389   1.362
    2V3OU   C13  845   3.047   3.372   1.421
    2V3OU   C14  846   3.071   3.266   1.510
    2V3OU   C16  847   2.966   3.188   1.556
    2V3OU    H6  848   2.987   3.095   1.611
    2V3OU   C12  849   3.209   3.225   1.543
    2V3OU    O2  850   3.238   3.124   1.611
    2V3OU   C10  851   3.323   3.304   1.495
    2V3OU    C8  852   3.456   3.265   1.514
    2V3OU   O10  853   3.487   3.152   1.582
    2V3OU   H26  854   3.404   3.110   1.611
    2V3OU    C6  855   3.563   3.349   1.470
    2V3OU    C5  856   3.536   3.466   1.399
    2V3OU    C4  857   3.700   3.293   1.459
    2V3OU    H4  858   3.723   3.224   1.545
    2V3OU    H5  859   3.706   3.225   1.369
    2V3OU    C2  860   3.812   3.398   1.458
    2V3OU    O6  861   3.808   3.477   1.578
    2V3OU   H21  862   3.763   3.560   1.555
    2V3OU    C3  863   3.780   3.491   1.341
    2V3OU    H2  864   3.857   3.572   1.337
    2V3OU    H3  865   3.780   3.433   1.245
    2V3OU   C25  866   3.949   3.332   1.446
    2V3OU    O7  867   3.996   3.298   1.338
    2V3OU   C26  868   4.030   3.291   1.568
    2V3OU   H22  869   4.064   3.380   1.626
    2V3OU   H23  870   4.120   3.233   1.535
    2V3OU    O8  871   3.963   3.205   1.658
    2V3OU   H24  872   3.918   3.258   1.725
    2V3OU    C1  873   3.646   3.559   1.358
    2V3OU    H1  874   3.622   3.614   1.262
    2V3OU    O3  875   3.661   3.655   1.464
    2V3OU   C19  876   3.620   3.791   1.453
    2V3OU    H9  877   3.522   3.805   1.398
    2V3OU    O4  878   3.714   3.846   1.363
    2V3OU   C20  879   3.842   3.873   1.421
    2V3OU   H10  880   3.890   3.772   1.439
    2V3OU   C24  881   3.603   3.856   1.591
    2V3OU   H16  882   3.532   3.789   1.646
    2V3OU   H17  883   3.559   3.959   1.584
    2V3OU   C23  884   3.744   3.872   1.647
    2V3OU   H15  885   3.787   3.768   1.664
    2V3OU    N1  886   3.737   3.955   1.766
    2V3OU   H19  887   3.805   3.922   1.831
    2V3OU   H20  888   3.650   3.939   1.814
    2V3OU   C21  889   3.845   3.948   1.554
    2V3OU   H11  890   3.948   3.926   1.596
    2V3OU    O5  891   3.825   4.088   1.563
    2V3OU   H18  892   3.776   4.104   1.645
    2V3OU   C22  893   3.910   3.948   1.307
    2V3OU   H12  894   3.866   4.051   1.299
    2V3OU   H13  895   3.900   3.890   1.212
    2V3OU   H14  896   4.019   3.957   1.328
    2V3OU   C11  897   3.158   3.463   1.389
    2V3OU    O1  898   3.136   3.581   1.354
    2V3OU    C9  899   3.296   3.424   1.424
    2V3OU    C7  900   3.400   3.500   1.372
    2V3OU    O9  901   3.390   3.620   1.303
    2V3OU   H25  902   3.294   3.631   1.296
    2V3OU   C17  903   2.815   3.308   1.408
    2V3OU    H7  904   2.711   3.333   1.388
    2V3OU   C18  905   2.838   3.211   1.505
    2V3OU    H8  906   2.748   3.152   1.526
    3SOL     OW  907   0.875   3.148   0.746
    3SOL    HW1  908   0.778   3.170   0.738
    3SOL    HW2  909   0.919   3.159   0.657
    4SOL     OW  910   5.864   0.521   1.823
    4SOL    HW1  911   5.926   0.562   1.890
    4SOL    HW2  912   5.771   0.554   1.840
    5SOL     OW  913   3.509   3.090   0.684
    5SOL    HW1  914   3.607   3.110   0.676
    5SOL    HW2  915   3.467   3.153   0.749
    6SOL     OW  916   2.827   2.052   1.373
    6SOL    HW1  917   2.743   2.011   1.408
    6SOL    HW2  918   2.879   1.982   1.322
    7SOL     OW  919   6.063   0.573   1.590
    7SOL    HW1  920   6.061   0.507   1.665
    7SOL    HW2  921   5.989   0.640   1.603
    8SOL     OW  922   2.716   1.737   4.082
    8SOL    HW1  923   2.755   1.824   4.111
    8SOL    HW2  924   2.616   1.742   4.085
    9SOL     OW  925   0.809   3.717   5.702
    9SOL    HW1  926   0.884   3.757   5.753
    9SOL    HW2  927   0.797   3.765   5.615
   10SOL     OW  928   0.181   4.254   0.208
   10SOL    HW1  929   0.133   4.192   0.145
   10SOL    HW2  930   0.279   4.234   0.205
   11SOL     OW  931   4.102   6.538   6.640
   11SOL    HW1  932   4.116   6.441   6.620
   11SOL    HW2  933   4.136   6.559   6.732
   12SOL     OW  934   5.858   6.045   2.337
   12SOL    HW1  935   5.913   6.125   2.316
   12SOL    HW2  936   5.824   6.050   2.431
   13SOL     OW  937   2.002   0.171   3.045
   13SOL    HW1  938   2.014   0.218   3.132
   13SOL    HW2  939   1.993   0.073   3.061
   14SOL     OW  940   2.920   6.569   1.764
   14SOL    HW1  941   2.821   6.576   1.768
   14SOL    HW2  942   2.955   6.531   1.850
   15SOL     OW  943   1.603   6.499   6.234
   15SOL    HW1  944   1.529   6.431   6.236
   15SOL    HW2  945   1.673   6.474   6.301
   16SOL     OW  946   6.248   1.571   6.250
   16SOL    HW1  947   6.339   1.571   6.210
   16SOL    HW2  948   6.231   1.483   6.295
   17SOL     OW  949   5.007   6.023   3.752
   17SOL    HW1  950   4.995   6.083   3.831
   17SOL    HW2  951   5.037   6.077   3.674
   18SOL     OW  952   1.781   1.559   6.596
   18SOL    HW1  953   1.790   1.651   6.558
   18SOL    HW2  954   1.700   1.554   6.654
   19SOL     OW  955   0.619   7.007   1.572
   19SOL    HW1  956   0.529   0.031   1.578
   19SOL    HW2  957   0.690   0.055   1.584
   20SOL     OW  958   3.132   1.329   4.390
   20SOL    HW1  959   3.056   1.266   4.407
   20SOL    HW2  960   3.137   1.350   4.293
   21SOL     OW  961   2.945   2.535   0.942
   21SOL    HW1  962   2.913   2.471   0.872
   21SOL    HW2  963   2.998   2.607   0.899
   22SOL     OW  964   1.133   0.709   5.692
   22SOL    HW1  965   1.198   0.781   5.668
   22SOL    HW2  966   1.040   0.740   5.671
   23SOL     OW  967   4.149   6.116   4.400
   23SOL    HW1  968   4.121   6.047   4.333
   23SOL    HW2  969   4.107   6.204   4.376
   24SOL     OW  970   4.169   1.582   4.341
   24SOL    HW1  971   4.220   1.507   4.383
   24SOL    HW2  972   4.153   1.653   4.409
   25SOL     OW  973   2.982   5.016   1.125
   25SOL    HW1  974   3.075   5.022   1.088
   25SOL    HW2  975   2.976   4.937   1.186
   26SOL     OW  976   6.179   1.676   2.606
   26SOL    HW1  977   6.096   1.661   2.553
   26SOL    HW2  978   6.258   1.681   2.544
   27SOL     OW  979   6.249   6.046   2.025
   27SOL    HW1  980   6.203   5.972   2.074
   27SOL    HW2  981   6.311   6.007   1.957
   28SOL     OW  982   3.200   0.470   0.453
   28SOL    HW1  983   3.190   0.372   0.469
   28SOL    HW2  984   3.194   0.489   0.355
   29SOL     OW  985   4.160   2.135   1.849
   29SOL    HW1  986   4.163   2.233   1.830
   29SOL    HW2  987   4.225   2.088   1.789
   30SOL     OW  988   3.779   1.029   4.758
   30SOL    HW1  989   3.802   1.117   4.716
   30SOL    HW2  990   3.799   1.033   4.856
   31SOL     OW  991   0.610   0.824   5.272
   31SOL    HW1  992   0.710   0.812   5.269
   31SOL    HW2  993   0.566   0.743   5.233
   32SOL     OW  994   6.930   2.226   1.794
   32SOL    HW1  995   6.876   2.309   1.780
   32SOL    HW2  996   6.941   2.178   1.706
   33SOL     OW  997   1.248   1.824   5.282
   33SOL    HW1  998   1.333   1.817   5.230
   33SOL    HW2  999   1.244   1.750   5.350
   34SOL     OW 1000   1.076   0.396   4.806
   34SOL    HW1 1001   1.169   0.395   4.768
   34SOL    HW2 1002   1.012   0.358   4.739
   35SOL     OW 1003   4.360   1.655   6.290
   35SOL    HW1 1004   4.299   1.707   6.349
   35SOL    HW2 1005   4.414   1.591   6.345
   36SOL     OW 1006   1.756   1.290   5.772
   36SOL    HW1 1007   1.704   1.374   5.762
   36SOL    HW2 1008   1.814   1.277   5.691
   37SOL     OW 1009   2.370   6.550   1.264
   37SOL    HW1 1010   2.436   6.525   1.194
   37SOL    HW2 1011   2.369   6.481   1.336
   38SOL     OW 1012   0.252   6.103   2.749
   38SOL    HW1 1013   0.350   6.097   2.729
   38SOL    HW2 1014   0.205   6.148   2.673
   39SOL     OW 1015   6.855   3.410   5.968
   39SOL    HW1 1016   6.931   3.383   5.909
   39SOL    HW2 1017   6.769   3.399   5.918
   40SOL     OW 1018   6.750   0.627   1.609
   40SOL    HW1 1019   6.748   0.649   1.706
   40SOL    HW2 1020   6.724   0.708   1.556
   41SOL     OW 1021   1.153   0.094   5.493
   41SOL    HW1 1022   1.197   0.026   5.434
   41SOL    HW2 1023   1.152   0.182   5.446
   42SOL     OW 1024   3.508   0.861   0.316
   42SOL    HW1 1025   3.578   0.817   0.371
   42SOL    HW2 1026   3.424   0.871   0.370
   43SOL     OW 1027   5.475   5.509   5.346
   43SOL    HW1 1028   5.406   5.442   5.317
   43SOL    HW2 1029   5.436   5.601   5.339
   44SOL     OW 1030   0.713   3.445   6.494
   44SOL    HW1 1031   0.615   3.433   6.483
   44SOL    HW2 1032   0.757   3.451   6.404
   45SOL     OW 1033   3.305   0.310   1.905
   45SOL    HW1 1034   3.290   0.362   1.989
   45SOL    HW2 1035   3.236   0.238   1.898
   46SOL     OW 1036   1.474   4.414   3.822
   46SOL    HW1 1037   1.454   4.424   3.724
   46SOL    HW2 1038   1.549   4.475   3.847
   47SOL     OW 1039   6.315   4.411   3.461
   47SOL    HW1 1040   6.239   4.356   3.427
   47SOL    HW2 1041   6.301   4.507   3.436
   48SOL     OW 1042   0.766   2.040   5.539
   48SOL    HW1 1043   0.810   1.994   5.461
   48SOL    HW2 1044   0.827   2.036   5.618
   49SOL     OW 1045   5.089   2.308   0.631
   49SOL    HW1 1046   5.015   2.375   0.624
   49SOL    HW2 1047   5.154   2.322   0.557
   50SOL     OW 1048   6.540   3.804   4.483
   50SOL    HW1 1049   6.540   3.904   4.484
   50SOL    HW2 1050   6.625   3.771   4.441
   51SOL     OW 1051   3.373   5.479   2.694
   51SOL    HW1 1052   3.385   5.549   2.623
   51SOL    HW2 1053   3.276   5.474   2.718
   52SOL     OW 1054   1.317   2.417   1.585
   52SOL    HW1 1055   1.400   2.365   1.569
   52SOL    HW2 1056   1.248   2.357   1.626
   53SOL     OW 1057   5.134   6.832   3.998
   53SOL    HW1 1058   5.182   6.916   4.024
   53SOL    HW2 1059   5.197   6.755   4.003
   54SOL     OW 1060   4.189   5.546   5.967
   54SOL    HW1 1061   4.173   5.645   5.965
   54SOL    HW2 1062   4.179   5.509   5.874
   55SOL     OW 1063   4.030   2.370   0.374
   55SOL    HW1 1064   3.932   2.362   0.357
   55SOL    HW2 1065   4.046   2.388   0.472
   56SOL     OW 1066   0.721   6.929   1.860
   56SOL    HW1 1067   0.820   6.946   1.861
   56SOL    HW2 1068   0.676   6.998   1.804
   57SOL     OW 1069   5.702   0.535   0.591
   57SOL    HW1 1070   5.754   0.568   0.670
   57SOL    HW2 1071   5.752   0.460   0.547
   58SOL     OW 1072   6.931   6.490   6.845
   58SOL    HW1 1073   6.871   6.570   6.834
   58SOL    HW2 1074   0.000   6.510   6.805
   59SOL     OW 1075   1.370   0.097   4.741
   59SOL    HW1 1076   1.314   0.126   4.819
   59SOL    HW2 1077   1.368   7.017   4.735
   60SOL     OW 1078   4.757   6.654   4.892
   60SOL    HW1 1079   4.755   6.724   4.820
   60SOL    HW2 1080   4.850   6.618   4.900
   61SOL     OW 1081   3.951   6.968   4.708
   61SOL    HW1 1082   3.886   6.919   4.766
   61SOL    HW2 1083   3.941   6.939   4.613
   62SOL     OW 1084   2.650   1.510   4.666
   62SOL    HW1 1085   2.586   1.582   4.693
   62SOL    HW2 1086   2.600   1.434   4.626
   63SOL     OW 1087   6.456   3.559   3.404
   63SOL    HW1 1088   6.508   3.542   3.488
   63SOL    HW2 1089   6.505   3.521   3.326
   64SOL     OW 1090   6.807   2.723   5.738
   64SOL    HW1 1091   6.850   2.633   5.734
   64SOL    HW2 1092   6.711   2.712   5.764
   65SOL     OW 1093   0.034   4.626   6.226
   65SOL    HW1 1094   0.078   4.550   6.178
   65SOL    HW2 1095   0.069   4.631   6.320
   66SOL     OW 1096   2.823   1.254   0.607
   66SOL    HW1 1097   2.789   1.181   0.668
   66SOL    HW2 1098   2.835   1.218   0.515
   67SOL     OW 1099   5.427   6.027   4.228
   67SOL    HW1 1100   5.441   5.942   4.278
   67SOL    HW2 1101   5.506   6.045   4.169
   68SOL     OW 1102   5.630   2.463   6.175
   68SOL    HW1 1103   5.689   2.519   6.232
   68SOL    HW2 1104   5.666   2.462   6.081
   69SOL     OW 1105   2.722   3.275   6.054
   69SOL    HW1 1106   2.726   3.371   6.082
   69SOL    HW2 1107   2.716   3.217   6.135
   70SOL     OW 1108   0.296   5.028   2.079
   70SOL    HW1 1109   0.296   5.128   2.080
   70SOL    HW2 1110   0.384   4.995   2.114
   71SOL     OW 1111   1.535   2.475   3.206
   71SOL    HW1 1112   1.538   2.540   3.130
   71SOL    HW2 1113   1.477   2.398   3.181
   72SOL     OW 1114   3.312   5.638   4.259
   72SOL    HW1 1115   3.301   5.541   4.234
   72SOL    HW2 1116   3.269   5.695   4.189
   73SOL     OW 1117   4.473   2.727   6.904
   73SOL    HW1 1118   4.454   2.632   6.880
   73SOL    HW2 1119   4.569   2.747   6.885
   74SOL     OW 1120   4.950   5.891   5.967
   74SOL    HW1 1121   4.956   5.808   5.911
   74SOL    HW2 1122   4.987   5.873   6.058
   75SOL     OW 1123   4.025   5.225   5.739
   75SOL    HW1 1124   3.959   5.248   5.811
   75SOL    HW2 1125   4.111   5.197   5.780
   76SOL     OW 1126   2.458   2.782   1.270
   76SOL    HW1 1127   2.380   2.844   1.274
   76SOL    HW2 1128   2.542   2.835   1.258
   77SOL     OW 1129   5.708   4.945   6.490
   77SOL    HW1 1130   5.657   5.023   6.527
   77SOL    HW2 1131   5.777   4.916   6.557
   78SOL     OW 1132   6.215   6.685   6.155
   78SOL    HW1 1133   6.151   6.761   6.171
   78SOL    HW2 1134   6.214   6.624   6.234
   79SOL     OW 1135   3.123   0.314   6.894
   79SOL    HW1 1136   3.123   0.302   6.993
   79SOL    HW2 1137   3.031   0.343   6.865
   80SOL     OW 1138   0.453   1.522   4.326
   80SOL    HW1 1139   0.380   1.494   4.264
   80SOL    HW2 1140   0.480   1.444   4.383
   81SOL     OW 1141   1.171   0.297   3.667
   81SOL    HW1 1142   1.143   0.235   3.593
   81SOL    HW2 1143   1.090   0.326   3.718
   82SOL     OW 1144   0.272   4.445   5.233
   82SOL    HW1 1145   0.290   4.373   5.300
   82SOL    HW2 1146   0.210   4.512   5.273
   83SOL     OW 1147   0.051   6.801   6.874
   83SOL    HW1 1148   6.983   6.752   6.870
   83SOL    HW2 1149   0.080   6.825   6.782
   84SOL     OW 1150   6.104   3.951   1.607
   84SOL    HW1 1151   6.025   3.989   1.559
   84SOL    HW2 1152   6.134   3.867   1.563
   85SOL     OW 1153   0.193   2.880   5.665
   85SOL    HW1 1154   0.116   2.923   5.712
   85SOL    HW2 1155   0.212   2.928   5.580
   86SOL     OW 1156   1.202   0.970   5.778
   86SOL    HW1 1157   1.129   0.994   5.842
   86SOL    HW2 1158   1.197   1.029   5.698
   87SOL     OW 1159   4.314   0.934   1.660
   87SOL    HW1 1160   4.235   0.979   1.617
   87SOL    HW2 1161   4.380   0.908   1.589
   88SOL     OW 1162   5.158   0.263   0.778
   88SOL    HW1 1163   5.061   0.266   0.800
   88SOL    HW2 1164   5.200   0.184   0.824
   89SOL     OW 1165   1.927   2.094   5.686
   89SOL    HW1 1166   1.850   2.136   5.639
   89SOL    HW2 1167   1.970   2.162   5.745
   90SOL     OW 1168   6.401   6.339   3.359
   90SOL    HW1 1169   6.449   6.407   3.414
   90SOL    HW2 1170   6.442   6.249   3.375
   91SOL     OW 1171   4.891   4.757   4.923
   91SOL    HW1 1172   4.852   4.673   4.959
   91SOL    HW2 1173   4.894   4.752   4.823
   92SOL     OW 1174   3.294   6.195   0.901
   92SOL    HW1 1175   3.267   6.289   0.918
   92SOL    HW2 1176   3.387   6.193   0.865
   93SOL     OW 1177   3.796   5.305   5.856
   93SOL    HW1 1178   3.780   5.237   5.928
   93SOL    HW2 1179   3.776   5.264   5.767
   94SOL     OW 1180   2.357   5.984   0.640
   94SOL    HW1 1181   2.418   5.920   0.685
   94SOL    HW2 1182   2.398   6.015   0.554
   95SOL     OW 1183   6.613   0.526   4.819
   95SOL    HW1 1184   6.576   0.582   4.744
   95SOL    HW2 1185   6.619   0.581   4.902
   96SOL     OW 1186   1.581   0.279   4.903
   96SOL    HW1 1187   1.490   0.275   4.862
   96SOL    HW2 1188   1.574   0.258   5.000
   97SOL     OW 1189   6.109   3.394   5.343
   97SOL    HW1 1190   6.040   3.354   5.403
   97SOL    HW2 1191   6.200   3.368   5.376
   98SOL     OW 1192   5.857   2.614   6.250
   98SOL    HW1 1193   5.927   2.619   6.179
   98SOL    HW2 1194   5.898   2.584   6.336
   99SOL     OW 1195   4.308   2.130   1.193
   99SOL    HW1 1196   4.242   2.114   1.267
   99SOL    HW2 1197   4.317   2.047   1.139
  100SOL     OW 1198   6.452   5.347   6.046
  100SOL    HW1 1199   6.430   5.356   5.949
  100SOL    HW2 1200   6.540   5.389   6.064
  101SOL     OW 1201   0.791   6.385   3.642
  101SOL    HW1 1202   0.860   6.452   3.612
  101SOL    HW2 1203   0.829   6.330   3.716
  102SOL     OW 1204   4.949   7.012   3.585
  102SOL    HW1 1205   4.933   0.080   3.630
  102SOL    HW2 1206   4.901   7.010   3.497
  103SOL     OW 1207   3.772   1.953   1.254
  103SOL    HW1 1208   3.719   2.038   1.257
  103SOL    HW2 1209   3.751   1.898   1.334
  104SOL     OW 1210   0.095   5.803   1.828
  104SOL    HW1 1211   0.015   5.857   1.854
  104SOL    HW2 1212   0.158   5.799   1.905
  105SOL     OW 1213   4.977   1.145   5.268
  105SOL    HW1 1214   4.922   1.178   5.345
  105SOL    HW2 1215   5.040   1.074   5.300
  106SOL     OW 1216   2.949   6.231   6.886
  106SOL    HW1 1217   2.981   6.209   6.978
  106SOL    HW2 1218   2.855   6.264   6.890
  107SOL     OW 1219   2.318   3.534   1.331
  107SOL    HW1 1220   2.263   3.567   1.408
  107SOL    HW2 1221   2.402   3.588   1.325
  108SOL     OW 1222   5.013   4.355   5.677
  108SOL    HW1 1223   4.953   4.342   5.756
  108SOL    HW2 1224   5.097   4.302   5.689
  109SOL     OW 1225   6.411   1.003   1.126
  109SOL    HW1 1226   6.320   1.022   1.089
  109SOL    HW2 1227   6.418   1.040   1.218
  110SOL     OW 1228   3.996   5.540   5.397
  110SOL    HW1 1229   3.919   5.587   5.440
  110SOL    HW2 1230   4.081   5.579   5.430
  111SOL     OW 1231   3.960   1.024   3.280
  111SOL    HW1 1232   3.976   0.948   3.216
  111SOL    HW2 1233   3.909   0.990   3.359
  112SOL     OW 1234   0.552   0.548   6.274
  112SOL    HW1 1235   0.468   0.525   6.224
  112SOL    HW2 1236   0.611   0.603   6.215
  113SOL     OW 1237   0.291   5.284   3.868
  113SOL    HW1 1238   0.278   5.366   3.811
  113SOL    HW2 1239   0.258   5.204   3.819
  114SOL     OW 1240   0.548   6.668   0.013
  114SOL    HW1 1241   0.524   6.588   0.067
  114SOL    HW2 1242   0.647   6.679   0.012
  115SOL     OW 1243   5.063   1.234   4.995
  115SOL    HW1 1244   5.054   1.205   5.090
  115SOL    HW2 1245   5.149   1.282   4.983
  116SOL     OW 1246   6.388   4.519   2.401
  116SOL    HW1 1247   6.361   4.580   2.476
  116SOL    HW2 1248   6.342   4.546   2.317
  117SOL     OW 1249   1.176   0.167   6.690
  117SOL    HW1 1250   1.247   0.099   6.709
  117SOL    HW2 1251   1.143   0.205   6.777
  118SOL     OW 1252   1.283   0.625   2.368
  118SOL    HW1 1253   1.242   0.613   2.458
  118SOL    HW2 1254   1.221   0.588   2.298
  119SOL     OW 1255   6.928   3.012   6.230
  119SOL    HW1 1256   6.839   2.967   6.239
  119SOL    HW2 1257   6.928   3.097   6.284
  120SOL     OW 1258   5.736   6.488   1.333
  120SOL    HW1 1259   5.755   6.494   1.235
  120SOL    HW2 1260   5.790   6.415   1.374
  121SOL     OW 1261   2.686   3.218   5.765
  121SOL    HW1 1262   2.701   3.315   5.749
  121SOL    HW2 1263   2.690   3.200   5.863
  122SOL     OW 1264   0.498   3.217   4.557
  122SOL    HW1 1265   0.514   3.183   4.650
  122SOL    HW2 1266   0.407   3.258   4.552
  123SOL     OW 1267   1.031   1.967   1.700
  123SOL    HW1 1268   1.103   1.909   1.738
  123SOL    HW2 1269   1.005   1.934   1.610
  124SOL     OW 1270   5.033   2.821   1.041
  124SOL    HW1 1271   5.106   2.754   1.038
  124SOL    HW2 1272   5.071   2.913   1.032
  125SOL     OW 1273   2.092   3.336   1.820
  125SOL    HW1 1274   2.157   3.397   1.865
  125SOL    HW2 1275   2.102   3.243   1.858
  126SOL     OW 1276   3.163   4.665   1.688
  126SOL    HW1 1277   3.095   4.677   1.760
  126SOL    HW2 1278   3.197   4.754   1.659
  127SOL     OW 1279   0.526   6.139   6.052
  127SOL    HW1 1280   0.551   6.223   6.006
  127SOL    HW2 1281   0.447   6.097   6.007
  128SOL     OW 1282   4.475   2.577   1.742
  128SOL    HW1 1283   4.426   2.604   1.659
  128SOL    HW2 1284   4.551   2.640   1.758
  129SOL     OW 1285   2.734   3.839   6.556
  129SOL    HW1 1286   2.774   3.753   6.589
  129SOL    HW2 1287   2.805   3.893   6.511
  130SOL     OW 1288   1.470   2.052   4.912
  130SOL    HW1 1289   1.428   2.073   4.824
  130SOL    HW2 1290   1.419   2.097   4.985
  131SOL     OW 1291   5.134   1.488   2.543
  131SOL    HW1 1292   5.107   1.392   2.533
  131SOL    HW2 1293   5.231   1.498   2.519
  132SOL     OW 1294   0.582   2.475   0.628
  132SOL    HW1 1295   0.626   2.548   0.574
  132SOL    HW2 1296   0.485   2.472   0.607
  133SOL     OW 1297   6.485   4.961   2.252
  133SOL    HW1 1298   6.461   5.010   2.168
  133SOL    HW2 1299   6.485   4.863   2.234
  134SOL     OW 1300   0.405   3.443   2.745
  134SOL    HW1 1301   0.312   3.473   2.722
  134SOL    HW2 1302   0.407   3.406   2.838
  135SOL     OW 1303   4.984   1.573   4.288
  135SOL    HW1 1304   4.944   1.598   4.199
  135SOL    HW2 1305   4.990   1.474   4.295
  136SOL     OW 1306   5.892   4.665   5.354
  136SOL    HW1 1307   5.897   4.741   5.289
  136SOL    HW2 1308   5.799   4.629   5.358
  137SOL     OW 1309   3.972   0.123   5.640
  137SOL    HW1 1310   3.950   0.219   5.627
  137SOL    HW2 1311   3.888   0.069   5.641
  138SOL     OW 1312   6.813   5.100   4.856
  138SOL    HW1 1313   6.814   5.088   4.756
  138SOL    HW2 1314   6.851   5.018   4.899
  139SOL     OW 1315   3.816   5.339   5.347
  139SOL    HW1 1316   3.764   5.339   5.261
  139SOL    HW2 1317   3.875   5.420   5.350
  140SOL     OW 1318   6.037   4.128   4.868
  140SOL    HW1 1319   6.134   4.113   4.886
  140SOL    HW2 1320   6.013   4.093   4.777
  141SOL     OW 1321   1.382   1.987   3.692
  141SOL    HW1 1322   1.296   2.003   3.644
  141SOL    HW2 1323   1.365   1.928   3.771
  142SOL     OW 1324   1.642   5.489   1.576
  142SOL    HW1 1325   1.556   5.538   1.591
  142SOL    HW2 1326   1.677   5.513   1.485
  143SOL     OW 1327   5.714   4.164   1.964
  143SOL    HW1 1328   5.648   4.090   1.949
  143SOL    HW2 1329   5.801   4.125   1.994
  144SOL     OW 1330   2.700   6.840   0.152
  144SOL    HW1 1331   2.754   6.923   0.141
  144SOL    HW2 1332   2.640   6.828   0.073
  145SOL     OW 1333   6.999   5.806   0.720
  145SOL    HW1 1334   6.992   5.752   0.636
  145SOL    HW2 1335   6.915   5.859   0.733
  146SOL     OW 1336   6.010   5.071   0.656
  146SOL    HW1 1337   6.051   5.131   0.726
  146SOL    HW2 1338   5.973   4.989   0.700
  147SOL     OW 1339   6.368   2.075   0.974
  147SOL    HW1 1340   6.288   2.015   0.979
  147SOL    HW2 1341   6.341   2.165   0.941
  148SOL     OW 1342   1.215   5.262   5.706
  148SOL    HW1 1343   1.197   5.264   5.607
  148SOL    HW2 1344   1.308   5.229   5.722
  149SOL     OW 1345   3.131   0.957   5.462
  149SOL    HW1 1346   3.068   0.982   5.536
  149SOL    HW2 1347   3.090   0.886   5.405
  150SOL     OW 1348   0.074   5.317   6.474
  150SOL    HW1 1349   6.995   5.330   6.487
  150SOL    HW2 1350   0.123   5.392   6.518
  151SOL     OW 1351   4.154   1.457   1.573
  151SOL    HW1 1352   4.209   1.478   1.654
  151SOL    HW2 1353   4.084   1.528   1.562
  152SOL     OW 1354   3.579   1.229   4.384
  152SOL    HW1 1355   3.612   1.286   4.309
  152SOL    HW2 1356   3.537   1.146   4.348
  153SOL     OW 1357   2.228   0.930   3.333
  153SOL    HW1 1358   2.283   0.910   3.252
  153SOL    HW2 1359   2.146   0.980   3.306
  154SOL     OW 1360   6.943   2.206   2.644
  154SOL    HW1 1361   6.872   2.138   2.662
  154SOL    HW2 1362   7.006   2.172   2.575
  155SOL     OW 1363   0.477   0.707   3.376
  155SOL    HW1 1364   0.432   0.797   3.371
  155SOL    HW2 1365   0.407   0.636   3.380
  156SOL     OW 1366   6.586   2.124   1.132
  156SOL    HW1 1367   6.506   2.181   1.113
  156SOL    HW2 1368   6.616   2.079   1.048
  157SOL     OW 1369   5.561   3.586   2.755
  157SOL    HW1 1370   5.546   3.651   2.680
  157SOL    HW2 1371   5.476   3.538   2.775
  158SOL     OW 1372   1.783   1.466   3.212
  158SOL    HW1 1373   1.783   1.368   3.232
  158SOL    HW2 1374   1.757   1.517   3.294
  159SOL     OW 1375   5.221   3.996   1.930
  159SOL    HW1 1376   5.228   3.943   1.846
  159SOL    HW2 1377   5.136   4.050   1.928
  160SOL     OW 1378   6.661   4.315   5.840
  160SOL    HW1 1379   6.729   4.244   5.856
  160SOL    HW2 1380   6.666   4.345   5.744
  161SOL     OW 1381   3.200   4.854   4.804
  161SOL    HW1 1382   3.224   4.759   4.822
  161SOL    HW2 1383   3.189   4.903   4.890
  162SOL     OW 1384   4.369   5.982   1.466
  162SOL    HW1 1385   4.405   5.893   1.492
  162SOL    HW2 1386   4.402   6.052   1.529
  163SOL     OW 1387   4.958   0.920   2.109
  163SOL    HW1 1388   4.953   0.964   2.199
  163SOL    HW2 1389   4.897   0.968   2.046
  164SOL     OW 1390   5.683   3.174   1.307
  164SOL    HW1 1391   5.600   3.185   1.362
  164SOL    HW2 1392   5.717   3.265   1.280
  165SOL     OW 1393   5.201   4.111   6.690
  165SOL    HW1 1394   5.214   4.175   6.613
  165SOL    HW2 1395   5.146   4.033   6.659
  166SOL     OW 1396   1.075   0.624   1.816
  166SOL    HW1 1397   1.096   0.708   1.766
  166SOL    HW2 1398   0.989   0.586   1.782
  167SOL     OW 1399   6.633   2.978   0.472
  167SOL    HW1 1400   6.713   3.011   0.421
  167SOL    HW2 1401   6.563   3.049   0.473
  168SOL     OW 1402   2.113   5.609   0.980
  168SOL    HW1 1403   2.142   5.651   0.894
  168SOL    HW2 1404   2.145   5.664   1.057
  169SOL     OW 1405   1.431   6.576   1.527
  169SOL    HW1 1406   1.385   6.508   1.584
  169SOL    HW2 1407   1.488   6.634   1.584
  170SOL     OW 1408   0.357   1.628   3.400
  170SOL    HW1 1409   0.266   1.586   3.393
  170SOL    HW2 1410   0.382   1.668   3.312
  171SOL     OW 1411   3.407   3.410   6.812
  171SOL    HW1 1412   3.453   3.478   6.756
  171SOL    HW2 1413   3.468   3.332   6.828
  172SOL     OW 1414   0.347   2.748   6.503
  172SOL    HW1 1415   0.329   2.650   6.505
  172SOL    HW2 1416   0.269   2.795   6.462
  173SOL     OW 1417   0.438   6.130   5.758
  173SOL    HW1 1418   0.377   6.209   5.750
  173SOL    HW2 1419   0.392   6.057   5.808
  174SOL     OW 1420   2.748   5.309   3.587
  174SOL    HW1 1421   2.824   5.367   3.616
  174SOL    HW2 1422   2.670   5.323   3.648
  175SOL     OW 1423   1.069   5.686   2.852
  175SOL    HW1 1424   1.028   5.653   2.766
  175SOL    HW2 1425   0.997   5.705   2.918
  176SOL     OW 1426   2.575   5.288   1.090
  176SOL    HW1 1427   2.616   5.197   1.092
  176SOL    HW2 1428   2.482   5.282   1.055
  177SOL     OW 1429   4.828   1.775   2.363
  177SOL    HW1 1430   4.805   1.864   2.401
  177SOL    HW2 1431   4.829   1.707   2.436
  178SOL     OW 1432   6.038   4.898   6.352
  178SOL    HW1 1433   5.972   4.872   6.423
  178SOL    HW2 1434   6.131   4.894   6.390
  179SOL     OW 1435   2.812   6.955   0.614
  179SOL    HW1 1436   2.774   0.016   0.658
  179SOL    HW2 1437   2.738   6.893   0.587
  180SOL     OW 1438   0.924   2.123   6.934
  180SOL    HW1 1439   1.008   2.167   6.905
  180SOL    HW2 1440   0.872   2.185   6.993
  181SOL     OW 1441   3.440   2.702   5.291
  181SOL    HW1 1442   3.539   2.693   5.279
  181SOL    HW2 1443   3.415   2.799   5.292
  182SOL     OW 1444   4.448   2.478   4.839
  182SOL    HW1 1445   4.433   2.396   4.784
  182SOL    HW2 1446   4.374   2.486   4.906
  183SOL     OW 1447   5.445   1.370   2.030
  183SOL    HW1 1448   5.345   1.371   2.017
  183SOL    HW2 1449   5.489   1.338   1.947
  184SOL     OW 1450   0.457   4.824   2.950
  184SOL    HW1 1451   0.411   4.903   2.990
  184SOL    HW2 1452   0.434   4.742   3.002
  185SOL     OW 1453   2.257   4.039   6.413
  185SOL    HW1 1454   2.279   4.043   6.316
  185SOL    HW2 1455   2.222   4.127   6.444
  186SOL     OW 1456   5.923   6.917   3.070
  186SOL    HW1 1457   5.861   6.994   3.065
  186SOL    HW2 1458   5.899   6.860   3.149
  187SOL     OW 1459   5.520   1.148   3.752
  187SOL    HW1 1460   5.528   1.163   3.653
  187SOL    HW2 1461   5.521   1.236   3.800
  188SOL     OW 1462   6.363   2.492   3.930
  188SOL    HW1 1463   6.289   2.455   3.873
  188SOL    HW2 1464   6.438   2.427   3.933
  189SOL     OW 1465   2.326   4.256   2.803
  189SOL    HW1 1466   2.246   4.293   2.850
  189SOL    HW2 1467   2.335   4.298   2.713
  190SOL     OW 1468   3.541   1.170   5.670
  190SOL    HW1 1469   3.617   1.171   5.605
  190SOL    HW2 1470   3.458   1.139   5.624
  191SOL     OW 1471   4.581   5.818   6.386
  191SOL    HW1 1472   4.612   5.742   6.329
  191SOL    HW2 1473   4.623   5.903   6.355
  192SOL     OW 1474   6.820   0.193   1.268
  192SOL    HW1 1475   6.834   0.269   1.332
  192SOL    HW2 1476   6.907   0.167   1.227
  193SOL     OW 1477   5.713   4.576   6.589
  193SOL    HW1 1478   5.767   4.533   6.517
  193SOL    HW2 1479   5.754   4.557   6.678
  194SOL     OW 1480   3.691   0.537   4.033
  194SOL    HW1 1481   3.657   0.559   4.125
  194SOL    HW2 1482   3.627   0.571   3.965
  195SOL     OW 1483   0.098   5.736   3.617
  195SOL    HW1 1484   0.157   5.783   3.551
  195SOL    HW2 1485   0.053   5.804   3.675
  196SOL     OW 1486   0.684   1.544   0.706
  196SOL    HW1 1487   0.603   1.533   0.764
  196SOL    HW2 1488   0.761   1.574   0.761
  197SOL     OW 1489   1.653   1.243   1.129
  197SOL    HW1 1490   1.608   1.154   1.122
  197SOL    HW2 1491   1.752   1.230   1.124
  198SOL     OW 1492   2.913   1.649   3.851
  198SOL    HW1 1493   2.869   1.650   3.941
  198SOL    HW2 1494   3.012   1.635   3.863
  199SOL     OW 1495   0.928   2.336   4.018
  199SOL    HW1 1496   0.931   2.237   4.007
  199SOL    HW2 1497   0.891   2.377   3.935
  200SOL     OW 1498   6.644   2.550   0.085
  200SOL    HW1 1499   6.734   2.554   0.040
  200SOL    HW2 1500   6.628   2.635   0.135
  201SOL     OW 1501   1.000   0.789   6.330
  201SOL    HW1 1502   0.923   0.822   6.385
  201SOL    HW2 1503   0.982   0.807   6.234
  202SOL     OW 1504   4.263   6.772   0.595
  202SOL    HW1 1505   4.188   6.820   0.551
  202SOL    HW2 1506   4.228   6.695   0.648
  203SOL     OW 1507   6.268   3.097   6.258
  203SOL    HW1 1508   6.262   3.004   6.222
  203SOL    HW2 1509   6.226   3.161   6.194
  204SOL     OW 1510   6.441   1.127   5.396
  204SOL    HW1 1511   6.467   1.055   5.331
  204SOL    HW2 1512   6.342   1.127   5.409
  205SOL     OW 1513   1.658   3.184   2.756
  205SOL    HW1 1514   1.703   3.273   2.753
  205SOL    HW2 1515   1.562   3.194   2.731
  206SOL     OW 1516   0.559   3.717   0.163
  206SOL    HW1 1517   0.597   3.792   0.217
  206SOL    HW2 1518   0.461   3.709   0.182
  207SOL     OW 1519   5.804   2.536   4.492
  207SOL    HW1 1520   5.732   2.466   4.493
  207SOL    HW2 1521   5.762   2.627   4.504
  208SOL     OW 1522   1.149   3.954   4.673
  208SOL    HW1 1523   1.068   3.917   4.718
  208SOL    HW2 1524   1.212   3.990   4.742
  209SOL     OW 1525   6.508   4.227   2.914
  209SOL    HW1 1526   6.565   4.273   2.847
  209SOL    HW2 1527   6.564   4.166   2.970
  210SOL     OW 1528   4.776   2.839   0.421
  210SOL    HW1 1529   4.680   2.865   0.415
  210SOL    HW2 1530   4.808   2.808   0.331
  211SOL     OW 1531   0.251   1.414   3.102
  211SOL    HW1 1532   0.170   1.419   3.160
  211SOL    HW2 1533   0.316   1.348   3.139
  212SOL     OW 1534   2.153   3.846   2.406
  212SOL    HW1 1535   2.147   3.750   2.379
  212SOL    HW2 1536   2.173   3.903   2.326
  213SOL     OW 1537   1.392   5.146   1.345
  213SOL    HW1 1538   1.340   5.070   1.385
  213SOL    HW2 1539   1.380   5.147   1.246
  214SOL     OW 1540   5.197   5.993   1.591
  214SOL    HW1 1541   5.275   5.990   1.529
  214SOL    HW2 1542   5.188   5.905   1.638
  215SOL     OW 1543   2.720   5.500   3.297
  215SOL    HW1 1544   2.754   5.414   3.335
  215SOL    HW2 1545   2.796   5.565   3.289
  216SOL     OW 1546   0.794   6.972   2.461
  216SOL    HW1 1547   0.803   6.953   2.363
  216SOL    HW2 1548   0.713   6.926   2.497
  217SOL     OW 1549   1.340   4.561   6.105
  217SOL    HW1 1550   1.333   4.616   6.023
  217SOL    HW2 1551   1.315   4.466   6.085
  218SOL     OW 1552   1.505   1.545   4.712
  218SOL    HW1 1553   1.564   1.604   4.767
  218SOL    HW2 1554   1.558   1.504   4.638
  219SOL     OW 1555   4.258   1.915   1.021
  219SOL    HW1 1556   4.189   1.889   1.089
  219SOL    HW2 1557   4.213   1.949   0.938
  220SOL     OW 1558   3.020   6.589   0.748
  220SOL    HW1 1559   2.945   6.547   0.799
  220SOL    HW2 1560   3.019   6.688   0.761
  221SOL     OW 1561   5.524   4.895   2.126
  221SOL    HW1 1562   5.446   4.904   2.063
  221SOL    HW2 1563   5.606   4.871   2.074
  222SOL     OW 1564   2.164   5.074   6.378
  222SOL    HW1 1565   2.136   5.157   6.331
  222SOL    HW2 1566   2.263   5.077   6.395
  223SOL     OW 1567   6.006   3.106   5.259
  223SOL    HW1 1568   5.961   3.101   5.171
  223SOL    HW2 1569   5.947   3.153   5.325
  224SOL     OW 1570   2.409   1.209   6.270
  224SOL    HW1 1571   2.498   1.251   6.251
  224SOL    HW2 1572   2.415   1.110   6.260
  225SOL     OW 1573   4.115   6.143   5.979
  225SOL    HW1 1574   4.178   6.067   5.994
  225SOL    HW2 1575   4.021   6.109   5.986
  226SOL     OW 1576   1.242   2.539   0.056
  226SOL    HW1 1577   1.335   2.544   0.092
  226SOL    HW2 1578   1.188   2.615   0.093
  227SOL     OW 1579   1.752   3.914   1.645
  227SOL    HW1 1580   1.721   3.839   1.585
  227SOL    HW2 1581   1.850   3.906   1.661
  228SOL     OW 1582   1.359   0.194   2.413
  228SOL    HW1 1583   1.278   0.191   2.471
  228SOL    HW2 1584   1.435   0.150   2.459
  229SOL     OW 1585   4.248   6.376   5.879
  229SOL    HW1 1586   4.341   6.351   5.851
  229SOL    HW2 1587   4.205   6.298   5.925
  230SOL     OW 1588   5.315   5.768   5.369
  230SOL    HW1 1589   5.302   5.754   5.468
  230SOL    HW2 1590   5.231   5.806   5.330
  231SOL     OW 1591   4.971   1.550   6.762
  231SOL    HW1 1592   4.998   1.514   6.673
  231SOL    HW2 1593   5.040   1.614   6.795
  232SOL     OW 1594   1.450   1.673   5.577
  232SOL    HW1 1595   1.497   1.746   5.529
  232SOL    HW2 1596   1.477   1.673   5.673
  233SOL     OW 1597   3.195   1.740   3.040
  233SOL    HW1 1598   3.168   1.738   2.943
  233SOL    HW2 1599   3.203   1.647   3.074
  234SOL     OW 1600   4.431   1.045   0.227
  234SOL    HW1 1601   4.515   1.099   0.217
  234SOL    HW2 1602   4.447   0.972   0.294
  235SOL     OW 1603   4.849   3.139   3.435
  235SOL    HW1 1604   4.922   3.074   3.414
  235SOL    HW2 1605   4.764   3.111   3.389
  236SOL     OW 1606   4.299   4.907   6.026
  236SOL    HW1 1607   4.212   4.957   6.028
  236SOL    HW2 1608   4.374   4.972   6.019
  237SOL     OW 1609   6.206   3.398   2.959
  237SOL    HW1 1610   6.136   3.336   2.923
  237SOL    HW2 1611   6.263   3.431   2.884
  238SOL     OW 1612   6.586   1.695   0.849
  238SOL    HW1 1613   6.500   1.690   0.799
  238SOL    HW2 1614   6.660   1.655   0.795
  239SOL     OW 1615   1.206   3.502   0.768
  239SOL    HW1 1616   1.167   3.514   0.678
  239SOL    HW2 1617   1.296   3.459   0.760
  240SOL     OW 1618   5.375   3.194   3.305
  240SOL    HW1 1619   5.389   3.153   3.395
  240SOL    HW2 1620   5.352   3.290   3.315
  241SOL     OW 1621   2.876   1.972   4.135
  241SOL    HW1 1622   2.968   1.986   4.097
  241SOL    HW2 1623   2.879   1.986   4.234
  242SOL     OW 1624   3.518   3.780   2.733
  242SOL    HW1 1625   3.539   3.794   2.830
  242SOL    HW2 1626   3.442   3.716   2.724
  243SOL     OW 1627   4.525   2.726   5.767
  243SOL    HW1 1628   4.474   2.805   5.734
  243SOL    HW2 1629   4.480   2.642   5.738
  244SOL     OW 1630   4.893   3.613   5.368
  244SOL    HW1 1631   4.868   3.574   5.456
  244SOL    HW2 1632   4.818   3.603   5.304
  245SOL     OW 1633   3.825   1.471   3.045
  245SOL    HW1 1634   3.898   1.527   3.006
  245SOL    HW2 1635   3.793   1.406   2.977
  246SOL     OW 1636   6.441   1.690   2.146
  246SOL    HW1 1637   6.378   1.767   2.134
  246SOL    HW2 1638   6.410   1.612   2.091
  247SOL     OW 1639   1.711   1.051   1.369
  247SOL    HW1 1640   1.614   1.057   1.395
  247SOL    HW2 1641   1.761   1.126   1.412
  248SOL     OW 1642   1.866   2.271   2.207
  248SOL    HW1 1643   1.832   2.285   2.115
  248SOL    HW2 1644   1.949   2.216   2.204
  249SOL     OW 1645   4.936   5.588   5.234
  249SOL    HW1 1646   4.850   5.578   5.283
  249SOL    HW2 1647   5.007   5.533   5.278
  250SOL     OW 1648   4.162   2.566   1.048
  250SOL    HW1 1649   4.212   2.651   1.068
  250SOL    HW2 1650   4.085   2.558   1.112
  251SOL     OW 1651   3.938   4.075   5.502
  251SOL    HW1 1652   3.939   4.147   5.434
  251SOL    HW2 1653   3.886   4.105   5.582
  252SOL     OW 1654   6.441   6.622   5.317
  252SOL    HW1 1655   6.449   6.588   5.410
  252SOL    HW2 1656   6.381   6.562   5.264
  253SOL     OW 1657   3.682   6.277   6.406
  253SOL    HW1 1658   3.689   6.179   6.384
  253SOL    HW2 1659   3.696   6.331   6.323
  254SOL     OW 1660   5.457   2.450   5.015
  254SOL    HW1 1661   5.538   2.397   5.040
  254SOL    HW2 1662   5.397   2.459   5.095
  255SOL     OW 1663   1.420   4.235   6.263
  255SOL    HW1 1664   1.360   4.190   6.197
  255SOL    HW2 1665   1.450   4.167   6.331
  256SOL     OW 1666   5.035   2.353   5.164
  256SOL    HW1 1667   5.014   2.361   5.261
  256SOL    HW2 1668   5.127   2.388   5.147
  257SOL     OW 1669   4.885   6.875   2.773
  257SOL    HW1 1670   4.914   6.903   2.681
  257SOL    HW2 1671   4.963   6.839   2.823
  258SOL     OW 1672   1.723   2.804   5.427
  258SOL    HW1 1673   1.685   2.806   5.335
  258SOL    HW2 1674   1.820   2.828   5.424
  259SOL     OW 1675   3.675   0.105   4.017
  259SOL    HW1 1676   3.706   0.196   4.044
  259SOL    HW2 1677   3.732   0.071   3.942
  260SOL     OW 1678   3.726   5.476   3.737
  260SOL    HW1 1679   3.786   5.400   3.715
  260SOL    HW2 1680   3.659   5.487   3.663
  261SOL     OW 1681   4.006   4.821   0.303
  261SOL    HW1 1682   3.940   4.864   0.364
  261SOL    HW2 1683   4.091   4.875   0.303
  262SOL     OW 1684   1.689   4.169   6.268
  262SOL    HW1 1685   1.630   4.213   6.201
  262SOL    HW2 1686   1.636   4.150   6.351
  263SOL     OW 1687   0.934   6.123   3.731
  263SOL    HW1 1688   0.997   6.163   3.665
  263SOL    HW2 1689   0.986   6.071   3.799
  264SOL     OW 1690   6.748   3.736   6.650
  264SOL    HW1 1691   6.824   3.755   6.587
  264SOL    HW2 1692   6.776   3.756   6.744
  265SOL     OW 1693   6.541   0.045   4.164
  265SOL    HW1 1694   6.480   0.061   4.086
  265SOL    HW2 1695   6.561   6.967   4.171
  266SOL     OW 1696   3.689   0.886   5.644
  266SOL    HW1 1697   3.640   0.934   5.716
  266SOL    HW2 1698   3.783   0.920   5.639
  267SOL     OW 1699   1.808   0.929   4.270
  267SOL    HW1 1700   1.868   0.853   4.296
  267SOL    HW2 1701   1.720   0.892   4.239
  268SOL     OW 1702   3.450   1.829   1.300
  268SOL    HW1 1703   3.508   1.886   1.358
  268SOL    HW2 1704   3.433   1.742   1.345
  269SOL     OW 1705   4.390   1.680   0.165
  269SOL    HW1 1706   4.462   1.726   0.114
  269SOL    HW2 1707   4.337   1.747   0.216
  270SOL     OW 1708   5.400   0.087   0.142
  270SOL    HW1 1709   5.431   0.181   0.149
  270SOL    HW2 1710   5.366   0.069   0.050
  271SOL     OW 1711   1.252   3.511   6.543
  271SOL    HW1 1712   1.175   3.449   6.524
  271SOL    HW2 1713   1.266   3.571   6.464
  272SOL     OW 1714   3.250   6.568   4.213
  272SOL    HW1 1715   3.151   6.574   4.202
  272SOL    HW2 1716   3.289   6.661   4.214
  273SOL     OW 1717   1.745   4.983   6.244
  273SOL    HW1 1718   1.770   4.887   6.240
  273SOL    HW2 1719   1.747   5.014   6.339
  274SOL     OW 1720   4.736   1.775   3.854
  274SOL    HW1 1721   4.800   1.852   3.860
  274SOL    HW2 1722   4.732   1.743   3.760
  275SOL     OW 1723   6.649   6.424   1.993
  275SOL    HW1 1724   6.741   6.386   1.981
  275SOL    HW2 1725   6.583   6.350   2.003
  276SOL     OW 1726   0.689   1.288   4.716
  276SOL    HW1 1727   0.691   1.329   4.807
  276SOL    HW2 1728   0.780   1.252   4.693
  277SOL     OW 1729   1.876   4.094   1.141
  277SOL    HW1 1730   1.829   4.173   1.102
  277SOL    HW2 1731   1.809   4.023   1.164
  278SOL     OW 1732   0.182   2.835   2.152
  278SOL    HW1 1733   0.248   2.803   2.084
  278SOL    HW2 1734   0.095   2.788   2.140
  279SOL     OW 1735   6.147   1.950   3.794
  279SOL    HW1 1736   6.229   1.922   3.844
  279SOL    HW2 1737   6.073   1.967   3.859
  280SOL     OW 1738   1.952   4.429   2.177
  280SOL    HW1 1739   1.888   4.353   2.166
  280SOL    HW2 1740   1.908   4.503   2.228
  281SOL     OW 1741   2.297   4.674   1.331
  281SOL    HW1 1742   2.234   4.726   1.389
  281SOL    HW2 1743   2.383   4.660   1.380
  282SOL     OW 1744   2.943   2.217   6.067
  282SOL    HW1 1745   2.866   2.280   6.063
  282SOL    HW2 1746   3.026   2.264   6.036
  283SOL     OW 1747   4.481   2.499   5.950
  283SOL    HW1 1748   4.446   2.566   5.886
  283SOL    HW2 1749   4.410   2.431   5.970
  284SOL     OW 1750   1.191   3.532   3.917
  284SOL    HW1 1751   1.118   3.597   3.940
  284SOL    HW2 1752   1.189   3.455   3.981
  285SOL     OW 1753   5.567   4.719   4.696
  285SOL    HW1 1754   5.497   4.679   4.636
  285SOL    HW2 1755   5.631   4.647   4.725
  286SOL     OW 1756   3.144   3.709   6.659
  286SOL    HW1 1757   3.208   3.781   6.688
  286SOL    HW2 1758   3.053   3.747   6.648
  287SOL     OW 1759   1.547   3.823   0.335
  287SOL    HW1 1760   1.612   3.897   0.319
  287SOL    HW2 1761   1.565   3.782   0.425
  288SOL     OW 1762   4.765   3.158   0.292
  288SOL    HW1 1763   4.736   3.213   0.371
  288SOL    HW2 1764   4.837   3.207   0.242
  289SOL     OW 1765   3.023   4.879   6.451
  289SOL    HW1 1766   2.997   4.962   6.501
  289SOL    HW2 1767   2.941   4.838   6.410
  290SOL     OW 1768   0.650   1.421   4.954
  290SOL    HW1 1769   0.686   1.512   4.973
  290SOL    HW2 1770   0.554   1.417   4.982
  291SOL     OW 1771   0.216   2.343   2.721
  291SOL    HW1 1772   0.288   2.322   2.787
  291SOL    HW2 1773   0.159   2.417   2.756
  292SOL     OW 1774   2.241   6.495   4.066
  292SOL    HW1 1775   2.302   6.436   4.012
  292SOL    HW2 1776   2.292   6.534   4.142
  293SOL     OW 1777   3.792   4.851   3.428
  293SOL    HW1 1778   3.862   4.814   3.366
  293SOL    HW2 1779   3.708   4.866   3.376
  294SOL     OW 1780   4.887   0.146   6.743
  294SOL    HW1 1781   4.797   0.145   6.701
  294SOL    HW2 1782   4.902   0.234   6.789
  295SOL     OW 1783   5.215   0.056   3.886
  295SOL    HW1 1784   5.299   0.100   3.916
  295SOL    HW2 1785   5.219   0.038   3.788
  296SOL     OW 1786   2.571   1.750   3.310
  296SOL    HW1 1787   2.595   1.842   3.342
  296SOL    HW2 1788   2.525   1.700   3.383
  297SOL     OW 1789   1.904   4.433   3.408
  297SOL    HW1 1790   1.972   4.386   3.352
  297SOL    HW2 1791   1.949   4.478   3.485
  298SOL     OW 1792   6.154   5.470   0.406
  298SOL    HW1 1793   6.124   5.412   0.331
  298SOL    HW2 1794   6.180   5.413   0.484
  299SOL     OW 1795   6.569   2.466   4.556
  299SOL    HW1 1796   6.487   2.507   4.596
  299SOL    HW2 1797   6.626   2.538   4.517
  300SOL     OW 1798   6.494   0.080   2.297
  300SOL    HW1 1799   6.509   0.075   2.396
  300SOL    HW2 1800   6.453   7.014   2.265
  301SOL     OW 1801   5.317   3.436   6.172
  301SOL    HW1 1802   5.403   3.473   6.137
  301SOL    HW2 1803   5.301   3.472   6.264
  302SOL     OW 1804   1.202   6.884   3.525
  302SOL    HW1 1805   1.177   6.861   3.431
  302SOL    HW2 1806   1.273   6.820   3.557
  303SOL     OW 1807   5.988   6.511   3.062
  303SOL    HW1 1808   6.069   6.488   3.116
  303SOL    HW2 1809   5.920   6.554   3.121
  304SOL     OW 1810   3.252   6.753   3.518
  304SOL    HW1 1811   3.285   6.777   3.427
  304SOL    HW2 1812   3.321   6.777   3.586
  305SOL     OW 1813   1.292   3.887   1.959
  305SOL    HW1 1814   1.345   3.898   2.044
  305SOL    HW2 1815   1.200   3.924   1.973
  306SOL     OW 1816   2.776   0.423   3.151
  306SOL    HW1 1817   2.847   0.487   3.179
  306SOL    HW2 1818   2.690   0.473   3.136
  307SOL     OW 1819   3.473   0.238   1.389
  307SOL    HW1 1820   3.379   0.205   1.400
  307SOL    HW2 1821   3.509   0.264   1.479
  308SOL     OW 1822   0.877   4.948   4.658
  308SOL    HW1 1823   0.925   5.032   4.632
  308SOL    HW2 1824   0.935   4.869   4.640
  309SOL     OW 1825   3.928   5.022   5.423
  309SOL    HW1 1826   3.969   5.108   5.391
  309SOL    HW2 1827   3.995   4.948   5.415
  310SOL     OW 1828   0.893   6.641   6.100
  310SOL    HW1 1829   0.878   6.740   6.100
  310SOL    HW2 1830   0.990   6.622   6.113
  311SOL     OW 1831   0.643   0.381   1.587
  311SOL    HW1 1832   0.639   0.361   1.489
  311SOL    HW2 1833   0.551   0.375   1.626
  312SOL     OW 1834   4.019   1.910   4.231
  312SOL    HW1 1835   4.007   1.989   4.171
  312SOL    HW2 1836   4.114   1.906   4.262
  313SOL     OW 1837   0.071   4.736   1.202
  313SOL    HW1 1838   0.118   4.653   1.231
  313SOL    HW2 1839   0.012   4.715   1.124
  314SOL     OW 1840   3.303   6.130   1.158
  314SOL    HW1 1841   3.295   6.037   1.193
  314SOL    HW2 1842   3.287   6.130   1.059
  315SOL     OW 1843   1.141   3.132   2.782
  315SOL    HW1 1844   1.201   3.071   2.834
  315SOL    HW2 1845   1.050   3.132   2.823
  316SOL     OW 1846   2.011   3.091   4.114
  316SOL    HW1 1847   2.087   3.050   4.165
  316SOL    HW2 1848   1.925   3.049   4.141
  317SOL     OW 1849   6.525   1.493   0.002
  317SOL    HW1 1850   6.567   1.582   0.019
  317SOL    HW2 1851   6.511   1.481   6.923
  318SOL     OW 1852   1.987   4.961   1.277
  318SOL    HW1 1853   1.968   5.049   1.321
  318SOL    HW2 1854   2.065   4.971   1.215
  319SOL     OW 1855   1.358   0.384   0.422
  319SOL    HW1 1856   1.270   0.427   0.441
  319SOL    HW2 1857   1.431   0.451   0.433
  320SOL     OW 1858   4.995   3.610   0.603
  320SOL    HW1 1859   4.965   3.549   0.529
  320SOL    HW2 1860   5.092   3.631   0.591
  321SOL     OW 1861   2.059   1.471   1.340
  321SOL    HW1 1862   2.092   1.566   1.348
  321SOL    HW2 1863   1.961   1.471   1.319
  322SOL     OW 1864   3.137   2.932   5.283
  322SOL    HW1 1865   3.195   2.991   5.226
  322SOL    HW2 1866   3.169   2.937   5.378
  323SOL     OW 1867   0.270   3.960   2.100
  323SOL    HW1 1868   0.288   3.878   2.154
  323SOL    HW2 1869   0.223   4.028   2.157
  324SOL     OW 1870   0.451   3.193   4.293
  324SOL    HW1 1871   0.475   3.194   4.390
  324SOL    HW2 1872   0.496   3.270   4.247
  325SOL     OW 1873   2.193   2.817   3.057
  325SOL    HW1 1874   2.186   2.903   3.007
  325SOL    HW2 1875   2.165   2.831   3.152
  326SOL     OW 1876   2.533   4.420   5.629
  326SOL    HW1 1877   2.585   4.504   5.619
  326SOL    HW2 1878   2.435   4.440   5.622
  327SOL     OW 1879   6.409   5.336   5.781
  327SOL    HW1 1880   6.339   5.305   5.716
  327SOL    HW2 1881   6.496   5.346   5.734
  328SOL     OW 1882   3.077   5.565   1.973
  328SOL    HW1 1883   3.145   5.639   1.971
  328SOL    HW2 1884   2.986   5.604   1.988
  329SOL     OW 1885   2.913   3.557   2.540
  329SOL    HW1 1886   2.863   3.614   2.475
  329SOL    HW2 1887   3.008   3.588   2.545
  330SOL     OW 1888   3.414   1.285   1.707
  330SOL    HW1 1889   3.403   1.197   1.661
  330SOL    HW2 1890   3.394   1.275   1.804
  331SOL     OW 1891   5.782   5.026   5.806
  331SOL    HW1 1892   5.873   5.018   5.845
  331SOL    HW2 1893   5.743   4.936   5.791
  332SOL     OW 1894   4.375   1.644   3.379
  332SOL    HW1 1895   4.443   1.584   3.336
  332SOL    HW2 1896   4.374   1.732   3.332
  333SOL     OW 1897   3.736   6.431   6.933
  333SOL    HW1 1898   3.667   6.458   6.865
  333SOL    HW2 1899   3.826   6.430   6.889
  334SOL     OW 1900   4.521   6.810   3.003
  334SOL    HW1 1901   4.564   6.745   2.941
  334SOL    HW2 1902   4.424   6.788   3.012
  335SOL     OW 1903   3.721   6.776   3.059
  335SOL    HW1 1904   3.656   6.845   3.027
  335SOL    HW2 1905   3.712   6.763   3.157
  336SOL     OW 1906   3.100   0.559   4.890
  336SOL    HW1 1907   3.194   0.526   4.900
  336SOL    HW2 1908   3.101   0.647   4.841
  337SOL     OW 1909   0.322   4.168   1.209
  337SOL    HW1 1910   0.412   4.158   1.250
  337SOL    HW2 1911   0.328   4.226   1.128
  338SOL     OW 1912   2.749   2.395   1.729
  338SOL    HW1 1913   2.822   2.389   1.797
  338SOL    HW2 1914   2.785   2.438   1.646
  339SOL     OW 1915   4.192   0.718   2.971
  339SOL    HW1 1916   4.236   0.655   2.907
  339SOL    HW2 1917   4.259   0.752   3.037
  340SOL     OW 1918   4.953   3.734   4.473
  340SOL    HW1 1919   4.950   3.634   4.468
  340SOL    HW2 1920   4.915   3.773   4.389
  341SOL     OW 1921   5.396   4.919   5.180
  341SOL    HW1 1922   5.427   4.996   5.236
  341SOL    HW2 1923   5.475   4.872   5.141
  342SOL     OW 1924   5.166   3.433   0.416
  342SOL    HW1 1925   5.115   3.480   0.344
  342SOL    HW2 1926   5.124   3.344   0.435
  343SOL     OW 1927   2.381   0.723   2.739
  343SOL    HW1 1928   2.479   0.732   2.721
  343SOL    HW2 1929   2.340   0.814   2.750
  344SOL     OW 1930   3.265   5.147   6.823
  344SOL    HW1 1931   3.346   5.188   6.863
  344SOL    HW2 1932   3.287   5.056   6.787
  345SOL     OW 1933   1.189   6.799   5.763
  345SOL    HW1 1934   1.118   6.829   5.827
  345SOL    HW2 1935   1.169   6.834   5.672
  346SOL     OW 1936   3.158   0.508   4.204
  346SOL    HW1 1937   3.072   0.554   4.181
  346SOL    HW2 1938   3.143   0.409   4.203
  347SOL     OW 1939   4.839   6.137   5.976
  347SOL    HW1 1940   4.867   6.041   5.975
  347SOL    HW2 1941   4.873   6.181   6.059
  348SOL     OW 1942   3.037   6.009   2.739
  348SOL    HW1 1943   2.981   6.042   2.815
  348SOL    HW2 1944   2.987   5.938   2.690
  349SOL     OW 1945   2.090   4.967   1.714
  349SOL    HW1 1946   2.129   4.913   1.788
  349SOL    HW2 1947   2.006   5.011   1.745
  350SOL     OW 1948   4.347   2.980   0.983
  350SOL    HW1 1949   4.248   2.975   0.979
  350SOL    HW2 1950   4.375   3.061   1.035
  351SOL     OW 1951   3.157   2.180   0.744
  351SOL    HW1 1952   3.194   2.263   0.786
  351SOL    HW2 1953   3.184   2.100   0.798
  352SOL     OW 1954   4.111   1.531   6.190
  352SOL    HW1 1955   4.204   1.567   6.199
  352SOL    HW2 1956   4.049   1.605   6.162
  353SOL     OW 1957   2.243   0.246   1.057
  353SOL    HW1 1958   2.174   0.193   1.008
  353SOL    HW2 1959   2.197   0.315   1.114
  354SOL     OW 1960   5.139   1.376   2.051
  354SOL    HW1 1961   5.061   1.411   2.103
  354SOL    HW2 1962   5.123   1.280   2.028
  355SOL     OW 1963   1.626   1.722   1.836
  355SOL    HW1 1964   1.675   1.659   1.776
  355SOL    HW2 1965   1.534   1.688   1.854
  356SOL     OW 1966   3.929   6.068   2.872
  356SOL    HW1 1967   3.864   6.113   2.810
  356SOL    HW2 1968   4.021   6.075   2.835
  357SOL     OW 1969   1.775   4.504   6.055
  357SOL    HW1 1970   1.833   4.577   6.021
  357SOL    HW2 1971   1.719   4.537   6.131
  358SOL     OW 1972   5.523   1.454   2.297
  358SOL    HW1 1973   5.520   1.420   2.204
  358SOL    HW2 1974   5.575   1.540   2.300
  359SOL     OW 1975   1.387   2.008   1.283
  359SOL    HW1 1976   1.426   1.963   1.363
  359SOL    HW2 1977   1.312   2.068   1.311
  360SOL     OW 1978   4.299   6.558   0.787
  360SOL    HW1 1979   4.272   6.478   0.734
  360SOL    HW2 1980   4.386   6.593   0.752
  361SOL     OW 1981   3.704   0.560   3.106
  361SOL    HW1 1982   3.712   0.517   3.196
  361SOL    HW2 1983   3.691   0.659   3.118
  362SOL     OW 1984   2.911   3.566   0.840
  362SOL    HW1 1985   2.939   3.617   0.759
  362SOL    HW2 1986   2.932   3.469   0.828
  363SOL     OW 1987   4.199   4.802   3.864
  363SOL    HW1 1988   4.209   4.883   3.923
  363SOL    HW2 1989   4.111   4.806   3.818
  364SOL     OW 1990   1.577   6.261   5.891
  364SOL    HW1 1991   1.616   6.237   5.980
  364SOL    HW2 1992   1.643   6.239   5.819
  365SOL     OW 1993   4.767   6.624   2.850
  365SOL    HW1 1994   4.759   6.566   2.768
  365SOL    HW2 1995   4.804   6.713   2.824
  366SOL     OW 1996   4.825   6.996   0.661
  366SOL    HW1 1997   4.790   6.998   0.754
  366SOL    HW2 1998   4.880   0.057   0.644
  367SOL     OW 1999   4.538   2.014   1.515
  367SOL    HW1 2000   4.566   2.096   1.465
  367SOL    HW2 2001   4.591   2.006   1.600
  368SOL     OW 2002   1.949   5.119   5.637
  368SOL    HW1 2003   1.876   5.068   5.591
  368SOL    HW2 2004   1.910   5.199   5.682
  369SOL     OW 2005   0.162   3.367   1.576
  369SOL    HW1 2006   0.097   3.440   1.598
  369SOL    HW2 2007   0.208   3.338   1.660
  370SOL     OW 2008   3.701   1.722   6.673
  370SOL    HW1 2009   3.775   1.672   6.718
  370SOL    HW2 2010   3.724   1.737   6.577
  371SOL     OW 2011   4.068   2.871   6.118
  371SOL    HW1 2012   4.056   2.831   6.209
  371SOL    HW2 2013   3.982   2.864   6.067
  372SOL     OW 2014   1.348   5.434   6.920
  372SOL    HW1 2015   1.289   5.464   6.995
  372SOL    HW2 2016   1.429   5.388   6.957
  373SOL     OW 2017   6.951   6.595   0.249
  373SOL    HW1 2018   6.901   6.542   0.180
  373SOL    HW2 2019   6.944   6.549   0.337
  374SOL     OW 2020   4.064   1.157   1.249
  374SOL    HW1 2021   3.996   1.094   1.211
  374SOL    HW2 2022   4.149   1.107   1.268
  375SOL     OW 2023   6.727   4.359   1.519
  375SOL    HW1 2024   6.741   4.265   1.487
  375SOL    HW2 2025   6.663   4.358   1.596
  376SOL     OW 2026   2.151   3.434   4.562
  376SOL    HW1 2027   2.167   3.403   4.656
  376SOL    HW2 2028   2.128   3.531   4.563
  377SOL     OW 2029   4.674   1.905   4.608
  377SOL    HW1 2030   4.587   1.856   4.600
  377SOL    HW2 2031   4.743   1.860   4.551
  378SOL     OW 2032   4.819   2.795   4.065
  378SOL    HW1 2033   4.879   2.714   4.067
  378SOL    HW2 2034   4.725   2.766   4.083
  379SOL     OW 2035   6.793   2.747   1.425
  379SOL    HW1 2036   6.860   2.821   1.434
  379SOL    HW2 2037   6.829   2.676   1.364
  380SOL     OW 2038   1.241   1.890   0.202
  380SOL    HW1 2039   1.330   1.865   0.239
  380SOL    HW2 2040   1.253   1.938   0.115
  381SOL     OW 2041   3.472   4.451   0.213
  381SOL    HW1 2042   3.441   4.503   0.133
  381SOL    HW2 2043   3.555   4.400   0.189
  382SOL     OW 2044   2.077   5.079   0.810
  382SOL    HW1 2045   2.126   4.992   0.811
  382SOL    HW2 2046   2.032   5.092   0.898
  383SOL     OW 2047   6.279   2.145   0.209
  383SOL    HW1 2048   6.344   2.147   0.286
  383SOL    HW2 2049   6.239   2.236   0.198
  384SOL     OW 2050   2.134   5.305   4.919
  384SOL    HW1 2051   2.087   5.240   4.860
  384SOL    HW2 2052   2.111   5.287   5.014
  385SOL     OW 2053   4.714   5.538   1.386
  385SOL    HW1 2054   4.771   5.477   1.332
  385SOL    HW2 2055   4.679   5.490   1.466
  386SOL     OW 2056   3.085   6.502   4.776
  386SOL    HW1 2057   3.040   6.550   4.852
  386SOL    HW2 2058   3.055   6.407   4.775
  387SOL     OW 2059   6.587   0.219   6.081
  387SOL    HW1 2060   6.668   0.160   6.076
  387SOL    HW2 2061   6.506   0.165   6.059
  388SOL     OW 2062   0.202   2.169   4.702
  388SOL    HW1 2063   0.195   2.072   4.682
  388SOL    HW2 2064   0.282   2.207   4.657
  389SOL     OW 2065   5.351   4.606   1.841
  389SOL    HW1 2066   5.339   4.697   1.801
  389SOL    HW2 2067   5.307   4.604   1.931
  390SOL     OW 2068   3.945   2.513   6.775
  390SOL    HW1 2069   3.900   2.576   6.711
  390SOL    HW2 2070   4.004   2.564   6.837
  391SOL     OW 2071   3.937   3.925   3.665
  391SOL    HW1 2072   3.959   3.954   3.758
  391SOL    HW2 2073   4.018   3.886   3.622
  392SOL     OW 2074   1.705   3.905   1.935
  392SOL    HW1 2075   1.668   3.955   2.014
  392SOL    HW2 2076   1.799   3.933   1.919
  393SOL     OW 2077   1.464   5.688   1.498
  393SOL    HW1 2078   1.544   5.748   1.494
  393SOL    HW2 2079   1.456   5.638   1.412
  394SOL     OW 2080   6.019   0.989   6.467
  394SOL    HW1 2081   5.941   1.026   6.516
  394SOL    HW2 2082   6.016   1.018   6.372
  395SOL     OW 2083   5.894   4.513   0.304
  395SOL    HW1 2084   5.898   4.596   0.360
  395SOL    HW2 2085   5.916   4.536   0.210
  396SOL     OW 2086   1.293   0.571   1.444
  396SOL    HW1 2087   1.359   0.596   1.373
  396SOL    HW2 2088   1.261   0.654   1.490
  397SOL     OW 2089   4.348   2.185   4.602
  397SOL    HW1 2090   4.353   2.137   4.690
  397SOL    HW2 2091   4.422   2.153   4.542
  398SOL     OW 2092   0.229   0.535   3.301
  398SOL    HW1 2093   0.193   0.476   3.373
  398SOL    HW2 2094   0.191   0.509   3.213
  399SOL     OW 2095   6.036   6.042   3.886
  399SOL    HW1 2096   6.012   6.078   3.976
  399SOL    HW2 2097   6.003   5.948   3.877
  400SOL     OW 2098   6.728   0.039   3.717
  400SOL    HW1 2099   6.648   0.099   3.722
  400SOL    HW2 2100   6.720   7.000   3.636
  401SOL     OW 2101   0.924   5.354   4.863
  401SOL    HW1 2102   0.874   5.272   4.893
  401SOL    HW2 2103   0.901   5.373   4.767
  402SOL     OW 2104   5.751   1.832   4.194
  402SOL    HW1 2105   5.739   1.736   4.173
  402SOL    HW2 2106   5.742   1.846   4.293
  403SOL     OW 2107   2.921   2.049   5.263
  403SOL    HW1 2108   2.838   1.997   5.241
  403SOL    HW2 2109   2.950   2.102   5.183
  404SOL     OW 2110   3.150   5.692   3.650
  404SOL    HW1 2111   3.073   5.632   3.628
  404SOL    HW2 2112   3.120   5.787   3.649
  405SOL     OW 2113   2.600   4.917   4.384
  405SOL    HW1 2114   2.644   4.967   4.309
  405SOL    HW2 2115   2.667   4.858   4.428
  406SOL     OW 2116   0.160   0.471   6.373
  406SOL    HW1 2117   0.238   0.434   6.423
  406SOL    HW2 2118   0.100   0.396   6.343
  407SOL     OW 2119   1.928   3.254   3.928
  407SOL    HW1 2120   1.906   3.349   3.949
  407SOL    HW2 2121   1.954   3.206   4.012
  408SOL     OW 2122   2.198   2.454   2.754
  408SOL    HW1 2123   2.198   2.476   2.852
  408SOL    HW2 2124   2.231   2.533   2.702
  409SOL     OW 2125   0.557   2.572   2.855
  409SOL    HW1 2126   0.474   2.626   2.859
  409SOL    HW2 2127   0.580   2.538   2.946
  410SOL     OW 2128   1.960   2.755   1.227
  410SOL    HW1 2129   1.882   2.815   1.246
  410SOL    HW2 2130   1.948   2.669   1.278
  411SOL     OW 2131   6.503   2.138   0.386
  411SOL    HW1 2132   6.554   2.122   0.471
  411SOL    HW2 2133   6.565   2.173   0.316
  412SOL     OW 2134   1.832   5.244   2.923
  412SOL    HW1 2135   1.812   5.146   2.918
  412SOL    HW2 2136   1.846   5.270   3.018
  413SOL     OW 2137   6.340   4.817   1.951
  413SOL    HW1 2138   6.255   4.815   1.899
  413SOL    HW2 2139   6.367   4.912   1.968
  414SOL     OW 2140   2.250   6.963   3.485
  414SOL    HW1 2141   2.171   6.921   3.441
  414SOL    HW2 2142   2.288   6.900   3.553
  415SOL     OW 2143   5.387   1.542   6.422
  415SOL    HW1 2144   5.425   1.632   6.438
  415SOL    HW2 2145   5.454   1.484   6.375
  416SOL     OW 2146   5.854   3.189   5.976
  416SOL    HW1 2147   5.767   3.237   5.970
  416SOL    HW2 2148   5.864   3.129   5.896
  417SOL     OW 2149   2.392   2.525   6.309
  417SOL    HW1 2150   2.431   2.443   6.265
  417SOL    HW2 2151   2.453   2.603   6.293
  418SOL     OW 2152   3.499   6.820   5.479
  418SOL    HW1 2153   3.419   6.761   5.466
  418SOL    HW2 2154   3.490   6.902   5.422
  419SOL     OW 2155   5.598   0.277   0.324
  419SOL    HW1 2156   5.687   0.238   0.345
  419SOL    HW2 2157   5.545   0.287   0.408
  420SOL     OW 2158   3.566   6.818   0.840
  420SOL    HW1 2159   3.477   6.856   0.865
  420SOL    HW2 2160   3.589   6.742   0.901
  421SOL     OW 2161   4.824   4.083   2.179
  421SOL    HW1 2162   4.753   4.149   2.205
  421SOL    HW2 2163   4.782   3.993   2.168
  422SOL     OW 2164   4.657   2.130   1.741
  422SOL    HW1 2165   4.628   2.221   1.711
  422SOL    HW2 2166   4.646   2.123   1.840
  423SOL     OW 2167   3.106   0.978   6.259
  423SOL    HW1 2168   3.177   0.914   6.286
  423SOL    HW2 2169   3.140   1.072   6.266
  424SOL     OW 2170   1.869   3.846   4.356
  424SOL    HW1 2171   1.786   3.895   4.332
  424SOL    HW2 2172   1.881   3.847   4.456
  425SOL     OW 2173   3.716   1.352   6.747
  425SOL    HW1 2174   3.794   1.291   6.734
  425SOL    HW2 2175   3.710   1.379   6.843
  426SOL     OW 2176   2.870   2.016   4.419
  426SOL    HW1 2177   2.857   2.114   4.438
  426SOL    HW2 2178   2.816   1.962   4.483
  427SOL     OW 2179   5.152   1.818   3.737
  427SOL    HW1 2180   5.181   1.811   3.642
  427SOL    HW2 2181   5.101   1.903   3.750
  428SOL     OW 2182   2.615   2.296   6.463
  428SOL    HW1 2183   2.577   2.311   6.371
  428SOL    HW2 2184   2.624   2.384   6.509
  429SOL     OW 2185   0.474   5.901   3.652
  429SOL    HW1 2186   0.449   5.816   3.698
  429SOL    HW2 2187   0.436   5.902   3.560
  430SOL     OW 2188   1.705   0.174   4.256
  430SOL    HW1 2189   1.743   0.083   4.242
  430SOL    HW2 2190   1.718   0.202   4.351
  431SOL     OW 2191   2.724   1.401   0.933
  431SOL    HW1 2192   2.711   1.500   0.933
  431SOL    HW2 2193   2.820   1.380   0.954
  432SOL     OW 2194   4.829   1.429   1.212
  432SOL    HW1 2195   4.814   1.464   1.305
  432SOL    HW2 2196   4.748   1.445   1.157
  433SOL     OW 2197   1.814   4.648   0.901
  433SOL    HW1 2198   1.719   4.647   0.869
  433SOL    HW2 2199   1.827   4.723   0.966
  434SOL     OW 2200   4.306   5.237   2.956
  434SOL    HW1 2201   4.386   5.238   2.896
  434SOL    HW2 2202   4.315   5.310   3.024
  435SOL     OW 2203   3.813   2.805   6.029
  435SOL    HW1 2204   3.742   2.857   6.075
  435SOL    HW2 2205   3.782   2.781   5.937
  436SOL     OW 2206   5.463   6.033   1.455
  436SOL    HW1 2207   5.494   6.123   1.485
  436SOL    HW2 2208   5.517   5.963   1.503
  437SOL     OW 2209   0.022   1.288   5.230
  437SOL    HW1 2210   0.067   1.245   5.151
  437SOL    HW2 2211   6.994   1.370   5.199
  438SOL     OW 2212   0.742   4.449   2.642
  438SOL    HW1 2213   0.724   4.489   2.553
  438SOL    HW2 2214   0.655   4.436   2.691
  439SOL     OW 2215   0.370   0.231   5.714
  439SOL    HW1 2216   0.307   0.161   5.680
  439SOL    HW2 2217   0.432   0.189   5.781
  440SOL     OW 2218   4.719   2.014   0.643
  440SOL    HW1 2219   4.724   1.978   0.550
  440SOL    HW2 2220   4.715   1.938   0.708
  441SOL     OW 2221   0.059   4.412   2.362
  441SOL    HW1 2222   6.987   4.420   2.323
  441SOL    HW2 2223   0.072   4.483   2.432
  442SOL     OW 2224   4.138   3.521   5.041
  442SOL    HW1 2225   4.045   3.531   5.077
  442SOL    HW2 2226   4.204   3.543   5.112
  443SOL     OW 2227   4.740   2.923   3.201
  443SOL    HW1 2228   4.805   2.866   3.152
  443SOL    HW2 2229   4.747   3.017   3.169
  444SOL     OW 2230   3.849   2.232   1.320
  444SOL    HW1 2231   3.884   2.177   1.397
  444SOL    HW2 2232   3.775   2.290   1.352
  445SOL     OW 2233   2.715   5.456   2.755
  445SOL    HW1 2234   2.697   5.413   2.844
  445SOL    HW2 2235   2.750   5.386   2.692
  446SOL     OW 2236   6.409   6.799   1.814
  446SOL    HW1 2237   6.420   6.788   1.913
  446SOL    HW2 2238   6.467   6.873   1.782
  447SOL     OW 2239   5.898   3.853   0.380
  447SOL    HW1 2240   5.852   3.941   0.367
  447SOL    HW2 2241   5.991   3.869   0.413
  448SOL     OW 2242   3.530   6.336   3.978
  448SOL    HW1 2243   3.462   6.313   4.047
  448SOL    HW2 2244   3.494   6.317   3.887
  449SOL     OW 2245   1.015   4.083   4.313
  449SOL    HW1 2246   1.077   4.011   4.344
  449SOL    HW2 2247   1.017   4.159   4.378
  450SOL     OW 2248   6.883   4.330   3.197
  450SOL    HW1 2249   6.954   4.387   3.156
  450SOL    HW2 2250   6.925   4.248   3.237
  451SOL     OW 2251   1.118   2.101   0.633
  451SOL    HW1 2252   1.194   2.088   0.569
  451SOL    HW2 2253   1.153   2.140   0.719
  452SOL     OW 2254   4.097   5.416   1.927
  452SOL    HW1 2255   4.073   5.510   1.953
  452SOL    HW2 2256   4.197   5.407   1.928
  453SOL     OW 2257   3.958   1.392   6.892
  453SOL    HW1 2258   3.941   1.295   6.873
  453SOL    HW2 2259   3.893   1.424   6.961
  454SOL     OW 2260   0.181   3.337   4.548
  454SOL    HW1 2261   0.155   3.271   4.478
  454SOL    HW2 2262   0.219   3.418   4.505
  455SOL     OW 2263   5.268   5.043   5.902
  455SOL    HW1 2264   5.202   5.090   5.961
  455SOL    HW2 2265   5.309   4.967   5.953
  456SOL     OW 2266   2.227   0.715   2.966
  456SOL    HW1 2267   2.295   0.719   2.893
  456SOL    HW2 2268   2.236   0.630   3.017
  457SOL     OW 2269   2.476   6.584   6.905
  457SOL    HW1 2270   2.565   6.540   6.909
  457SOL    HW2 2271   2.445   6.589   6.810
  458SOL     OW 2272   3.962   1.423   3.294
  458SOL    HW1 2273   4.058   1.403   3.280
  458SOL    HW2 2274   3.915   1.425   3.205
  459SOL     OW 2275   3.250   0.728   3.030
  459SOL    HW1 2276   3.324   0.735   3.096
  459SOL    HW2 2277   3.187   0.655   3.057
  460SOL     OW 2278   0.784   1.665   6.169
  460SOL    HW1 2279   0.757   1.759   6.147
  460SOL    HW2 2280   0.875   1.647   6.132
  461SOL     OW 2281   1.429   6.164   5.317
  461SOL    HW1 2282   1.391   6.187   5.228
  461SOL    HW2 2283   1.394   6.227   5.386
  462SOL     OW 2284   3.576   4.145   4.642
  462SOL    HW1 2285   3.526   4.223   4.680
  462SOL    HW2 2286   3.511   4.078   4.607
  463SOL     OW 2287   5.651   5.941   3.324
  463SOL    HW1 2288   5.694   6.028   3.348
  463SOL    HW2 2289   5.635   5.938   3.225
  464SOL     OW 2290   4.312   5.362   5.250
  464SOL    HW1 2291   4.220   5.326   5.235
  464SOL    HW2 2292   4.377   5.313   5.191
  465SOL     OW 2293   0.365   4.668   6.775
  465SOL    HW1 2294   0.449   4.686   6.826
  465SOL    HW2 2295   0.377   4.589   6.716
  466SOL     OW 2296   3.977   5.291   4.365
  466SOL    HW1 2297   3.927   5.316   4.447
  466SOL    HW2 2298   4.031   5.369   4.333
  467SOL     OW 2299   6.700   0.678   1.898
  467SOL    HW1 2300   6.689   0.727   1.985
  467SOL    HW2 2301   6.737   0.587   1.916
  468SOL     OW 2302   2.538   6.066   6.234
  468SOL    HW1 2303   2.600   6.001   6.279
  468SOL    HW2 2304   2.444   6.047   6.261
  469SOL     OW 2305   3.095   4.756   5.182
  469SOL    HW1 2306   3.125   4.725   5.272
  469SOL    HW2 2307   3.019   4.699   5.150
  470SOL     OW 2308   2.060   4.934   3.103
  470SOL    HW1 2309   2.078   4.963   3.009
  470SOL    HW2 2310   1.962   4.917   3.115
  471SOL     OW 2311   1.648   2.087   3.732
  471SOL    HW1 2312   1.559   2.042   3.728
  471SOL    HW2 2313   1.668   2.128   3.643
  472SOL     OW 2314   5.375   4.233   6.871
  472SOL    HW1 2315   5.304   4.177   6.830
  472SOL    HW2 2316   5.363   4.329   6.843
  473SOL     OW 2317   4.926   3.514   2.455
  473SOL    HW1 2318   4.945   3.592   2.396
  473SOL    HW2 2319   4.916   3.431   2.400
  474SOL     OW 2320   4.952   5.609   3.926
  474SOL    HW1 2321   5.007   5.652   3.854
  474SOL    HW2 2322   4.994   5.627   4.015
  475SOL     OW 2323   5.854   1.654   0.865
  475SOL    HW1 2324   5.917   1.627   0.937
  475SOL    HW2 2325   5.764   1.613   0.883
  476SOL     OW 2326   1.324   4.190   0.254
  476SOL    HW1 2327   1.358   4.182   0.160
  476SOL    HW2 2328   1.311   4.099   0.293
  477SOL     OW 2329   0.077   5.338   2.764
  477SOL    HW1 2330   0.145   5.354   2.694
  477SOL    HW2 2331   0.080   5.412   2.832
  478SOL     OW 2332   5.973   5.677   2.872
  478SOL    HW1 2333   5.976   5.577   2.869
  478SOL    HW2 2334   6.062   5.713   2.899
  479SOL     OW 2335   3.002   3.894   3.059
  479SOL    HW1 2336   2.981   3.883   2.962
  479SOL    HW2 2337   3.087   3.946   3.069
  480SOL     OW 2338   0.972   0.871   2.104
  480SOL    HW1 2339   0.967   0.941   2.032
  480SOL    HW2 2340   1.068   0.847   2.121
  481SOL     OW 2341   5.756   6.919   0.948
  481SOL    HW1 2342   5.718   7.011   0.950
  481SOL    HW2 2343   5.853   6.924   0.923
  482SOL     OW 2344   3.879   4.915   2.591
  482SOL    HW1 2345   3.853   4.921   2.494
  482SOL    HW2 2346   3.802   4.879   2.644
  483SOL     OW 2347   5.911   1.266   3.767
  483SOL    HW1 2348   5.928   1.364   3.776
  483SOL    HW2 2349   5.956   1.216   3.841
  484SOL     OW 2350   2.014   5.126   3.312
  484SOL    HW1 2351   2.032   5.074   3.228
  484SOL    HW2 2352   2.098   5.135   3.364
  485SOL     OW 2353   5.062   1.850   0.797
  485SOL    HW1 2354   4.969   1.867   0.829
  485SOL    HW2 2355   5.083   1.912   0.722
  486SOL     OW 2356   5.839   0.080   5.842
  486SOL    HW1 2357   5.752   0.100   5.797
  486SOL    HW2 2358   5.911   0.074   5.772
  487SOL     OW 2359   0.320   1.066   6.588
  487SOL    HW1 2360   0.356   1.133   6.653
  487SOL    HW2 2361   0.354   0.975   6.612
  488SOL     OW 2362   1.814   5.590   3.441
  488SOL    HW1 2363   1.859   5.677   3.421
  488SOL    HW2 2364   1.724   5.607   3.481
  489SOL     OW 2365   3.058   5.157   5.474
  489SOL    HW1 2366   3.153   5.129   5.463
  489SOL    HW2 2367   2.999   5.077   5.473
  490SOL     OW 2368   1.357   3.538   4.723
  490SOL    HW1 2369   1.373   3.599   4.800
  490SOL    HW2 2370   1.440   3.532   4.667
  491SOL     OW 2371   6.072   2.686   0.987
  491SOL    HW1 2372   5.987   2.721   0.947
  491SOL    HW2 2373   6.139   2.671   0.915
  492SOL     OW 2374   1.620   2.396   5.715
  492SOL    HW1 2375   1.653   2.370   5.624
  492SOL    HW2 2376   1.522   2.375   5.722
  493SOL     OW 2377   2.070   5.585   4.352
  493SOL    HW1 2378   2.023   5.596   4.439
  493SOL    HW2 2379   2.007   5.604   4.277
  494SOL     OW 2380   2.965   0.976   4.261
  494SOL    HW1 2381   3.034   1.030   4.213
  494SOL    HW2 2382   2.936   1.025   4.343
  495SOL     OW 2383   3.751   4.387   6.765
  495SOL    HW1 2384   3.751   4.292   6.796
  495SOL    HW2 2385   3.742   4.389   6.665
  496SOL     OW 2386   5.040   1.150   3.000
  496SOL    HW1 2387   5.072   1.153   3.095
  496SOL    HW2 2388   5.119   1.154   2.939
  497SOL     OW 2389   4.286   2.206   0.689
  497SOL    HW1 2390   4.322   2.246   0.774
  497SOL    HW2 2391   4.352   2.141   0.652
  498SOL     OW 2392   0.155   0.608   1.270
  498SOL    HW1 2393   0.185   0.703   1.262
  498SOL    HW2 2394   0.208   0.563   1.342
  499SOL     OW 2395   2.979   6.190   0.136
  499SOL    HW1 2396   3.076   6.170   0.153
  499SOL    HW2 2397   2.948   6.259   0.201
  500SOL     OW 2398   5.692   1.992   6.134
  500SOL    HW1 2399   5.704   1.965   6.230
  500SOL    HW2 2400   5.626   2.067   6.128
  501SOL     OW 2401   2.034   1.771   4.460
  501SOL    HW1 2402   2.032   1.781   4.361
  501SOL    HW2 2403   2.127   1.785   4.494
  502SOL     OW 2404   2.643   4.081   6.820
  502SOL    HW1 2405   2.605   4.018   6.752
  502SOL    HW2 2406   2.604   4.172   6.807
  503SOL     OW 2407   3.198   5.083   1.534
  503SOL    HW1 2408   3.110   5.094   1.488
  503SOL    HW2 2409   3.237   5.172   1.554
  504SOL     OW 2410   5.923   6.615   0.269
  504SOL    HW1 2411   5.978   6.693   0.298
  504SOL    HW2 2412   5.981   6.534   0.260
  505SOL     OW 2413   5.901   4.866   5.543
  505SOL    HW1 2414   5.805   4.866   5.572
  505SOL    HW2 2415   5.919   4.786   5.487
  506SOL     OW 2416   3.520   5.252   2.743
  506SOL    HW1 2417   3.479   5.336   2.706
  506SOL    HW2 2418   3.465   5.173   2.717
  507SOL     OW 2419   3.556   0.379   2.326
  507SOL    HW1 2420   3.548   0.286   2.360
  507SOL    HW2 2421   3.580   0.440   2.402
  508SOL     OW 2422   0.779   4.909   3.522
  508SOL    HW1 2423   0.710   4.838   3.539
  508SOL    HW2 2424   0.840   4.915   3.601
  509SOL     OW 2425   4.284   6.960   6.463
  509SOL    HW1 2426   4.229   0.001   6.520
  509SOL    HW2 2427   4.294   6.999   6.372
  510SOL     OW 2428   6.583   4.262   0.382
  510SOL    HW1 2429   6.487   4.234   0.379
  510SOL    HW2 2430   6.589   4.360   0.402
  511SOL     OW 2431   0.802   1.371   6.839
  511SOL    HW1 2432   0.872   1.360   6.910
  511SOL    HW2 2433   0.727   1.427   6.874
  512SOL     OW 2434   0.378   2.611   4.130
  512SOL    HW1 2435   0.376   2.596   4.031
  512SOL    HW2 2436   0.315   2.547   4.175
  513SOL     OW 2437   5.569   6.768   2.910
  513SOL    HW1 2438   5.531   6.679   2.889
  513SOL    HW2 2439   5.505   6.820   2.966
  514SOL     OW 2440   4.986   1.735   5.081
  514SOL    HW1 2441   5.018   1.812   5.136
  514SOL    HW2 2442   4.949   1.664   5.142
  515SOL     OW 2443   3.426   1.040   6.927
  515SOL    HW1 2444   3.451   1.086   6.842
  515SOL    HW2 2445   3.485   0.960   6.940
  516SOL     OW 2446   1.508   6.041   1.898
  516SOL    HW1 2447   1.462   5.985   1.967
  516SOL    HW2 2448   1.443   6.064   1.826
  517SOL     OW 2449   3.512   5.443   1.683
  517SOL    HW1 2450   3.541   5.537   1.702
  517SOL    HW2 2451   3.534   5.385   1.762
  518SOL     OW 2452   2.458   5.887   4.490
  518SOL    HW1 2453   2.485   5.840   4.574
  518SOL    HW2 2454   2.477   5.985   4.498
  519SOL     OW 2455   6.573   0.355   2.286
  519SOL    HW1 2456   6.531   0.264   2.294
  519SOL    HW2 2457   6.639   0.368   2.360
  520SOL     OW 2458   2.167   4.994   1.084
  520SOL    HW1 2459   2.243   5.003   1.149
  520SOL    HW2 2460   2.183   4.913   1.026
  521SOL     OW 2461   6.083   6.030   5.617
  521SOL    HW1 2462   6.144   6.103   5.647
  521SOL    HW2 2463   5.988   6.057   5.633
  522SOL     OW 2464   3.704   4.335   0.135
  522SOL    HW1 2465   3.766   4.302   0.064
  522SOL    HW2 2466   3.755   4.344   0.221
  523SOL     OW 2467   1.887   6.767   6.242
  523SOL    HW1 2468   1.814   6.720   6.292
  523SOL    HW2 2469   1.850   6.846   6.195
  524SOL     OW 2470   0.157   1.114   0.989
  524SOL    HW1 2471   0.231   1.049   1.006
  524SOL    HW2 2472   0.153   1.137   0.892
  525SOL     OW 2473   0.366   3.058   3.409
  525SOL    HW1 2474   0.406   2.983   3.461
  525SOL    HW2 2475   0.413   3.067   3.321
  526SOL     OW 2476   4.347   0.114   4.333
  526SOL    HW1 2477   4.329   0.177   4.408
  526SOL    HW2 2478   4.437   0.071   4.345
  527SOL     OW 2479   0.503   0.981   1.077
  527SOL    HW1 2480   0.535   0.943   0.990
  527SOL    HW2 2481   0.506   1.081   1.073
  528SOL     OW 2482   0.215   2.427   4.284
  528SOL    HW1 2483   0.303   2.394   4.320
  528SOL    HW2 2484   0.161   2.349   4.252
  529SOL     OW 2485   1.779   0.259   5.926
  529SOL    HW1 2486   1.726   0.194   5.871
  529SOL    HW2 2487   1.869   0.273   5.884
  530SOL     OW 2488   2.680   4.694   1.275
  530SOL    HW1 2489   2.661   4.708   1.178
  530SOL    HW2 2490   2.775   4.664   1.287
  531SOL     OW 2491   1.131   0.590   6.565
  531SOL    HW1 2492   1.145   0.639   6.651
  531SOL    HW2 2493   1.185   0.634   6.493
  532SOL     OW 2494   2.872   0.937   6.121
  532SOL    HW1 2495   2.960   0.953   6.165
  532SOL    HW2 2496   2.878   0.856   6.062
  533SOL     OW 2497   3.999   0.085   4.179
  533SOL    HW1 2498   4.020   0.083   4.081
  533SOL    HW2 2499   3.996   0.180   4.209
  534SOL     OW 2500   1.640   4.030   2.181
  534SOL    HW1 2501   1.690   4.034   2.268
  534SOL    HW2 2502   1.646   4.120   2.136
  535SOL     OW 2503   4.953   4.332   4.568
  535SOL    HW1 2504   4.876   4.294   4.619
  535SOL    HW2 2505   5.030   4.268   4.571
  536SOL     OW 2506   6.703   6.266   1.550
  536SOL    HW1 2507   6.734   6.360   1.532
  536SOL    HW2 2508   6.772   6.218   1.604
  537SOL     OW 2509   2.534   1.790   2.282
  537SOL    HW1 2510   2.634   1.785   2.277
  537SOL    HW2 2511   2.503   1.879   2.248
  538SOL     OW 2512   3.873   4.666   5.257
  538SOL    HW1 2513   3.901   4.596   5.324
  538SOL    HW2 2514   3.805   4.726   5.298
  539SOL     OW 2515   2.216   0.158   6.665
  539SOL    HW1 2516   2.169   0.075   6.697
  539SOL    HW2 2517   2.295   0.132   6.609
  540SOL     OW 2518   1.899   0.847   5.163
  540SOL    HW1 2519   1.935   0.764   5.120
  540SOL    HW2 2520   1.874   0.913   5.092
  541SOL     OW 2521   5.415   6.356   3.492
  541SOL    HW1 2522   5.386   6.266   3.526
  541SOL    HW2 2523   5.339   6.421   3.500
  542SOL     OW 2524   3.711   6.404   6.170
  542SOL    HW1 2525   3.637   6.372   6.110
  542SOL    HW2 2526   3.753   6.485   6.130
  543SOL     OW 2527   5.747   2.790   3.747
  543SOL    HW1 2528   5.837   2.794   3.791
  543SOL    HW2 2529   5.681   2.749   3.810
  544SOL     OW 2530   1.366   3.228   1.158
  544SOL    HW1 2531   1.287   3.195   1.211
  544SOL    HW2 2532   1.389   3.321   1.189
  545SOL     OW 2533   6.754   5.581   0.636
  545SOL    HW1 2534   6.733   5.678   0.621
  545SOL    HW2 2535   6.791   5.568   0.728
  546SOL     OW 2536   6.909   4.346   1.970
  546SOL    HW1 2537   6.989   4.382   1.922
  546SOL    HW2 2538   6.932   4.258   2.012
  547SOL     OW 2539   4.299   0.160   6.918
  547SOL    HW1 2540   4.241   0.188   6.842
  547SOL    HW2 2541   4.388   0.130   6.883
  548SOL     OW 2542   4.209   2.950   0.203
  548SOL    HW1 2543   4.255   2.862   0.192
  548SOL    HW2 2544   4.274   3.017   0.240
  549SOL     OW 2545   5.240   1.980   3.194
  549SOL    HW1 2546   5.335   1.957   3.171
  549SOL    HW2 2547   5.184   1.976   3.112
  550SOL     OW 2548   6.997   5.821   4.026
  550SOL    HW1 2549   7.017   5.864   4.115
  550SOL    HW2 2550   0.021   5.731   4.021
  551SOL     OW 2551   5.619   0.338   6.968
  551SOL    HW1 2552   5.537   0.352   0.004
  551SOL    HW2 2553   5.671   0.423   6.963
  552SOL     OW 2554   0.709   0.083   4.768
  552SOL    HW1 2555   0.802   0.075   4.805
  552SOL    HW2 2556   0.675   0.176   4.785
  553SOL     OW 2557   3.521   2.585   6.058
  553SOL    HW1 2558   3.529   2.636   5.972
  553SOL    HW2 2559   3.606   2.594   6.110
  554SOL     OW 2560   6.704   5.860   0.569
  554SOL    HW1 2561   6.663   5.815   0.490
  554SOL    HW2 2562   6.633   5.907   0.621
  555SOL     OW 2563   2.800   3.685   5.518
  555SOL    HW1 2564   2.773   3.762   5.460
  555SOL    HW2 2565   2.886   3.706   5.564
  556SOL     OW 2566   6.229   6.476   3.190
  556SOL    HW1 2567   6.294   6.474   3.114
  556SOL    HW2 2568   6.278   6.460   3.276
  557SOL     OW 2569   5.312   4.446   6.406
  557SOL    HW1 2570   5.368   4.517   6.451
  557SOL    HW2 2571   5.372   4.381   6.359
  558SOL     OW 2572   3.626   3.489   2.427
  558SOL    HW1 2573   3.611   3.395   2.458
  558SOL    HW2 2574   3.683   3.537   2.493
  559SOL     OW 2575   6.597   0.949   6.326
  559SOL    HW1 2576   6.619   0.852   6.321
  559SOL    HW2 2577   6.498   0.961   6.320
  560SOL     OW 2578   0.013   2.677   4.350
  560SOL    HW1 2579   6.950   2.647   4.398
  560SOL    HW2 2580   0.066   2.597   4.321
  561SOL     OW 2581   0.411   4.061   0.267
  561SOL    HW1 2582   0.339   4.001   0.232
  561SOL    HW2 2583   0.444   4.025   0.354
  562SOL     OW 2584   4.710   6.192   3.973
  562SOL    HW1 2585   4.669   6.131   3.905
  562SOL    HW2 2586   4.642   6.258   4.005
  563SOL     OW 2587   1.257   0.919   4.004
  563SOL    HW1 2588   1.297   0.937   3.914
  563SOL    HW2 2589   1.330   0.913   4.072
  564SOL     OW 2590   6.052   1.736   6.234
  564SOL    HW1 2591   6.068   1.793   6.154
  564SOL    HW2 2592   6.132   1.679   6.252
  565SOL     OW 2593   3.345   2.892   3.562
  565SOL    HW1 2594   3.287   2.945   3.501
  565SOL    HW2 2595   3.355   2.940   3.650
  566SOL     OW 2596   2.481   1.628   3.561
  566SOL    HW1 2597   2.420   1.561   3.605
  566SOL    HW2 2598   2.510   1.696   3.628
  567SOL     OW 2599   2.009   3.057   5.387
  567SOL    HW1 2600   2.082   3.007   5.340
  567SOL    HW2 2601   2.034   3.154   5.395
  568SOL     OW 2602   0.799   6.318   6.877
  568SOL    HW1 2603   0.803   6.336   6.779
  568SOL    HW2 2604   0.704   6.314   6.907
  569SOL     OW 2605   5.701   3.649   6.705
  569SOL    HW1 2606   5.721   3.608   6.794
  569SOL    HW2 2607   5.627   3.598   6.661
  570SOL     OW 2608   3.636   0.608   6.034
  570SOL    HW1 2609   3.656   0.582   6.129
  570SOL    HW2 2610   3.721   0.635   5.989
  571SOL     OW 2611   2.414   4.689   1.716
  571SOL    HW1 2612   2.431   4.596   1.684
  571SOL    HW2 2613   2.487   4.717   1.779
  572SOL     OW 2614   2.893   0.918   4.702
  572SOL    HW1 2615   2.948   0.970   4.768
  572SOL    HW2 2616   2.952   0.851   4.656
  573SOL     OW 2617   0.344   0.487   5.310
  573SOL    HW1 2618   0.443   0.472   5.313
  573SOL    HW2 2619   0.325   0.568   5.254
  574SOL     OW 2620   2.623   0.870   5.973
  574SOL    HW1 2621   2.614   0.970   5.977
  574SOL    HW2 2622   2.706   0.847   5.923
  575SOL     OW 2623   4.023   4.096   6.807
  575SOL    HW1 2624   3.972   4.081   6.892
  575SOL    HW2 2625   4.118   4.065   6.821
  576SOL     OW 2626   1.690   1.239   2.857
  576SOL    HW1 2627   1.614   1.200   2.909
  576SOL    HW2 2628   1.657   1.270   2.768
  577SOL     OW 2629   0.600   0.814   2.025
  577SOL    HW1 2630   0.636   0.805   1.932
  577SOL    HW2 2631   0.558   0.904   2.035
  578SOL     OW 2632   3.540   6.567   6.772
  578SOL    HW1 2633   3.480   6.633   6.728
  578SOL    HW2 2634   3.606   6.532   6.705
  579SOL     OW 2635   0.974   3.389   1.908
  579SOL    HW1 2636   1.061   3.382   1.956
  579SOL    HW2 2637   0.942   3.484   1.911
  580SOL     OW 2638   4.686   4.885   4.511
  580SOL    HW1 2639   4.684   4.984   4.494
  580SOL    HW2 2640   4.758   4.844   4.455
  581SOL     OW 2641   2.063   2.488   4.298
  581SOL    HW1 2642   2.162   2.472   4.303
  581SOL    HW2 2643   2.047   2.581   4.265
  582SOL     OW 2644   5.696   4.382   4.850
  582SOL    HW1 2645   5.688   4.399   4.948
  582SOL    HW2 2646   5.756   4.451   4.809
  583SOL     OW 2647   3.657   6.286   5.739
  583SOL    HW1 2648   3.570   6.275   5.689
  583SOL    HW2 2649   3.700   6.197   5.751
  584SOL     OW 2650   3.853   0.406   5.193
  584SOL    HW1 2651   3.897   0.479   5.246
  584SOL    HW2 2652   3.820   0.444   5.106
  585SOL     OW 2653   3.619   6.574   1.714
  585SOL    HW1 2654   3.613   6.634   1.635
  585SOL    HW2 2655   3.532   6.574   1.763
  586SOL     OW 2656   3.446   0.297   0.669
  586SOL    HW1 2657   3.449   0.261   0.575
  586SOL    HW2 2658   3.380   0.372   0.673
  587SOL     OW 2659   4.864   1.497   2.048
  587SOL    HW1 2660   4.818   1.463   1.966
  587SOL    HW2 2661   4.800   1.551   2.102
  588SOL     OW 2662   1.759   4.628   2.841
  588SOL    HW1 2663   1.690   4.562   2.811
  588SOL    HW2 2664   1.795   4.600   2.930
  589SOL     OW 2665   3.422   5.329   0.715
  589SOL    HW1 2666   3.520   5.309   0.725
  589SOL    HW2 2667   3.388   5.372   0.798
  590SOL     OW 2668   3.072   2.269   6.647
  590SOL    HW1 2669   3.022   2.325   6.713
  590SOL    HW2 2670   3.150   2.321   6.612
  591SOL     OW 2671   2.775   6.861   3.792
  591SOL    HW1 2672   2.869   6.890   3.811
  591SOL    HW2 2673   2.726   6.849   3.879
  592SOL     OW 2674   4.601   2.642   4.193
  592SOL    HW1 2675   4.637   2.568   4.251
  592SOL    HW2 2676   4.555   2.602   4.114
  593SOL     OW 2677   2.146   1.526   6.538
  593SOL    HW1 2678   2.082   1.460   6.499
  593SOL    HW2 2679   2.237   1.512   6.498
  594SOL     OW 2680   4.523   1.295   3.285
  594SOL    HW1 2681   4.599   1.259   3.232
  594SOL    HW2 2682   4.556   1.329   3.374
  595SOL     OW 2683   6.122   4.733   2.938
  595SOL    HW1 2684   6.195   4.733   3.007
  595SOL    HW2 2685   6.136   4.810   2.875
  596SOL     OW 2686   6.527   4.899   4.473
  596SOL    HW1 2687   6.539   4.898   4.572
  596SOL    HW2 2688   6.430   4.888   4.451
  597SOL     OW 2689   3.386   1.663   6.689
  597SOL    HW1 2690   3.483   1.663   6.667
  597SOL    HW2 2691   3.349   1.571   6.677
  598SOL     OW 2692   3.536   3.640   3.264
  598SOL    HW1 2693   3.560   3.731   3.229
  598SOL    HW2 2694   3.591   3.571   3.218
  599SOL     OW 2695   1.461   5.184   1.624
  599SOL    HW1 2696   1.487   5.273   1.663
  599SOL    HW2 2697   1.472   5.187   1.525
  600SOL     OW 2698   6.938   3.458   5.689
  600SOL    HW1 2699   6.898   3.547   5.710
  600SOL    HW2 2700   6.987   3.463   5.602
  601SOL     OW 2701   0.293   6.362   5.741
  601SOL    HW1 2702   0.231   6.371   5.663
  601SOL    HW2 2703   0.356   6.440   5.742
  602SOL     OW 2704   1.939   0.784   3.629
  602SOL    HW1 2705   1.859   0.842   3.643
  602SOL    HW2 2706   1.911   0.688   3.625
  603SOL     OW 2707   2.055   1.817   4.167
  603SOL    HW1 2708   1.973   1.764   4.187
  603SOL    HW2 2709   2.048   1.907   4.210
  604SOL     OW 2710   5.814   2.766   0.939
  604SOL    HW1 2711   5.756   2.795   1.015
  604SOL    HW2 2712   5.758   2.730   0.865
  605SOL     OW 2713   6.324   6.311   1.137
  605SOL    HW1 2714   6.230   6.323   1.105
  605SOL    HW2 2715   6.368   6.401   1.144
  606SOL     OW 2716   3.500   6.665   4.986
  606SOL    HW1 2717   3.428   6.632   4.926
  606SOL    HW2 2718   3.477   6.757   5.018
  607SOL     OW 2719   1.717   2.707   6.023
  607SOL    HW1 2720   1.726   2.611   5.999
  607SOL    HW2 2721   1.621   2.728   6.041
  608SOL     OW 2722   3.340   1.452   6.461
  608SOL    HW1 2723   3.365   1.505   6.380
  608SOL    HW2 2724   3.423   1.429   6.513
  609SOL     OW 2725   3.697   2.981   2.136
  609SOL    HW1 2726   3.708   3.078   2.159
  609SOL    HW2 2727   3.698   2.970   2.037
  610SOL     OW 2728   4.772   3.538   1.577
  610SOL    HW1 2729   4.859   3.521   1.622
  610SOL    HW2 2730   4.747   3.458   1.521
  611SOL     OW 2731   4.180   1.388   2.703
  611SOL    HW1 2732   4.088   1.351   2.709
  611SOL    HW2 2733   4.236   1.328   2.646
  612SOL     OW 2734   4.894   4.822   3.760
  612SOL    HW1 2735   4.900   4.723   3.748
  612SOL    HW2 2736   4.858   4.843   3.851
  613SOL     OW 2737   3.923   4.567   6.281
  613SOL    HW1 2738   3.948   4.606   6.370
  613SOL    HW2 2739   3.856   4.627   6.237
  614SOL     OW 2740   2.550   6.669   6.263
  614SOL    HW1 2741   2.480   6.640   6.328
  614SOL    HW2 2742   2.583   6.760   6.288
  615SOL     OW 2743   0.053   4.791   2.822
  615SOL    HW1 2744   0.022   4.732   2.896
  615SOL    HW2 2745   0.122   4.742   2.767
  616SOL     OW 2746   6.177   3.380   3.720
  616SOL    HW1 2747   6.251   3.315   3.735
  616SOL    HW2 2748   6.095   3.349   3.768
  617SOL     OW 2749   3.318   6.579   5.932
  617SOL    HW1 2750   3.340   6.613   6.023
  617SOL    HW2 2751   3.284   6.655   5.876
  618SOL     OW 2752   1.536   0.794   3.900
  618SOL    HW1 2753   1.510   0.871   3.840
  618SOL    HW2 2754   1.635   0.795   3.913
  619SOL     OW 2755   0.903   2.198   6.260
  619SOL    HW1 2756   0.935   2.291   6.242
  619SOL    HW2 2757   0.841   2.199   6.338
  620SOL     OW 2758   4.367   3.209   0.439
  620SOL    HW1 2759   4.419   3.175   0.360
  620SOL    HW2 2760   4.333   3.301   0.420
  621SOL     OW 2761   0.191   6.096   0.601
  621SOL    HW1 2762   0.159   6.082   0.695
  621SOL    HW2 2763   0.119   6.068   0.537
  622SOL     OW 2764   0.592   0.780   6.894
  622SOL    HW1 2765   0.653   0.796   6.972
  622SOL    HW2 2766   0.523   0.712   6.919
  623SOL     OW 2767   0.271   5.184   4.945
  623SOL    HW1 2768   0.226   5.224   5.025
  623SOL    HW2 2769   0.365   5.216   4.940
  624SOL     OW 2770   0.962   1.657   1.570
  624SOL    HW1 2771   0.989   1.630   1.662
  624SOL    HW2 2772   1.043   1.686   1.518
  625SOL     OW 2773   1.556   1.206   3.211
  625SOL    HW1 2774   1.525   1.196   3.306
  625SOL    HW2 2775   1.648   1.168   3.202
  626SOL     OW 2776   3.050   6.036   4.628
  626SOL    HW1 2777   3.049   6.109   4.559
  626SOL    HW2 2778   3.124   5.972   4.607
  627SOL     OW 2779   5.373   6.625   0.209
  627SOL    HW1 2780   5.423   6.711   0.197
  627SOL    HW2 2781   5.276   6.640   0.189
  628SOL     OW 2782   5.615   4.343   3.168
  628SOL    HW1 2783   5.516   4.337   3.179
  628SOL    HW2 2784   5.652   4.252   3.149
  629SOL     OW 2785   1.203   6.967   1.284
  629SOL    HW1 2786   1.145   0.029   1.289
  629SOL    HW2 2787   1.298   6.995   1.270
  630SOL     OW 2788   2.732   1.691   0.971
  630SOL    HW1 2789   2.763   1.675   1.065
  630SOL    HW2 2790   2.800   1.747   0.923
  631SOL     OW 2791   2.965   0.502   4.499
  631SOL    HW1 2792   2.959   0.594   4.460
  631SOL    HW2 2793   2.888   0.487   4.561
  632SOL     OW 2794   2.986   0.283   1.150
  632SOL    HW1 2795   2.933   0.259   1.069
  632SOL    HW2 2796   2.975   0.380   1.170
  633SOL     OW 2797   2.161   6.770   5.249
  633SOL    HW1 2798   2.068   6.732   5.251
  633SOL    HW2 2799   2.220   6.714   5.307
  634SOL     OW 2800   3.048   5.464   1.708
  634SOL    HW1 2801   3.078   5.508   1.793
  634SOL    HW2 2802   2.996   5.382   1.729
  635SOL     OW 2803   2.932   0.013   3.329
  635SOL    HW1 2804   3.017   0.062   3.310
  635SOL    HW2 2805   2.857   0.056   3.279
  636SOL     OW 2806   4.579   5.290   6.979
  636SOL    HW1 2807   4.489   5.320   6.948
  636SOL    HW2 2808   4.570   5.206   0.012
  637SOL     OW 2809   6.041   4.212   0.142
  637SOL    HW1 2810   6.009   4.284   0.203
  637SOL    HW2 2811   5.971   4.194   0.072
  638SOL     OW 2812   5.569   1.324   2.989
  638SOL    HW1 2813   5.490   1.297   3.044
  638SOL    HW2 2814   5.650   1.328   3.048
  639SOL     OW 2815   4.941   4.081   1.945
  639SOL    HW1 2816   4.919   4.113   2.037
  639SOL    HW2 2817   4.867   4.105   1.882
  640SOL     OW 2818   2.271   3.216   5.905
  640SOL    HW1 2819   2.317   3.190   5.820
  640SOL    HW2 2820   2.231   3.307   5.895
  641SOL     OW 2821   0.205   5.820   5.618
  641SOL    HW1 2822   0.153   5.783   5.695
  641SOL    HW2 2823   0.303   5.816   5.638
  642SOL     OW 2824   1.574   4.633   6.230
  642SOL    HW1 2825   1.490   4.609   6.181
  642SOL    HW2 2826   1.572   4.730   6.254
  643SOL     OW 2827   6.075   6.152   4.885
  643SOL    HW1 2828   5.994   6.094   4.890
  643SOL    HW2 2829   6.049   6.248   4.899
  644SOL     OW 2830   2.293   5.969   1.855
  644SOL    HW1 2831   2.256   5.881   1.883
  644SOL    HW2 2832   2.350   6.006   1.928
  645SOL     OW 2833   6.590   2.324   3.020
  645SOL    HW1 2834   6.565   2.413   3.058
  645SOL    HW2 2835   6.581   2.254   3.090
  646SOL     OW 2836   1.125   2.636   4.327
  646SOL    HW1 2837   1.051   2.694   4.359
  646SOL    HW2 2838   1.211   2.688   4.327
  647SOL     OW 2839   5.219   3.112   0.078
  647SOL    HW1 2840   5.248   3.115   7.002
  647SOL    HW2 2841   5.300   3.112   0.137
  648SOL     OW 2842   4.783   2.347   4.068
  648SOL    HW1 2843   4.789   2.377   4.163
  648SOL    HW2 2844   4.709   2.397   4.022
  649SOL     OW 2845   4.538   4.561   2.041
  649SOL    HW1 2846   4.467   4.613   1.994
  649SOL    HW2 2847   4.532   4.465   2.015
  650SOL     OW 2848   5.108   4.134   0.868
  650SOL    HW1 2849   5.031   4.165   0.924
  650SOL    HW2 2850   5.076   4.069   0.799
  651SOL     OW 2851   0.796   6.337   6.258
  651SOL    HW1 2852   0.765   6.403   6.189
  651SOL    HW2 2853   0.836   6.387   6.335
  652SOL     OW 2854   4.822   1.599   2.573
  652SOL    HW1 2855   4.916   1.609   2.608
  652SOL    HW2 2856   4.791   1.505   2.587
  653SOL     OW 2857   3.590   4.864   2.659
  653SOL    HW1 2858   3.535   4.909   2.589
  653SOL    HW2 2859   3.535   4.850   2.741
  654SOL     OW 2860   6.443   5.771   6.402
  654SOL    HW1 2861   6.360   5.792   6.453
  654SOL    HW2 2862   6.500   5.708   6.455
  655SOL     OW 2863   0.283   1.370   6.971
  655SOL    HW1 2864   0.349   1.307   6.930
  655SOL    HW2 2865   0.231   1.322   0.022
  656SOL     OW 2866   2.481   6.124   1.145
  656SOL    HW1 2867   2.495   6.066   1.225
  656SOL    HW2 2868   2.383   6.139   1.131
  657SOL     OW 2869   3.686   1.442   0.007
  657SOL    HW1 2870   3.719   1.506   0.076
  657SOL    HW2 2871   3.644   1.363   0.052
  658SOL     OW 2872   3.630   5.438   6.401
  658SOL    HW1 2873   3.677   5.462   6.315
  658SOL    HW2 2874   3.555   5.502   6.416
  659SOL     OW 2875   3.754   0.675   5.501
  659SOL    HW1 2876   3.734   0.602   5.567
  659SOL    HW2 2877   3.713   0.760   5.533
  660SOL     OW 2878   3.808   5.655   3.376
  660SOL    HW1 2879   3.778   5.740   3.332
  660SOL    HW2 2880   3.735   5.587   3.369
  661SOL     OW 2881   5.742   5.461   2.725
  661SOL    HW1 2882   5.768   5.502   2.637
  661SOL    HW2 2883   5.821   5.461   2.786
  662SOL     OW 2884   3.900   1.726   0.546
  662SOL    HW1 2885   3.934   1.662   0.477
  662SOL    HW2 2886   3.965   1.730   0.622
  663SOL     OW 2887   1.738   4.445   4.867
  663SOL    HW1 2888   1.796   4.464   4.788
  663SOL    HW2 2889   1.795   4.428   4.948
  664SOL     OW 2890   5.726   0.062   6.594
  664SOL    HW1 2891   5.705   0.046   6.497
  664SOL    HW2 2892   5.802   0.003   6.622
  665SOL     OW 2893   0.934   4.762   1.950
  665SOL    HW1 2894   0.978   4.852   1.944
  665SOL    HW2 2895   0.835   4.773   1.946
  666SOL     OW 2896   4.500   1.467   1.306
  666SOL    HW1 2897   4.583   1.486   1.356
  666SOL    HW2 2898   4.514   1.486   1.209
  667SOL     OW 2899   1.126   0.270   2.562
  667SOL    HW1 2900   1.092   0.340   2.500
  667SOL    HW2 2901   1.131   0.307   2.655
  668SOL     OW 2902   5.794   3.193   0.435
  668SOL    HW1 2903   5.871   3.129   0.439
  668SOL    HW2 2904   5.721   3.161   0.495
  669SOL     OW 2905   5.038   1.561   2.774
  669SOL    HW1 2906   5.090   1.542   2.690
  669SOL    HW2 2907   5.100   1.558   2.853
  670SOL     OW 2908   3.623   2.093   2.898
  670SOL    HW1 2909   3.589   2.136   2.981
  670SOL    HW2 2910   3.571   2.125   2.819
  671SOL     OW 2911   2.203   6.236   2.000
  671SOL    HW1 2912   2.278   6.233   1.934
  671SOL    HW2 2913   2.224   6.176   2.077
  672SOL     OW 2914   0.828   6.913   2.195
  672SOL    HW1 2915   0.808   6.881   2.102
  672SOL    HW2 2916   0.926   6.900   2.214
  673SOL     OW 2917   5.928   6.950   6.734
  673SOL    HW1 2918   5.998   0.002   6.728
  673SOL    HW2 2919   5.968   6.862   6.707
  674SOL     OW 2920   5.193   0.809   3.855
  674SOL    HW1 2921   5.126   0.822   3.782
  674SOL    HW2 2922   5.169   0.729   3.909
  675SOL     OW 2923   0.537   3.622   2.894
  675SOL    HW1 2924   0.504   3.554   2.828
  675SOL    HW2 2925   0.622   3.662   2.860
  676SOL     OW 2926   2.362   6.343   6.155
  676SOL    HW1 2927   2.416   6.331   6.239
  676SOL    HW2 2928   2.348   6.441   6.140
  677SOL     OW 2929   5.660   1.923   1.187
  677SOL    HW1 2930   5.632   1.942   1.281
  677SOL    HW2 2931   5.643   1.826   1.167
  678SOL     OW 2932   1.106   5.105   3.634
  678SOL    HW1 2933   1.035   5.167   3.600
  678SOL    HW2 2934   1.109   5.023   3.577
  679SOL     OW 2935   4.740   2.045   5.047
  679SOL    HW1 2936   4.834   2.013   5.055
  679SOL    HW2 2937   4.738   2.145   5.048
  680SOL     OW 2938   6.455   6.077   3.711
  680SOL    HW1 2939   6.533   6.017   3.727
  680SOL    HW2 2940   6.459   6.154   3.774
  681SOL     OW 2941   4.610   4.377   2.881
  681SOL    HW1 2942   4.680   4.330   2.827
  681SOL    HW2 2943   4.598   4.329   2.968
  682SOL     OW 2944   0.387   1.666   3.082
  682SOL    HW1 2945   0.456   1.599   3.056
  682SOL    HW2 2946   0.296   1.623   3.078
  683SOL     OW 2947   3.441   4.146   1.353
  683SOL    HW1 2948   3.426   4.168   1.450
  683SOL    HW2 2949   3.399   4.058   1.332
  684SOL     OW 2950   6.470   1.396   5.580
  684SOL    HW1 2951   6.551   1.435   5.625
  684SOL    HW2 2952   6.488   1.300   5.558
  685SOL     OW 2953   3.028   6.814   2.860
  685SOL    HW1 2954   2.963   6.888   2.838
  685SOL    HW2 2955   3.004   6.733   2.807
  686SOL     OW 2956   4.029   0.859   5.086
  686SOL    HW1 2957   3.983   0.948   5.084
  686SOL    HW2 2958   4.005   0.808   5.004
  687SOL     OW 2959   6.849   1.371   4.106
  687SOL    HW1 2960   6.942   1.334   4.104
  687SOL    HW2 2961   6.850   1.464   4.140
  688SOL     OW 2962   5.672   1.215   0.058
  688SOL    HW1 2963   5.710   1.291   0.110
  688SOL    HW2 2964   5.679   1.235   6.980
  689SOL     OW 2965   1.755   5.411   6.813
  689SOL    HW1 2966   1.726   5.500   6.778
  689SOL    HW2 2967   1.802   5.360   6.741
  690SOL     OW 2968   5.645   4.091   3.337
  690SOL    HW1 2969   5.684   4.041   3.415
  690SOL    HW2 2970   5.709   4.091   3.261
  691SOL     OW 2971   5.893   1.491   1.378
  691SOL    HW1 2972   5.978   1.454   1.414
  691SOL    HW2 2973   5.818   1.468   1.440
  692SOL     OW 2974   1.952   1.075   4.484
  692SOL    HW1 2975   1.930   1.027   4.399
  692SOL    HW2 2976   2.023   1.025   4.534
  693SOL     OW 2977   6.096   5.083   3.325
  693SOL    HW1 2978   5.997   5.092   3.338
  693SOL    HW2 2979   6.124   4.989   3.348
  694SOL     OW 2980   4.641   6.120   4.612
  694SOL    HW1 2981   4.629   6.131   4.711
  694SOL    HW2 2982   4.551   6.108   4.570
  695SOL     OW 2983   4.898   6.894   4.111
  695SOL    HW1 2984   4.995   6.912   4.090
  695SOL    HW2 2985   4.876   6.800   4.086
  696SOL     OW 2986   5.703   4.132   2.378
  696SOL    HW1 2987   5.714   4.214   2.322
  696SOL    HW2 2988   5.747   4.055   2.333
  697SOL     OW 2989   1.133   6.432   2.113
  697SOL    HW1 2990   1.070   6.375   2.060
  697SOL    HW2 2991   1.227   6.411   2.087
  698SOL     OW 2992   5.553   5.860   6.457
  698SOL    HW1 2993   5.618   5.802   6.409
  698SOL    HW2 2994   5.580   5.956   6.447
  699SOL     OW 2995   3.718   3.479   0.566
  699SOL    HW1 2996   3.646   3.524   0.618
  699SOL    HW2 2997   3.807   3.503   0.603
  700SOL     OW 2998   3.944   6.648   4.999
  700SOL    HW1 2999   3.882   6.724   5.019
  700SOL    HW2 3000   4.026   6.683   4.954
  701SOL     OW 3001   4.315   4.953   1.019
  701SOL    HW1 3002   4.272   4.890   0.955
  701SOL    HW2 3003   4.280   5.045   1.004
  702SOL     OW 3004   4.265   0.849   4.550
  702SOL    HW1 3005   4.237   0.891   4.636
  702SOL    HW2 3006   4.359   0.817   4.557
  703SOL     OW 3007   2.997   2.729   0.178
  703SOL    HW1 3008   2.993   2.763   0.084
  703SOL    HW2 3009   2.966   2.800   0.240
  704SOL     OW 3010   3.274   1.474   5.621
  704SOL    HW1 3011   3.309   1.525   5.698
  704SOL    HW2 3012   3.224   1.393   5.654
  705SOL     OW 3013   0.376   6.244   5.472
  705SOL    HW1 3014   0.436   6.193   5.533
  705SOL    HW2 3015   0.369   6.196   5.384
  706SOL     OW 3016   3.826   1.038   5.042
  706SOL    HW1 3017   3.822   1.010   5.137
  706SOL    HW2 3018   3.847   1.136   5.036
  707SOL     OW 3019   2.497   5.670   4.240
  707SOL    HW1 3020   2.498   5.744   4.308
  707SOL    HW2 3021   2.581   5.617   4.248
  708SOL     OW 3022   4.739   5.844   4.078
  708SOL    HW1 3023   4.753   5.859   3.980
  708SOL    HW2 3024   4.820   5.800   4.117
  709SOL     OW 3025   2.335   0.676   1.449
  709SOL    HW1 3026   2.329   0.665   1.548
  709SOL    HW2 3027   2.372   0.766   1.428
  710SOL     OW 3028   5.243   3.643   2.218
  710SOL    HW1 3029   5.193   3.728   2.203
  710SOL    HW2 3030   5.183   3.565   2.199
  711SOL     OW 3031   0.109   1.543   0.339
  711SOL    HW1 3032   0.177   1.616   0.332
  711SOL    HW2 3033   0.066   1.529   0.250
  712SOL     OW 3034   5.328   3.634   0.105
  712SOL    HW1 3035   5.291   3.677   0.187
  712SOL    HW2 3036   5.281   3.670   0.025
  713SOL     OW 3037   4.288   3.644   5.233
  713SOL    HW1 3038   4.253   3.735   5.256
  713SOL    HW2 3039   4.381   3.634   5.266
  714SOL     OW 3040   5.583   6.119   2.866
  714SOL    HW1 3041   5.520   6.134   2.943
  714SOL    HW2 3042   5.665   6.175   2.879
  715SOL     OW 3043   6.089   4.517   5.490
  715SOL    HW1 3044   6.026   4.571   5.435
  715SOL    HW2 3045   6.170   4.571   5.510
  716SOL     OW 3046   3.060   2.206   3.181
  716SOL    HW1 3047   3.064   2.304   3.202
  716SOL    HW2 3048   3.017   2.158   3.257
  717SOL     OW 3049   5.147   4.999   4.021
  717SOL    HW1 3050   5.133   5.051   3.937
  717SOL    HW2 3051   5.214   5.046   4.079
  718SOL     OW 3052   6.425   2.511   5.311
  718SOL    HW1 3053   6.492   2.473   5.376
  718SOL    HW2 3054   6.362   2.570   5.361
  719SOL     OW 3055   5.181   6.489   3.549
  719SOL    HW1 3056   5.131   6.499   3.635
  719SOL    HW2 3057   5.140   6.547   3.479
  720SOL     OW 3058   2.651   1.118   1.051
  720SOL    HW1 3059   2.710   1.193   1.023
  720SOL    HW2 3060   2.593   1.147   1.127
  721SOL     OW 3061   6.803   2.898   1.945
  721SOL    HW1 3062   6.803   2.810   1.993
  721SOL    HW2 3063   6.870   2.959   1.987
  722SOL     OW 3064   4.648   6.036   0.702
  722SOL    HW1 3065   4.695   6.058   0.617
  722SOL    HW2 3066   4.589   6.112   0.728
  723SOL     OW 3067   2.322   0.436   4.602
  723SOL    HW1 3068   2.248   0.423   4.668
  723SOL    HW2 3069   2.368   0.523   4.621
  724SOL     OW 3070   1.046   1.748   4.654
  724SOL    HW1 3071   1.125   1.689   4.636
  724SOL    HW2 3072   1.078   1.842   4.668
  725SOL     OW 3073   1.829   4.565   3.072
  725SOL    HW1 3074   1.918   4.574   3.116
  725SOL    HW2 3075   1.780   4.488   3.111
  726SOL     OW 3076   1.693   3.920   1.232
  726SOL    HW1 3077   1.623   3.990   1.213
  726SOL    HW2 3078   1.649   3.832   1.245
  727SOL     OW 3079   3.545   4.955   4.804
  727SOL    HW1 3080   3.529   4.963   4.705
  727SOL    HW2 3081   3.643   4.948   4.821
  728SOL     OW 3082   6.707   3.294   3.851
  728SOL    HW1 3083   6.643   3.222   3.825
  728SOL    HW2 3084   6.752   3.269   3.937
  729SOL     OW 3085   0.647   4.242   0.932
  729SOL    HW1 3086   0.687   4.177   0.997
  729SOL    HW2 3087   0.676   4.335   0.954
  730SOL     OW 3088   4.350   1.435   2.886
  730SOL    HW1 3089   4.277   1.437   2.818
  730SOL    HW2 3090   4.342   1.352   2.941
  731SOL     OW 3091   4.486   4.470   4.113
  731SOL    HW1 3092   4.514   4.383   4.073
  731SOL    HW2 3093   4.490   4.463   4.213
  732SOL     OW 3094   3.536   0.923   4.830
  732SOL    HW1 3095   3.589   0.881   4.903
  732SOL    HW2 3096   3.596   0.982   4.775
  733SOL     OW 3097   6.093   5.195   3.698
  733SOL    HW1 3098   6.164   5.265   3.697
  733SOL    HW2 3099   6.021   5.218   3.632
  734SOL     OW 3100   6.461   6.741   2.565
  734SOL    HW1 3101   6.474   6.781   2.475
  734SOL    HW2 3102   6.510   6.654   2.571
  735SOL     OW 3103   4.166   0.022   2.285
  735SOL    HW1 3104   4.159   6.946   2.313
  735SOL    HW2 3105   4.224   0.029   2.204
  736SOL     OW 3106   1.858   1.919   3.501
  736SOL    HW1 3107   1.770   1.967   3.509
  736SOL    HW2 3108   1.929   1.972   3.547
  737SOL     OW 3109   3.800   1.309   6.249
  737SOL    HW1 3110   3.894   1.288   6.276
  737SOL    HW2 3111   3.796   1.320   6.150
  738SOL     OW 3112   1.879   4.655   0.359
  738SOL    HW1 3113   1.916   4.608   0.440
  738SOL    HW2 3114   1.913   4.749   0.356
  739SOL     OW 3115   1.774   6.844   3.678
  739SOL    HW1 3116   1.734   6.898   3.604
  739SOL    HW2 3117   1.840   6.900   3.728
  740SOL     OW 3118   5.152   3.686   3.284
  740SOL    HW1 3119   5.221   3.672   3.213
  740SOL    HW2 3120   5.071   3.630   3.263
  741SOL     OW 3121   3.224   1.238   2.927
  741SOL    HW1 3122   3.227   1.144   2.961
  741SOL    HW2 3123   3.143   1.284   2.963
  742SOL     OW 3124   1.732   6.373   1.612
  742SOL    HW1 3125   1.662   6.391   1.543
  742SOL    HW2 3126   1.816   6.421   1.587
  743SOL     OW 3127   0.587   6.097   2.851
  743SOL    HW1 3128   0.666   6.038   2.866
  743SOL    HW2 3129   0.543   6.072   2.764
  744SOL     OW 3130   5.153   1.680   6.907
  744SOL    HW1 3131   5.118   1.755   6.965
  744SOL    HW2 3132   5.185   1.606   6.966
  745SOL     OW 3133   2.278   6.428   4.439
  745SOL    HW1 3134   2.196   6.371   4.426
  745SOL    HW2 3135   2.358   6.377   4.409
  746SOL     OW 3136   0.208   4.721   4.608
  746SOL    HW1 3137   0.279   4.750   4.672
  746SOL    HW2 3138   0.232   4.750   4.516
  747SOL     OW 3139   4.602   5.501   2.705
  747SOL    HW1 3140   4.564   5.547   2.624
  747SOL    HW2 3141   4.698   5.481   2.689
  748SOL     OW 3142   5.476   4.907   1.239
  748SOL    HW1 3143   5.484   4.986   1.179
  748SOL    HW2 3144   5.567   4.865   1.251
  749SOL     OW 3145   5.228   4.535   5.113
  749SOL    HW1 3146   5.190   4.538   5.021
  749SOL    HW2 3147   5.191   4.610   5.167
  750SOL     OW 3148   2.284   2.079   2.956
  750SOL    HW1 3149   2.192   2.100   2.924
  750SOL    HW2 3150   2.280   2.051   3.052
  751SOL     OW 3151   3.325   0.703   0.546
  751SOL    HW1 3152   3.296   0.608   0.535
  751SOL    HW2 3153   3.248   0.758   0.579
  752SOL     OW 3154   3.701   2.732   5.223
  752SOL    HW1 3155   3.693   2.746   5.125
  752SOL    HW2 3156   3.786   2.772   5.256
  753SOL     OW 3157   3.539   4.168   3.897
  753SOL    HW1 3158   3.481   4.149   3.819
  753SOL    HW2 3159   3.508   4.250   3.944
  754SOL     OW 3160   5.024   0.353   0.397
  754SOL    HW1 3161   5.113   0.383   0.433
  754SOL    HW2 3162   5.029   0.256   0.373
  755SOL     OW 3163   4.515   4.495   5.246
  755SOL    HW1 3164   4.581   4.445   5.190
  755SOL    HW2 3165   4.422   4.471   5.218
  756SOL     OW 3166   2.381   5.096   6.103
  756SOL    HW1 3167   2.295   5.145   6.120
  756SOL    HW2 3168   2.415   5.120   6.013
  757SOL     OW 3169   1.741   6.196   1.811
  757SOL    HW1 3170   1.647   6.188   1.845
  757SOL    HW2 3171   1.745   6.264   1.738
  758SOL     OW 3172   4.857   0.818   4.244
  758SOL    HW1 3173   4.784   0.817   4.311
  758SOL    HW2 3174   4.944   0.839   4.289
  759SOL     OW 3175   0.353   3.781   3.996
  759SOL    HW1 3176   0.282   3.827   3.944
  759SOL    HW2 3177   0.438   3.778   3.943
  760SOL     OW 3178   6.826   4.923   3.608
  760SOL    HW1 3179   6.864   4.842   3.563
  760SOL    HW2 3180   6.794   4.988   3.539
  761SOL     OW 3181   4.970   4.957   6.570
  761SOL    HW1 3182   5.047   4.900   6.542
  761SOL    HW2 3183   4.935   5.007   6.491
  762SOL     OW 3184   3.886   5.956   3.507
  762SOL    HW1 3185   3.848   5.941   3.415
  762SOL    HW2 3186   3.910   5.868   3.548
  763SOL     OW 3187   5.308   0.313   0.541
  763SOL    HW1 3188   5.241   0.299   0.614
  763SOL    HW2 3189   5.395   0.273   0.568
  764SOL     OW 3190   5.406   6.491   5.322
  764SOL    HW1 3191   5.404   6.416   5.388
  764SOL    HW2 3192   5.373   6.574   5.365
  765SOL     OW 3193   6.059   6.844   0.343
  765SOL    HW1 3194   6.060   6.938   0.310
  765SOL    HW2 3195   6.142   6.825   0.396
  766SOL     OW 3196   2.501   1.704   4.374
  766SOL    HW1 3197   2.449   1.763   4.436
  766SOL    HW2 3198   2.599   1.711   4.397
  767SOL     OW 3199   6.604   5.874   4.250
  767SOL    HW1 3200   6.635   5.952   4.195
  767SOL    HW2 3201   6.547   5.814   4.194
  768SOL     OW 3202   2.344   5.494   2.990
  768SOL    HW1 3203   2.356   5.467   2.894
  768SOL    HW2 3204   2.291   5.423   3.037
  769SOL     OW 3205   3.087   1.997   5.484
  769SOL    HW1 3206   3.107   2.092   5.508
  769SOL    HW2 3207   3.025   1.995   5.406
  770SOL     OW 3208   1.452   4.992   5.828
  770SOL    HW1 3209   1.366   4.960   5.788
  770SOL    HW2 3210   1.522   4.922   5.814
  771SOL     OW 3211   1.796   4.977   2.857
  771SOL    HW1 3212   1.803   4.878   2.870
  771SOL    HW2 3213   1.704   5.000   2.826
  772SOL     OW 3214   5.252   4.648   0.258
  772SOL    HW1 3215   5.305   4.656   0.342
  772SOL    HW2 3216   5.307   4.605   0.187
  773SOL     OW 3217   2.087   4.315   4.087
  773SOL    HW1 3218   2.057   4.221   4.102
  773SOL    HW2 3219   2.178   4.316   4.046
  774SOL     OW 3220   2.153   1.148   3.571
  774SOL    HW1 3221   2.251   1.164   3.559
  774SOL    HW2 3222   2.103   1.227   3.536
  775SOL     OW 3223   1.274   4.623   2.826
  775SOL    HW1 3224   1.370   4.624   2.854
  775SOL    HW2 3225   1.254   4.538   2.777
  776SOL     OW 3226   2.563   5.373   6.135
  776SOL    HW1 3227   2.635   5.309   6.108
  776SOL    HW2 3228   2.479   5.352   6.085
  777SOL     OW 3229   1.852   3.647   6.282
  777SOL    HW1 3230   1.829   3.712   6.355
  777SOL    HW2 3231   1.941   3.606   6.302
  778SOL     OW 3232   3.352   5.555   6.788
  778SOL    HW1 3233   3.272   5.569   6.847
  778SOL    HW2 3234   3.432   5.536   6.845
  779SOL     OW 3235   6.217   2.208   2.985
  779SOL    HW1 3236   6.231   2.293   3.036
  779SOL    HW2 3237   6.305   2.171   2.957
  780SOL     OW 3238   6.970   2.199   4.808
  780SOL    HW1 3239   6.951   2.293   4.779
  780SOL    HW2 3240   0.046   2.178   4.788
  781SOL     OW 3241   0.549   4.342   6.806
  781SOL    HW1 3242   0.529   4.399   6.886
  781SOL    HW2 3243   0.641   4.303   6.816
  782SOL     OW 3244   1.986   3.777   5.423
  782SOL    HW1 3245   1.941   3.853   5.470
  782SOL    HW2 3246   2.060   3.813   5.365
  783SOL     OW 3247   6.489   4.774   6.634
  783SOL    HW1 3248   6.448   4.862   6.659
  783SOL    HW2 3249   6.589   4.782   6.640
  784SOL     OW 3250   2.193   6.204   0.681
  784SOL    HW1 3251   2.196   6.263   0.600
  784SOL    HW2 3252   2.248   6.122   0.664
  785SOL     OW 3253   0.317   0.999   4.454
  785SOL    HW1 3254   0.243   1.041   4.505
  785SOL    HW2 3255   0.280   0.949   4.376
  786SOL     OW 3256   5.975   1.036   4.178
  786SOL    HW1 3257   5.886   1.054   4.137
  786SOL    HW2 3258   5.962   0.997   4.270
  787SOL     OW 3259   2.161   6.996   1.634
  787SOL    HW1 3260   2.196   6.906   1.610
  787SOL    HW2 3261   2.079   6.986   1.691
  788SOL     OW 3262   2.221   2.860   2.099
  788SOL    HW1 3263   2.144   2.818   2.148
  788SOL    HW2 3264   2.306   2.838   2.147
  789SOL     OW 3265   4.146   4.709   2.741
  789SOL    HW1 3266   4.204   4.708   2.822
  789SOL    HW2 3267   4.103   4.619   2.730
  790SOL     OW 3268   0.177   3.065   2.298
  790SOL    HW1 3269   0.183   2.971   2.263
  790SOL    HW2 3270   0.193   3.064   2.397
  791SOL     OW 3271   3.219   0.143   3.726
  791SOL    HW1 3272   3.168   0.191   3.655
  791SOL    HW2 3273   3.155   0.095   3.786
  792SOL     OW 3274   2.334   0.588   0.607
  792SOL    HW1 3275   2.321   0.552   0.699
  792SOL    HW2 3276   2.326   0.688   0.609
  793SOL     OW 3277   2.161   6.153   4.762
  793SOL    HW1 3278   2.199   6.144   4.670
  793SOL    HW2 3279   2.061   6.151   4.757
  794SOL     OW 3280   2.943   3.261   2.520
  794SOL    HW1 3281   2.894   3.238   2.604
  794SOL    HW2 3282   2.946   3.361   2.510
  795SOL     OW 3283   4.911   0.979   5.534
  795SOL    HW1 3284   4.819   0.940   5.539
  795SOL    HW2 3285   4.907   1.077   5.552
  796SOL     OW 3286   0.637   2.080   0.025
  796SOL    HW1 3287   0.681   2.164   7.016
  796SOL    HW2 3288   0.684   2.041   0.104
  797SOL     OW 3289   3.352   6.507   1.479
  797SOL    HW1 3290   3.297   6.480   1.400
  797SOL    HW2 3291   3.374   6.604   1.472
  798SOL     OW 3292   5.021   4.744   1.090
  798SOL    HW1 3293   5.008   4.664   1.032
  798SOL    HW2 3294   5.069   4.716   1.174
  799SOL     OW 3295   2.678   2.877   5.911
  799SOL    HW1 3296   2.701   2.906   5.818
  799SOL    HW2 3297   2.584   2.902   5.931
  800SOL     OW 3298   5.616   2.961   3.550
  800SOL    HW1 3299   5.562   2.892   3.503
  800SOL    HW2 3300   5.664   2.919   3.627
  801SOL     OW 3301   1.667   5.808   6.212
  801SOL    HW1 3302   1.679   5.725   6.267
  801SOL    HW2 3303   1.757   5.844   6.187
  802SOL     OW 3304   4.511   2.470   6.614
  802SOL    HW1 3305   4.461   2.515   6.688
  802SOL    HW2 3306   4.450   2.408   6.565
  803SOL     OW 3307   2.392   2.250   3.928
  803SOL    HW1 3308   2.335   2.332   3.918
  803SOL    HW2 3309   2.342   2.181   3.979
  804SOL     OW 3310   5.259   0.347   2.725
  804SOL    HW1 3311   5.249   0.338   2.824
  804SOL    HW2 3312   5.326   0.280   2.692
  805SOL     OW 3313   3.596   0.847   4.066
  805SOL    HW1 3314   3.655   0.852   3.985
  805SOL    HW2 3315   3.529   0.773   4.054
  806SOL     OW 3316   3.187   6.380   5.361
  806SOL    HW1 3317   3.187   6.408   5.265
  806SOL    HW2 3318   3.261   6.314   5.377
  807SOL     OW 3319   0.916   6.074   5.830
  807SOL    HW1 3320   0.931   6.166   5.792
  807SOL    HW2 3321   0.830   6.037   5.795
  808SOL     OW 3322   5.337   2.662   6.025
  808SOL    HW1 3323   5.246   2.704   6.016
  808SOL    HW2 3324   5.338   2.575   5.976
  809SOL     OW 3325   3.204   5.777   6.702
  809SOL    HW1 3326   3.249   5.690   6.722
  809SOL    HW2 3327   3.106   5.770   6.725
  810SOL     OW 3328   3.512   3.750   0.166
  810SOL    HW1 3329   3.470   3.675   0.218
  810SOL    HW2 3330   3.600   3.719   0.130
  811SOL     OW 3331   5.870   5.711   4.712
  811SOL    HW1 3332   5.962   5.681   4.738
  811SOL    HW2 3333   5.876   5.773   4.634
  812SOL     OW 3334   1.035   3.655   1.483
  812SOL    HW1 3335   0.998   3.639   1.391
  812SOL    HW2 3336   1.109   3.590   1.500
  813SOL     OW 3337   1.949   1.341   5.137
  813SOL    HW1 3338   1.858   1.347   5.098
  813SOL    HW2 3339   2.016   1.328   5.064
  814SOL     OW 3340   0.853   4.152   2.467
  814SOL    HW1 3341   0.780   4.179   2.404
  814SOL    HW2 3342   0.868   4.224   2.535
  815SOL     OW 3343   4.562   2.597   4.608
  815SOL    HW1 3344   4.500   2.568   4.681
  815SOL    HW2 3345   4.548   2.540   4.528
  816SOL     OW 3346   5.399   3.388   6.447
  816SOL    HW1 3347   5.420   3.409   6.542
  816SOL    HW2 3348   5.331   3.315   6.443
  817SOL     OW 3349   0.333   4.770   6.356
  817SOL    HW1 3350   0.294   4.679   6.369
  817SOL    HW2 3351   0.431   4.763   6.339
  818SOL     OW 3352   0.285   1.811   5.353
  818SOL    HW1 3353   0.333   1.728   5.324
  818SOL    HW2 3354   0.199   1.786   5.396
  819SOL     OW 3355   4.958   3.172   1.665
  819SOL    HW1 3356   5.008   3.095   1.624
  819SOL    HW2 3357   5.023   3.244   1.691
  820SOL     OW 3358   2.640   2.184   5.195
  820SOL    HW1 3359   2.699   2.184   5.114
  820SOL    HW2 3360   2.647   2.095   5.241
  821SOL     OW 3361   4.982   3.115   6.841
  821SOL    HW1 3362   4.977   3.208   6.804
  821SOL    HW2 3363   5.074   3.079   6.828
  822SOL     OW 3364   0.480   5.078   3.232
  822SOL    HW1 3365   0.402   5.134   3.259
  822SOL    HW2 3366   0.456   4.982   3.235
  823SOL     OW 3367   1.908   2.881   4.447
  823SOL    HW1 3368   1.839   2.816   4.479
  823SOL    HW2 3369   1.943   2.934   4.524
  824SOL     OW 3370   5.136   0.034   6.681
  824SOL    HW1 3371   5.182   0.018   6.768
  824SOL    HW2 3372   5.051   0.085   6.697
  825SOL     OW 3373   6.292   5.876   0.690
  825SOL    HW1 3374   6.264   5.797   0.744
  825SOL    HW2 3375   6.211   5.916   0.646
  826SOL     OW 3376   3.621   1.739   0.174
  826SOL    HW1 3377   3.580   1.759   0.263
  826SOL    HW2 3378   3.573   1.791   0.103
  827SOL     OW 3379   3.288   3.678   4.793
  827SOL    HW1 3380   3.284   3.768   4.835
  827SOL    HW2 3381   3.381   3.642   4.798
  828SOL     OW 3382   0.064   6.563   6.421
  828SOL    HW1 3383   0.073   6.474   6.465
  828SOL    HW2 3384   0.153   6.589   6.382
  829SOL     OW 3385   3.773   3.604   2.232
  829SOL    HW1 3386   3.858   3.552   2.234
  829SOL    HW2 3387   3.719   3.582   2.313
  830SOL     OW 3388   6.857   4.814   6.826
  830SOL    HW1 3389   6.799   4.761   6.888
  830SOL    HW2 3390   6.947   4.772   6.821
  831SOL     OW 3391   5.696   0.986   2.161
  831SOL    HW1 3392   5.669   0.964   2.255
  831SOL    HW2 3393   5.623   0.958   2.098
  832SOL     OW 3394   3.046   1.869   4.654
  832SOL    HW1 3395   3.002   1.810   4.721
  832SOL    HW2 3396   2.977   1.931   4.615
  833SOL     OW 3397   3.898   3.198   6.663
  833SOL    HW1 3398   3.862   3.118   6.614
  833SOL    HW2 3399   3.833   3.274   6.655
  834SOL     OW 3400   5.530   2.865   0.602
  834SOL    HW1 3401   5.454   2.799   0.601
  834SOL    HW2 3402   5.607   2.825   0.650
  835SOL     OW 3403   6.978   0.380   4.660
  835SOL    HW1 3404   6.917   0.302   4.679
  835SOL    HW2 3405   6.993   0.432   4.744
  836SOL     OW 3406   5.088   0.715   4.803
  836SOL    HW1 3407   5.063   0.812   4.803
  836SOL    HW2 3408   5.187   0.706   4.793
  837SOL     OW 3409   1.378   0.578   0.159
  837SOL    HW1 3410   1.438   0.508   0.120
  837SOL    HW2 3411   1.293   0.581   0.107
  838SOL     OW 3412   1.908   5.997   3.198
  838SOL    HW1 3413   1.958   6.081   3.216
  838SOL    HW2 3414   1.872   5.999   3.104
  839SOL     OW 3415   1.252   2.243   0.961
  839SOL    HW1 3416   1.257   2.290   0.873
  839SOL    HW2 3417   1.325   2.174   0.966
  840SOL     OW 3418   4.696   4.944   0.724
  840SOL    HW1 3419   4.691   5.035   0.765
  840SOL    HW2 3420   4.711   4.953   0.625
  841SOL     OW 3421   2.551   5.304   6.470
  841SOL    HW1 3422   2.451   5.304   6.481
  841SOL    HW2 3423   2.582   5.397   6.453
  842SOL     OW 3424   3.960   5.774   0.716
  842SOL    HW1 3425   4.050   5.806   0.685
  842SOL    HW2 3426   3.968   5.737   0.809
  843SOL     OW 3427   1.353   0.407   2.091
  843SOL    HW1 3428   1.277   0.361   2.136
  843SOL    HW2 3429   1.331   0.504   2.079
  844SOL     OW 3430   0.120   0.390   1.739
  844SOL    HW1 3431   0.079   0.476   1.709
  844SOL    HW2 3432   0.087   0.365   1.830
  845SOL     OW 3433   3.504   1.389   2.657
  845SOL    HW1 3434   3.439   1.448   2.704
  845SOL    HW2 3435   3.485   1.390   2.559
  846SOL     OW 3436   2.034   2.193   0.686
  846SOL    HW1 3437   2.084   2.270   0.726
  846SOL    HW2 3438   2.082   2.108   0.706
  847SOL     OW 3439   2.635   3.635   1.567
  847SOL    HW1 3440   2.618   3.672   1.476
  847SOL    HW2 3441   2.723   3.667   1.601
  848SOL     OW 3442   6.416   6.141   0.229
  848SOL    HW1 3443   6.370   6.215   0.180
  848SOL    HW2 3444   6.357   6.110   0.304
  849SOL     OW 3445   5.753   3.014   6.824
  849SOL    HW1 3446   5.787   2.976   6.738
  849SOL    HW2 3447   5.799   2.970   6.901
  850SOL     OW 3448   1.453   0.922   4.420
  850SOL    HW1 3449   1.368   0.881   4.387
  850SOL    HW2 3450   1.467   0.898   4.516
  851SOL     OW 3451   5.566   2.756   6.303
  851SOL    HW1 3452   5.573   2.739   6.205
  851SOL    HW2 3453   5.526   2.846   6.319
  852SOL     OW 3454   6.951   4.070   2.058
  852SOL    HW1 3455   6.851   4.058   2.061
  852SOL    HW2 3456   6.994   3.986   2.024
  853SOL     OW 3457   2.909   3.100   0.786
  853SOL    HW1 3458   2.985   3.044   0.818
  853SOL    HW2 3459   2.831   3.089   0.849
  854SOL     OW 3460   6.381   6.529   5.559
  854SOL    HW1 3461   6.445   6.453   5.551
  854SOL    HW2 3462   6.349   6.536   5.653
  855SOL     OW 3463   5.681   1.724   0.502
  855SOL    HW1 3464   5.772   1.698   0.534
  855SOL    HW2 3465   5.621   1.645   0.505
  856SOL     OW 3466   2.136   5.550   2.070
  856SOL    HW1 3467   2.150   5.641   2.031
  856SOL    HW2 3468   2.058   5.506   2.025
  857SOL     OW 3469   6.926   5.401   4.932
  857SOL    HW1 3470   6.949   5.336   5.004
  857SOL    HW2 3471   6.828   5.396   4.913
  858SOL     OW 3472   4.515   4.105   0.207
  858SOL    HW1 3473   4.599   4.159   0.211
  858SOL    HW2 3474   4.535   4.010   0.231
  859SOL     OW 3475   5.080   5.536   5.498
  859SOL    HW1 3476   5.051   5.445   5.525
  859SOL    HW2 3477   5.180   5.541   5.501
  860SOL     OW 3478   4.457   3.030   6.359
  860SOL    HW1 3479   4.452   2.989   6.450
  860SOL    HW2 3480   4.451   3.129   6.367
  861SOL     OW 3481   1.959   5.499   2.299
  861SOL    HW1 3482   1.999   5.430   2.359
  861SOL    HW2 3483   2.029   5.531   2.234
  862SOL     OW 3484   0.626   3.907   3.700
  862SOL    HW1 3485   0.585   3.828   3.746
  862SOL    HW2 3486   0.693   3.876   3.634
  863SOL     OW 3487   6.356   0.442   1.401
  863SOL    HW1 3488   6.362   0.362   1.342
  863SOL    HW2 3489   6.330   0.414   1.493
  864SOL     OW 3490   6.053   5.911   3.122
  864SOL    HW1 3491   5.981   5.894   3.055
  864SOL    HW2 3492   6.056   6.008   3.144
  865SOL     OW 3493   1.748   5.863   4.886
  865SOL    HW1 3494   1.781   5.813   4.967
  865SOL    HW2 3495   1.700   5.799   4.825
  866SOL     OW 3496   3.618   0.260   2.073
  866SOL    HW1 3497   3.573   0.171   2.062
  866SOL    HW2 3498   3.584   0.305   2.155
  867SOL     OW 3499   5.943   2.814   5.855
  867SOL    HW1 3500   5.953   2.764   5.941
  867SOL    HW2 3501   5.845   2.828   5.836
  868SOL     OW 3502   0.225   2.495   1.190
  868SOL    HW1 3503   0.257   2.555   1.117
  868SOL    HW2 3504   0.142   2.533   1.231
  869SOL     OW 3505   7.020   3.686   3.060
  869SOL    HW1 3506   0.014   3.780   3.094
  869SOL    HW2 3507   0.056   3.671   2.979
  870SOL     OW 3508   3.492   5.228   2.166
  870SOL    HW1 3509   3.400   5.248   2.200
  870SOL    HW2 3510   3.527   5.307   2.116
  871SOL     OW 3511   4.925   1.904   3.549
  871SOL    HW1 3512   4.961   1.978   3.492
  871SOL    HW2 3513   4.920   1.936   3.644
  872SOL     OW 3514   1.083   2.394   5.024
  872SOL    HW1 3515   1.099   2.443   4.938
  872SOL    HW2 3516   1.083   2.458   5.100
  873SOL     OW 3517   4.247   0.101   6.224
  873SOL    HW1 3518   4.174   0.141   6.281
  873SOL    HW2 3519   4.311   0.172   6.198
  874SOL     OW 3520   5.285   3.599   1.823
  874SOL    HW1 3521   5.204   3.639   1.866
  874SOL    HW2 3522   5.367   3.639   1.864
  875SOL     OW 3523   4.831   5.686   1.861
  875SOL    HW1 3524   4.785   5.658   1.946
  875SOL    HW2 3525   4.815   5.784   1.847
  876SOL     OW 3526   6.335   0.255   0.333
  876SOL    HW1 3527   6.259   0.193   0.353
  876SOL    HW2 3528   6.363   0.301   0.418
  877SOL     OW 3529   1.768   4.005   0.276
  877SOL    HW1 3530   1.863   4.003   0.248
  877SOL    HW2 3531   1.728   4.094   0.253
  878SOL     OW 3532   3.916   6.325   4.443
  878SOL    HW1 3533   3.874   6.259   4.381
  878SOL    HW2 3534   3.918   6.415   4.400
  879SOL     OW 3535   5.820   6.554   6.528
  879SOL    HW1 3536   5.892   6.487   6.511
  879SOL    HW2 3537   5.746   6.511   6.578
  880SOL     OW 3538   2.950   3.405   2.793
  880SOL    HW1 3539   2.909   3.445   2.711
  880SOL    HW2 3540   2.986   3.478   2.851
  881SOL     OW 3541   4.550   1.575   0.374
  881SOL    HW1 3542   4.469   1.521   0.352
  881SOL    HW2 3543   4.620   1.560   0.305
  882SOL     OW 3544   1.444   2.830   3.280
  882SOL    HW1 3545   1.541   2.838   3.303
  882SOL    HW2 3546   1.404   2.921   3.268
  883SOL     OW 3547   3.013   6.914   3.556
  883SOL    HW1 3548   3.081   6.853   3.514
  883SOL    HW2 3549   2.965   6.964   3.485
  884SOL     OW 3550   3.860   3.777   5.824
  884SOL    HW1 3551   3.773   3.733   5.800
  884SOL    HW2 3552   3.921   3.774   5.745
  885SOL     OW 3553   4.377   2.785   6.568
  885SOL    HW1 3554   4.341   2.706   6.518
  885SOL    HW2 3555   4.400   2.759   6.661
  886SOL     OW 3556   3.539   1.842   6.893
  886SOL    HW1 3557   3.633   1.820   6.867
  886SOL    HW2 3558   3.478   1.827   6.815
  887SOL     OW 3559   5.109   0.921   5.347
  887SOL    HW1 3560   5.195   0.922   5.398
  887SOL    HW2 3561   5.034   0.900   5.409
  888SOL     OW 3562   0.163   5.921   2.371
  888SOL    HW1 3563   0.113   5.849   2.419
  888SOL    HW2 3564   0.260   5.917   2.396
  889SOL     OW 3565   0.700   3.881   0.315
  889SOL    HW1 3566   0.784   3.867   0.262
  889SOL    HW2 3567   0.698   3.975   0.350
  890SOL     OW 3568   2.467   6.182   4.450
  890SOL    HW1 3569   2.501   6.166   4.357
  890SOL    HW2 3570   2.544   6.198   4.512
  891SOL     OW 3571   4.972   5.065   2.181
  891SOL    HW1 3572   4.958   5.056   2.280
  891SOL    HW2 3573   4.907   5.131   2.144
  892SOL     OW 3574   2.257   4.565   0.742
  892SOL    HW1 3575   2.332   4.572   0.677
  892SOL    HW2 3576   2.293   4.541   0.832
  893SOL     OW 3577   2.010   5.969   2.673
  893SOL    HW1 3578   2.028   5.909   2.595
  893SOL    HW2 3579   1.974   5.915   2.749
  894SOL     OW 3580   0.890   3.928   1.501
  894SOL    HW1 3581   0.960   3.991   1.467
  894SOL    HW2 3582   0.930   3.837   1.512
  895SOL     OW 3583   0.456   5.797   4.000
  895SOL    HW1 3584   0.434   5.748   3.915
  895SOL    HW2 3585   0.409   5.752   4.077
  896SOL     OW 3586   0.762   0.958   6.432
  896SOL    HW1 3587   0.787   0.947   6.528
  896SOL    HW2 3588   0.663   0.959   6.422
  897SOL     OW 3589   4.785   0.742   0.449
  897SOL    HW1 3590   4.722   0.715   0.521
  897SOL    HW2 3591   4.874   0.766   0.489
  898SOL     OW 3592   4.169   0.221   3.281
  898SOL    HW1 3593   4.144   0.124   3.289
  898SOL    HW2 3594   4.117   0.263   3.208
  899SOL     OW 3595   6.728   5.537   0.216
  899SOL    HW1 3596   6.734   5.438   0.201
  899SOL    HW2 3597   6.739   5.585   0.129
  900SOL     OW 3598   5.339   5.544   0.988
  900SOL    HW1 3599   5.307   5.637   0.970
  900SOL    HW2 3600   5.437   5.538   0.968
  901SOL     OW 3601   1.165   0.628   3.234
  901SOL    HW1 3602   1.164   0.722   3.269
  901SOL    HW2 3603   1.139   0.565   3.307
  902SOL     OW 3604   6.049   2.895   1.798
  902SOL    HW1 3605   6.033   2.819   1.735
  902SOL    HW2 3606   6.143   2.890   1.833
  903SOL     OW 3607   6.925   1.779   1.291
  903SOL    HW1 3608   6.907   1.730   1.206
  903SOL    HW2 3609   6.916   1.717   1.369
  904SOL     OW 3610   2.851   0.786   2.192
  904SOL    HW1 3611   2.814   0.794   2.285
  904SOL    HW2 3612   2.777   0.800   2.126
  905SOL     OW 3613   5.887   2.552   6.557
  905SOL    HW1 3614   5.926   2.569   6.648
  905SOL    HW2 3615   5.932   2.473   6.516
  906SOL     OW 3616   5.366   2.742   6.707
  906SOL    HW1 3617   5.345   2.644   6.707
  906SOL    HW2 3618   5.445   2.760   6.649
  907SOL     OW 3619   5.131   4.560   6.717
  907SOL    HW1 3620   5.036   4.584   6.700
  907SOL    HW2 3621   5.135   4.489   6.788
  908SOL     OW 3622   1.328   4.517   3.127
  908SOL    HW1 3623   1.300   4.607   3.094
  908SOL    HW2 3624   1.268   4.447   3.089
  909SOL     OW 3625   5.396   5.327   6.316
  909SOL    HW1 3626   5.425   5.233   6.333
  909SOL    HW2 3627   5.448   5.366   6.240
  910SOL     OW 3628   2.402   4.818   1.075
  910SOL    HW1 3629   2.352   4.731   1.068
  910SOL    HW2 3630   2.411   4.844   1.171
  911SOL     OW 3631   1.197   4.751   6.219
  911SOL    HW1 3632   1.240   4.680   6.163
  911SOL    HW2 3633   1.103   4.725   6.241
  912SOL     OW 3634   5.269   1.961   4.326
  912SOL    HW1 3635   5.267   1.866   4.359
  912SOL    HW2 3636   5.364   1.990   4.317
  913SOL     OW 3637   5.507   6.808   2.379
  913SOL    HW1 3638   5.541   6.900   2.398
  913SOL    HW2 3639   5.581   6.742   2.387
  914SOL     OW 3640   2.799   6.871   6.807
  914SOL    HW1 3641   2.789   6.783   6.762
  914SOL    HW2 3642   2.724   6.884   6.872
  915SOL     OW 3643   5.494   5.858   1.016
  915SOL    HW1 3644   5.576   5.819   0.975
  915SOL    HW2 3645   5.415   5.840   0.958
  916SOL     OW 3646   1.906   3.058   2.687
  916SOL    HW1 3647   1.838   3.112   2.736
  916SOL    HW2 3648   1.898   3.075   2.589
  917SOL     OW 3649   0.406   6.647   0.526
  917SOL    HW1 3650   0.466   6.685   0.595
  917SOL    HW2 3651   0.460   6.603   0.454
  918SOL     OW 3652   2.629   5.745   6.999
  918SOL    HW1 3653   2.696   5.787   6.937
  918SOL    HW2 3654   2.629   5.646   6.985
  919SOL     OW 3655   5.679   1.745   5.754
  919SOL    HW1 3656   5.685   1.799   5.838
  919SOL    HW2 3657   5.596   1.690   5.757
  920SOL     OW 3658   2.905   5.053   2.400
  920SOL    HW1 3659   2.862   5.060   2.310
  920SOL    HW2 3660   2.910   4.957   2.428
  921SOL     OW 3661   5.019   5.297   5.231
  921SOL    HW1 3662   4.944   5.290   5.296
  921SOL    HW2 3663   4.983   5.330   5.143
  922SOL     OW 3664   3.431   2.955   4.164
  922SOL    HW1 3665   3.509   2.897   4.189
  922SOL    HW2 3666   3.431   3.037   4.221
  923SOL     OW 3667   2.291   3.471   5.328
  923SOL    HW1 3668   2.364   3.404   5.340
  923SOL    HW2 3669   2.328   3.563   5.343
  924SOL     OW 3670   6.851   2.992   1.702
  924SOL    HW1 3671   6.802   3.079   1.705
  924SOL    HW2 3672   6.838   2.944   1.789
  925SOL     OW 3673   0.304   1.711   0.245
  925SOL    HW1 3674   0.294   1.804   0.279
  925SOL    HW2 3675   0.307   1.713   0.145
  926SOL     OW 3676   1.754   1.903   1.980
  926SOL    HW1 3677   1.725   1.820   1.932
  926SOL    HW2 3678   1.809   1.960   1.919
  927SOL     OW 3679   6.616   3.610   4.695
  927SOL    HW1 3680   6.605   3.670   4.617
  927SOL    HW2 3681   6.547   3.538   4.693
  928SOL     OW 3682   3.494   4.527   6.065
  928SOL    HW1 3683   3.464   4.574   6.148
  928SOL    HW2 3684   3.521   4.595   5.997
  929SOL     OW 3685   0.391   1.354   5.022
  929SOL    HW1 3686   0.344   1.373   4.936
  929SOL    HW2 3687   0.370   1.261   5.052
  930SOL     OW 3688   5.020   5.043   5.300
  930SOL    HW1 3689   5.065   5.048   5.389
  930SOL    HW2 3690   5.034   5.128   5.250
  931SOL     OW 3691   6.506   1.041   2.841
  931SOL    HW1 3692   6.463   1.011   2.926
  931SOL    HW2 3693   6.576   0.975   2.814
  932SOL     OW 3694   3.924   0.635   3.848
  932SOL    HW1 3695   3.850   0.634   3.915
  932SOL    HW2 3696   3.968   0.545   3.844
  933SOL     OW 3697   1.658   5.727   1.951
  933SOL    HW1 3698   1.706   5.703   2.036
  933SOL    HW2 3699   1.560   5.722   1.965
  934SOL     OW 3700   1.847   3.372   0.318
  934SOL    HW1 3701   1.899   3.403   0.398
  934SOL    HW2 3702   1.757   3.415   0.318
  935SOL     OW 3703   6.082   2.770   5.087
  935SOL    HW1 3704   5.988   2.764   5.052
  935SOL    HW2 3705   6.111   2.680   5.120
  936SOL     OW 3706   1.802   6.994   5.814
  936SOL    HW1 3707   1.733   0.039   5.782
  936SOL    HW2 3708   1.889   7.010   5.766
  937SOL     OW 3709   3.536   1.842   5.662
  937SOL    HW1 3710   3.618   1.797   5.696
  937SOL    HW2 3711   3.541   1.940   5.683
  938SOL     OW 3712   5.964   6.091   4.590
  938SOL    HW1 3713   6.010   6.177   4.566
  938SOL    HW2 3714   5.915   6.102   4.677
  939SOL     OW 3715   1.017   6.586   5.833
  939SOL    HW1 3716   1.086   6.627   5.774
  939SOL    HW2 3717   1.041   6.600   5.929
  940SOL     OW 3718   1.796   5.067   0.182
  940SOL    HW1 3719   1.786   5.014   0.098
  940SOL    HW2 3720   1.882   5.119   0.178
  941SOL     OW 3721   3.706   0.288   0.478
  941SOL    HW1 3722   3.688   0.315   0.572
  941SOL    HW2 3723   3.621   0.294   0.425
  942SOL     OW 3724   6.729   5.292   0.536
  942SOL    HW1 3725   6.747   5.388   0.557
  942SOL    HW2 3726   6.710   5.242   0.621
  943SOL     OW 3727   3.277   5.604   1.472
  943SOL    HW1 3728   3.296   5.607   1.374
  943SOL    HW2 3729   3.230   5.519   1.494
  944SOL     OW 3730   6.508   6.812   3.414
  944SOL    HW1 3731   6.437   6.881   3.419
  944SOL    HW2 3732   6.598   6.854   3.428
  945SOL     OW 3733   0.698   5.233   6.117
  945SOL    HW1 3734   0.635   5.273   6.184
  945SOL    HW2 3735   0.764   5.175   6.165
  946SOL     OW 3736   5.782   2.180   4.300
  946SOL    HW1 3737   5.832   2.232   4.231
  946SOL    HW2 3738   5.821   2.089   4.308
  947SOL     OW 3739   3.776   4.102   4.089
  947SOL    HW1 3740   3.717   4.130   4.014
  947SOL    HW2 3741   3.741   4.139   4.175
  948SOL     OW 3742   3.695   0.828   3.172
  948SOL    HW1 3743   3.788   0.842   3.136
  948SOL    HW2 3744   3.689   0.866   3.264
  949SOL     OW 3745   3.617   0.234   5.660
  949SOL    HW1 3746   3.544   0.280   5.610
  949SOL    HW2 3747   3.641   0.149   5.612
  950SOL     OW 3748   6.850   0.532   2.707
  950SOL    HW1 3749   6.827   0.568   2.797
  950SOL    HW2 3750   6.948   0.516   2.701
  951SOL     OW 3751   1.869   6.953   2.843
  951SOL    HW1 3752   1.955   6.924   2.801
  951SOL    HW2 3753   1.859   0.032   2.834
  952SOL     OW 3754   3.749   1.294   3.443
  952SOL    HW1 3755   3.822   1.360   3.425
  952SOL    HW2 3756   3.734   1.238   3.362
  953SOL     OW 3757   0.377   4.637   6.046
  953SOL    HW1 3758   0.407   4.644   5.951
  953SOL    HW2 3759   0.309   4.709   6.064
  954SOL     OW 3760   4.856   6.159   2.556
  954SOL    HW1 3761   4.776   6.168   2.496
  954SOL    HW2 3762   4.825   6.131   2.647
  955SOL     OW 3763   1.874   5.256   1.002
  955SOL    HW1 3764   1.914   5.293   0.918
  955SOL    HW2 3765   1.933   5.280   1.079
  956SOL     OW 3766   4.593   0.709   1.144
  956SOL    HW1 3767   4.497   0.734   1.159
  956SOL    HW2 3768   4.601   0.610   1.138
  957SOL     OW 3769   6.454   0.681   2.755
  957SOL    HW1 3770   6.431   0.599   2.703
  957SOL    HW2 3771   6.371   0.721   2.793
  958SOL     OW 3772   5.099   6.515   1.607
  958SOL    HW1 3773   5.076   6.527   1.704
  958SOL    HW2 3774   5.070   6.424   1.578
  959SOL     OW 3775   5.216   6.301   2.948
  959SOL    HW1 3776   5.210   6.401   2.955
  959SOL    HW2 3777   5.138   6.267   2.895
  960SOL     OW 3778   1.711   6.432   6.485
  960SOL    HW1 3779   1.768   6.352   6.506
  960SOL    HW2 3780   1.615   6.408   6.498
  961SOL     OW 3781   3.820   0.909   3.475
  961SOL    HW1 3782   3.845   0.820   3.514
  961SOL    HW2 3783   3.806   0.974   3.550
  962SOL     OW 3784   0.299   0.542   4.892
  962SOL    HW1 3785   0.302   0.448   4.857
  962SOL    HW2 3786   0.306   0.540   4.992
  963SOL     OW 3787   5.520   2.836   1.084
  963SOL    HW1 3788   5.502   2.767   1.155
  963SOL    HW2 3789   5.444   2.836   1.019
  964SOL     OW 3790   4.001   5.874   5.191
  964SOL    HW1 3791   4.036   5.826   5.111
  964SOL    HW2 3792   3.901   5.876   5.187
  965SOL     OW 3793   5.971   2.038   3.391
  965SOL    HW1 3794   5.951   1.943   3.365
  965SOL    HW2 3795   5.919   2.100   3.332
  966SOL     OW 3796   4.764   0.855   4.005
  966SOL    HW1 3797   4.819   0.841   4.087
  966SOL    HW2 3798   4.770   0.773   3.947
  967SOL     OW 3799   4.323   4.431   6.737
  967SOL    HW1 3800   4.352   4.474   6.823
  967SOL    HW2 3801   4.366   4.341   6.729
  968SOL     OW 3802   3.615   0.262   1.743
  968SOL    HW1 3803   3.529   0.311   1.759
  968SOL    HW2 3804   3.602   0.165   1.764
  969SOL     OW 3805   3.076   4.219   6.414
  969SOL    HW1 3806   3.138   4.198   6.338
  969SOL    HW2 3807   3.105   4.169   6.496
  970SOL     OW 3808   4.819   6.606   6.058
  970SOL    HW1 3809   4.746   6.628   5.992
  970SOL    HW2 3810   4.906   6.641   6.023
  971SOL     OW 3811   5.395   3.477   3.291
  971SOL    HW1 3812   5.480   3.511   3.332
  971SOL    HW2 3813   5.374   3.531   3.210
  972SOL     OW 3814   0.300   2.664   0.704
  972SOL    HW1 3815   0.218   2.675   0.648
  972SOL    HW2 3816   0.290   2.718   0.788
  973SOL     OW 3817   0.313   2.977   5.438
  973SOL    HW1 3818   0.238   2.982   5.372
  973SOL    HW2 3819   0.360   2.890   5.429
  974SOL     OW 3820   0.611   4.576   2.433
  974SOL    HW1 3821   0.652   4.545   2.347
  974SOL    HW2 3822   0.512   4.574   2.426
  975SOL     OW 3823   3.019   0.275   2.685
  975SOL    HW1 3824   3.023   0.175   2.682
  975SOL    HW2 3825   2.976   0.309   2.602
  976SOL     OW 3826   6.845   3.331   3.612
  976SOL    HW1 3827   6.791   3.296   3.688
  976SOL    HW2 3828   6.931   3.370   3.646
  977SOL     OW 3829   6.413   1.471   1.976
  977SOL    HW1 3830   6.398   1.466   1.877
  977SOL    HW2 3831   6.445   1.382   2.009
  978SOL     OW 3832   5.267   2.921   1.409
  978SOL    HW1 3833   5.286   3.002   1.353
  978SOL    HW2 3834   5.200   2.945   1.480
  979SOL     OW 3835   0.480   4.503   0.004
  979SOL    HW1 3836   0.486   4.440   0.081
  979SOL    HW2 3837   0.385   4.529   7.008
  980SOL     OW 3838   4.067   1.160   4.579
  980SOL    HW1 3839   4.006   1.229   4.617
  980SOL    HW2 3840   4.111   1.109   4.654
  981SOL     OW 3841   0.586   6.641   5.509
  981SOL    HW1 3842   0.686   6.635   5.511
  981SOL    HW2 3843   0.557   6.680   5.422
  982SOL     OW 3844   6.411   1.325   6.044
  982SOL    HW1 3845   6.481   1.382   6.086
  982SOL    HW2 3846   6.432   1.228   6.061
  983SOL     OW 3847   0.632   4.481   3.217
  983SOL    HW1 3848   0.563   4.409   3.219
  983SOL    HW2 3849   0.713   4.450   3.267
  984SOL     OW 3850   0.804   3.449   3.515
  984SOL    HW1 3851   0.868   3.455   3.439
  984SOL    HW2 3852   0.716   3.490   3.489
  985SOL     OW 3853   6.382   5.527   4.840
  985SOL    HW1 3854   6.330   5.443   4.824
  985SOL    HW2 3855   6.386   5.545   4.939
  986SOL     OW 3856   4.465   5.223   1.176
  986SOL    HW1 3857   4.507   5.150   1.122
  986SOL    HW2 3858   4.459   5.305   1.120
  987SOL     OW 3859   4.787   4.501   5.010
  987SOL    HW1 3860   4.705   4.502   4.953
  987SOL    HW2 3861   4.834   4.413   4.999
  988SOL     OW 3862   2.549   4.642   2.115
  988SOL    HW1 3863   2.492   4.572   2.072
  988SOL    HW2 3864   2.633   4.653   2.063
  989SOL     OW 3865   1.268   2.377   1.210
  989SOL    HW1 3866   1.363   2.382   1.240
  989SOL    HW2 3867   1.263   2.338   1.118
  990SOL     OW 3868   3.822   6.791   4.533
  990SOL    HW1 3869   3.753   6.808   4.462
  990SOL    HW2 3870   3.782   6.733   4.604
  991SOL     OW 3871   0.945   5.417   3.788
  991SOL    HW1 3872   0.866   5.475   3.805
  991SOL    HW2 3873   0.968   5.418   3.690
  992SOL     OW 3874   0.001   2.357   0.082
  992SOL    HW1 3875   0.081   2.297   0.080
  992SOL    HW2 3876   6.947   2.313   0.133
  993SOL     OW 3877   0.994   5.222   0.261
  993SOL    HW1 3878   1.063   5.158   0.228
  993SOL    HW2 3879   0.954   5.187   0.346
  994SOL     OW 3880   3.272   6.737   0.588
  994SOL    HW1 3881   3.256   6.825   0.632
  994SOL    HW2 3882   3.184   6.695   0.564
  995SOL     OW 3883   6.211   3.829   5.875
  995SOL    HW1 3884   6.286   3.824   5.941
  995SOL    HW2 3885   6.136   3.882   5.914
  996SOL     OW 3886   4.421   6.092   4.459
  996SOL    HW1 3887   4.478   6.151   4.401
  996SOL    HW2 3888   4.328   6.091   4.424
  997SOL     OW 3889   1.177   6.549   3.364
  997SOL    HW1 3890   1.277   6.545   3.368
  997SOL    HW2 3891   1.140   6.457   3.371
  998SOL     OW 3892   4.444   6.905   6.105
  998SOL    HW1 3893   4.392   6.975   6.153
  998SOL    HW2 3894   4.536   6.900   6.144
  999SOL     OW 3895   5.490   3.033   2.903
  999SOL    HW1 3896   5.527   2.986   2.984
  999SOL    HW2 3897   5.443   2.968   2.844
 1000SOL     OW 3898   5.331   2.057   1.646
 1000SOL    HW1 3899   5.329   2.145   1.599
 1000SOL    HW2 3900   5.312   2.071   1.744
 1001SOL     OW 3901   2.854   6.850   2.401
 1001SOL    HW1 3902   2.797   6.915   2.351
 1001SOL    HW2 3903   2.797   6.798   2.465
 1002SOL     OW 3904   4.109   2.828   1.185
 1002SOL    HW1 3905   4.086   2.861   1.093
 1002SOL    HW2 3906   4.050   2.750   1.208
 1003SOL     OW 3907   0.908   0.369   3.250
 1003SOL    HW1 3908   0.832   0.304   3.244
 1003SOL    HW2 3909   0.993   0.319   3.270
 1004SOL     OW 3910   5.023   1.356   4.607
 1004SOL    HW1 3911   5.107   1.375   4.557
 1004SOL    HW2 3912   5.016   1.257   4.624
 1005SOL     OW 3913   0.895   5.200   2.166
 1005SOL    HW1 3914   0.990   5.227   2.180
 1005SOL    HW2 3915   0.835   5.259   2.220
 1006SOL     OW 3916   2.334   4.018   1.705
 1006SOL    HW1 3917   2.380   4.036   1.618
 1006SOL    HW2 3918   2.320   3.919   1.715
 1007SOL     OW 3919   4.618   0.509   6.071
 1007SOL    HW1 3920   4.606   0.526   5.974
 1007SOL    HW2 3921   4.699   0.558   6.104
 1008SOL     OW 3922   0.766   5.334   5.239
 1008SOL    HW1 3923   0.684   5.278   5.249
 1008SOL    HW2 3924   0.820   5.329   5.323
 1009SOL     OW 3925   6.862   5.653   6.175
 1009SOL    HW1 3926   6.936   5.685   6.233
 1009SOL    HW2 3927   6.775   5.692   6.207
 1010SOL     OW 3928   3.089   3.494   0.419
 1010SOL    HW1 3929   3.077   3.464   0.324
 1010SOL    HW2 3930   3.156   3.435   0.464
 1011SOL     OW 3931   6.553   5.251   2.837
 1011SOL    HW1 3932   6.554   5.258   2.937
 1011SOL    HW2 3933   6.647   5.255   2.803
 1012SOL     OW 3934   5.506   6.530   2.546
 1012SOL    HW1 3935   5.485   6.551   2.642
 1012SOL    HW2 3936   5.591   6.574   2.520
 1013SOL     OW 3937   6.927   0.189   6.221
 1013SOL    HW1 3938   6.870   0.260   6.262
 1013SOL    HW2 3939   6.878   0.145   6.146
 1014SOL     OW 3940   0.935   4.685   5.220
 1014SOL    HW1 3941   1.016   4.741   5.238
 1014SOL    HW2 3942   0.898   4.651   5.306
 1015SOL     OW 3943   1.952   6.449   0.349
 1015SOL    HW1 3944   1.967   6.516   0.276
 1015SOL    HW2 3945   1.873   6.393   0.327
 1016SOL     OW 3946   6.906   3.714   0.808
 1016SOL    HW1 3947   6.954   3.630   0.835
 1016SOL    HW2 3948   6.967   3.770   0.751
 1017SOL     OW 3949   2.281   1.396   2.490
 1017SOL    HW1 3950   2.221   1.316   2.492
 1017SOL    HW2 3951   2.246   1.462   2.424
 1018SOL     OW 3952   6.010   6.734   4.144
 1018SOL    HW1 3953   6.056   6.801   4.200
 1018SOL    HW2 3954   6.040   6.642   4.169
 1019SOL     OW 3955   6.611   4.582   0.834
 1019SOL    HW1 3956   6.611   4.531   0.920
 1019SOL    HW2 3957   6.677   4.541   0.771
 1020SOL     OW 3958   4.902   1.251   0.747
 1020SOL    HW1 3959   4.968   1.274   0.818
 1020SOL    HW2 3960   4.946   1.190   0.680
 1021SOL     OW 3961   0.977   6.735   1.024
 1021SOL    HW1 3962   1.017   6.713   1.113
 1021SOL    HW2 3963   0.880   6.709   1.024
 1022SOL     OW 3964   2.654   5.428   6.734
 1022SOL    HW1 3965   2.628   5.369   6.658
 1022SOL    HW2 3966   2.636   5.523   6.709
 1023SOL     OW 3967   0.535   1.349   2.557
 1023SOL    HW1 3968   0.444   1.313   2.534
 1023SOL    HW2 3969   0.604   1.280   2.536
 1024SOL     OW 3970   1.760   1.933   4.066
 1024SOL    HW1 3971   1.784   1.935   3.969
 1024SOL    HW2 3972   1.777   1.841   4.103
 1025SOL     OW 3973   4.920   4.449   0.316
 1025SOL    HW1 3974   5.000   4.406   0.274
 1025SOL    HW2 3975   4.932   4.548   0.316
 1026SOL     OW 3976   2.964   2.853   1.709
 1026SOL    HW1 3977   3.021   2.904   1.773
 1026SOL    HW2 3978   2.975   2.755   1.724
 1027SOL     OW 3979   0.268   6.713   0.045
 1027SOL    HW1 3980   0.209   6.765   7.004
 1027SOL    HW2 3981   0.363   6.720   0.014
 1028SOL     OW 3982   1.202   6.090   2.666
 1028SOL    HW1 3983   1.190   6.170   2.725
 1028SOL    HW2 3984   1.240   6.119   2.578
 1029SOL     OW 3985   1.392   0.787   5.411
 1029SOL    HW1 3986   1.316   0.786   5.345
 1029SOL    HW2 3987   1.464   0.725   5.380
 1030SOL     OW 3988   3.788   3.338   0.925
 1030SOL    HW1 3989   3.719   3.401   0.892
 1030SOL    HW2 3990   3.759   3.300   1.013
 1031SOL     OW 3991   3.786   3.194   0.664
 1031SOL    HW1 3992   3.767   3.274   0.608
 1031SOL    HW2 3993   3.844   3.220   0.741
 1032SOL     OW 3994   1.898   1.624   0.379
 1032SOL    HW1 3995   1.940   1.668   0.300
 1032SOL    HW2 3996   1.933   1.530   0.386
 1033SOL     OW 3997   0.301   0.695   2.590
 1033SOL    HW1 3998   0.227   0.640   2.628
 1033SOL    HW2 3999   0.300   0.785   2.634
 1034SOL     OW 4000   3.246   1.095   4.813
 1034SOL    HW1 4001   3.338   1.058   4.824
 1034SOL    HW2 4002   3.251   1.195   4.804
 1035SOL     OW 4003   1.674   1.185   0.266
 1035SOL    HW1 4004   1.658   1.275   0.223
 1035SOL    HW2 4005   1.680   1.115   0.195
 1036SOL     OW 4006   4.704   1.118   1.341
 1036SOL    HW1 4007   4.720   1.200   1.287
 1036SOL    HW2 4008   4.645   1.055   1.290
 1037SOL     OW 4009   1.677   3.708   2.296
 1037SOL    HW1 4010   1.689   3.613   2.325
 1037SOL    HW2 4011   1.589   3.718   2.250
 1038SOL     OW 4012   2.436   6.084   0.375
 1038SOL    HW1 4013   2.462   6.021   0.302
 1038SOL    HW2 4014   2.396   6.167   0.335
 1039SOL     OW 4015   3.265   3.651   3.229
 1039SOL    HW1 4016   3.354   3.624   3.266
 1039SOL    HW2 4017   3.202   3.574   3.234
 1040SOL     OW 4018   3.521   2.147   3.149
 1040SOL    HW1 4019   3.545   2.053   3.172
 1040SOL    HW2 4020   3.580   2.210   3.200
 1041SOL     OW 4021   6.290   6.314   0.031
 1041SOL    HW1 4022   6.205   6.304   6.999
 1041SOL    HW2 4023   6.320   6.409   0.029
 1042SOL     OW 4024   5.551   4.657   3.150
 1042SOL    HW1 4025   5.454   4.679   3.137
 1042SOL    HW2 4026   5.560   4.590   3.224
 1043SOL     OW 4027   2.762   1.912   3.840
 1043SOL    HW1 4028   2.789   1.842   3.775
 1043SOL    HW2 4029   2.757   1.872   3.932
 1044SOL     OW 4030   6.084   4.721   1.888
 1044SOL    HW1 4031   6.039   4.809   1.877
 1044SOL    HW2 4032   6.037   4.667   1.957
 1045SOL     OW 4033   2.174   0.768   2.181
 1045SOL    HW1 4034   2.235   0.792   2.257
 1045SOL    HW2 4035   2.082   0.751   2.216
 1046SOL     OW 4036   2.989   1.818   1.355
 1046SOL    HW1 4037   3.030   1.731   1.382
 1046SOL    HW2 4038   3.053   1.892   1.377
 1047SOL     OW 4039   3.721   0.311   3.318
 1047SOL    HW1 4040   3.797   0.347   3.373
 1047SOL    HW2 4041   3.755   0.280   3.230
 1048SOL     OW 4042   1.114   0.011   2.092
 1048SOL    HW1 4043   1.132   6.975   2.173
 1048SOL    HW2 4044   1.106   0.107   2.119
 1049SOL     OW 4045   4.197   6.609   6.015
 1049SOL    HW1 4046   4.181   6.523   5.967
 1049SOL    HW2 4047   4.273   6.658   5.972
 1050SOL     OW 4048   2.832   0.040   4.110
 1050SOL    HW1 4049   2.744   7.015   4.094
 1050SOL    HW2 4050   2.846   0.111   4.041
 1051SOL     OW 4051   1.670   1.323   5.090
 1051SOL    HW1 4052   1.629   1.413   5.079
 1051SOL    HW2 4053   1.674   1.299   5.187
 1052SOL     OW 4054   3.502   1.409   0.317
 1052SOL    HW1 4055   3.452   1.468   0.254
 1052SOL    HW2 4056   3.458   1.319   0.322
 1053SOL     OW 4057   4.943   1.982   4.567
 1053SOL    HW1 4058   4.971   1.892   4.533
 1053SOL    HW2 4059   4.979   1.996   4.659
 1054SOL     OW 4060   4.008   4.994   6.355
 1054SOL    HW1 4061   4.099   4.959   6.373
 1054SOL    HW2 4062   4.013   5.090   6.328
 1055SOL     OW 4063   4.586   5.396   6.677
 1055SOL    HW1 4064   4.501   5.353   6.647
 1055SOL    HW2 4065   4.566   5.483   6.721
 1056SOL     OW 4066   3.420   3.872   6.910
 1056SOL    HW1 4067   3.472   3.831   6.985
 1056SOL    HW2 4068   3.340   3.920   6.946
 1057SOL     OW 4069   3.279   2.944   6.854
 1057SOL    HW1 4070   3.342   2.980   6.923
 1057SOL    HW2 4071   3.185   2.969   6.877
 1058SOL     OW 4072   2.948   2.182   2.272
 1058SOL    HW1 4073   2.863   2.153   2.318
 1058SOL    HW2 4074   2.925   2.230   2.188
 1059SOL     OW 4075   2.349   6.001   2.116
 1059SOL    HW1 4076   2.357   5.903   2.128
 1059SOL    HW2 4077   2.339   6.045   2.205
 1060SOL     OW 4078   6.261   0.814   5.405
 1060SOL    HW1 4079   6.220   0.729   5.436
 1060SOL    HW2 4080   6.342   0.835   5.460
 1061SOL     OW 4081   0.364   3.763   5.895
 1061SOL    HW1 4082   0.420   3.680   5.888
 1061SOL    HW2 4083   0.306   3.757   5.976
 1062SOL     OW 4084   3.373   5.272   4.562
 1062SOL    HW1 4085   3.468   5.276   4.530
 1062SOL    HW2 4086   3.355   5.180   4.598
 1063SOL     OW 4087   3.604   6.589   4.408
 1063SOL    HW1 4088   3.520   6.584   4.462
 1063SOL    HW2 4089   3.633   6.496   4.383
 1064SOL     OW 4090   1.532   3.335   0.356
 1064SOL    HW1 4091   1.561   3.409   0.295
 1064SOL    HW2 4092   1.606   3.314   0.420
 1065SOL     OW 4093   6.361   1.119   5.041
 1065SOL    HW1 4094   6.445   1.129   4.988
 1065SOL    HW2 4095   6.353   1.024   5.072
 1066SOL     OW 4096   5.006   6.670   0.496
 1066SOL    HW1 4097   4.917   6.711   0.476
 1066SOL    HW2 4098   5.043   6.713   0.579
 1067SOL     OW 4099   2.495   1.709   0.019
 1067SOL    HW1 4100   2.439   1.757   6.971
 1067SOL    HW2 4101   2.553   1.775   0.068
 1068SOL     OW 4102   6.378   2.742   1.292
 1068SOL    HW1 4103   6.290   2.742   1.340
 1068SOL    HW2 4104   6.374   2.806   1.216
 1069SOL     OW 4105   6.076   3.330   2.577
 1069SOL    HW1 4106   6.051   3.424   2.555
 1069SOL    HW2 4107   6.018   3.297   2.651
 1070SOL     OW 4108   0.891   0.441   2.199
 1070SOL    HW1 4109   0.851   0.532   2.204
 1070SOL    HW2 4110   0.832   0.382   2.143
 1071SOL     OW 4111   0.522   3.229   6.223
 1071SOL    HW1 4112   0.445   3.189   6.172
 1071SOL    HW2 4113   0.596   3.250   6.159
 1072SOL     OW 4114   1.677   1.351   2.376
 1072SOL    HW1 4115   1.686   1.443   2.415
 1072SOL    HW2 4116   1.760   1.328   2.327
 1073SOL     OW 4117   5.412   2.646   2.700
 1073SOL    HW1 4118   5.392   2.548   2.693
 1073SOL    HW2 4119   5.500   2.659   2.746
 1074SOL     OW 4120   2.931   5.144   1.485
 1074SOL    HW1 4121   2.951   5.227   1.433
 1074SOL    HW2 4122   2.929   5.165   1.583
 1075SOL     OW 4123   6.876   4.073   6.154
 1075SOL    HW1 4124   6.840   4.152   6.203
 1075SOL    HW2 4125   6.814   3.996   6.166
 1076SOL     OW 4126   1.568   4.729   5.163
 1076SOL    HW1 4127   1.665   4.734   5.186
 1076SOL    HW2 4128   1.558   4.698   5.068
 1077SOL     OW 4129   6.477   6.522   0.488
 1077SOL    HW1 4130   6.424   6.533   0.404
 1077SOL    HW2 4131   6.566   6.568   0.478
 1078SOL     OW 4132   6.165   6.708   4.532
 1078SOL    HW1 4133   6.129   6.631   4.585
 1078SOL    HW2 4134   6.166   6.790   4.589
 1079SOL     OW 4135   0.685   6.698   1.668
 1079SOL    HW1 4136   0.692   6.786   1.621
 1079SOL    HW2 4137   0.642   6.711   1.757
 1080SOL     OW 4138   3.696   6.800   0.119
 1080SOL    HW1 4139   3.667   6.705   0.119
 1080SOL    HW2 4140   3.793   6.805   0.096
 1081SOL     OW 4141   6.438   6.563   3.543
 1081SOL    HW1 4142   6.465   6.645   3.492
 1081SOL    HW2 4143   6.371   6.588   3.613
 1082SOL     OW 4144   3.979   0.107   0.344
 1082SOL    HW1 4145   3.889   0.062   0.343
 1082SOL    HW2 4146   4.045   0.049   0.295
 1083SOL     OW 4147   5.712   4.342   2.188
 1083SOL    HW1 4148   5.659   4.422   2.159
 1083SOL    HW2 4149   5.701   4.269   2.120
 1084SOL     OW 4150   5.538   0.781   5.267
 1084SOL    HW1 4151   5.526   0.763   5.365
 1084SOL    HW2 4152   5.591   0.865   5.255
 1085SOL     OW 4153   2.081   3.695   4.560
 1085SOL    HW1 4154   2.033   3.721   4.644
 1085SOL    HW2 4155   2.106   3.777   4.509
 1086SOL     OW 4156   5.502   5.590   0.490
 1086SOL    HW1 4157   5.539   5.590   0.398
 1086SOL    HW2 4158   5.461   5.501   0.510
 1087SOL     OW 4159   4.257   0.088   5.623
 1087SOL    HW1 4160   4.167   0.108   5.662
 1087SOL    HW2 4161   4.276   7.010   5.630
 1088SOL     OW 4162   6.599   5.168   3.770
 1088SOL    HW1 4163   6.686   5.200   3.809
 1088SOL    HW2 4164   6.598   5.186   3.672
 1089SOL     OW 4165   5.587   5.301   4.191
 1089SOL    HW1 4166   5.601   5.205   4.167
 1089SOL    HW2 4167   5.606   5.314   4.289
 1090SOL     OW 4168   5.694   2.334   5.065
 1090SOL    HW1 4169   5.680   2.290   5.154
 1090SOL    HW2 4170   5.792   2.353   5.053
 1091SOL     OW 4171   1.686   3.015   3.387
 1091SOL    HW1 4172   1.741   3.004   3.470
 1091SOL    HW2 4173   1.661   3.111   3.375
 1092SOL     OW 4174   0.173   5.878   0.278
 1092SOL    HW1 4175   0.099   5.889   0.345
 1092SOL    HW2 4176   0.225   5.963   0.271
 1093SOL     OW 4177   1.382   0.486   3.064
 1093SOL    HW1 4178   1.458   0.538   3.024
 1093SOL    HW2 4179   1.321   0.547   3.114
 1094SOL     OW 4180   0.142   6.979   3.300
 1094SOL    HW1 4181   0.231   6.941   3.277
 1094SOL    HW2 4182   0.077   6.905   3.316
 1095SOL     OW 4183   5.534   3.117   0.505
 1095SOL    HW1 4184   5.544   3.183   0.580
 1095SOL    HW2 4185   5.529   3.025   0.543
 1096SOL     OW 4186   1.951   5.411   1.907
 1096SOL    HW1 4187   1.885   5.339   1.928
 1096SOL    HW2 4188   1.913   5.472   1.837
 1097SOL     OW 4189   2.636   6.485   4.249
 1097SOL    HW1 4190   2.708   6.444   4.304
 1097SOL    HW2 4191   2.602   6.568   4.294
 1098SOL     OW 4192   6.838   3.996   0.652
 1098SOL    HW1 4193   6.905   4.055   0.697
 1098SOL    HW2 4194   6.832   4.020   0.555
 1099SOL     OW 4195   4.977   0.452   6.486
 1099SOL    HW1 4196   4.904   0.388   6.463
 1099SOL    HW2 4197   5.015   0.492   6.402
 1100SOL     OW 4198   4.174   1.824   4.501
 1100SOL    HW1 4199   4.235   1.850   4.426
 1100SOL    HW2 4200   4.083   1.863   4.485
 1101SOL     OW 4201   4.887   3.099   6.365
 1101SOL    HW1 4202   4.846   3.144   6.286
 1101SOL    HW2 4203   4.983   3.125   6.371
 1102SOL     OW 4204   2.976   0.583   3.230
 1102SOL    HW1 4205   2.976   0.672   3.186
 1102SOL    HW2 4206   3.064   0.568   3.276
 1103SOL     OW 4207   3.423   6.036   0.587
 1103SOL    HW1 4208   3.392   6.010   0.496
 1103SOL    HW2 4209   3.439   5.954   0.642
 1104SOL     OW 4210   0.023   2.703   3.768
 1104SOL    HW1 4211   0.029   2.742   3.860
 1104SOL    HW2 4212   6.962   2.738   3.722
 1105SOL     OW 4213   5.397   1.798   6.046
 1105SOL    HW1 4214   5.351   1.807   5.958
 1105SOL    HW2 4215   5.492   1.768   6.031
 1106SOL     OW 4216   6.233   1.371   0.937
 1106SOL    HW1 4217   6.201   1.294   0.991
 1106SOL    HW2 4218   6.307   1.418   0.985
 1107SOL     OW 4219   0.993   1.444   6.643
 1107SOL    HW1 4220   0.954   1.481   6.559
 1107SOL    HW2 4221   0.919   1.426   6.709
 1108SOL     OW 4222   2.189   0.911   4.239
 1108SOL    HW1 4223   2.210   0.824   4.285
 1108SOL    HW2 4224   2.243   0.984   4.280
 1109SOL     OW 4225   4.818   2.797   4.966
 1109SOL    HW1 4226   4.911   2.766   4.982
 1109SOL    HW2 4227   4.808   2.891   4.998
 1110SOL     OW 4228   2.391   0.810   2.348
 1110SOL    HW1 4229   2.423   0.882   2.409
 1110SOL    HW2 4230   2.420   0.721   2.384
 1111SOL     OW 4231   5.940   3.993   6.541
 1111SOL    HW1 4232   6.019   3.990   6.603
 1111SOL    HW2 4233   5.857   3.966   6.591
 1112SOL     OW 4234   5.650   0.504   2.515
 1112SOL    HW1 4235   5.636   0.515   2.613
 1112SOL    HW2 4236   5.663   0.407   2.494
 1113SOL     OW 4237   5.828   3.545   2.360
 1113SOL    HW1 4238   5.740   3.509   2.392
 1113SOL    HW2 4239   5.870   3.599   2.433
 1114SOL     OW 4240   3.716   4.144   4.888
 1114SOL    HW1 4241   3.645   4.092   4.936
 1114SOL    HW2 4242   3.681   4.172   4.798
 1115SOL     OW 4243   2.917   4.513   5.754
 1115SOL    HW1 4244   2.866   4.588   5.798
 1115SOL    HW2 4245   2.900   4.515   5.656
 1116SOL     OW 4246   4.335   0.378   0.124
 1116SOL    HW1 4247   4.287   0.355   0.209
 1116SOL    HW2 4248   4.325   0.303   0.059
 1117SOL     OW 4249   2.462   2.512   1.606
 1117SOL    HW1 4250   2.453   2.608   1.632
 1117SOL    HW2 4251   2.554   2.479   1.629
 1118SOL     OW 4252   4.193   6.231   0.190
 1118SOL    HW1 4253   4.209   6.301   0.120
 1118SOL    HW2 4254   4.106   6.248   0.235
 1119SOL     OW 4255   3.465   4.914   3.711
 1119SOL    HW1 4256   3.413   4.996   3.736
 1119SOL    HW2 4257   3.439   4.885   3.618
 1120SOL     OW 4258   6.536   3.199   1.221
 1120SOL    HW1 4259   6.556   3.106   1.254
 1120SOL    HW2 4260   6.506   3.255   1.298
 1121SOL     OW 4261   6.810   4.528   4.832
 1121SOL    HW1 4262   6.731   4.583   4.858
 1121SOL    HW2 4263   6.890   4.588   4.821
 1122SOL     OW 4264   5.512   2.256   1.537
 1122SOL    HW1 4265   5.526   2.347   1.575
 1122SOL    HW2 4266   5.551   2.187   1.599
 1123SOL     OW 4267   3.741   1.593   3.736
 1123SOL    HW1 4268   3.742   1.597   3.636
 1123SOL    HW2 4269   3.798   1.666   3.774
 1124SOL     OW 4270   2.178   2.414   3.976
 1124SOL    HW1 4271   2.228   2.455   4.052
 1124SOL    HW2 4272   2.129   2.333   4.009
 1125SOL     OW 4273   1.619   3.432   3.740
 1125SOL    HW1 4274   1.689   3.499   3.715
 1125SOL    HW2 4275   1.551   3.476   3.798
 1126SOL     OW 4276   4.308   5.011   4.749
 1126SOL    HW1 4277   4.221   4.962   4.749
 1126SOL    HW2 4278   4.308   5.077   4.674
 1127SOL     OW 4279   6.722   6.852   2.003
 1127SOL    HW1 4280   6.699   6.947   2.020
 1127SOL    HW2 4281   6.816   6.835   2.032
 1128SOL     OW 4282   4.838   1.367   4.907
 1128SOL    HW1 4283   4.929   1.329   4.926
 1128SOL    HW2 4284   4.847   1.448   4.849
 1129SOL     OW 4285   1.197   0.655   0.699
 1129SOL    HW1 4286   1.123   0.703   0.747
 1129SOL    HW2 4287   1.247   0.599   0.764
 1130SOL     OW 4288   2.481   4.907   2.236
 1130SOL    HW1 4289   2.515   4.813   2.227
 1130SOL    HW2 4290   2.479   4.933   2.333
 1131SOL     OW 4291   1.987   5.333   3.845
 1131SOL    HW1 4292   1.999   5.418   3.896
 1131SOL    HW2 4293   1.959   5.354   3.752
 1132SOL     OW 4294   1.667   1.583   2.530
 1132SOL    HW1 4295   1.682   1.589   2.629
 1132SOL    HW2 4296   1.670   1.675   2.491
 1133SOL     OW 4297   0.768   6.909   6.387
 1133SOL    HW1 4298   0.856   6.957   6.394
 1133SOL    HW2 4299   0.712   6.931   6.467
 1134SOL     OW 4300   3.516   6.138   1.618
 1134SOL    HW1 4301   3.555   6.115   1.529
 1134SOL    HW2 4302   3.453   6.215   1.606
 1135SOL     OW 4303   1.711   6.122   3.381
 1135SOL    HW1 4304   1.801   6.097   3.347
 1135SOL    HW2 4305   1.678   6.202   3.331
 1136SOL     OW 4306   2.051   5.290   2.511
 1136SOL    HW1 4307   2.004   5.208   2.545
 1136SOL    HW2 4308   2.044   5.363   2.578
 1137SOL     OW 4309   0.839   5.652   4.580
 1137SOL    HW1 4310   0.866   5.697   4.495
 1137SOL    HW2 4311   0.797   5.718   4.642
 1138SOL     OW 4312   1.871   3.633   4.734
 1138SOL    HW1 4313   1.902   3.538   4.743
 1138SOL    HW2 4314   1.774   3.634   4.708
 1139SOL     OW 4315   2.409   5.098   5.190
 1139SOL    HW1 4316   2.507   5.078   5.188
 1139SOL    HW2 4317   2.395   5.190   5.228
 1140SOL     OW 4318   1.986   2.401   1.105
 1140SOL    HW1 4319   2.005   2.314   1.060
 1140SOL    HW2 4320   1.961   2.469   1.036
 1141SOL     OW 4321   0.191   4.827   6.081
 1141SOL    HW1 4322   0.246   4.907   6.103
 1141SOL    HW2 4323   0.099   4.837   6.121
 1142SOL     OW 4324   1.592   6.171   2.153
 1142SOL    HW1 4325   1.634   6.108   2.218
 1142SOL    HW2 4326   1.586   6.127   2.063
 1143SOL     OW 4327   0.545   3.746   2.237
 1143SOL    HW1 4328   0.583   3.725   2.147
 1143SOL    HW2 4329   0.446   3.738   2.234
 1144SOL     OW 4330   5.667   4.362   0.178
 1144SOL    HW1 4331   5.677   4.387   0.081
 1144SOL    HW2 4332   5.739   4.408   0.231
 1145SOL     OW 4333   5.570   6.704   0.876
 1145SOL    HW1 4334   5.604   6.614   0.851
 1145SOL    HW2 4335   5.647   6.767   0.887
 1146SOL     OW 4336   1.035   0.901   1.196
 1146SOL    HW1 4337   1.033   0.802   1.212
 1146SOL    HW2 4338   0.942   0.934   1.178
 1147SOL     OW 4339   1.792   6.358   0.939
 1147SOL    HW1 4340   1.729   6.370   0.863
 1147SOL    HW2 4341   1.742   6.324   1.019
 1148SOL     OW 4342   4.204   5.780   3.273
 1148SOL    HW1 4343   4.211   5.773   3.373
 1148SOL    HW2 4344   4.240   5.869   3.244
 1149SOL     OW 4345   4.731   3.274   1.460
 1149SOL    HW1 4346   4.692   3.190   1.422
 1149SOL    HW2 4347   4.804   3.250   1.524
 1150SOL     OW 4348   1.537   3.500   0.905
 1150SOL    HW1 4349   1.516   3.455   0.992
 1150SOL    HW2 4350   1.557   3.597   0.921
 1151SOL     OW 4351   5.971   5.608   4.397
 1151SOL    HW1 4352   6.061   5.605   4.439
 1151SOL    HW2 4353   5.928   5.696   4.415
 1152SOL     OW 4354   3.468   6.451   6.422
 1152SOL    HW1 4355   3.398   6.428   6.489
 1152SOL    HW2 4356   3.534   6.376   6.416
 1153SOL     OW 4357   5.537   6.621   2.055
 1153SOL    HW1 4358   5.611   6.686   2.036
 1153SOL    HW2 4359   5.449   6.669   2.054
 1154SOL     OW 4360   2.343   2.537   0.330
 1154SOL    HW1 4361   2.347   2.482   0.247
 1154SOL    HW2 4362   2.429   2.587   0.342
 1155SOL     OW 4363   3.593   6.035   4.369
 1155SOL    HW1 4364   3.592   6.130   4.339
 1155SOL    HW2 4365   3.581   5.975   4.290
 1156SOL     OW 4366   2.648   1.786   2.954
 1156SOL    HW1 4367   2.559   1.767   2.994
 1156SOL    HW2 4368   2.718   1.733   3.002
 1157SOL     OW 4369   2.822   1.129   0.220
 1157SOL    HW1 4370   2.738   1.093   0.179
 1157SOL    HW2 4371   2.831   1.226   0.197
 1158SOL     OW 4372   6.083   4.372   3.102
 1158SOL    HW1 4373   6.029   4.316   3.039
 1158SOL    HW2 4374   6.065   4.344   3.196
 1159SOL     OW 4375   6.630   5.179   0.757
 1159SOL    HW1 4376   6.682   5.136   0.831
 1159SOL    HW2 4377   6.559   5.116   0.725
 1160SOL     OW 4378   5.710   2.139   0.069
 1160SOL    HW1 4379   5.666   2.218   0.112
 1160SOL    HW2 4380   5.772   2.096   0.135
 1161SOL     OW 4381   6.775   5.041   0.964
 1161SOL    HW1 4382   6.711   5.054   1.040
 1161SOL    HW2 4383   6.868   5.035   0.999
 1162SOL     OW 4384   3.015   2.226   4.706
 1162SOL    HW1 4385   3.074   2.201   4.629
 1162SOL    HW2 4386   3.071   2.260   4.782
 1163SOL     OW 4387   5.365   2.697   1.321
 1163SOL    HW1 4388   5.315   2.771   1.366
 1163SOL    HW2 4389   5.394   2.630   1.390
 1164SOL     OW 4390   4.035   2.632   5.939
 1164SOL    HW1 4391   3.959   2.678   5.984
 1164SOL    HW2 4392   4.120   2.652   5.988
 1165SOL     OW 4393   4.477   6.587   3.481
 1165SOL    HW1 4394   4.410   6.573   3.408
 1165SOL    HW2 4395   4.514   6.679   3.475
 1166SOL     OW 4396   2.822   4.762   6.299
 1166SOL    HW1 4397   2.768   4.678   6.294
 1166SOL    HW2 4398   2.790   4.827   6.230
 1167SOL     OW 4399   4.965   4.569   2.431
 1167SOL    HW1 4400   4.945   4.499   2.361
 1167SOL    HW2 4401   4.922   4.655   2.405
 1168SOL     OW 4402   6.995   0.372   2.408
 1168SOL    HW1 4403   0.074   0.385   2.398
 1168SOL    HW2 4404   6.956   0.449   2.458
 1169SOL     OW 4405   4.526   1.253   5.312
 1169SOL    HW1 4406   4.442   1.206   5.285
 1169SOL    HW2 4407   4.589   1.255   5.234
 1170SOL     OW 4408   4.841   5.099   2.898
 1170SOL    HW1 4409   4.867   5.009   2.932
 1170SOL    HW2 4410   4.920   5.144   2.857
 1171SOL     OW 4411   0.099   6.299   0.412
 1171SOL    HW1 4412   0.017   6.354   0.431
 1171SOL    HW2 4413   0.118   6.239   0.489
 1172SOL     OW 4414   6.662   3.526   6.495
 1172SOL    HW1 4415   6.672   3.597   6.566
 1172SOL    HW2 4416   6.588   3.551   6.433
 1173SOL     OW 4417   3.725   2.000   0.672
 1173SOL    HW1 4418   3.787   2.006   0.751
 1173SOL    HW2 4419   3.663   2.079   0.673
 1174SOL     OW 4420   2.128   4.349   0.625
 1174SOL    HW1 4421   2.151   4.260   0.664
 1174SOL    HW2 4422   2.172   4.422   0.678
 1175SOL     OW 4423   3.055   3.043   4.609
 1175SOL    HW1 4424   2.974   3.074   4.560
 1175SOL    HW2 4425   3.132   3.035   4.546
 1176SOL     OW 4426   5.471   3.010   6.327
 1176SOL    HW1 4427   5.539   3.049   6.265
 1176SOL    HW2 4428   5.391   2.980   6.275
 1177SOL     OW 4429   1.259   1.717   4.319
 1177SOL    HW1 4430   1.312   1.752   4.243
 1177SOL    HW2 4431   1.161   1.723   4.298
 1178SOL     OW 4432   4.221   5.931   0.143
 1178SOL    HW1 4433   4.200   6.029   0.152
 1178SOL    HW2 4434   4.214   5.887   0.232
 1179SOL     OW 4435   1.450   6.020   0.032
 1179SOL    HW1 4436   1.429   6.090   6.983
 1179SOL    HW2 4437   1.374   6.014   0.096
 1180SOL     OW 4438   3.373   6.427   0.337
 1180SOL    HW1 4439   3.465   6.393   0.318
 1180SOL    HW2 4440   3.378   6.506   0.398
 1181SOL     OW 4441   6.762   6.463   0.049
 1181SOL    HW1 4442   6.693   6.534   0.061
 1181SOL    HW2 4443   6.795   6.463   6.975
 1182SOL     OW 4444   4.570   4.651   2.571
 1182SOL    HW1 4445   4.660   4.657   2.528
 1182SOL    HW2 4446   4.499   4.665   2.502
 1183SOL     OW 4447   1.997   3.757   5.892
 1183SOL    HW1 4448   1.953   3.809   5.820
 1183SOL    HW2 4449   1.928   3.717   5.952
 1184SOL     OW 4450   0.631   7.002   5.465
 1184SOL    HW1 4451   0.551   0.017   5.513
 1184SOL    HW2 4452   0.654   0.043   5.389
 1185SOL     OW 4453   6.509   1.479   6.762
 1185SOL    HW1 4454   6.421   1.478   6.716
 1185SOL    HW2 4455   6.572   1.538   6.711
 1186SOL     OW 4456   6.078   6.323   4.254
 1186SOL    HW1 4457   6.129   6.404   4.226
 1186SOL    HW2 4458   6.004   6.350   4.316
 1187SOL     OW 4459   6.364   1.038   6.089
 1187SOL    HW1 4460   6.282   1.046   6.032
 1187SOL    HW2 4461   6.339   1.002   6.179
 1188SOL     OW 4462   2.786   0.366   6.302
 1188SOL    HW1 4463   2.718   0.382   6.231
 1188SOL    HW2 4464   2.837   0.450   6.319
 1189SOL     OW 4465   5.597   3.752   3.630
 1189SOL    HW1 4466   5.500   3.755   3.609
 1189SOL    HW2 4467   5.624   3.835   3.678
 1190SOL     OW 4468   2.269   6.403   3.617
 1190SOL    HW1 4469   2.298   6.333   3.551
 1190SOL    HW2 4470   2.349   6.440   3.664
 1191SOL     OW 4471   4.350   6.002   2.323
 1191SOL    HW1 4472   4.408   6.054   2.260
 1191SOL    HW2 4473   4.365   6.034   2.416
 1192SOL     OW 4474   5.776   5.779   3.497
 1192SOL    HW1 4475   5.741   5.821   3.413
 1192SOL    HW2 4476   5.782   5.849   3.569
 1193SOL     OW 4477   6.862   5.467   4.242
 1193SOL    HW1 4478   6.847   5.565   4.257
 1193SOL    HW2 4479   6.945   5.439   4.290
 1194SOL     OW 4480   3.679   0.528   1.344
 1194SOL    HW1 4481   3.716   0.511   1.253
 1194SOL    HW2 4482   3.635   0.617   1.347
 1195SOL     OW 4483   5.592   2.399   3.622
 1195SOL    HW1 4484   5.600   2.346   3.706
 1195SOL    HW2 4485   5.606   2.340   3.543
 1196SOL     OW 4486   6.777   6.330   4.972
 1196SOL    HW1 4487   6.714   6.290   4.905
 1196SOL    HW2 4488   6.742   6.418   5.002
 1197SOL     OW 4489   2.413   6.376   0.296
 1197SOL    HW1 4490   2.369   6.349   0.210
 1197SOL    HW2 4491   2.347   6.422   0.354
 1198SOL     OW 4492   1.707   2.791   6.909
 1198SOL    HW1 4493   1.716   2.703   6.864
 1198SOL    HW2 4494   1.613   2.804   6.939
 1199SOL     OW 4495   5.823   4.313   1.555
 1199SOL    HW1 4496   5.876   4.375   1.613
 1199SOL    HW2 4497   5.782   4.241   1.612
 1200SOL     OW 4498   2.995   3.202   2.224
 1200SOL    HW1 4499   2.920   3.260   2.194
 1200SOL    HW2 4500   2.966   3.147   2.302
 1201SOL     OW 4501   1.658   2.303   4.180
 1201SOL    HW1 4502   1.710   2.270   4.101
 1201SOL    HW2 4503   1.606   2.385   4.153
 1202SOL     OW 4504   1.071   5.542   5.517
 1202SOL    HW1 4505   1.074   5.541   5.616
 1202SOL    HW2 4506   1.156   5.579   5.481
 1203SOL     OW 4507   4.468   5.948   5.564
 1203SOL    HW1 4508   4.459   6.048   5.574
 1203SOL    HW2 4509   4.404   5.915   5.494
 1204SOL     OW 4510   2.114   6.787   2.738
 1204SOL    HW1 4511   2.203   6.786   2.693
 1204SOL    HW2 4512   2.124   6.766   2.835
 1205SOL     OW 4513   5.353   4.264   2.340
 1205SOL    HW1 4514   5.263   4.283   2.381
 1205SOL    HW2 4515   5.387   4.348   2.296
 1206SOL     OW 4516   2.986   3.921   4.872
 1206SOL    HW1 4517   2.954   3.844   4.817
 1206SOL    HW2 4518   2.935   3.923   4.959
 1207SOL     OW 4519   1.462   6.273   2.473
 1207SOL    HW1 4520   1.371   6.246   2.442
 1207SOL    HW2 4521   1.531   6.231   2.413
 1208SOL     OW 4522   3.362   3.860   5.685
 1208SOL    HW1 4523   3.395   3.773   5.722
 1208SOL    HW2 4524   3.280   3.888   5.736
 1209SOL     OW 4525   3.871   6.432   5.627
 1209SOL    HW1 4526   3.780   6.401   5.655
 1209SOL    HW2 4527   3.864   6.524   5.588
 1210SOL     OW 4528   3.258   0.999   3.037
 1210SOL    HW1 4529   3.271   1.028   3.132
 1210SOL    HW2 4530   3.268   0.900   3.031
 1211SOL     OW 4531   1.132   3.225   0.238
 1211SOL    HW1 4532   1.073   3.249   0.161
 1211SOL    HW2 4533   1.228   3.225   0.208
 1212SOL     OW 4534   1.130   6.888   0.193
 1212SOL    HW1 4535   1.122   6.890   0.293
 1212SOL    HW2 4536   1.093   6.973   0.155
 1213SOL     OW 4537   5.260   3.209   1.292
 1213SOL    HW1 4538   5.172   3.186   1.251
 1213SOL    HW2 4539   5.333   3.194   1.225
 1214SOL     OW 4540   6.829   2.470   1.637
 1214SOL    HW1 4541   6.832   2.394   1.573
 1214SOL    HW2 4542   6.791   2.550   1.592
 1215SOL     OW 4543   1.537   5.766   3.215
 1215SOL    HW1 4544   1.484   5.850   3.227
 1215SOL    HW2 4545   1.553   5.725   3.305
 1216SOL     OW 4546   3.848   6.410   1.175
 1216SOL    HW1 4547   3.790   6.332   1.150
 1216SOL    HW2 4548   3.868   6.407   1.273
 1217SOL     OW 4549   3.048   4.788   0.225
 1217SOL    HW1 4550   2.984   4.792   0.148
 1217SOL    HW2 4551   3.029   4.863   0.288
 1218SOL     OW 4552   1.978   4.914   3.749
 1218SOL    HW1 4553   1.950   5.002   3.710
 1218SOL    HW2 4554   1.906   4.880   3.809
 1219SOL     OW 4555   4.610   6.151   2.437
 1219SOL    HW1 4556   4.530   6.113   2.484
 1219SOL    HW2 4557   4.605   6.129   2.340
 1220SOL     OW 4558   0.950   4.589   2.746
 1220SOL    HW1 4559   0.862   4.563   2.706
 1220SOL    HW2 4560   1.019   4.519   2.723
 1221SOL     OW 4561   5.136   4.271   6.481
 1221SOL    HW1 4562   5.204   4.336   6.447
 1221SOL    HW2 4563   5.058   4.321   6.517
 1222SOL     OW 4564   6.470   0.649   6.568
 1222SOL    HW1 4565   6.456   0.567   6.512
 1222SOL    HW2 4566   6.413   0.643   6.650
 1223SOL     OW 4567   3.513   6.239   0.736
 1223SOL    HW1 4568   3.464   6.186   0.666
 1223SOL    HW2 4569   3.480   6.333   0.734
 1224SOL     OW 4570   2.846   0.396   2.485
 1224SOL    HW1 4571   2.756   0.353   2.494
 1224SOL    HW2 4572   2.852   0.474   2.548
 1225SOL     OW 4573   2.772   4.073   5.938
 1225SOL    HW1 4574   2.726   4.161   5.931
 1225SOL    HW2 4575   2.863   4.086   5.976
 1226SOL     OW 4576   1.775   4.806   1.161
 1226SOL    HW1 4577   1.843   4.858   1.212
 1226SOL    HW2 4578   1.695   4.863   1.143
 1227SOL     OW 4579   0.780   3.603   5.977
 1227SOL    HW1 4580   0.786   3.505   5.955
 1227SOL    HW2 4581   0.767   3.655   5.894
 1228SOL     OW 4582   3.898   1.885   6.510
 1228SOL    HW1 4583   3.843   1.950   6.563
 1228SOL    HW2 4584   3.856   1.871   6.421
 1229SOL     OW 4585   3.289   4.226   6.254
 1229SOL    HW1 4586   3.317   4.256   6.163
 1229SOL    HW2 4587   3.369   4.190   6.303
 1230SOL     OW 4588   4.582   0.359   3.601
 1230SOL    HW1 4589   4.631   0.276   3.574
 1230SOL    HW2 4590   4.494   0.362   3.554
 1231SOL     OW 4591   1.248   4.643   4.474
 1231SOL    HW1 4592   1.226   4.723   4.417
 1231SOL    HW2 4593   1.332   4.600   4.440
 1232SOL     OW 4594   1.824   2.388   4.409
 1232SOL    HW1 4595   1.912   2.421   4.375
 1232SOL    HW2 4596   1.767   2.360   4.332
 1233SOL     OW 4597   0.603   3.028   4.149
 1233SOL    HW1 4598   0.654   3.092   4.091
 1233SOL    HW2 4599   0.526   3.077   4.192
 1234SOL     OW 4600   6.438   3.762   4.126
 1234SOL    HW1 4601   6.418   3.701   4.049
 1234SOL    HW2 4602   6.353   3.801   4.161
 1235SOL     OW 4603   6.850   5.237   3.884
 1235SOL    HW1 4604   6.888   5.325   3.913
 1235SOL    HW2 4605   6.910   5.195   3.816
 1236SOL     OW 4606   5.312   1.063   6.172
 1236SOL    HW1 4607   5.283   1.156   6.150
 1236SOL    HW2 4608   5.269   1.034   6.257
 1237SOL     OW 4609   3.049   4.829   6.851
 1237SOL    HW1 4610   3.072   4.739   6.887
 1237SOL    HW2 4611   3.109   4.851   6.774
 1238SOL     OW 4612   1.258   1.672   1.480
 1238SOL    HW1 4613   1.327   1.631   1.419
 1238SOL    HW2 4614   1.303   1.735   1.544
 1239SOL     OW 4615   0.714   6.891   5.838
 1239SOL    HW1 4616   0.764   6.896   5.752
 1239SOL    HW2 4617   0.708   6.796   5.867
 1240SOL     OW 4618   4.350   6.345   2.113
 1240SOL    HW1 4619   4.388   6.386   2.030
 1240SOL    HW2 4620   4.293   6.266   2.088
 1241SOL     OW 4621   6.953   2.839   4.155
 1241SOL    HW1 4622   6.977   2.773   4.226
 1241SOL    HW2 4623   0.017   2.878   4.116
 1242SOL     OW 4624   2.293   3.744   6.444
 1242SOL    HW1 4625   2.242   3.824   6.477
 1242SOL    HW2 4626   2.229   3.678   6.405
 1243SOL     OW 4627   2.997   5.291   5.720
 1243SOL    HW1 4628   2.996   5.256   5.626
 1243SOL    HW2 4629   3.088   5.279   5.759
 1244SOL     OW 4630   0.761   0.951   2.967
 1244SOL    HW1 4631   0.836   0.955   2.901
 1244SOL    HW2 4632   0.686   0.897   2.928
 1245SOL     OW 4633   2.922   3.288   6.302
 1245SOL    HW1 4634   2.923   3.384   6.273
 1245SOL    HW2 4635   2.918   3.283   6.402
 1246SOL     OW 4636   1.099   7.015   1.622
 1246SOL    HW1 4637   1.151   6.933   1.599
 1246SOL    HW2 4638   1.035   6.995   1.696
 1247SOL     OW 4639   0.986   0.008   6.788
 1247SOL    HW1 4640   1.048   0.059   6.728
 1247SOL    HW2 4641   1.039   6.959   6.838
 1248SOL     OW 4642   1.990   6.807   3.439
 1248SOL    HW1 4643   2.062   6.738   3.432
 1248SOL    HW2 4644   1.929   6.785   3.515
 1249SOL     OW 4645   6.139   3.051   3.533
 1249SOL    HW1 4646   6.183   3.069   3.621
 1249SOL    HW2 4647   6.207   3.018   3.468
 1250SOL     OW 4648   0.394   3.813   4.288
 1250SOL    HW1 4649   0.455   3.740   4.317
 1250SOL    HW2 4650   0.389   3.815   4.188
 1251SOL     OW 4651   3.517   6.942   5.941
 1251SOL    HW1 4652   3.612   6.973   5.945
 1251SOL    HW2 4653   3.499   6.879   6.016
 1252SOL     OW 4654   3.637   3.246   6.823
 1252SOL    HW1 4655   3.619   3.155   6.784
 1252SOL    HW2 4656   3.694   3.298   6.761
 1253SOL     OW 4657   4.247   6.561   3.287
 1253SOL    HW1 4658   4.269   6.596   3.196
 1253SOL    HW2 4659   4.281   6.467   3.296
 1254SOL     OW 4660   6.517   2.022   2.510
 1254SOL    HW1 4661   6.525   2.112   2.468
 1254SOL    HW2 4662   6.606   1.992   2.543
 1255SOL     OW 4663   5.653   0.541   0.276
 1255SOL    HW1 4664   5.657   0.443   0.253
 1255SOL    HW2 4665   5.675   0.553   0.372
 1256SOL     OW 4666   4.888   1.623   4.041
 1256SOL    HW1 4667   4.973   1.608   3.989
 1256SOL    HW2 4668   4.818   1.660   3.980
 1257SOL     OW 4669   6.105   1.729   4.388
 1257SOL    HW1 4670   6.103   1.814   4.335
 1257SOL    HW2 4671   6.019   1.680   4.374
 1258SOL     OW 4672   0.172   6.110   3.893
 1258SOL    HW1 4673   0.197   6.182   3.828
 1258SOL    HW2 4674   0.244   6.102   3.962
 1259SOL     OW 4675   4.370   2.171   5.394
 1259SOL    HW1 4676   4.373   2.092   5.333
 1259SOL    HW2 4677   4.285   2.221   5.381
 1260SOL     OW 4678   0.671   1.755   5.574
 1260SOL    HW1 4679   0.730   1.828   5.538
 1260SOL    HW2 4680   0.686   1.747   5.672
 1261SOL     OW 4681   6.341   3.833   0.637
 1261SOL    HW1 4682   6.438   3.818   0.616
 1261SOL    HW2 4683   6.331   3.857   0.733
 1262SOL     OW 4684   5.066   5.993   2.491
 1262SOL    HW1 4685   4.988   6.054   2.485
 1262SOL    HW2 4686   5.150   6.044   2.472
 1263SOL     OW 4687   6.634   2.467   3.407
 1263SOL    HW1 4688   6.675   2.521   3.480
 1263SOL    HW2 4689   6.534   2.479   3.408
 1264SOL     OW 4690   1.061   2.935   5.677
 1264SOL    HW1 4691   1.160   2.920   5.685
 1264SOL    HW2 4692   1.041   3.032   5.690
 1265SOL     OW 4693   5.815   6.868   6.021
 1265SOL    HW1 4694   5.813   6.957   5.975
 1265SOL    HW2 4695   5.756   6.804   5.972
 1266SOL     OW 4696   2.163   0.970   5.739
 1266SOL    HW1 4697   2.215   0.905   5.794
 1266SOL    HW2 4698   2.066   0.964   5.764
 1267SOL     OW 4699   3.617   0.184   2.526
 1267SOL    HW1 4700   3.712   0.190   2.554
 1267SOL    HW2 4701   3.558   0.222   2.598
 1268SOL     OW 4702   3.888   3.149   5.701
 1268SOL    HW1 4703   3.821   3.180   5.633
 1268SOL    HW2 4704   3.913   3.225   5.761
 1269SOL     OW 4705   5.809   2.077   3.806
 1269SOL    HW1 4706   5.859   2.145   3.752
 1269SOL    HW2 4707   5.872   2.028   3.865
 1270SOL     OW 4708   6.273   5.185   2.799
 1270SOL    HW1 4709   6.361   5.225   2.776
 1270SOL    HW2 4710   6.272   5.158   2.896
 1271SOL     OW 4711   2.022   1.275   1.018
 1271SOL    HW1 4712   1.985   1.194   1.063
 1271SOL    HW2 4713   2.091   1.317   1.076
 1272SOL     OW 4714   6.008   2.016   6.918
 1272SOL    HW1 4715   5.980   2.036   6.824
 1272SOL    HW2 4716   6.064   2.091   6.953
 1273SOL     OW 4717   1.510   4.408   5.551
 1273SOL    HW1 4718   1.499   4.425   5.453
 1273SOL    HW2 4719   1.596   4.450   5.582
 1274SOL     OW 4720   0.333   4.827   3.286
 1274SOL    HW1 4721   0.368   4.737   3.260
 1274SOL    HW2 4722   0.247   4.845   3.238
 1275SOL     OW 4723   2.024   1.350   2.728
 1275SOL    HW1 4724   2.007   1.279   2.661
 1275SOL    HW2 4725   2.056   1.433   2.682
 1276SOL     OW 4726   5.793   5.021   3.421
 1276SOL    HW1 4727   5.765   5.002   3.516
 1276SOL    HW2 4728   5.753   4.952   3.361
 1277SOL     OW 4729   0.270   6.171   0.015
 1277SOL    HW1 4730   0.298   6.123   0.098
 1277SOL    HW2 4731   0.234   6.262   0.039
 1278SOL     OW 4732   0.747   5.705   2.926
 1278SOL    HW1 4733   0.697   5.705   2.840
 1278SOL    HW2 4734   0.719   5.785   2.981
 1279SOL     OW 4735   2.706   2.822   1.626
 1279SOL    HW1 4736   2.629   2.881   1.653
 1279SOL    HW2 4737   2.790   2.856   1.668
 1280SOL     OW 4738   2.680   2.402   3.910
 1280SOL    HW1 4739   2.626   2.423   3.828
 1280SOL    HW2 4740   2.738   2.323   3.891
 1281SOL     OW 4741   6.055   6.506   4.665
 1281SOL    HW1 4742   6.098   6.426   4.625
 1281SOL    HW2 4743   6.040   6.491   4.763
 1282SOL     OW 4744   0.630   2.797   1.240
 1282SOL    HW1 4745   0.691   2.869   1.274
 1282SOL    HW2 4746   0.684   2.726   1.195
 1283SOL     OW 4747   6.643   1.948   4.542
 1283SOL    HW1 4748   6.632   1.994   4.631
 1283SOL    HW2 4749   6.555   1.943   4.496
 1284SOL     OW 4750   3.745   1.952   1.813
 1284SOL    HW1 4751   3.833   1.943   1.859
 1284SOL    HW2 4752   3.701   2.037   1.842
 1285SOL     OW 4753   4.485   1.073   4.181
 1285SOL    HW1 4754   4.449   1.060   4.089
 1285SOL    HW2 4755   4.582   1.098   4.175
 1286SOL     OW 4756   5.227   1.334   0.957
 1286SOL    HW1 4757   5.327   1.338   0.952
 1286SOL    HW2 4758   5.188   1.407   0.901
 1287SOL     OW 4759   6.313   4.777   4.962
 1287SOL    HW1 4760   6.356   4.792   4.873
 1287SOL    HW2 4761   6.251   4.699   4.957
 1288SOL     OW 4762   4.931   4.958   0.183
 1288SOL    HW1 4763   4.854   5.013   0.217
 1288SOL    HW2 4764   5.008   5.018   0.162
 1289SOL     OW 4765   6.596   0.081   0.852
 1289SOL    HW1 4766   6.547   7.019   0.822
 1289SOL    HW2 4767   6.695   0.066   0.843
 1290SOL     OW 4768   1.310   6.273   5.575
 1290SOL    HW1 4769   1.341   6.321   5.657
 1290SOL    HW2 4770   1.272   6.184   5.601
 1291SOL     OW 4771   6.196   5.297   4.214
 1291SOL    HW1 4772   6.246   5.235   4.276
 1291SOL    HW2 4773   6.261   5.344   4.155
 1292SOL     OW 4774   1.264   6.687   2.134
 1292SOL    HW1 4775   1.206   6.606   2.135
 1292SOL    HW2 4776   1.284   6.714   2.040
 1293SOL     OW 4777   4.761   1.094   0.388
 1293SOL    HW1 4778   4.703   1.167   0.352
 1293SOL    HW2 4779   4.784   1.030   0.315
 1294SOL     OW 4780   2.026   4.774   4.980
 1294SOL    HW1 4781   2.101   4.838   5.000
 1294SOL    HW2 4782   2.005   4.778   4.883
 1295SOL     OW 4783   6.647   4.234   0.644
 1295SOL    HW1 4784   6.675   4.140   0.665
 1295SOL    HW2 4785   6.597   4.235   0.557
 1296SOL     OW 4786   5.033   0.001   6.131
 1296SOL    HW1 4787   5.049   0.074   6.064
 1296SOL    HW2 4788   4.947   6.975   6.111
 1297SOL     OW 4789   0.023   0.205   1.538
 1297SOL    HW1 4790   6.945   0.207   1.558
 1297SOL    HW2 4791   0.073   0.259   1.605
 1298SOL     OW 4792   5.509   0.775   2.897
 1298SOL    HW1 4793   5.591   0.764   2.953
 1298SOL    HW2 4794   5.439   0.710   2.927
 1299SOL     OW 4795   1.034   3.226   4.244
 1299SOL    HW1 4796   1.038   3.225   4.344
 1299SOL    HW2 4797   1.126   3.231   4.207
 1300SOL     OW 4798   0.341   5.868   0.925
 1300SOL    HW1 4799   0.427   5.877   0.875
 1300SOL    HW2 4800   0.284   5.948   0.906
 1301SOL     OW 4801   6.913   0.618   7.011
 1301SOL    HW1 4802   6.950   0.586   0.078
 1301SOL    HW2 4803   6.833   0.676   0.007
 1302SOL     OW 4804   6.330   7.004   5.499
 1302SOL    HW1 4805   6.292   0.054   5.438
 1302SOL    HW2 4806   6.387   6.941   5.446
 1303SOL     OW 4807   3.153   5.971   1.663
 1303SOL    HW1 4808   3.163   6.045   1.598
 1303SOL    HW2 4809   3.241   5.955   1.709
 1304SOL     OW 4810   0.171   0.729   0.676
 1304SOL    HW1 4811   0.223   0.811   0.652
 1304SOL    HW2 4812   0.158   0.726   0.775
 1305SOL     OW 4813   4.151   4.393   6.146
 1305SOL    HW1 4814   4.173   4.483   6.109
 1305SOL    HW2 4815   4.108   4.337   6.074
 1306SOL     OW 4816   3.191   5.760   4.025
 1306SOL    HW1 4817   3.155   5.847   3.993
 1306SOL    HW2 4818   3.266   5.731   3.966
 1307SOL     OW 4819   2.299   2.710   3.996
 1307SOL    HW1 4820   2.359   2.681   3.921
 1307SOL    HW2 4821   2.248   2.791   3.968
 1308SOL     OW 4822   6.913   3.812   6.414
 1308SOL    HW1 4823   6.997   3.866   6.421
 1308SOL    HW2 4824   6.853   3.853   6.345
 1309SOL     OW 4825   6.259   4.218   6.873
 1309SOL    HW1 4826   6.172   4.170   6.867
 1309SOL    HW2 4827   6.304   4.217   6.784
 1310SOL     OW 4828   1.581   4.441   3.152
 1310SOL    HW1 4829   1.484   4.467   3.148
 1310SOL    HW2 4830   1.594   4.353   3.107
 1311SOL     OW 4831   5.502   5.175   0.177
 1311SOL    HW1 4832   5.475   5.097   0.120
 1311SOL    HW2 4833   5.596   5.202   0.153
 1312SOL     OW 4834   2.538   1.201   5.860
 1312SOL    HW1 4835   2.621   1.188   5.807
 1312SOL    HW2 4836   2.559   1.194   5.958
 1313SOL     OW 4837   6.416   5.407   1.800
 1313SOL    HW1 4838   6.381   5.445   1.714
 1313SOL    HW2 4839   6.501   5.453   1.824
 1314SOL     OW 4840   2.273   1.973   4.043
 1314SOL    HW1 4841   2.194   1.951   3.985
 1314SOL    HW2 4842   2.244   1.979   4.138
 1315SOL     OW 4843   6.423   1.174   2.625
 1315SOL    HW1 4844   6.412   1.263   2.669
 1315SOL    HW2 4845   6.469   1.111   2.687
 1316SOL     OW 4846   5.316   0.055   6.480
 1316SOL    HW1 4847   5.361   0.144   6.487
 1316SOL    HW2 4848   5.239   0.051   6.544
 1317SOL     OW 4849   3.268   2.881   5.513
 1317SOL    HW1 4850   3.195   2.905   5.577
 1317SOL    HW2 4851   3.344   2.842   5.563
 1318SOL     OW 4852   1.953   1.666   5.690
 1318SOL    HW1 4853   1.932   1.580   5.736
 1318SOL    HW2 4854   1.973   1.650   5.594
 1319SOL     OW 4855   6.902   0.361   0.358
 1319SOL    HW1 4856   6.922   0.332   0.451
 1319SOL    HW2 4857   6.827   0.305   0.321
 1320SOL     OW 4858   3.298   3.410   6.347
 1320SOL    HW1 4859   3.324   3.503   6.372
 1320SOL    HW2 4860   3.198   3.400   6.355
 1321SOL     OW 4861   0.059   2.634   0.501
 1321SOL    HW1 4862   0.047   2.556   0.563
 1321SOL    HW2 4863   7.011   2.704   0.522
 1322SOL     OW 4864   3.833   2.287   6.936
 1322SOL    HW1 4865   3.879   2.359   6.884
 1322SOL    HW2 4866   3.756   2.325   6.986
 1323SOL     OW 4867   3.938   6.446   1.452
 1323SOL    HW1 4868   4.020   6.500   1.463
 1323SOL    HW2 4869   3.891   6.438   1.540
 1324SOL     OW 4870   2.591   4.022   6.231
 1324SOL    HW1 4871   2.644   3.939   6.214
 1324SOL    HW2 4872   2.652   4.099   6.243
 1325SOL     OW 4873   3.486   5.645   5.431
 1325SOL    HW1 4874   3.400   5.689   5.403
 1325SOL    HW2 4875   3.495   5.650   5.530
 1326SOL     OW 4876   5.252   1.803   4.714
 1326SOL    HW1 4877   5.172   1.817   4.772
 1326SOL    HW2 4878   5.228   1.748   4.635
 1327SOL     OW 4879   4.883   5.481   2.667
 1327SOL    HW1 4880   4.974   5.483   2.709
 1327SOL    HW2 4881   4.868   5.566   2.616
 1328SOL     OW 4882   1.856   2.095   6.100
 1328SOL    HW1 4883   1.794   2.156   6.051
 1328SOL    HW2 4884   1.837   2.100   6.198
 1329SOL     OW 4885   0.628   2.481   3.841
 1329SOL    HW1 4886   0.715   2.523   3.868
 1329SOL    HW2 4887   0.648   2.399   3.786
 1330SOL     OW 4888   5.867   2.956   2.918
 1330SOL    HW1 4889   5.941   2.981   2.857
 1330SOL    HW2 4890   5.856   2.856   2.919
 1331SOL     OW 4891   4.753   2.329   3.430
 1331SOL    HW1 4892   4.702   2.294   3.352
 1331SOL    HW2 4893   4.692   2.334   3.510
 1332SOL     OW 4894   2.004   5.825   0.325
 1332SOL    HW1 4895   2.068   5.819   0.249
 1332SOL    HW2 4896   2.054   5.846   0.409
 1333SOL     OW 4897   3.468   4.163   3.067
 1333SOL    HW1 4898   3.405   4.089   3.087
 1333SOL    HW2 4899   3.508   4.198   3.152
 1334SOL     OW 4900   6.574   3.374   1.901
 1334SOL    HW1 4901   6.616   3.321   1.975
 1334SOL    HW2 4902   6.484   3.337   1.880
 1335SOL     OW 4903   0.760   3.270   3.280
 1335SOL    HW1 4904   0.717   3.278   3.370
 1335SOL    HW2 4905   0.697   3.304   3.211
 1336SOL     OW 4906   1.834   0.444   5.233
 1336SOL    HW1 4907   1.864   0.481   5.321
 1336SOL    HW2 4908   1.850   0.346   5.231
 1337SOL     OW 4909   6.922   6.798   2.673
 1337SOL    HW1 4910   6.860   6.856   2.621
 1337SOL    HW2 4911   6.973   6.853   2.739
 1338SOL     OW 4912   6.481   3.880   5.145
 1338SOL    HW1 4913   6.570   3.925   5.141
 1338SOL    HW2 4914   6.453   3.869   5.240
 1339SOL     OW 4915   6.086   0.436   0.024
 1339SOL    HW1 4916   6.051   0.343   0.015
 1339SOL    HW2 4917   6.181   0.433   0.057
 1340SOL     OW 4918   3.650   2.811   1.316
 1340SOL    HW1 4919   3.662   2.780   1.410
 1340SOL    HW2 4920   3.698   2.749   1.254
 1341SOL     OW 4921   4.852   6.136   6.820
 1341SOL    HW1 4922   4.916   6.166   6.749
 1341SOL    HW2 4923   4.804   6.216   6.857
 1342SOL     OW 4924   1.885   6.149   1.411
 1342SOL    HW1 4925   1.923   6.076   1.468
 1342SOL    HW2 4926   1.786   6.147   1.416
 1343SOL     OW 4927   5.404   5.521   2.893
 1343SOL    HW1 4928   5.477   5.578   2.930
 1343SOL    HW2 4929   5.441   5.431   2.871
 1344SOL     OW 4930   0.829   0.596   4.545
 1344SOL    HW1 4931   0.856   0.527   4.479
 1344SOL    HW2 4932   0.909   0.651   4.570
 1345SOL     OW 4933   1.005   6.450   0.035
 1345SOL    HW1 4934   0.933   6.406   7.000
 1345SOL    HW2 4935   0.963   6.509   0.104
 1346SOL     OW 4936   3.143   5.207   4.453
 1346SOL    HW1 4937   3.224   5.241   4.500
 1346SOL    HW2 4938   3.128   5.111   4.476
 1347SOL     OW 4939   1.494   0.431   6.554
 1347SOL    HW1 4940   1.484   0.416   6.652
 1347SOL    HW2 4941   1.406   0.417   6.509
 1348SOL     OW 4942   0.984   6.125   4.994
 1348SOL    HW1 4943   0.900   6.070   4.986
 1348SOL    HW2 4944   0.969   6.199   5.058
 1349SOL     OW 4945   5.183   3.416   4.220
 1349SOL    HW1 4946   5.176   3.390   4.316
 1349SOL    HW2 4947   5.093   3.441   4.186
 1350SOL     OW 4948   4.565   4.743   6.934
 1350SOL    HW1 4949   4.487   4.681   6.943
 1350SOL    HW2 4950   4.608   4.755   0.004
 1351SOL     OW 4951   0.417   3.003   5.982
 1351SOL    HW1 4952   0.413   2.923   5.921
 1351SOL    HW2 4953   0.344   2.997   6.049
 1352SOL     OW 4954   0.056   0.742   3.076
 1352SOL    HW1 4955   0.150   0.771   3.094
 1352SOL    HW2 4956   0.009   0.727   3.163
 1353SOL     OW 4957   6.966   1.003   0.481
 1353SOL    HW1 4958   0.045   0.993   0.472
 1353SOL    HW2 4959   6.945   1.062   0.559
 1354SOL     OW 4960   4.702   5.062   2.368
 1354SOL    HW1 4961   4.613   5.017   2.368
 1354SOL    HW2 4962   4.694   5.153   2.407
 1355SOL     OW 4963   4.876   3.218   5.510
 1355SOL    HW1 4964   4.898   3.313   5.532
 1355SOL    HW2 4965   4.959   3.162   5.519
 1356SOL     OW 4966   2.726   3.453   0.103
 1356SOL    HW1 4967   2.821   3.427   0.125
 1356SOL    HW2 4968   2.675   3.465   0.187
 1357SOL     OW 4969   1.420   2.697   5.507
 1357SOL    HW1 4970   1.351   2.706   5.579
 1357SOL    HW2 4971   1.485   2.772   5.513
 1358SOL     OW 4972   2.037   6.991   0.241
 1358SOL    HW1 4973   1.962   6.943   0.285
 1358SOL    HW2 4974   2.042   0.065   0.275
 1359SOL     OW 4975   6.375   4.189   1.147
 1359SOL    HW1 4976   6.329   4.100   1.152
 1359SOL    HW2 4977   6.468   4.176   1.112
 1360SOL     OW 4978   2.086   2.846   0.159
 1360SOL    HW1 4979   1.987   2.851   0.165
 1360SOL    HW2 4980   2.120   2.772   0.217
 1361SOL     OW 4981   6.781   4.106   4.730
 1361SOL    HW1 4982   6.811   4.194   4.694
 1361SOL    HW2 4983   6.792   4.105   4.829
 1362SOL     OW 4984   3.099   3.589   2.966
 1362SOL    HW1 4985   3.033   3.663   2.959
 1362SOL    HW2 4986   3.192   3.626   2.970
 1363SOL     OW 4987   1.034   6.230   4.270
 1363SOL    HW1 4988   1.102   6.302   4.263
 1363SOL    HW2 4989   1.073   6.152   4.320
 1364SOL     OW 4990   4.800   4.171   0.633
 1364SOL    HW1 4991   4.753   4.110   0.697
 1364SOL    HW2 4992   4.879   4.212   0.677
 1365SOL     OW 4993   6.632   2.976   6.319
 1365SOL    HW1 4994   6.579   3.051   6.358
 1365SOL    HW2 4995   6.655   2.910   6.391
 1366SOL     OW 4996   2.483   7.018   5.689
 1366SOL    HW1 4997   2.456   0.091   5.666
 1366SOL    HW2 4998   2.535   6.978   5.613
 1367SOL     OW 4999   2.706   1.380   1.998
 1367SOL    HW1 5000   2.773   1.353   2.067
 1367SOL    HW2 5001   2.680   1.300   1.944
 1368SOL     OW 5002   5.827   6.602   3.263
 1368SOL    HW1 5003   5.878   6.677   3.305
 1368SOL    HW2 5004   5.743   6.585   3.316
 1369SOL     OW 5005   1.136   0.612   2.637
 1369SOL    HW1 5006   1.197   0.667   2.694
 1369SOL    HW2 5007   1.114   0.526   2.683
 1370SOL     OW 5008   2.415   1.085   1.814
 1370SOL    HW1 5009   2.357   1.012   1.851
 1370SOL    HW2 5010   2.366   1.171   1.816
 1371SOL     OW 5011   3.622   0.271   6.376
 1371SOL    HW1 5012   3.533   0.297   6.413
 1371SOL    HW2 5013   3.652   0.185   6.416
 1372SOL     OW 5014   2.776   2.073   1.943
 1372SOL    HW1 5015   2.855   2.013   1.953
 1372SOL    HW2 5016   2.807   2.168   1.939
 1373SOL     OW 5017   1.484   5.852   6.782
 1373SOL    HW1 5018   1.536   5.768   6.765
 1373SOL    HW2 5019   1.519   5.897   6.864
 1374SOL     OW 5020   5.175   4.338   0.155
 1374SOL    HW1 5021   5.160   4.279   0.234
 1374SOL    HW2 5022   5.265   4.382   0.163
 1375SOL     OW 5023   0.751   4.617   5.407
 1375SOL    HW1 5024   0.656   4.618   5.375
 1375SOL    HW2 5025   0.759   4.670   5.491
 1376SOL     OW 5026   4.906   1.006   2.367
 1376SOL    HW1 5027   4.888   0.920   2.415
 1376SOL    HW2 5028   5.004   1.024   2.368
 1377SOL     OW 5029   0.991   4.540   4.212
 1377SOL    HW1 5030   0.914   4.602   4.195
 1377SOL    HW2 5031   0.971   4.484   4.293
 1378SOL     OW 5032   1.716   2.971   6.683
 1378SOL    HW1 5033   1.744   2.932   6.771
 1378SOL    HW2 5034   1.733   3.070   6.683
 1379SOL     OW 5035   4.315   6.074   1.046
 1379SOL    HW1 5036   4.271   6.007   1.105
 1379SOL    HW2 5037   4.281   6.166   1.069
 1380SOL     OW 5038   5.747   4.998   2.886
 1380SOL    HW1 5039   5.796   4.990   2.798
 1380SOL    HW2 5040   5.670   4.934   2.887
 1381SOL     OW 5041   5.739   6.805   2.006
 1381SOL    HW1 5042   5.678   6.868   2.056
 1381SOL    HW2 5043   5.773   6.850   1.924
 1382SOL     OW 5044   0.146   4.319   6.440
 1382SOL    HW1 5045   0.238   4.295   6.473
 1382SOL    HW2 5046   0.120   4.257   6.366
 1383SOL     OW 5047   2.403   0.510   0.209
 1383SOL    HW1 5048   2.359   0.422   0.227
 1383SOL    HW2 5049   2.392   0.534   0.112
 1384SOL     OW 5050   2.162   2.094   2.429
 1384SOL    HW1 5051   2.220   2.129   2.502
 1384SOL    HW2 5052   2.201   2.122   2.340
 1385SOL     OW 5053   5.277   3.172   3.940
 1385SOL    HW1 5054   5.239   3.238   3.874
 1385SOL    HW2 5055   5.333   3.221   4.007
 1386SOL     OW 5056   2.138   2.947   3.932
 1386SOL    HW1 5057   2.108   3.023   3.989
 1386SOL    HW2 5058   2.147   2.978   3.837
 1387SOL     OW 5059   2.972   0.180   4.453
 1387SOL    HW1 5060   2.888   0.210   4.408
 1387SOL    HW2 5061   3.014   0.256   4.501
 1388SOL     OW 5062   5.781   1.570   4.157
 1388SOL    HW1 5063   5.863   1.549   4.210
 1388SOL    HW2 5064   5.731   1.485   4.138
 1389SOL     OW 5065   6.903   0.563   3.849
 1389SOL    HW1 5066   6.882   0.660   3.839
 1389SOL    HW2 5067   6.879   0.533   3.941
 1390SOL     OW 5068   4.505   2.471   2.442
 1390SOL    HW1 5069   4.599   2.456   2.411
 1390SOL    HW2 5070   4.506   2.520   2.529
 1391SOL     OW 5071   5.668   1.345   4.674
 1391SOL    HW1 5072   5.682   1.261   4.726
 1391SOL    HW2 5073   5.570   1.368   4.673
 1392SOL     OW 5074   4.485   6.477   5.689
 1392SOL    HW1 5075   4.529   6.541   5.753
 1392SOL    HW2 5076   4.548   6.458   5.613
 1393SOL     OW 5077   4.549   0.181   0.117
 1393SOL    HW1 5078   4.528   0.279   0.110
 1393SOL    HW2 5079   4.464   0.130   0.131
 1394SOL     OW 5080   4.545   6.799   4.128
 1394SOL    HW1 5081   4.516   6.894   4.136
 1394SOL    HW2 5082   4.617   6.791   4.059
 1395SOL     OW 5083   0.358   5.197   2.348
 1395SOL    HW1 5084   0.265   5.163   2.358
 1395SOL    HW2 5085   0.356   5.289   2.308
 1396SOL     OW 5086   1.194   2.076   3.512
 1396SOL    HW1 5087   1.099   2.050   3.525
 1396SOL    HW2 5088   1.212   2.162   3.561
 1397SOL     OW 5089   1.563   5.011   5.116
 1397SOL    HW1 5090   1.582   4.913   5.118
 1397SOL    HW2 5091   1.478   5.028   5.065
 1398SOL     OW 5092   2.084   6.871   6.436
 1398SOL    HW1 5093   2.002   6.821   6.407
 1398SOL    HW2 5094   2.130   6.819   6.508
 1399SOL     OW 5095   3.614   0.444   0.028
 1399SOL    HW1 5096   3.679   0.520   0.023
 1399SOL    HW2 5097   3.663   0.357   0.021
 1400SOL     OW 5098   0.274   0.462   5.575
 1400SOL    HW1 5099   0.300   0.374   5.615
 1400SOL    HW2 5100   0.314   0.470   5.484
 1401SOL     OW 5101   5.716   0.220   1.988
 1401SOL    HW1 5102   5.645   0.289   2.006
 1401SOL    HW2 5103   5.744   0.225   1.892
 1402SOL     OW 5104   6.264   4.572   2.117
 1402SOL    HW1 5105   6.300   4.641   2.055
 1402SOL    HW2 5106   6.170   4.549   2.091
 1403SOL     OW 5107   2.796   3.845   6.215
 1403SOL    HW1 5108   2.848   3.853   6.130
 1403SOL    HW2 5109   2.853   3.871   6.293
 1404SOL     OW 5110   3.713   6.797   0.562
 1404SOL    HW1 5111   3.658   6.779   0.643
 1404SOL    HW2 5112   3.803   6.754   0.571
 1405SOL     OW 5113   1.045   3.524   0.502
 1405SOL    HW1 5114   0.983   3.452   0.531
 1405SOL    HW2 5115   1.105   3.488   0.430
 1406SOL     OW 5116   2.379   2.736   6.812
 1406SOL    HW1 5117   2.384   2.766   6.717
 1406SOL    HW2 5118   2.404   2.812   6.872
 1407SOL     OW 5119   0.472   2.348   1.058
 1407SOL    HW1 5120   0.506   2.439   1.036
 1407SOL    HW2 5121   0.379   2.337   1.022
 1408SOL     OW 5122   5.299   6.339   0.433
 1408SOL    HW1 5123   5.278   6.243   0.415
 1408SOL    HW2 5124   5.381   6.345   0.489
 1409SOL     OW 5125   6.278   1.663   5.730
 1409SOL    HW1 5126   6.291   1.762   5.732
 1409SOL    HW2 5127   6.367   1.618   5.740
 1410SOL     OW 5128   3.010   0.776   0.289
 1410SOL    HW1 5129   3.050   0.703   0.234
 1410SOL    HW2 5130   2.911   0.782   0.270
 1411SOL     OW 5131   3.698   5.257   6.735
 1411SOL    HW1 5132   3.784   5.208   6.750
 1411SOL    HW2 5133   3.717   5.347   6.695
 1412SOL     OW 5134   2.283   2.329   6.513
 1412SOL    HW1 5135   2.322   2.417   6.486
 1412SOL    HW2 5136   2.206   2.307   6.453
 1413SOL     OW 5137   2.423   1.605   5.578
 1413SOL    HW1 5138   2.369   1.524   5.556
 1413SOL    HW2 5139   2.393   1.643   5.665
 1414SOL     OW 5140   0.648   4.816   1.947
 1414SOL    HW1 5141   0.632   4.904   1.992
 1414SOL    HW2 5142   0.631   4.826   1.849
 1415SOL     OW 5143   3.900   1.732   5.009
 1415SOL    HW1 5144   3.812   1.690   4.989
 1415SOL    HW2 5145   3.940   1.768   4.924
 1416SOL     OW 5146   4.729   0.334   5.084
 1416SOL    HW1 5147   4.706   0.251   5.035
 1416SOL    HW2 5148   4.699   0.414   5.031
 1417SOL     OW 5149   3.327   3.361   4.492
 1417SOL    HW1 5150   3.414   3.384   4.449
 1417SOL    HW2 5151   3.343   3.313   4.578
 1418SOL     OW 5152   2.835   3.671   5.077
 1418SOL    HW1 5153   2.869   3.765   5.084
 1418SOL    HW2 5154   2.737   3.672   5.059
 1419SOL     OW 5155   1.143   6.063   2.098
 1419SOL    HW1 5156   1.165   6.030   2.007
 1419SOL    HW2 5157   1.190   6.150   2.114
 1420SOL     OW 5158   3.103   6.045   3.151
 1420SOL    HW1 5159   3.195   6.025   3.118
 1420SOL    HW2 5160   3.042   6.058   3.072
 1421SOL     OW 5161   1.752   5.732   0.280
 1421SOL    HW1 5162   1.850   5.751   0.289
 1421SOL    HW2 5163   1.710   5.801   0.220
 1422SOL     OW 5164   1.555   3.806   6.973
 1422SOL    HW1 5165   1.638   3.788   0.007
 1422SOL    HW2 5166   1.509   3.887   7.010
 1423SOL     OW 5167   4.364   1.191   4.731
 1423SOL    HW1 5168   4.363   1.287   4.761
 1423SOL    HW2 5169   4.317   1.183   4.643
 1424SOL     OW 5170   6.092   2.353   1.382
 1424SOL    HW1 5171   6.032   2.382   1.308
 1424SOL    HW2 5172   6.115   2.256   1.371
 1425SOL     OW 5173   5.651   7.018   3.306
 1425SOL    HW1 5174   5.580   0.068   3.307
 1425SOL    HW2 5175   5.611   6.930   3.332
 1426SOL     OW 5176   3.907   1.173   0.677
 1426SOL    HW1 5177   3.952   1.172   0.588
 1426SOL    HW2 5178   3.924   1.261   0.722
 1427SOL     OW 5179   1.038   0.620   4.220
 1427SOL    HW1 5180   0.987   0.543   4.259
 1427SOL    HW2 5181   1.066   0.598   4.127
 1428SOL     OW 5182   2.096   3.802   3.846
 1428SOL    HW1 5183   2.099   3.738   3.769
 1428SOL    HW2 5184   2.141   3.888   3.821
 1429SOL     OW 5185   5.964   0.169   2.149
 1429SOL    HW1 5186   5.945   0.163   2.247
 1429SOL    HW2 5187   5.879   0.181   2.099
 1430SOL     OW 5188   2.250   4.161   4.462
 1430SOL    HW1 5189   2.272   4.064   4.472
 1430SOL    HW2 5190   2.151   4.174   4.466
 1431SOL     OW 5191   3.351   1.732   0.495
 1431SOL    HW1 5192   3.285   1.713   0.423
 1431SOL    HW2 5193   3.376   1.647   0.541
 1432SOL     OW 5194   4.593   0.352   3.234
 1432SOL    HW1 5195   4.582   0.335   3.136
 1432SOL    HW2 5196   4.577   0.267   3.284
 1433SOL     OW 5197   3.159   1.730   3.955
 1433SOL    HW1 5198   3.144   1.751   4.051
 1433SOL    HW2 5199   3.243   1.773   3.923
 1434SOL     OW 5200   5.339   3.796   0.862
 1434SOL    HW1 5201   5.349   3.862   0.937
 1434SOL    HW2 5202   5.399   3.717   0.879
 1435SOL     OW 5203   0.620   6.459   4.163
 1435SOL    HW1 5204   0.652   6.366   4.145
 1435SOL    HW2 5205   0.638   6.516   4.082
 1436SOL     OW 5206   5.334   0.498   0.339
 1436SOL    HW1 5207   5.372   0.571   0.396
 1436SOL    HW2 5208   5.341   0.411   0.388
 1437SOL     OW 5209   4.462   1.263   0.591
 1437SOL    HW1 5210   4.489   1.358   0.602
 1437SOL    HW2 5211   4.429   1.248   0.498
 1438SOL     OW 5212   2.174   0.040   2.709
 1438SOL    HW1 5213   2.223   6.979   2.743
 1438SOL    HW2 5214   2.119   0.014   2.630
 1439SOL     OW 5215   0.794   5.289   5.863
 1439SOL    HW1 5216   0.807   5.388   5.858
 1439SOL    HW2 5217   0.743   5.267   5.947
 1440SOL     OW 5218   4.038   3.126   2.220
 1440SOL    HW1 5219   4.041   3.052   2.287
 1440SOL    HW2 5220   4.057   3.089   2.129
 1441SOL     OW 5221   6.319   2.002   5.862
 1441SOL    HW1 5222   6.417   1.984   5.876
 1441SOL    HW2 5223   6.302   2.019   5.765
 1442SOL     OW 5224   5.228   6.086   0.388
 1442SOL    HW1 5225   5.165   6.014   0.417
 1442SOL    HW2 5226   5.237   6.084   0.288
 1443SOL     OW 5227   1.211   2.283   3.712
 1443SOL    HW1 5228   1.192   2.240   3.800
 1443SOL    HW2 5229   1.298   2.332   3.717
 1444SOL     OW 5230   5.185   6.303   4.867
 1444SOL    HW1 5231   5.090   6.320   4.841
 1444SOL    HW2 5232   5.195   6.209   4.900
 1445SOL     OW 5233   6.534   2.123   6.957
 1445SOL    HW1 5234   6.505   2.108   6.862
 1445SOL    HW2 5235   6.493   2.053   7.015
 1446SOL     OW 5236   3.822   5.465   1.293
 1446SOL    HW1 5237   3.839   5.561   1.271
 1446SOL    HW2 5238   3.739   5.458   1.347
 1447SOL     OW 5239   6.605   1.156   4.889
 1447SOL    HW1 5240   6.657   1.191   4.967
 1447SOL    HW2 5241   6.608   1.056   4.889
 1448SOL     OW 5242   5.474   0.674   6.796
 1448SOL    HW1 5243   5.496   0.667   6.893
 1448SOL    HW2 5244   5.443   0.766   6.775
 1449SOL     OW 5245   4.252   5.465   0.284
 1449SOL    HW1 5246   4.162   5.460   0.326
 1449SOL    HW2 5247   4.320   5.426   0.347
 1450SOL     OW 5248   6.111   1.675   3.976
 1450SOL    HW1 5249   6.211   1.672   3.980
 1450SOL    HW2 5250   6.077   1.739   4.045
 1451SOL     OW 5251   1.320   6.765   1.887
 1451SOL    HW1 5252   1.411   6.753   1.846
 1451SOL    HW2 5253   1.266   6.828   1.831
 1452SOL     OW 5254   3.419   0.375   5.522
 1452SOL    HW1 5255   3.420   0.469   5.553
 1452SOL    HW2 5256   3.330   0.353   5.481
 1453SOL     OW 5257   5.119   4.438   4.270
 1453SOL    HW1 5258   5.101   4.340   4.277
 1453SOL    HW2 5259   5.202   4.453   4.217
 1454SOL     OW 5260   5.306   3.939   1.131
 1454SOL    HW1 5261   5.292   4.035   1.107
 1454SOL    HW2 5262   5.403   3.917   1.125
 1455SOL     OW 5263   1.819   2.008   1.742
 1455SOL    HW1 5264   1.827   2.108   1.741
 1455SOL    HW2 5265   1.910   1.968   1.729
 1456SOL     OW 5266   6.073   5.387   5.218
 1456SOL    HW1 5267   6.051   5.466   5.161
 1456SOL    HW2 5268   6.000   5.319   5.211
 1457SOL     OW 5269   1.796   0.729   3.938
 1457SOL    HW1 5270   1.818   0.632   3.948
 1457SOL    HW2 5271   1.879   0.783   3.955
 1458SOL     OW 5272   0.406   5.523   6.877
 1458SOL    HW1 5273   0.438   5.533   6.782
 1458SOL    HW2 5274   0.353   5.603   6.903
 1459SOL     OW 5275   2.830   0.166   1.394
 1459SOL    HW1 5276   2.736   0.145   1.366
 1459SOL    HW2 5277   2.882   0.199   1.316
 1460SOL     OW 5278   0.447   6.984   6.821
 1460SOL    HW1 5279   0.384   6.999   6.897
 1460SOL    HW2 5280   0.541   6.988   6.853
 1461SOL     OW 5281   4.742   5.290   2.492
 1461SOL    HW1 5282   4.690   5.356   2.438
 1461SOL    HW2 5283   4.793   5.337   2.564
 1462SOL     OW 5284   5.458   0.345   5.114
 1462SOL    HW1 5285   5.527   0.409   5.150
 1462SOL    HW2 5286   5.504   0.267   5.071
 1463SOL     OW 5287   0.678   2.417   6.124
 1463SOL    HW1 5288   0.641   2.501   6.082
 1463SOL    HW2 5289   0.775   2.430   6.145
 1464SOL     OW 5290   0.690   0.795   1.389
 1464SOL    HW1 5291   0.746   0.740   1.451
 1464SOL    HW2 5292   0.713   0.891   1.399
 1465SOL     OW 5293   0.959   0.652   3.777
 1465SOL    HW1 5294   0.867   0.670   3.743
 1465SOL    HW2 5295   0.989   0.730   3.833
 1466SOL     OW 5296   6.009   5.429   4.899
 1466SOL    HW1 5297   6.096   5.414   4.852
 1466SOL    HW2 5298   5.947   5.353   4.877
 1467SOL     OW 5299   6.014   4.119   3.992
 1467SOL    HW1 5300   5.964   4.066   4.061
 1467SOL    HW2 5301   6.071   4.057   3.937
 1468SOL     OW 5302   4.561   0.291   2.520
 1468SOL    HW1 5303   4.603   0.271   2.431
 1468SOL    HW2 5304   4.475   0.242   2.528
 1469SOL     OW 5305   0.780   0.679   2.163
 1469SOL    HW1 5306   0.847   0.752   2.150
 1469SOL    HW2 5307   0.695   0.702   2.115
 1470SOL     OW 5308   6.960   6.948   3.046
 1470SOL    HW1 5309   6.891   6.876   3.043
 1470SOL    HW2 5310   6.967   6.991   2.955
 1471SOL     OW 5311   5.848   0.713   1.356
 1471SOL    HW1 5312   5.794   0.639   1.397
 1471SOL    HW2 5313   5.917   0.744   1.422
 1472SOL     OW 5314   4.661   5.158   4.800
 1472SOL    HW1 5315   4.755   5.130   4.818
 1472SOL    HW2 5316   4.599   5.105   4.858
 1473SOL     OW 5317   6.195   3.479   3.465
 1473SOL    HW1 5318   6.290   3.494   3.441
 1473SOL    HW2 5319   6.187   3.462   3.563
 1474SOL     OW 5320   4.406   5.492   3.123
 1474SOL    HW1 5321   4.446   5.547   3.049
 1474SOL    HW2 5322   4.477   5.437   3.166
 1475SOL     OW 5323   6.200   6.777   3.376
 1475SOL    HW1 5324   6.254   6.767   3.293
 1475SOL    HW2 5325   6.246   6.839   3.439
 1476SOL     OW 5326   0.270   2.447   0.886
 1476SOL    HW1 5327   0.194   2.497   0.927
 1476SOL    HW2 5328   0.311   2.501   0.813
 1477SOL     OW 5329   2.678   6.257   3.963
 1477SOL    HW1 5330   2.691   6.355   3.979
 1477SOL    HW2 5331   2.706   6.234   3.870
 1478SOL     OW 5332   6.522   3.328   1.514
 1478SOL    HW1 5333   6.585   3.392   1.559
 1478SOL    HW2 5334   6.510   3.247   1.572
 1479SOL     OW 5335   1.163   5.492   0.690
 1479SOL    HW1 5336   1.156   5.433   0.610
 1479SOL    HW2 5337   1.193   5.438   0.769
 1480SOL     OW 5338   2.251   1.171   6.922
 1480SOL    HW1 5339   2.204   1.119   6.851
 1480SOL    HW2 5340   2.259   1.267   6.894
 1481SOL     OW 5341   0.866   3.639   6.905
 1481SOL    HW1 5342   0.774   3.603   6.919
 1481SOL    HW2 5343   0.885   3.644   6.807
 1482SOL     OW 5344   5.601   0.460   6.257
 1482SOL    HW1 5345   5.554   0.535   6.304
 1482SOL    HW2 5346   5.533   0.394   6.224
 1483SOL     OW 5347   6.339   1.865   6.522
 1483SOL    HW1 5348   6.345   1.839   6.426
 1483SOL    HW2 5349   6.310   1.787   6.576
 1484SOL     OW 5350   6.291   6.413   2.709
 1484SOL    HW1 5351   6.245   6.334   2.669
 1484SOL    HW2 5352   6.390   6.401   2.702
 1485SOL     OW 5353   5.580   3.039   4.015
 1485SOL    HW1 5354   5.522   2.994   3.947
 1485SOL    HW2 5355   5.532   3.040   4.103
 1486SOL     OW 5356   5.209   2.343   1.905
 1486SOL    HW1 5357   5.255   2.260   1.935
 1486SOL    HW2 5358   5.111   2.337   1.925
 1487SOL     OW 5359   6.806   0.147   5.538
 1487SOL    HW1 5360   6.829   0.051   5.549
 1487SOL    HW2 5361   6.795   0.190   5.628
 1488SOL     OW 5362   5.165   1.979   4.056
 1488SOL    HW1 5363   5.079   2.029   4.065
 1488SOL    HW2 5364   5.208   1.971   4.146
 1489SOL     OW 5365   3.869   5.357   4.602
 1489SOL    HW1 5366   3.802   5.373   4.675
 1489SOL    HW2 5367   3.961   5.359   4.641
 1490SOL     OW 5368   2.447   2.172   1.225
 1490SOL    HW1 5369   2.547   2.172   1.220
 1490SOL    HW2 5370   2.418   2.208   1.314
 1491SOL     OW 5371   0.271   2.376   5.168
 1491SOL    HW1 5372   0.194   2.318   5.196
 1491SOL    HW2 5373   0.265   2.394   5.069
 1492SOL     OW 5374   6.823   2.286   1.089
 1492SOL    HW1 5375   6.922   2.279   1.097
 1492SOL    HW2 5376   6.784   2.196   1.073
 1493SOL     OW 5377   6.212   2.665   5.432
 1493SOL    HW1 5378   6.177   2.677   5.525
 1493SOL    HW2 5379   6.166   2.729   5.371
 1494SOL     OW 5380   5.556   1.755   4.437
 1494SOL    HW1 5381   5.540   1.657   4.429
 1494SOL    HW2 5382   5.566   1.780   4.533
 1495SOL     OW 5383   1.186   3.635   2.279
 1495SOL    HW1 5384   1.165   3.605   2.186
 1495SOL    HW2 5385   1.192   3.556   2.340
 1496SOL     OW 5386   1.037   0.469   2.416
 1496SOL    HW1 5387   0.966   0.469   2.346
 1496SOL    HW2 5388   1.013   0.532   2.489
 1497SOL     OW 5389   5.269   5.461   5.744
 1497SOL    HW1 5390   5.347   5.435   5.688
 1497SOL    HW2 5391   5.242   5.555   5.723
 1498SOL     OW 5392   2.440   5.579   0.484
 1498SOL    HW1 5393   2.467   5.640   0.409
 1498SOL    HW2 5394   2.457   5.624   0.572
 1499SOL     OW 5395   0.903   4.156   4.582
 1499SOL    HW1 5396   0.989   4.125   4.622
 1499SOL    HW2 5397   0.832   4.088   4.597
 1500SOL     OW 5398   4.123   6.777   5.412
 1500SOL    HW1 5399   4.199   6.813   5.356
 1500SOL    HW2 5400   4.140   6.797   5.508
 1501SOL     OW 5401   3.707   0.802   0.496
 1501SOL    HW1 5402   3.704   0.900   0.475
 1501SOL    HW2 5403   3.667   0.786   0.586
 1502SOL     OW 5404   0.278   5.973   6.302
 1502SOL    HW1 5405   0.240   5.954   6.392
 1502SOL    HW2 5406   0.220   6.038   6.254
 1503SOL     OW 5407   3.554   4.352   5.677
 1503SOL    HW1 5408   3.473   4.411   5.679
 1503SOL    HW2 5409   3.530   4.261   5.713
 1504SOL     OW 5410   2.749   6.573   3.995
 1504SOL    HW1 5411   2.722   6.566   4.090
 1504SOL    HW2 5412   2.674   6.611   3.941
 1505SOL     OW 5413   5.033   0.124   2.516
 1505SOL    HW1 5414   4.983   0.168   2.590
 1505SOL    HW2 5415   5.121   0.091   2.549
 1506SOL     OW 5416   0.817   6.505   3.281
 1506SOL    HW1 5417   0.772   6.536   3.364
 1506SOL    HW2 5418   0.853   6.583   3.230
 1507SOL     OW 5419   2.539   2.557   6.967
 1507SOL    HW1 5420   2.599   2.493   6.920
 1507SOL    HW2 5421   2.488   2.612   6.901
 1508SOL     OW 5422   4.569   6.786   1.349
 1508SOL    HW1 5423   4.511   6.821   1.275
 1508SOL    HW2 5424   4.577   6.687   1.340
 1509SOL     OW 5425   5.739   1.934   6.414
 1509SOL    HW1 5426   5.831   1.900   6.434
 1509SOL    HW2 5427   5.735   2.033   6.432
 1510SOL     OW 5428   6.801   1.643   2.917
 1510SOL    HW1 5429   6.737   1.681   2.850
 1510SOL    HW2 5430   6.889   1.691   2.909
 1511SOL     OW 5431   1.208   2.964   0.315
 1511SOL    HW1 5432   1.255   2.978   0.402
 1511SOL    HW2 5433   1.184   3.052   0.275
 1512SOL     OW 5434   6.920   1.352   1.713
 1512SOL    HW1 5435   6.822   1.349   1.733
 1512SOL    HW2 5436   6.968   1.288   1.772
 1513SOL     OW 5437   3.103   0.464   2.864
 1513SOL    HW1 5438   3.079   0.391   2.801
 1513SOL    HW2 5439   3.201   0.460   2.884
 1514SOL     OW 5440   4.756   0.287   6.180
 1514SOL    HW1 5441   4.760   0.265   6.277
 1514SOL    HW2 5442   4.673   0.340   6.161
 1515SOL     OW 5443   5.399   5.156   5.428
 1515SOL    HW1 5444   5.310   5.144   5.471
 1515SOL    HW2 5445   5.471   5.136   5.494
 1516SOL     OW 5446   0.223   1.480   0.841
 1516SOL    HW1 5447   0.259   1.539   0.769
 1516SOL    HW2 5448   0.260   1.508   0.929
 1517SOL     OW 5449   3.155   5.641   3.282
 1517SOL    HW1 5450   3.115   5.681   3.200
 1517SOL    HW2 5451   3.150   5.706   3.357
 1518SOL     OW 5452   0.389   4.884   0.748
 1518SOL    HW1 5453   0.457   4.954   0.725
 1518SOL    HW2 5454   0.304   4.929   0.775
 1519SOL     OW 5455   0.504   4.037   0.844
 1519SOL    HW1 5456   0.558   4.111   0.884
 1519SOL    HW2 5457   0.439   4.075   0.779
 1520SOL     OW 5458   1.544   2.640   2.967
 1520SOL    HW1 5459   1.493   2.724   2.952
 1520SOL    HW2 5460   1.640   2.655   2.944
 1521SOL     OW 5461   2.642   4.555   5.239
 1521SOL    HW1 5462   2.612   4.615   5.165
 1521SOL    HW2 5463   2.737   4.528   5.224
 1522SOL     OW 5464   1.456   2.077   6.214
 1522SOL    HW1 5465   1.538   2.030   6.247
 1522SOL    HW2 5466   1.379   2.053   6.272
 1523SOL     OW 5467   5.502   1.691   1.200
 1523SOL    HW1 5468   5.416   1.742   1.202
 1523SOL    HW2 5469   5.504   1.625   1.275
 1524SOL     OW 5470   0.078   1.284   1.499
 1524SOL    HW1 5471   0.007   1.311   1.563
 1524SOL    HW2 5472   0.087   1.185   1.499
 1525SOL     OW 5473   4.841   1.400   5.909
 1525SOL    HW1 5474   4.774   1.444   5.970
 1525SOL    HW2 5475   4.896   1.335   5.962
 1526SOL     OW 5476   6.168   1.184   0.065
 1526SOL    HW1 5477   6.194   1.202   0.160
 1526SOL    HW2 5478   6.173   1.269   0.012
 1527SOL     OW 5479   3.096   1.882   6.301
 1527SOL    HW1 5480   3.061   1.929   6.219
 1527SOL    HW2 5481   3.117   1.787   6.278
 1528SOL     OW 5482   5.399   5.428   4.025
 1528SOL    HW1 5483   5.414   5.519   3.987
 1528SOL    HW2 5484   5.480   5.400   4.076
 1529SOL     OW 5485   2.011   0.193   5.734
 1529SOL    HW1 5486   2.051   0.103   5.751
 1529SOL    HW2 5487   1.952   0.188   5.653
 1530SOL     OW 5488   2.910   6.536   1.500
 1530SOL    HW1 5489   2.919   6.441   1.469
 1530SOL    HW2 5490   2.926   6.540   1.599
 1531SOL     OW 5491   5.863   0.587   6.288
 1531SOL    HW1 5492   5.866   0.670   6.232
 1531SOL    HW2 5493   5.775   0.542   6.277
 1532SOL     OW 5494   2.793   2.560   5.374
 1532SOL    HW1 5495   2.855   2.495   5.331
 1532SOL    HW2 5496   2.828   2.653   5.361
 1533SOL     OW 5497   4.844   2.798   0.151
 1533SOL    HW1 5498   4.824   2.872   0.088
 1533SOL    HW2 5499   4.785   2.720   0.132
 1534SOL     OW 5500   6.765   0.155   1.656
 1534SOL    HW1 5501   6.802   0.148   1.749
 1534SOL    HW2 5502   6.718   0.243   1.645
 1535SOL     OW 5503   5.294   4.553   4.762
 1535SOL    HW1 5504   5.238   4.542   4.680
 1535SOL    HW2 5505   5.256   4.626   4.819
 1536SOL     OW 5506   3.411   6.296   3.128
 1536SOL    HW1 5507   3.415   6.215   3.069
 1536SOL    HW2 5508   3.391   6.377   3.072
 1537SOL     OW 5509   2.967   5.578   4.704
 1537SOL    HW1 5510   2.938   5.508   4.770
 1537SOL    HW2 5511   3.053   5.619   4.736
 1538SOL     OW 5512   3.004   5.475   6.573
 1538SOL    HW1 5513   2.965   5.553   6.622
 1538SOL    HW2 5514   2.957   5.464   6.485
 1539SOL     OW 5515   3.126   6.233   1.874
 1539SOL    HW1 5516   3.080   6.310   1.917
 1539SOL    HW2 5517   3.174   6.265   1.792
 1540SOL     OW 5518   5.775   0.037   5.158
 1540SOL    HW1 5519   5.708   0.075   5.094
 1540SOL    HW2 5520   5.772   6.957   5.155
 1541SOL     OW 5521   5.076   1.466   1.148
 1541SOL    HW1 5522   5.122   1.389   1.105
 1541SOL    HW2 5523   4.978   1.447   1.157
 1542SOL     OW 5524   0.038   6.318   1.187
 1542SOL    HW1 5525   0.071   6.306   1.281
 1542SOL    HW2 5526   0.021   6.228   1.146
 1543SOL     OW 5527   3.684   3.323   3.460
 1543SOL    HW1 5528   3.729   3.368   3.383
 1543SOL    HW2 5529   3.594   3.290   3.431
 1544SOL     OW 5530   3.199   3.549   2.507
 1544SOL    HW1 5531   3.265   3.535   2.580
 1544SOL    HW2 5532   3.247   3.559   2.420
 1545SOL     OW 5533   6.972   0.149   4.935
 1545SOL    HW1 5534   6.930   0.083   4.997
 1545SOL    HW2 5535   6.993   0.103   4.848
 1546SOL     OW 5536   6.206   6.526   6.376
 1546SOL    HW1 5537   6.134   6.461   6.351
 1546SOL    HW2 5538   6.249   6.498   6.462
 1547SOL     OW 5539   3.300   5.574   0.157
 1547SOL    HW1 5540   3.339   5.502   0.214
 1547SOL    HW2 5541   3.235   5.535   0.092
 1548SOL     OW 5542   6.369   3.974   3.493
 1548SOL    HW1 5543   6.443   4.007   3.552
 1548SOL    HW2 5544   6.304   3.922   3.548
 1549SOL     OW 5545   6.994   2.159   0.450
 1549SOL    HW1 5546   6.976   2.253   0.421
 1549SOL    HW2 5547   0.025   2.111   0.379
 1550SOL     OW 5548   2.882   5.187   2.787
 1550SOL    HW1 5549   2.844   5.097   2.806
 1550SOL    HW2 5550   2.855   5.216   2.696
 1551SOL     OW 5551   0.335   2.364   1.408
 1551SOL    HW1 5552   0.422   2.326   1.375
 1551SOL    HW2 5553   0.296   2.425   1.339
 1552SOL     OW 5554   0.968   6.449   2.365
 1552SOL    HW1 5555   1.046   6.473   2.423
 1552SOL    HW2 5556   0.991   6.470   2.270
 1553SOL     OW 5557   5.468   0.909   5.983
 1553SOL    HW1 5558   5.508   0.820   6.004
 1553SOL    HW2 5559   5.419   0.944   6.063
 1554SOL     OW 5560   2.785   2.352   0.776
 1554SOL    HW1 5561   2.729   2.358   0.859
 1554SOL    HW2 5562   2.798   2.256   0.751
 1555SOL     OW 5563   3.903   1.479   0.404
 1555SOL    HW1 5564   3.928   1.382   0.397
 1555SOL    HW2 5565   3.883   1.515   0.313
 1556SOL     OW 5566   3.522   2.139   0.440
 1556SOL    HW1 5567   3.463   2.219   0.451
 1556SOL    HW2 5568   3.599   2.163   0.380
 1557SOL     OW 5569   1.674   3.229   0.588
 1557SOL    HW1 5570   1.752   3.259   0.644
 1557SOL    HW2 5571   1.669   3.129   0.589
 1558SOL     OW 5572   5.134   2.676   6.451
 1558SOL    HW1 5573   5.061   2.623   6.408
 1558SOL    HW2 5574   5.155   2.638   6.541
 1559SOL     OW 5575   2.829   6.260   3.723
 1559SOL    HW1 5576   2.830   6.343   3.668
 1559SOL    HW2 5577   2.911   6.257   3.781
 1560SOL     OW 5578   4.274   3.290   1.158
 1560SOL    HW1 5579   4.350   3.270   1.096
 1560SOL    HW2 5580   4.188   3.285   1.107
 1561SOL     OW 5581   5.534   6.070   0.826
 1561SOL    HW1 5582   5.514   6.034   0.917
 1561SOL    HW2 5583   5.464   6.136   0.800
 1562SOL     OW 5584   2.568   0.287   2.570
 1562SOL    HW1 5585   2.607   0.301   2.661
 1562SOL    HW2 5586   2.469   0.274   2.577
 1563SOL     OW 5587   1.867   3.519   3.969
 1563SOL    HW1 5588   1.856   3.537   3.872
 1563SOL    HW2 5589   1.901   3.601   4.015
 1564SOL     OW 5590   0.714   1.833   2.738
 1564SOL    HW1 5591   0.762   1.757   2.694
 1564SOL    HW2 5592   0.696   1.811   2.834
 1565SOL     OW 5593   4.785   1.700   5.476
 1565SOL    HW1 5594   4.727   1.656   5.544
 1565SOL    HW2 5595   4.784   1.799   5.490
 1566SOL     OW 5596   0.411   3.553   3.230
 1566SOL    HW1 5597   0.401   3.597   3.141
 1566SOL    HW2 5598   0.367   3.609   3.300
 1567SOL     OW 5599   5.673   0.555   4.724
 1567SOL    HW1 5600   5.675   0.466   4.680
 1567SOL    HW2 5601   5.716   0.549   4.814
 1568SOL     OW 5602   2.329   4.565   1.021
 1568SOL    HW1 5603   2.275   4.538   1.101
 1568SOL    HW2 5604   2.396   4.494   1.001
 1569SOL     OW 5605   2.288   1.439   2.883
 1569SOL    HW1 5606   2.294   1.537   2.865
 1569SOL    HW2 5607   2.207   1.402   2.837
 1570SOL     OW 5608   2.548   5.682   6.663
 1570SOL    HW1 5609   2.602   5.674   6.579
 1570SOL    HW2 5610   2.580   5.760   6.716
 1571SOL     OW 5611   6.859   2.401   4.296
 1571SOL    HW1 5612   6.836   2.307   4.321
 1571SOL    HW2 5613   6.833   2.463   4.370
 1572SOL     OW 5614   2.562   6.390   3.214
 1572SOL    HW1 5615   2.474   6.394   3.262
 1572SOL    HW2 5616   2.603   6.481   3.212
 1573SOL     OW 5617   5.091   5.528   0.171
 1573SOL    HW1 5618   5.128   5.523   0.264
 1573SOL    HW2 5619   5.150   5.475   0.109
 1574SOL     OW 5620   0.924   4.290   2.942
 1574SOL    HW1 5621   0.948   4.225   2.870
 1574SOL    HW2 5622   0.851   4.351   2.911
 1575SOL     OW 5623   6.756   2.351   0.249
 1575SOL    HW1 5624   6.703   2.404   0.183
 1575SOL    HW2 5625   6.753   2.397   0.338
 1576SOL     OW 5626   2.010   5.980   1.579
 1576SOL    HW1 5627   1.940   5.960   1.648
 1576SOL    HW2 5628   2.051   6.069   1.598
 1577SOL     OW 5629   4.755   5.852   3.780
 1577SOL    HW1 5630   4.751   5.768   3.725
 1577SOL    HW2 5631   4.818   5.917   3.738
 1578SOL     OW 5632   5.027   1.966   1.477
 1578SOL    HW1 5633   5.084   1.919   1.544
 1578SOL    HW2 5634   4.980   1.899   1.420
 1579SOL     OW 5635   1.850   3.046   1.974
 1579SOL    HW1 5636   1.785   3.051   1.898
 1579SOL    HW2 5637   1.940   3.075   1.943
 1580SOL     OW 5638   2.970   3.847   3.337
 1580SOL    HW1 5639   2.971   3.851   3.237
 1580SOL    HW2 5640   2.980   3.939   3.374
 1581SOL     OW 5641   5.738   4.129   4.804
 1581SOL    HW1 5642   5.716   4.224   4.825
 1581SOL    HW2 5643   5.801   4.092   4.872
 1582SOL     OW 5644   4.700   5.869   5.109
 1582SOL    HW1 5645   4.712   5.775   5.078
 1582SOL    HW2 5646   4.698   5.871   5.209
 1583SOL     OW 5647   1.232   5.224   5.407
 1583SOL    HW1 5648   1.153   5.209   5.347
 1583SOL    HW2 5649   1.275   5.311   5.383
 1584SOL     OW 5650   0.195   4.183   0.469
 1584SOL    HW1 5651   0.165   4.087   0.477
 1584SOL    HW2 5652   0.202   4.208   0.373
 1585SOL     OW 5653   5.080   6.539   4.304
 1585SOL    HW1 5654   5.063   6.533   4.205
 1585SOL    HW2 5655   5.049   6.628   4.338
 1586SOL     OW 5656   2.863   5.888   3.201
 1586SOL    HW1 5657   2.855   5.809   3.262
 1586SOL    HW2 5658   2.958   5.918   3.197
 1587SOL     OW 5659   3.077   6.827   6.524
 1587SOL    HW1 5660   3.009   6.776   6.470
 1587SOL    HW2 5661   3.110   6.769   6.599
 1588SOL     OW 5662   6.379   2.219   3.345
 1588SOL    HW1 5663   6.366   2.317   3.335
 1588SOL    HW2 5664   6.289   2.174   3.347
 1589SOL     OW 5665   0.026   2.828   4.706
 1589SOL    HW1 5666   0.025   2.839   4.806
 1589SOL    HW2 5667   6.952   2.828   4.672
 1590SOL     OW 5668   5.827   0.904   3.239
 1590SOL    HW1 5669   5.803   0.816   3.280
 1590SOL    HW2 5670   5.744   0.955   3.217
 1591SOL     OW 5671   1.110   5.826   0.367
 1591SOL    HW1 5672   1.162   5.878   0.300
 1591SOL    HW2 5673   1.028   5.789   0.324
 1592SOL     OW 5674   0.089   3.510   5.476
 1592SOL    HW1 5675   0.179   3.552   5.487
 1592SOL    HW2 5676   0.043   3.547   5.395
 1593SOL     OW 5677   3.905   6.014   1.242
 1593SOL    HW1 5678   3.866   6.066   1.318
 1593SOL    HW2 5679   3.999   6.044   1.226
 1594SOL     OW 5680   5.420   0.986   2.755
 1594SOL    HW1 5681   5.460   0.918   2.816
 1594SOL    HW2 5682   5.469   0.987   2.668
 1595SOL     OW 5683   1.067   3.144   6.843
 1595SOL    HW1 5684   1.056   3.055   6.799
 1595SOL    HW2 5685   1.000   3.208   6.806
 1596SOL     OW 5686   4.860   4.554   3.726
 1596SOL    HW1 5687   4.845   4.508   3.813
 1596SOL    HW2 5688   4.778   4.546   3.669
 1597SOL     OW 5689   3.181   5.672   0.383
 1597SOL    HW1 5690   3.187   5.660   0.284
 1597SOL    HW2 5691   3.257   5.622   0.427
 1598SOL     OW 5692   1.416   4.483   6.408
 1598SOL    HW1 5693   1.422   4.393   6.364
 1598SOL    HW2 5694   1.489   4.542   6.374
 1599SOL     OW 5695   4.763   5.564   3.644
 1599SOL    HW1 5696   4.791   5.486   3.587
 1599SOL    HW2 5697   4.752   5.535   3.738
 1600SOL     OW 5698   4.499   0.487   1.756
 1600SOL    HW1 5699   4.490   0.565   1.818
 1600SOL    HW2 5700   4.430   0.494   1.684
 1601SOL     OW 5701   6.511   0.948   4.460
 1601SOL    HW1 5702   6.504   0.937   4.361
 1601SOL    HW2 5703   6.493   1.043   4.485
 1602SOL     OW 5704   4.450   5.663   3.752
 1602SOL    HW1 5705   4.534   5.646   3.803
 1602SOL    HW2 5706   4.389   5.584   3.762
 1603SOL     OW 5707   3.102   4.888   2.202
 1603SOL    HW1 5708   3.007   4.858   2.210
 1603SOL    HW2 5709   3.159   4.833   2.263
 1604SOL     OW 5710   4.362   5.036   2.705
 1604SOL    HW1 5711   4.460   5.015   2.696
 1604SOL    HW2 5712   4.344   5.127   2.669
 1605SOL     OW 5713   4.797   5.180   0.602
 1605SOL    HW1 5714   4.838   5.191   0.512
 1605SOL    HW2 5715   4.853   5.227   0.671
 1606SOL     OW 5716   3.167   5.691   4.877
 1606SOL    HW1 5717   3.114   5.730   4.953
 1606SOL    HW2 5718   3.246   5.641   4.914
 1607SOL     OW 5719   4.626   4.370   3.720
 1607SOL    HW1 5720   4.655   4.277   3.743
 1607SOL    HW2 5721   4.630   4.427   3.802
 1608SOL     OW 5722   5.492   2.645   3.666
 1608SOL    HW1 5723   5.494   2.645   3.766
 1608SOL    HW2 5724   5.534   2.560   3.632
 1609SOL     OW 5725   1.728   0.229   0.876
 1609SOL    HW1 5726   1.691   0.261   0.962
 1609SOL    HW2 5727   1.669   0.259   0.801
 1610SOL     OW 5728   5.640   6.439   0.894
 1610SOL    HW1 5729   5.569   6.404   0.955
 1610SOL    HW2 5730   5.700   6.364   0.866
 1611SOL     OW 5731   1.468   4.409   0.154
 1611SOL    HW1 5732   1.455   4.460   0.238
 1611SOL    HW2 5733   1.451   4.468   0.075
 1612SOL     OW 5734   4.348   0.981   2.471
 1612SOL    HW1 5735   4.376   1.027   2.387
 1612SOL    HW2 5736   4.255   0.947   2.462
 1613SOL     OW 5737   0.192   5.823   2.829
 1613SOL    HW1 5738   0.215   5.823   2.927
 1613SOL    HW2 5739   0.230   5.906   2.787
 1614SOL     OW 5740   6.744   1.363   5.897
 1614SOL    HW1 5741   6.723   1.374   5.994
 1614SOL    HW2 5742   6.827   1.307   5.887
 1615SOL     OW 5743   6.849   3.715   5.732
 1615SOL    HW1 5744   6.947   3.730   5.722
 1615SOL    HW2 5745   6.799   3.768   5.663
 1616SOL     OW 5746   0.494   0.898   4.020
 1616SOL    HW1 5747   0.547   0.829   4.071
 1616SOL    HW2 5748   0.536   0.988   4.032
 1617SOL     OW 5749   6.812   5.516   3.698
 1617SOL    HW1 5750   6.867   5.512   3.782
 1617SOL    HW2 5751   6.873   5.523   3.619
 1618SOL     OW 5752   3.610   5.851   2.945
 1618SOL    HW1 5753   3.551   5.795   3.004
 1618SOL    HW2 5754   3.706   5.832   2.967
 1619SOL     OW 5755   1.115   4.139   6.580
 1619SOL    HW1 5756   1.110   4.220   6.522
 1619SOL    HW2 5757   1.037   4.079   6.563
 1620SOL     OW 5758   3.512   6.921   4.054
 1620SOL    HW1 5759   3.569   6.998   4.024
 1620SOL    HW2 5760   3.543   6.838   4.008
 1621SOL     OW 5761   4.741   5.521   0.816
 1621SOL    HW1 5762   4.816   5.463   0.786
 1621SOL    HW2 5763   4.724   5.592   0.748
 1622SOL     OW 5764   6.073   4.641   4.129
 1622SOL    HW1 5765   6.168   4.671   4.134
 1622SOL    HW2 5766   6.065   4.568   4.061
 1623SOL     OW 5767   0.303   2.433   3.661
 1623SOL    HW1 5768   0.339   2.374   3.589
 1623SOL    HW2 5769   0.205   2.447   3.647
 1624SOL     OW 5770   3.495   3.059   0.378
 1624SOL    HW1 5771   3.549   2.977   0.395
 1624SOL    HW2 5772   3.540   3.138   0.421
 1625SOL     OW 5773   0.631   6.623   0.370
 1625SOL    HW1 5774   0.589   6.538   0.338
 1625SOL    HW2 5775   0.686   6.605   0.451
 1626SOL     OW 5776   2.564   1.806   1.890
 1626SOL    HW1 5777   2.607   1.810   1.799
 1626SOL    HW2 5778   2.526   1.896   1.912
 1627SOL     OW 5779   4.165   2.129   5.836
 1627SOL    HW1 5780   4.070   2.140   5.807
 1627SOL    HW2 5781   4.223   2.124   5.754
 1628SOL     OW 5782   5.316   6.605   0.956
 1628SOL    HW1 5783   5.401   6.653   0.938
 1628SOL    HW2 5784   5.280   6.568   0.870
 1629SOL     OW 5785   1.675   0.012   3.515
 1629SOL    HW1 5786   1.717   0.072   3.447
 1629SOL    HW2 5787   1.680   0.055   3.605
 1630SOL     OW 5788   0.466   3.510   5.835
 1630SOL    HW1 5789   0.434   3.416   5.846
 1630SOL    HW2 5790   0.531   3.514   5.759
 1631SOL     OW 5791   5.805   2.956   0.732
 1631SOL    HW1 5792   5.853   2.939   0.646
 1631SOL    HW2 5793   5.854   2.911   0.807
 1632SOL     OW 5794   6.580   6.080   2.123
 1632SOL    HW1 5795   6.503   6.040   2.173
 1632SOL    HW2 5796   6.643   6.124   2.188
 1633SOL     OW 5797   5.217   3.749   4.599
 1633SOL    HW1 5798   5.237   3.659   4.560
 1633SOL    HW2 5799   5.123   3.774   4.578
 1634SOL     OW 5800   1.178   3.613   5.729
 1634SOL    HW1 5801   1.232   3.592   5.648
 1634SOL    HW2 5802   1.144   3.528   5.770
 1635SOL     OW 5803   3.372   0.375   3.821
 1635SOL    HW1 5804   3.323   0.307   3.766
 1635SOL    HW2 5805   3.390   0.338   3.912
 1636SOL     OW 5806   6.373   5.961   1.435
 1636SOL    HW1 5807   6.344   5.868   1.413
 1636SOL    HW2 5808   6.462   5.979   1.393
 1637SOL     OW 5809   1.404   1.602   2.759
 1637SOL    HW1 5810   1.503   1.603   2.764
 1637SOL    HW2 5811   1.374   1.552   2.677
 1638SOL     OW 5812   5.266   2.035   2.751
 1638SOL    HW1 5813   5.348   1.977   2.757
 1638SOL    HW2 5814   5.257   2.069   2.657
 1639SOL     OW 5815   4.893   2.163   2.099
 1639SOL    HW1 5816   4.831   2.241   2.093
 1639SOL    HW2 5817   4.985   2.191   2.068
 1640SOL     OW 5818   6.040   0.725   6.625
 1640SOL    HW1 5819   6.061   0.759   6.716
 1640SOL    HW2 5820   6.044   0.800   6.559
 1641SOL     OW 5821   6.382   1.568   3.025
 1641SOL    HW1 5822   6.432   1.482   3.032
 1641SOL    HW2 5823   6.284   1.548   3.022
 1642SOL     OW 5824   6.916   3.542   6.394
 1642SOL    HW1 5825   6.908   3.634   6.357
 1642SOL    HW2 5826   6.848   3.528   6.466
 1643SOL     OW 5827   1.831   5.381   3.587
 1643SOL    HW1 5828   1.851   5.449   3.517
 1643SOL    HW2 5829   1.740   5.398   3.625
 1644SOL     OW 5830   6.312   1.783   1.744
 1644SOL    HW1 5831   6.280   1.878   1.751
 1644SOL    HW2 5832   6.410   1.782   1.729
 1645SOL     OW 5833   2.502   0.748   5.187
 1645SOL    HW1 5834   2.481   0.831   5.136
 1645SOL    HW2 5835   2.601   0.735   5.189
 1646SOL     OW 5836   0.972   5.413   1.100
 1646SOL    HW1 5837   1.025   5.342   1.146
 1646SOL    HW2 5838   0.875   5.392   1.106
 1647SOL     OW 5839   6.151   3.034   4.563
 1647SOL    HW1 5840   6.165   3.042   4.464
 1647SOL    HW2 5841   6.147   3.126   4.603
 1648SOL     OW 5842   5.983   5.898   1.927
 1648SOL    HW1 5843   5.944   5.807   1.916
 1648SOL    HW2 5844   5.910   5.963   1.947
 1649SOL     OW 5845   3.687   1.616   3.426
 1649SOL    HW1 5846   3.765   1.656   3.379
 1649SOL    HW2 5847   3.650   1.541   3.371
 1650SOL     OW 5848   3.124   2.647   5.571
 1650SOL    HW1 5849   3.170   2.730   5.602
 1650SOL    HW2 5850   3.171   2.611   5.491
 1651SOL     OW 5851   1.088   2.070   3.973
 1651SOL    HW1 5852   1.067   1.999   3.905
 1651SOL    HW2 5853   1.182   2.102   3.960
 1652SOL     OW 5854   0.246   3.656   1.807
 1652SOL    HW1 5855   0.228   3.585   1.875
 1652SOL    HW2 5856   0.237   3.618   1.715
 1653SOL     OW 5857   0.195   4.235   1.818
 1653SOL    HW1 5858   0.211   4.137   1.824
 1653SOL    HW2 5859   0.274   4.285   1.853
 1654SOL     OW 5860   0.287   3.931   1.734
 1654SOL    HW1 5861   0.252   3.949   1.642
 1654SOL    HW2 5862   0.259   3.839   1.762
 1655SOL     OW 5863   0.487   0.865   5.946
 1655SOL    HW1 5864   0.396   0.830   5.926
 1655SOL    HW2 5865   0.525   0.907   5.863
 1656SOL     OW 5866   2.294   4.220   3.488
 1656SOL    HW1 5867   2.350   4.286   3.538
 1656SOL    HW2 5868   2.241   4.268   3.418
 1657SOL     OW 5869   0.626   0.373   5.549
 1657SOL    HW1 5870   0.562   0.303   5.517
 1657SOL    HW2 5871   0.672   0.342   5.632
 1658SOL     OW 5872   4.811   6.542   6.336
 1658SOL    HW1 5873   4.819   6.447   6.363
 1658SOL    HW2 5874   4.811   6.549   6.236
 1659SOL     OW 5875   4.203   6.782   5.677
 1659SOL    HW1 5876   4.279   6.786   5.742
 1659SOL    HW2 5877   4.177   6.687   5.662
 1660SOL     OW 5878   2.485   0.793   1.864
 1660SOL    HW1 5879   2.527   0.786   1.954
 1660SOL    HW2 5880   2.524   0.870   1.814
 1661SOL     OW 5881   4.830   3.946   2.742
 1661SOL    HW1 5882   4.838   3.868   2.680
 1661SOL    HW2 5883   4.797   4.026   2.691
 1662SOL     OW 5884   0.018   2.005   3.758
 1662SOL    HW1 5885   0.115   1.990   3.738
 1662SOL    HW2 5886   6.991   1.917   3.761
 1663SOL     OW 5887   5.573   3.902   1.150
 1663SOL    HW1 5888   5.616   3.883   1.238
 1663SOL    HW2 5889   5.600   3.832   1.084
 1664SOL     OW 5890   1.618   0.337   6.171
 1664SOL    HW1 5891   1.595   0.427   6.210
 1664SOL    HW2 5892   1.678   0.350   6.092
 1665SOL     OW 5893   2.886   4.402   6.466
 1665SOL    HW1 5894   2.936   4.324   6.430
 1665SOL    HW2 5895   2.797   4.373   6.499
 1666SOL     OW 5896   5.069   6.250   6.628
 1666SOL    HW1 5897   5.127   6.332   6.635
 1666SOL    HW2 5898   5.125   6.169   6.640
 1667SOL     OW 5899   6.993   5.677   0.482
 1667SOL    HW1 5900   0.039   5.632   0.421
 1667SOL    HW2 5901   6.938   5.607   0.529
 1668SOL     OW 5902   5.883   3.080   1.982
 1668SOL    HW1 5903   5.898   3.060   2.079
 1668SOL    HW2 5904   5.948   3.029   1.927
 1669SOL     OW 5905   6.944   2.957   5.744
 1669SOL    HW1 5906   6.911   2.991   5.656
 1669SOL    HW2 5907   6.914   2.863   5.757
 1670SOL     OW 5908   3.187   4.433   5.682
 1670SOL    HW1 5909   3.171   4.352   5.625
 1670SOL    HW2 5910   3.101   4.484   5.691
 1671SOL     OW 5911   5.732   2.448   0.401
 1671SOL    HW1 5912   5.674   2.529   0.388
 1671SOL    HW2 5913   5.694   2.372   0.348
 1672SOL     OW 5914   0.593   2.270   1.408
 1672SOL    HW1 5915   0.649   2.303   1.484
 1672SOL    HW2 5916   0.631   2.184   1.374
 1673SOL     OW 5917   1.389   0.545   4.537
 1673SOL    HW1 5918   1.365   0.448   4.542
 1673SOL    HW2 5919   1.412   0.579   4.628
 1674SOL     OW 5920   5.121   1.933   2.957
 1674SOL    HW1 5921   5.157   1.994   2.887
 1674SOL    HW2 5922   5.033   1.896   2.928
 1675SOL     OW 5923   5.597   0.226   1.649
 1675SOL    HW1 5924   5.559   0.274   1.728
 1675SOL    HW2 5925   5.594   0.286   1.569
 1676SOL     OW 5926   0.756   2.030   3.827
 1676SOL    HW1 5927   0.725   2.049   3.733
 1676SOL    HW2 5928   0.687   2.061   3.892
 1677SOL     OW 5929   3.250   3.329   2.931
 1677SOL    HW1 5930   3.171   3.288   2.886
 1677SOL    HW2 5931   3.223   3.414   2.976
 1678SOL     OW 5932   0.943   0.041   0.373
 1678SOL    HW1 5933   0.925   0.129   0.415
 1678SOL    HW2 5934   0.964   0.053   0.276
 1679SOL     OW 5935   6.239   1.428   7.007
 1679SOL    HW1 5936   6.335   1.456   7.005
 1679SOL    HW2 5937   6.212   1.396   6.916
 1680SOL     OW 5938   5.873   2.664   2.893
 1680SOL    HW1 5939   5.943   2.623   2.834
 1680SOL    HW2 5940   5.878   2.623   2.984
 1681SOL     OW 5941   3.743   6.288   4.653
 1681SOL    HW1 5942   3.809   6.304   4.580
 1681SOL    HW2 5943   3.781   6.322   4.740
 1682SOL     OW 5944   4.030   0.320   4.605
 1682SOL    HW1 5945   4.016   0.419   4.600
 1682SOL    HW2 5946   4.128   0.300   4.597
 1683SOL     OW 5947   6.722   2.720   2.993
 1683SOL    HW1 5948   6.806   2.700   3.043
 1683SOL    HW2 5949   6.736   2.702   2.896
 1684SOL     OW 5950   2.791   5.885   1.665
 1684SOL    HW1 5951   2.772   5.948   1.590
 1684SOL    HW2 5952   2.881   5.904   1.703
 1685SOL     OW 5953   0.006   1.229   5.795
 1685SOL    HW1 5954   0.040   1.135   5.788
 1685SOL    HW2 5955   0.005   1.271   5.704
 1686SOL     OW 5956   3.661   5.241   1.935
 1686SOL    HW1 5957   3.711   5.241   2.022
 1686SOL    HW2 5958   3.726   5.226   1.860
 1687SOL     OW 5959   5.112   4.113   1.335
 1687SOL    HW1 5960   5.095   4.172   1.256
 1687SOL    HW2 5961   5.110   4.168   1.419
 1688SOL     OW 5962   2.015   0.241   3.315
 1688SOL    HW1 5963   2.073   0.185   3.375
 1688SOL    HW2 5964   2.039   0.338   3.326
 1689SOL     OW 5965   4.049   0.560   1.971
 1689SOL    HW1 5966   3.954   0.564   1.942
 1689SOL    HW2 5967   4.073   0.465   1.993
 1690SOL     OW 5968   6.340   4.786   4.122
 1690SOL    HW1 5969   6.383   4.744   4.042
 1690SOL    HW2 5970   6.313   4.879   4.100
 1691SOL     OW 5971   4.205   2.709   5.356
 1691SOL    HW1 5972   4.297   2.739   5.330
 1691SOL    HW2 5973   4.177   2.634   5.296
 1692SOL     OW 5974   5.229   5.143   1.401
 1692SOL    HW1 5975   5.244   5.213   1.331
 1692SOL    HW2 5976   5.195   5.187   1.485
 1693SOL     OW 5977   5.251   6.876   6.068
 1693SOL    HW1 5978   5.328   6.940   6.073
 1693SOL    HW2 5979   5.171   6.917   6.113
 1694SOL     OW 5980   4.744   1.481   6.515
 1694SOL    HW1 5981   4.796   1.411   6.464
 1694SOL    HW2 5982   4.750   1.568   6.466
 1695SOL     OW 5983   4.069   0.572   5.597
 1695SOL    HW1 5984   4.045   0.477   5.576
 1695SOL    HW2 5985   4.080   0.623   5.512
 1696SOL     OW 5986   4.096   0.071   0.958
 1696SOL    HW1 5987   4.025   0.017   0.912
 1696SOL    HW2 5988   4.166   0.097   0.892
 1697SOL     OW 5989   4.677   2.742   1.813
 1697SOL    HW1 5990   4.757   2.726   1.870
 1697SOL    HW2 5991   4.627   2.821   1.848
 1698SOL     OW 5992   4.307   1.693   1.346
 1698SOL    HW1 5993   4.208   1.701   1.334
 1698SOL    HW2 5994   4.332   1.596   1.351
 1699SOL     OW 5995   1.876   0.828   0.711
 1699SOL    HW1 5996   1.791   0.871   0.740
 1699SOL    HW2 5997   1.906   0.868   0.624
 1700SOL     OW 5998   5.094   3.348   2.621
 1700SOL    HW1 5999   5.046   3.313   2.702
 1700SOL    HW2 6000   5.042   3.424   2.582
 1701SOL     OW 6001   0.631   5.415   4.684
 1701SOL    HW1 6002   0.612   5.365   4.599
 1701SOL    HW2 6003   0.682   5.499   4.662
 1702SOL     OW 6004   2.620   2.967   6.477
 1702SOL    HW1 6005   2.526   2.942   6.500
 1702SOL    HW2 6006   2.620   3.034   6.403
 1703SOL     OW 6007   1.358   2.265   1.912
 1703SOL    HW1 6008   1.413   2.210   1.850
 1703SOL    HW2 6009   1.383   2.244   2.007
 1704SOL     OW 6010   2.762   2.961   0.030
 1704SOL    HW1 6011   2.809   2.964   0.118
 1704SOL    HW2 6012   2.745   3.054   7.017
 1705SOL     OW 6013   4.885   3.126   0.864
 1705SOL    HW1 6014   4.923   3.217   0.880
 1705SOL    HW2 6015   4.875   3.111   0.766
 1706SOL     OW 6016   5.979   1.832   6.472
 1706SOL    HW1 6017   6.041   1.801   6.545
 1706SOL    HW2 6018   6.014   1.801   6.384
 1707SOL     OW 6019   3.946   1.292   2.104
 1707SOL    HW1 6020   3.957   1.232   2.025
 1707SOL    HW2 6021   3.967   1.386   2.078
 1708SOL     OW 6022   2.634   4.783   1.848
 1708SOL    HW1 6023   2.698   4.714   1.880
 1708SOL    HW2 6024   2.667   4.822   1.762
 1709SOL     OW 6025   5.204   4.892   0.770
 1709SOL    HW1 6026   5.244   4.805   0.799
 1709SOL    HW2 6027   5.177   4.946   0.850
 1710SOL     OW 6028   4.865   2.972   2.270
 1710SOL    HW1 6029   4.819   2.981   2.182
 1710SOL    HW2 6030   4.920   2.889   2.271
 1711SOL     OW 6031   3.840   5.741   0.219
 1711SOL    HW1 6032   3.830   5.698   0.309
 1711SOL    HW2 6033   3.851   5.670   0.149
 1712SOL     OW 6034   0.208   1.908   1.852
 1712SOL    HW1 6035   0.253   1.868   1.932
 1712SOL    HW2 6036   0.273   1.965   1.802
 1713SOL     OW 6037   2.443   1.634   2.501
 1713SOL    HW1 6038   2.420   1.537   2.507
 1713SOL    HW2 6039   2.437   1.664   2.406
 1714SOL     OW 6040   2.415   4.076   0.991
 1714SOL    HW1 6041   2.339   4.078   1.057
 1714SOL    HW2 6042   2.502   4.073   1.040
 1715SOL     OW 6043   0.793   5.724   0.677
 1715SOL    HW1 6044   0.753   5.663   0.745
 1715SOL    HW2 6045   0.884   5.690   0.651
 1716SOL     OW 6046   4.815   1.305   2.578
 1716SOL    HW1 6047   4.913   1.298   2.557
 1716SOL    HW2 6048   4.762   1.279   2.497
 1717SOL     OW 6049   3.987   6.198   3.790
 1717SOL    HW1 6050   3.901   6.157   3.821
 1717SOL    HW2 6051   4.059   6.129   3.791
 1718SOL     OW 6052   1.939   3.451   1.626
 1718SOL    HW1 6053   1.882   3.517   1.675
 1718SOL    HW2 6054   1.981   3.387   1.691
 1719SOL     OW 6055   1.812   5.693   2.947
 1719SOL    HW1 6056   1.905   5.693   2.909
 1719SOL    HW2 6057   1.770   5.782   2.930
 1720SOL     OW 6058   1.017   3.182   5.314
 1720SOL    HW1 6059   1.091   3.118   5.335
 1720SOL    HW2 6060   1.036   3.271   5.355
 1721SOL     OW 6061   1.898   2.513   6.976
 1721SOL    HW1 6062   1.911   2.449   0.032
 1721SOL    HW2 6063   1.808   2.556   6.983
 1722SOL     OW 6064   2.180   2.614   3.468
 1722SOL    HW1 6065   2.110   2.634   3.536
 1722SOL    HW2 6066   2.235   2.537   3.499
 1723SOL     OW 6067   5.511   4.456   1.151
 1723SOL    HW1 6068   5.547   4.468   1.244
 1723SOL    HW2 6069   5.430   4.397   1.154
 1724SOL     OW 6070   5.191   2.615   0.846
 1724SOL    HW1 6071   5.095   2.617   0.817
 1724SOL    HW2 6072   5.196   2.587   0.941
 1725SOL     OW 6073   2.133   6.433   5.920
 1725SOL    HW1 6074   2.123   6.399   6.014
 1725SOL    HW2 6075   2.090   6.523   5.912
 1726SOL     OW 6076   4.810   4.609   2.988
 1726SOL    HW1 6077   4.759   4.581   3.069
 1726SOL    HW2 6078   4.747   4.616   2.910
 1727SOL     OW 6079   3.626   3.879   2.985
 1727SOL    HW1 6080   3.597   3.945   2.916
 1727SOL    HW2 6081   3.667   3.928   3.063
 1728SOL     OW 6082   5.553   2.246   4.116
 1728SOL    HW1 6083   5.482   2.311   4.143
 1728SOL    HW2 6084   5.541   2.161   4.168
 1729SOL     OW 6085   1.112   2.433   2.789
 1729SOL    HW1 6086   1.176   2.392   2.723
 1729SOL    HW2 6087   1.158   2.444   2.877
 1730SOL     OW 6088   2.539   6.623   4.923
 1730SOL    HW1 6089   2.559   6.569   5.005
 1730SOL    HW2 6090   2.576   6.576   4.842
 1731SOL     OW 6091   4.983   4.608   4.084
 1731SOL    HW1 6092   5.008   4.558   4.168
 1731SOL    HW2 6093   4.931   4.689   4.108
 1732SOL     OW 6094   3.295   3.500   5.245
 1732SOL    HW1 6095   3.332   3.444   5.171
 1732SOL    HW2 6096   3.272   3.440   5.322
 1733SOL     OW 6097   1.679   2.468   6.480
 1733SOL    HW1 6098   1.582   2.461   6.456
 1733SOL    HW2 6099   1.692   2.540   6.548
 1734SOL     OW 6100   0.409   3.271   0.903
 1734SOL    HW1 6101   0.348   3.243   0.829
 1734SOL    HW2 6102   0.367   3.345   0.955
 1735SOL     OW 6103   3.223   5.314   6.598
 1735SOL    HW1 6104   3.160   5.392   6.595
 1735SOL    HW2 6105   3.257   5.302   6.691
 1736SOL     OW 6106   5.148   2.344   6.370
 1736SOL    HW1 6107   5.078   2.345   6.442
 1736SOL    HW2 6108   5.229   2.394   6.402
 1737SOL     OW 6109   3.004   1.010   5.692
 1737SOL    HW1 6110   3.035   0.955   5.770
 1737SOL    HW2 6111   2.912   1.045   5.711
 1738SOL     OW 6112   1.396   3.917   2.224
 1738SOL    HW1 6113   1.480   3.971   2.220
 1738SOL    HW2 6114   1.364   3.912   2.319
 1739SOL     OW 6115   4.989   5.803   3.032
 1739SOL    HW1 6116   5.076   5.755   3.038
 1739SOL    HW2 6117   4.915   5.740   3.054
 1740SOL     OW 6118   0.292   2.884   5.037
 1740SOL    HW1 6119   0.368   2.874   4.973
 1740SOL    HW2 6120   0.266   2.795   5.073
 1741SOL     OW 6121   0.783   2.740   4.872
 1741SOL    HW1 6122   0.760   2.837   4.859
 1741SOL    HW2 6123   0.876   2.724   4.840
 1742SOL     OW 6124   6.604   6.873   6.957
 1742SOL    HW1 6125   6.571   6.882   6.863
 1742SOL    HW2 6126   6.622   6.964   6.995
 1743SOL     OW 6127   1.748   2.421   1.524
 1743SOL    HW1 6128   1.830   2.446   1.472
 1743SOL    HW2 6129   1.677   2.490   1.509
 1744SOL     OW 6130   3.188   2.274   5.537
 1744SOL    HW1 6131   3.117   2.333   5.575
 1744SOL    HW2 6132   3.251   2.328   5.482
 1745SOL     OW 6133   6.715   6.733   0.349
 1745SOL    HW1 6134   6.733   6.784   0.433
 1745SOL    HW2 6135   6.802   6.700   0.311
 1746SOL     OW 6136   2.640   4.770   3.050
 1746SOL    HW1 6137   2.561   4.790   3.108
 1746SOL    HW2 6138   2.628   4.681   3.006
 1747SOL     OW 6139   3.975   0.186   2.326
 1747SOL    HW1 6140   4.041   0.114   2.303
 1747SOL    HW2 6141   3.952   0.238   2.244
 1748SOL     OW 6142   7.014   2.029   4.030
 1748SOL    HW1 6143   6.922   1.991   4.041
 1748SOL    HW2 6144   0.016   2.037   3.933
 1749SOL     OW 6145   6.388   5.086   2.014
 1749SOL    HW1 6146   6.375   5.177   2.053
 1749SOL    HW2 6147   6.418   5.094   1.919
 1750SOL     OW 6148   3.083   0.812   0.545
 1750SOL    HW1 6149   3.070   0.797   0.447
 1750SOL    HW2 6150   2.995   0.809   0.592
 1751SOL     OW 6151   5.305   3.860   4.830
 1751SOL    HW1 6152   5.282   3.817   4.743
 1751SOL    HW2 6153   5.226   3.857   4.890
 1752SOL     OW 6154   6.842   0.801   2.524
 1752SOL    HW1 6155   6.865   0.759   2.612
 1752SOL    HW2 6156   6.743   0.795   2.510
 1753SOL     OW 6157   6.771   2.016   1.622
 1753SOL    HW1 6158   6.864   2.007   1.658
 1753SOL    HW2 6159   6.775   2.019   1.522
 1754SOL     OW 6160   2.970   5.489   3.586
 1754SOL    HW1 6161   3.019   5.442   3.513
 1754SOL    HW2 6162   3.000   5.453   3.675
 1755SOL     OW 6163   6.422   0.225   5.024
 1755SOL    HW1 6164   6.428   0.216   5.123
 1755SOL    HW2 6165   6.511   0.206   4.983
 1756SOL     OW 6166   4.594   6.065   1.134
 1756SOL    HW1 6167   4.615   5.989   1.073
 1756SOL    HW2 6168   4.495   6.075   1.141
 1757SOL     OW 6169   2.771   4.802   5.243
 1757SOL    HW1 6170   2.716   4.745   5.302
 1757SOL    HW2 6171   2.818   4.745   5.175
 1758SOL     OW 6172   1.143   6.241   3.540
 1758SOL    HW1 6173   1.198   6.316   3.574
 1758SOL    HW2 6174   1.200   6.179   3.486
 1759SOL     OW 6175   1.135   5.556   0.039
 1759SOL    HW1 6176   1.112   5.529   0.132
 1759SOL    HW2 6177   1.065   5.522   6.996
 1760SOL     OW 6178   6.420   1.713   4.738
 1760SOL    HW1 6179   6.336   1.679   4.695
 1760SOL    HW2 6180   6.401   1.741   4.832
 1761SOL     OW 6181   5.362   1.284   3.153
 1761SOL    HW1 6182   5.336   1.235   3.236
 1761SOL    HW2 6183   5.359   1.383   3.171
 1762SOL     OW 6184   0.848   1.394   5.830
 1762SOL    HW1 6185   0.931   1.444   5.853
 1762SOL    HW2 6186   0.799   1.442   5.757
 1763SOL     OW 6187   1.530   5.208   3.218
 1763SOL    HW1 6188   1.623   5.210   3.184
 1763SOL    HW2 6189   1.512   5.290   3.273
 1764SOL     OW 6190   0.695   5.927   3.147
 1764SOL    HW1 6191   0.634   5.992   3.191
 1764SOL    HW2 6192   0.754   5.974   3.082
 1765SOL     OW 6193   5.456   4.001   2.305
 1765SOL    HW1 6194   5.536   4.039   2.351
 1765SOL    HW2 6195   5.375   4.051   2.334
 1766SOL     OW 6196   4.843   4.495   4.323
 1766SOL    HW1 6197   4.873   4.413   4.373
 1766SOL    HW2 6198   4.743   4.499   4.322
 1767SOL     OW 6199   0.447   4.879   1.658
 1767SOL    HW1 6200   0.482   4.819   1.587
 1767SOL    HW2 6201   0.353   4.854   1.680
 1768SOL     OW 6202   4.549   4.359   2.487
 1768SOL    HW1 6203   4.452   4.370   2.506
 1768SOL    HW2 6204   4.595   4.448   2.492
 1769SOL     OW 6205   5.196   0.122   1.289
 1769SOL    HW1 6206   5.191   0.220   1.307
 1769SOL    HW2 6207   5.116   0.077   1.329
 1770SOL     OW 6208   1.698   5.116   0.472
 1770SOL    HW1 6209   1.729   5.083   0.383
 1770SOL    HW2 6210   1.774   5.113   0.537
 1771SOL     OW 6211   1.619   3.105   6.417
 1771SOL    HW1 6212   1.549   3.164   6.457
 1771SOL    HW2 6213   1.619   3.017   6.465
 1772SOL     OW 6214   2.125   4.066   3.130
 1772SOL    HW1 6215   2.139   3.975   3.170
 1772SOL    HW2 6216   2.145   4.063   3.032
 1773SOL     OW 6217   2.336   6.348   5.067
 1773SOL    HW1 6218   2.285   6.373   4.984
 1773SOL    HW2 6219   2.406   6.417   5.084
 1774SOL     OW 6220   5.785   5.977   1.428
 1774SOL    HW1 6221   5.759   5.963   1.524
 1774SOL    HW2 6222   5.721   5.928   1.369
 1775SOL     OW 6223   1.278   6.224   0.554
 1775SOL    HW1 6224   1.242   6.238   0.463
 1775SOL    HW2 6225   1.364   6.274   0.564
 1776SOL     OW 6226   4.780   3.454   5.988
 1776SOL    HW1 6227   4.716   3.388   5.951
 1776SOL    HW2 6228   4.868   3.447   5.940
 1777SOL     OW 6229   4.337   6.391   6.897
 1777SOL    HW1 6230   4.288   6.478   6.907
 1777SOL    HW2 6231   4.388   6.390   6.812
 1778SOL     OW 6232   6.148   0.186   3.763
 1778SOL    HW1 6233   6.062   0.236   3.755
 1778SOL    HW2 6234   6.221   0.238   3.718
 1779SOL     OW 6235   5.789   0.782   4.290
 1779SOL    HW1 6236   5.751   0.823   4.207
 1779SOL    HW2 6237   5.717   0.769   4.358
 1780SOL     OW 6238   3.098   5.886   5.092
 1780SOL    HW1 6239   3.109   5.985   5.094
 1780SOL    HW2 6240   3.001   5.864   5.080
 1781SOL     OW 6241   4.177   0.949   5.683
 1781SOL    HW1 6242   4.146   1.000   5.602
 1781SOL    HW2 6243   4.260   0.990   5.720
 1782SOL     OW 6244   5.376   0.914   2.260
 1782SOL    HW1 6245   5.407   0.820   2.250
 1782SOL    HW2 6246   5.381   0.961   2.172
 1783SOL     OW 6247   1.912   4.057   6.390
 1783SOL    HW1 6248   1.842   4.093   6.328
 1783SOL    HW2 6249   2.003   4.078   6.354
 1784SOL     OW 6250   2.863   6.145   1.229
 1784SOL    HW1 6251   2.900   6.237   1.213
 1784SOL    HW2 6252   2.903   6.081   1.163
 1785SOL     OW 6253   1.522   6.140   4.454
 1785SOL    HW1 6254   1.533   6.159   4.356
 1785SOL    HW2 6255   1.600   6.085   4.486
 1786SOL     OW 6256   0.802   5.993   1.507
 1786SOL    HW1 6257   0.799   6.013   1.409
 1786SOL    HW2 6258   0.897   5.997   1.539
 1787SOL     OW 6259   1.988   2.345   5.803
 1787SOL    HW1 6260   1.923   2.384   5.869
 1787SOL    HW2 6261   2.043   2.419   5.764
 1788SOL     OW 6262   4.035   4.171   0.356
 1788SOL    HW1 6263   3.955   4.128   0.315
 1788SOL    HW2 6264   4.115   4.114   0.340
 1789SOL     OW 6265   5.663   2.860   2.047
 1789SOL    HW1 6266   5.644   2.764   2.027
 1789SOL    HW2 6267   5.722   2.866   2.127
 1790SOL     OW 6268   2.118   1.825   4.762
 1790SOL    HW1 6269   2.039   1.791   4.712
 1790SOL    HW2 6270   2.090   1.858   4.852
 1791SOL     OW 6271   5.467   0.634   3.835
 1791SOL    HW1 6272   5.487   0.731   3.819
 1791SOL    HW2 6273   5.386   0.607   3.783
 1792SOL     OW 6274   6.657   2.442   6.448
 1792SOL    HW1 6275   6.736   2.380   6.455
 1792SOL    HW2 6276   6.628   2.470   6.539
 1793SOL     OW 6277   0.026   1.522   4.991
 1793SOL    HW1 6278   0.100   1.589   4.994
 1793SOL    HW2 6279   0.065   1.430   4.991
 1794SOL     OW 6280   0.351   1.690   6.356
 1794SOL    HW1 6281   0.411   1.704   6.278
 1794SOL    HW2 6282   0.397   1.722   6.439
 1795SOL     OW 6283   5.536   4.764   0.705
 1795SOL    HW1 6284   5.495   4.855   0.715
 1795SOL    HW2 6285   5.538   4.719   0.794
 1796SOL     OW 6286   6.137   0.007   0.675
 1796SOL    HW1 6287   6.120   0.086   0.734
 1796SOL    HW2 6288   6.163   6.948   0.732
 1797SOL     OW 6289   3.503   5.649   5.738
 1797SOL    HW1 6290   3.600   5.649   5.763
 1797SOL    HW2 6291   3.447   5.648   5.820
 1798SOL     OW 6292   2.070   3.615   5.663
 1798SOL    HW1 6293   2.075   3.673   5.581
 1798SOL    HW2 6294   2.022   3.664   5.735
 1799SOL     OW 6295   3.108   1.303   1.968
 1799SOL    HW1 6296   3.185   1.242   1.952
 1799SOL    HW2 6297   3.096   1.364   1.890
 1800SOL     OW 6298   6.271   3.070   5.922
 1800SOL    HW1 6299   6.288   3.105   5.829
 1800SOL    HW2 6300   6.359   3.050   5.966
 1801SOL     OW 6301   0.295   1.474   2.848
 1801SOL    HW1 6302   0.249   1.451   2.934
 1801SOL    HW2 6303   0.393   1.455   2.857
 1802SOL     OW 6304   5.848   5.057   4.270
 1802SOL    HW1 6305   5.874   5.149   4.240
 1802SOL    HW2 6306   5.908   5.027   4.343
 1803SOL     OW 6307   0.149   0.091   4.333
 1803SOL    HW1 6308   0.176   0.129   4.244
 1803SOL    HW2 6309   0.082   0.019   4.319
 1804SOL     OW 6310   1.210   2.709   6.629
 1804SOL    HW1 6311   1.175   2.779   6.690
 1804SOL    HW2 6312   1.309   2.703   6.638
 1805SOL     OW 6313   6.252   4.777   0.251
 1805SOL    HW1 6314   6.183   4.711   0.222
 1805SOL    HW2 6315   6.298   4.815   0.171
 1806SOL     OW 6316   0.663   2.011   1.369
 1806SOL    HW1 6317   0.689   1.989   1.463
 1806SOL    HW2 6318   0.571   1.979   1.350
 1807SOL     OW 6319   6.060   2.970   2.737
 1807SOL    HW1 6320   6.128   2.969   2.810
 1807SOL    HW2 6321   6.095   2.921   2.658
 1808SOL     OW 6322   5.578   0.793   6.267
 1808SOL    HW1 6323   5.630   0.807   6.351
 1808SOL    HW2 6324   5.480   0.801   6.287
 1809SOL     OW 6325   5.131   0.373   5.510
 1809SOL    HW1 6326   5.084   0.387   5.597
 1809SOL    HW2 6327   5.130   0.275   5.488
 1810SOL     OW 6328   1.273   1.123   4.494
 1810SOL    HW1 6329   1.196   1.126   4.430
 1810SOL    HW2 6330   1.338   1.053   4.464
 1811SOL     OW 6331   3.007   5.830   2.394
 1811SOL    HW1 6332   3.048   5.920   2.382
 1811SOL    HW2 6333   3.055   5.782   2.468
 1812SOL     OW 6334   4.059   0.220   6.374
 1812SOL    HW1 6335   3.980   0.159   6.370
 1812SOL    HW2 6336   4.029   0.315   6.369
 1813SOL     OW 6337   5.026   3.681   1.676
 1813SOL    HW1 6338   4.962   3.670   1.752
 1813SOL    HW2 6339   5.115   3.640   1.701
 1814SOL     OW 6340   6.668   5.740   0.937
 1814SOL    HW1 6341   6.679   5.840   0.935
 1814SOL    HW2 6342   6.579   5.717   0.974
 1815SOL     OW 6343   6.284   5.245   1.063
 1815SOL    HW1 6344   6.261   5.277   1.155
 1815SOL    HW2 6345   6.374   5.280   1.038
 1816SOL     OW 6346   4.304   5.134   4.493
 1816SOL    HW1 6347   4.207   5.123   4.475
 1816SOL    HW2 6348   4.333   5.226   4.469
 1817SOL     OW 6349   6.615   2.934   3.505
 1817SOL    HW1 6350   6.702   2.960   3.461
 1817SOL    HW2 6351   6.539   2.964   3.447
 1818SOL     OW 6352   2.019   1.420   0.561
 1818SOL    HW1 6353   1.947   1.367   0.604
 1818SOL    HW2 6354   2.085   1.358   0.518
 1819SOL     OW 6355   0.844   4.330   1.759
 1819SOL    HW1 6356   0.879   4.418   1.793
 1819SOL    HW2 6357   0.763   4.304   1.811
 1820SOL     OW 6358   4.180   0.400   5.222
 1820SOL    HW1 6359   4.258   0.451   5.258
 1820SOL    HW2 6360   4.116   0.464   5.179
 1821SOL     OW 6361   3.985   1.616   2.563
 1821SOL    HW1 6362   4.078   1.610   2.527
 1821SOL    HW2 6363   3.943   1.526   2.563
 1822SOL     OW 6364   1.641   3.989   4.275
 1822SOL    HW1 6365   1.674   4.042   4.197
 1822SOL    HW2 6366   1.551   3.952   4.254
 1823SOL     OW 6367   4.039   6.945   3.298
 1823SOL    HW1 6368   4.080   6.863   3.339
 1823SOL    HW2 6369   3.945   6.954   3.331
 1824SOL     OW 6370   4.382   3.162   1.713
 1824SOL    HW1 6371   4.407   3.239   1.655
 1824SOL    HW2 6372   4.459   3.137   1.771
 1825SOL     OW 6373   0.943   3.805   0.150
 1825SOL    HW1 6374   0.888   3.767   0.075
 1825SOL    HW2 6375   0.986   3.730   0.201
 1826SOL     OW 6376   3.611   2.801   0.407
 1826SOL    HW1 6377   3.700   2.758   0.416
 1826SOL    HW2 6378   3.545   2.734   0.371
 1827SOL     OW 6379   4.988   4.711   0.277
 1827SOL    HW1 6380   4.976   4.809   0.263
 1827SOL    HW2 6381   5.079   4.683   0.247
 1828SOL     OW 6382   2.365   4.779   4.795
 1828SOL    HW1 6383   2.322   4.833   4.723
 1828SOL    HW2 6384   2.309   4.698   4.814
 1829SOL     OW 6385   2.393   6.232   1.792
 1829SOL    HW1 6386   2.451   6.248   1.712
 1829SOL    HW2 6387   2.352   6.141   1.785
 1830SOL     OW 6388   4.473   1.366   6.139
 1830SOL    HW1 6389   4.476   1.416   6.226
 1830SOL    HW2 6390   4.527   1.282   6.147
 1831SOL     OW 6391   3.602   4.588   0.449
 1831SOL    HW1 6392   3.546   4.549   0.376
 1831SOL    HW2 6393   3.602   4.688   0.442
 1832SOL     OW 6394   1.793   3.585   5.430
 1832SOL    HW1 6395   1.801   3.519   5.504
 1832SOL    HW2 6396   1.865   3.654   5.439
 1833SOL     OW 6397   5.855   0.593   6.965
 1833SOL    HW1 6398   5.905   0.513   6.999
 1833SOL    HW2 6399   5.850   0.662   0.017
 1834SOL     OW 6400   1.394   3.776   6.706
 1834SOL    HW1 6401   1.440   3.843   6.764
 1834SOL    HW2 6402   1.301   3.761   6.739
 1835SOL     OW 6403   6.668   6.615   1.023
 1835SOL    HW1 6404   6.599   6.597   1.093
 1835SOL    HW2 6405   6.756   6.580   1.054
 1836SOL     OW 6406   5.735   1.763   2.844
 1836SOL    HW1 6407   5.768   1.726   2.757
 1836SOL    HW2 6408   5.653   1.817   2.829
 1837SOL     OW 6409   1.880   2.253   6.887
 1837SOL    HW1 6410   1.889   2.353   6.897
 1837SOL    HW2 6411   1.947   2.208   6.945
 1838SOL     OW 6412   4.435   0.376   0.919
 1838SOL    HW1 6413   4.371   0.401   0.991
 1838SOL    HW2 6414   4.528   0.404   0.946
 1839SOL     OW 6415   6.889   0.810   6.612
 1839SOL    HW1 6416   6.818   0.871   6.577
 1839SOL    HW2 6417   6.947   0.860   6.676
 1840SOL     OW 6418   4.135   0.080   4.858
 1840SOL    HW1 6419   4.078   0.019   4.803
 1840SOL    HW2 6420   4.091   0.170   4.865
 1841SOL     OW 6421   1.870   0.825   1.414
 1841SOL    HW1 6422   1.955   0.845   1.366
 1841SOL    HW2 6423   1.803   0.896   1.394
 1842SOL     OW 6424   6.817   5.221   1.445
 1842SOL    HW1 6425   6.917   5.217   1.455
 1842SOL    HW2 6426   6.783   5.303   1.490
 1843SOL     OW 6427   2.816   1.386   6.614
 1843SOL    HW1 6428   2.723   1.356   6.594
 1843SOL    HW2 6429   2.814   1.452   6.690
 1844SOL     OW 6430   5.368   2.816   7.007
 1844SOL    HW1 6431   5.350   2.774   6.918
 1844SOL    HW2 6432   5.286   2.811   0.043
 1845SOL     OW 6433   0.925   2.438   4.269
 1845SOL    HW1 6434   0.939   2.390   4.183
 1845SOL    HW2 6435   1.002   2.500   4.286
 1846SOL     OW 6436   3.300   1.042   1.591
 1846SOL    HW1 6437   3.398   1.028   1.585
 1846SOL    HW2 6438   3.265   1.076   1.504
 1847SOL     OW 6439   2.276   6.079   6.575
 1847SOL    HW1 6440   2.269   6.067   6.476
 1847SOL    HW2 6441   2.185   6.073   6.616
 1848SOL     OW 6442   4.139   6.261   3.263
 1848SOL    HW1 6443   4.078   6.311   3.201
 1848SOL    HW2 6444   4.234   6.275   3.235
 1849SOL     OW 6445   4.876   3.029   2.865
 1849SOL    HW1 6446   4.910   2.952   2.918
 1849SOL    HW2 6447   4.891   3.012   2.768
 1850SOL     OW 6448   4.278   1.632   0.697
 1850SOL    HW1 6449   4.193   1.674   0.730
 1850SOL    HW2 6450   4.263   1.597   0.604
 1851SOL     OW 6451   0.471   4.958   4.221
 1851SOL    HW1 6452   0.374   4.981   4.235
 1851SOL    HW2 6453   0.528   5.017   4.277
 1852SOL     OW 6454   0.178   6.367   3.734
 1852SOL    HW1 6455   0.199   6.403   3.825
 1852SOL    HW2 6456   0.183   6.441   3.667
 1853SOL     OW 6457   0.991   1.624   5.989
 1853SOL    HW1 6458   1.052   1.698   6.016
 1853SOL    HW2 6459   1.042   1.556   5.936
 1854SOL     OW 6460   0.253   0.200   4.113
 1854SOL    HW1 6461   0.257   0.300   4.118
 1854SOL    HW2 6462   0.338   0.165   4.073
 1855SOL     OW 6463   6.466   2.138   4.993
 1855SOL    HW1 6464   6.378   2.107   4.956
 1855SOL    HW2 6465   6.502   2.211   4.934
 1856SOL     OW 6466   5.095   4.002   0.080
 1856SOL    HW1 6467   5.140   4.079   0.125
 1856SOL    HW2 6468   5.017   3.973   0.136
 1857SOL     OW 6469   4.061   1.216   6.511
 1857SOL    HW1 6470   4.095   1.310   6.517
 1857SOL    HW2 6471   4.083   1.178   6.421
 1858SOL     OW 6472   5.384   1.941   5.012
 1858SOL    HW1 6473   5.319   1.896   4.951
 1858SOL    HW2 6474   5.469   1.889   5.014
 1859SOL     OW 6475   6.550   6.742   2.839
 1859SOL    HW1 6476   6.511   6.799   2.767
 1859SOL    HW2 6477   6.567   6.798   2.920
 1860SOL     OW 6478   2.663   1.140   6.092
 1860SOL    HW1 6479   2.658   1.210   6.163
 1860SOL    HW2 6480   2.754   1.099   6.091
 1861SOL     OW 6481   6.282   6.447   5.190
 1861SOL    HW1 6482   6.182   6.454   5.189
 1861SOL    HW2 6483   6.311   6.369   5.135
 1862SOL     OW 6484   2.941   5.913   6.148
 1862SOL    HW1 6485   2.920   5.827   6.102
 1862SOL    HW2 6486   2.995   5.971   6.086
 1863SOL     OW 6487   0.033   2.009   1.656
 1863SOL    HW1 6488   0.085   1.970   1.732
 1863SOL    HW2 6489   0.095   2.056   1.593
 1864SOL     OW 6490   2.074   6.239   1.668
 1864SOL    HW1 6491   2.060   6.266   1.763
 1864SOL    HW2 6492   2.090   6.321   1.613
 1865SOL     OW 6493   6.238   2.443   5.945
 1865SOL    HW1 6494   6.329   2.402   5.961
 1865SOL    HW2 6495   6.234   2.479   5.852
 1866SOL     OW 6496   6.986   4.401   4.097
 1866SOL    HW1 6497   6.989   4.479   4.035
 1866SOL    HW2 6498   6.891   4.372   4.109
 1867SOL     OW 6499   1.268   1.427   1.969
 1867SOL    HW1 6500   1.237   1.357   1.903
 1867SOL    HW2 6501   1.342   1.389   2.024
 1868SOL     OW 6502   5.186   4.105   6.272
 1868SOL    HW1 6503   5.276   4.144   6.254
 1868SOL    HW2 6504   5.150   4.142   6.357
 1869SOL     OW 6505   5.254   0.718   5.630
 1869SOL    HW1 6506   5.183   0.679   5.571
 1869SOL    HW2 6507   5.245   0.817   5.633
 1870SOL     OW 6508   6.033   0.387   6.335
 1870SOL    HW1 6509   5.958   0.451   6.319
 1870SOL    HW2 6510   6.065   0.351   6.247
 1871SOL     OW 6511   0.771   5.776   6.565
 1871SOL    HW1 6512   0.702   5.825   6.512
 1871SOL    HW2 6513   0.776   5.681   6.533
 1872SOL     OW 6514   2.530   3.219   1.170
 1872SOL    HW1 6515   2.462   3.252   1.235
 1872SOL    HW2 6516   2.518   3.266   1.083
 1873SOL     OW 6517   5.906   1.305   1.846
 1873SOL    HW1 6518   5.953   1.389   1.873
 1873SOL    HW2 6519   5.888   1.249   1.926
 1874SOL     OW 6520   1.341   6.330   6.246
 1874SOL    HW1 6521   1.260   6.316   6.189
 1874SOL    HW2 6522   1.316   6.380   6.329
 1875SOL     OW 6523   0.581   6.202   2.386
 1875SOL    HW1 6524   0.498   6.239   2.346
 1875SOL    HW2 6525   0.648   6.275   2.398
 1876SOL     OW 6526   0.836   4.561   0.783
 1876SOL    HW1 6527   0.798   4.497   0.716
 1876SOL    HW2 6528   0.930   4.585   0.757
 1877SOL     OW 6529   1.516   1.041   3.018
 1877SOL    HW1 6530   1.451   1.056   2.944
 1877SOL    HW2 6531   1.488   1.094   3.098
 1878SOL     OW 6532   5.310   4.040   4.120
 1878SOL    HW1 6533   5.325   3.953   4.165
 1878SOL    HW2 6534   5.396   4.091   4.115
 1879SOL     OW 6535   4.218   6.507   4.971
 1879SOL    HW1 6536   4.218   6.601   4.937
 1879SOL    HW2 6537   4.298   6.459   4.935
 1880SOL     OW 6538   1.226   2.444   4.610
 1880SOL    HW1 6539   1.246   2.541   4.598
 1880SOL    HW2 6540   1.225   2.398   4.521
 1881SOL     OW 6541   1.940   1.470   3.829
 1881SOL    HW1 6542   1.992   1.388   3.852
 1881SOL    HW2 6543   1.987   1.551   3.865
 1882SOL     OW 6544   2.834   5.604   0.786
 1882SOL    HW1 6545   2.869   5.510   0.791
 1882SOL    HW2 6546   2.784   5.616   0.700
 1883SOL     OW 6547   1.973   2.801   2.771
 1883SOL    HW1 6548   1.935   2.893   2.763
 1883SOL    HW2 6549   2.061   2.796   2.724
 1884SOL     OW 6550   4.759   0.418   0.453
 1884SOL    HW1 6551   4.737   0.322   0.436
 1884SOL    HW2 6552   4.858   0.432   0.442
 1885SOL     OW 6553   6.972   1.278   0.541
 1885SOL    HW1 6554   6.902   1.223   0.585
 1885SOL    HW2 6555   0.036   1.276   0.595
 1886SOL     OW 6556   3.803   2.858   5.761
 1886SOL    HW1 6557   3.854   2.794   5.702
 1886SOL    HW2 6558   3.850   2.946   5.762
 1887SOL     OW 6559   0.796   5.939   4.924
 1887SOL    HW1 6560   0.780   5.981   4.834
 1887SOL    HW2 6561   0.777   5.841   4.918
 1888SOL     OW 6562   1.715   1.582   5.927
 1888SOL    HW1 6563   1.669   1.670   5.937
 1888SOL    HW2 6564   1.773   1.565   6.007
 1889SOL     OW 6565   3.631   2.712   0.008
 1889SOL    HW1 6566   3.585   2.774   0.072
 1889SOL    HW2 6567   3.564   2.649   6.989
 1890SOL     OW 6568   6.219   5.814   6.570
 1890SOL    HW1 6569   6.255   5.771   6.653
 1890SOL    HW2 6570   6.148   5.755   6.530
 1891SOL     OW 6571   5.434   3.437   0.278
 1891SOL    HW1 6572   5.369   3.385   0.333
 1891SOL    HW2 6573   5.385   3.511   0.230
 1892SOL     OW 6574   4.317   0.358   3.480
 1892SOL    HW1 6575   4.298   0.456   3.487
 1892SOL    HW2 6576   4.289   0.325   3.390
 1893SOL     OW 6577   2.831   0.970   6.408
 1893SOL    HW1 6578   2.828   0.919   6.322
 1893SOL    HW2 6579   2.859   1.065   6.389
 1894SOL     OW 6580   4.883   3.072   0.588
 1894SOL    HW1 6581   4.848   2.995   0.534
 1894SOL    HW2 6582   4.949   3.124   0.534
 1895SOL     OW 6583   4.831   5.608   3.132
 1895SOL    HW1 6584   4.875   5.519   3.124
 1895SOL    HW2 6585   4.781   5.612   3.219
 1896SOL     OW 6586   6.539   2.193   5.266
 1896SOL    HW1 6587   6.509   2.222   5.176
 1896SOL    HW2 6588   6.630   2.151   5.259
 1897SOL     OW 6589   5.204   4.882   3.021
 1897SOL    HW1 6590   5.258   4.963   2.998
 1897SOL    HW2 6591   5.260   4.819   3.077
 1898SOL     OW 6592   5.515   6.401   0.157
 1898SOL    HW1 6593   5.571   6.402   0.240
 1898SOL    HW2 6594   5.449   6.475   0.160
 1899SOL     OW 6595   2.098   3.115   3.373
 1899SOL    HW1 6596   2.014   3.167   3.389
 1899SOL    HW2 6597   2.154   3.161   3.304
 1900SOL     OW 6598   2.147   5.738   1.849
 1900SOL    HW1 6599   2.078   5.755   1.920
 1900SOL    HW2 6600   2.108   5.758   1.759
 1901SOL     OW 6601   1.604   0.655   5.303
 1901SOL    HW1 6602   1.676   0.605   5.255
 1901SOL    HW2 6603   1.634   0.749   5.319
 1902SOL     OW 6604   0.989   3.014   3.939
 1902SOL    HW1 6605   0.922   2.947   3.906
 1902SOL    HW2 6606   1.073   3.006   3.884
 1903SOL     OW 6607   6.638   4.902   3.805
 1903SOL    HW1 6608   6.631   5.000   3.824
 1903SOL    HW2 6609   6.701   4.888   3.728
 1904SOL     OW 6610   0.566   0.253   4.382
 1904SOL    HW1 6611   0.651   0.211   4.413
 1904SOL    HW2 6612   0.507   0.183   4.342
 1905SOL     OW 6613   6.659   2.992   4.917
 1905SOL    HW1 6614   6.601   2.956   4.844
 1905SOL    HW2 6615   6.603   3.041   4.983
 1906SOL     OW 6616   2.353   6.609   5.401
 1906SOL    HW1 6617   2.405   6.615   5.486
 1906SOL    HW2 6618   2.291   6.530   5.405
 1907SOL     OW 6619   4.321   6.969   3.581
 1907SOL    HW1 6620   4.351   6.933   3.669
 1907SOL    HW2 6621   4.247   6.911   3.545
 1908SOL     OW 6622   4.675   5.861   0.932
 1908SOL    HW1 6623   4.677   5.905   0.842
 1908SOL    HW2 6624   4.765   5.821   0.951
 1909SOL     OW 6625   4.973   5.401   3.512
 1909SOL    HW1 6626   4.937   5.380   3.603
 1909SOL    HW2 6627   5.004   5.317   3.468
 1910SOL     OW 6628   4.861   3.210   4.475
 1910SOL    HW1 6629   4.837   3.169   4.562
 1910SOL    HW2 6630   4.856   3.141   4.403
 1911SOL     OW 6631   0.705   3.028   5.789
 1911SOL    HW1 6632   0.655   3.057   5.871
 1911SOL    HW2 6633   0.711   3.104   5.725
 1912SOL     OW 6634   3.544   6.126   3.291
 1912SOL    HW1 6635   3.622   6.183   3.319
 1912SOL    HW2 6636   3.483   6.178   3.233
 1913SOL     OW 6637   2.172   4.318   5.494
 1913SOL    HW1 6638   2.213   4.263   5.421
 1913SOL    HW2 6639   2.244   4.351   5.555
 1914SOL     OW 6640   4.103   1.532   4.896
 1914SOL    HW1 6641   4.089   1.473   4.817
 1914SOL    HW2 6642   4.045   1.613   4.889
 1915SOL     OW 6643   3.277   0.005   5.648
 1915SOL    HW1 6644   3.311   0.063   5.721
 1915SOL    HW2 6645   3.339   0.009   5.570
 1916SOL     OW 6646   3.507   6.244   2.510
 1916SOL    HW1 6647   3.419   6.287   2.529
 1916SOL    HW2 6648   3.495   6.145   2.500
 1917SOL     OW 6649   3.150   3.651   4.021
 1917SOL    HW1 6650   3.080   3.721   4.027
 1917SOL    HW2 6651   3.219   3.667   4.092
 1918SOL     OW 6652   6.855   6.391   5.410
 1918SOL    HW1 6653   6.950   6.376   5.437
 1918SOL    HW2 6654   6.801   6.309   5.432
 1919SOL     OW 6655   6.546   0.821   2.533
 1919SOL    HW1 6656   6.501   0.779   2.612
 1919SOL    HW2 6657   6.479   0.835   2.460
 1920SOL     OW 6658   6.610   6.388   4.672
 1920SOL    HW1 6659   6.526   6.434   4.700
 1920SOL    HW2 6660   6.651   6.437   4.595
 1921SOL     OW 6661   2.232   6.731   6.675
 1921SOL    HW1 6662   2.249   6.637   6.645
 1921SOL    HW2 6663   2.319   6.778   6.688
 1922SOL     OW 6664   3.602   4.224   0.778
 1922SOL    HW1 6665   3.561   4.189   0.862
 1922SOL    HW2 6666   3.545   4.298   0.742
 1923SOL     OW 6667   1.551   2.892   0.635
 1923SOL    HW1 6668   1.646   2.879   0.608
 1923SOL    HW2 6669   1.544   2.889   0.734
 1924SOL     OW 6670   0.662   3.810   0.800
 1924SOL    HW1 6671   0.744   3.775   0.844
 1924SOL    HW2 6672   0.645   3.904   0.832
 1925SOL     OW 6673   2.910   4.477   0.154
 1925SOL    HW1 6674   2.915   4.493   0.253
 1925SOL    HW2 6675   2.829   4.522   0.117
 1926SOL     OW 6676   0.504   0.340   3.649
 1926SOL    HW1 6677   0.564   0.411   3.611
 1926SOL    HW2 6678   0.501   0.348   3.749
 1927SOL     OW 6679   4.843   3.404   1.232
 1927SOL    HW1 6680   4.803   3.358   1.311
 1927SOL    HW2 6681   4.933   3.440   1.257
 1928SOL     OW 6682   0.201   5.530   4.594
 1928SOL    HW1 6683   0.120   5.494   4.550
 1928SOL    HW2 6684   0.182   5.546   4.691
 1929SOL     OW 6685   1.716   5.924   2.877
 1929SOL    HW1 6686   1.716   6.024   2.877
 1929SOL    HW2 6687   1.625   5.890   2.855
 1930SOL     OW 6688   6.832   5.383   6.442
 1930SOL    HW1 6689   6.815   5.324   6.522
 1930SOL    HW2 6690   6.797   5.339   6.360
 1931SOL     OW 6691   0.976   1.918   4.373
 1931SOL    HW1 6692   0.991   1.876   4.463
 1931SOL    HW2 6693   0.976   2.018   4.384
 1932SOL     OW 6694   5.972   3.270   2.879
 1932SOL    HW1 6695   5.952   3.184   2.926
 1932SOL    HW2 6696   5.887   3.317   2.857
 1933SOL     OW 6697   2.731   5.001   0.473
 1933SOL    HW1 6698   2.632   4.998   0.491
 1933SOL    HW2 6699   2.749   4.961   0.383
 1934SOL     OW 6700   6.762   6.165   3.009
 1934SOL    HW1 6701   6.749   6.078   3.056
 1934SOL    HW2 6702   6.794   6.148   2.916
 1935SOL     OW 6703   2.044   1.513   3.131
 1935SOL    HW1 6704   2.093   1.598   3.152
 1935SOL    HW2 6705   1.958   1.511   3.182
 1936SOL     OW 6706   6.478   6.068   5.401
 1936SOL    HW1 6707   6.535   6.081   5.320
 1936SOL    HW2 6708   6.393   6.120   5.392
 1937SOL     OW 6709   4.367   1.183   3.031
 1937SOL    HW1 6710   4.389   1.189   3.129
 1937SOL    HW2 6711   4.268   1.184   3.020
 1938SOL     OW 6712   5.541   0.995   4.655
 1938SOL    HW1 6713   5.620   1.026   4.707
 1938SOL    HW2 6714   5.457   1.020   4.704
 1939SOL     OW 6715   3.195   0.732   4.525
 1939SOL    HW1 6716   3.217   0.718   4.622
 1939SOL    HW2 6717   3.229   0.654   4.472
 1940SOL     OW 6718   6.301   5.624   6.166
 1940SOL    HW1 6719   6.386   5.642   6.215
 1940SOL    HW2 6720   6.287   5.695   6.097
 1941SOL     OW 6721   4.673   4.933   2.706
 1941SOL    HW1 6722   4.723   4.966   2.626
 1941SOL    HW2 6723   4.727   4.950   2.788
 1942SOL     OW 6724   0.181   3.871   3.185
 1942SOL    HW1 6725   0.215   3.818   3.263
 1942SOL    HW2 6726   0.253   3.881   3.117
 1943SOL     OW 6727   2.883   5.698   3.405
 1943SOL    HW1 6728   2.920   5.619   3.454
 1943SOL    HW2 6729   2.867   5.773   3.469
 1944SOL     OW 6730   0.290   6.796   2.220
 1944SOL    HW1 6731   0.347   6.795   2.137
 1944SOL    HW2 6732   0.303   6.712   2.271
 1945SOL     OW 6733   3.560   4.919   3.255
 1945SOL    HW1 6734   3.604   5.004   3.228
 1945SOL    HW2 6735   3.506   4.883   3.178
 1946SOL     OW 6736   1.445   6.776   6.889
 1946SOL    HW1 6737   1.437   6.772   6.989
 1946SOL    HW2 6738   1.405   6.862   6.857
 1947SOL     OW 6739   4.979   6.802   3.752
 1947SOL    HW1 6740   4.965   6.883   3.695
 1947SOL    HW2 6741   5.051   6.821   3.819
 1948SOL     OW 6742   6.345   3.868   4.889
 1948SOL    HW1 6743   6.392   3.850   4.975
 1948SOL    HW2 6744   6.348   3.966   4.869
 1949SOL     OW 6745   4.707   4.447   6.808
 1949SOL    HW1 6746   4.755   4.438   6.720
 1949SOL    HW2 6747   4.660   4.361   6.828
 1950SOL     OW 6748   3.487   5.037   1.082
 1950SOL    HW1 6749   3.551   4.963   1.102
 1950SOL    HW2 6750   3.536   5.124   1.079
 1951SOL     OW 6751   6.663   2.896   0.735
 1951SOL    HW1 6752   6.640   2.931   0.644
 1951SOL    HW2 6753   6.584   2.905   0.796
 1952SOL     OW 6754   3.579   2.854   4.954
 1952SOL    HW1 6755   3.485   2.840   4.924
 1952SOL    HW2 6756   3.640   2.792   4.905
 1953SOL     OW 6757   0.512   2.834   4.868
 1953SOL    HW1 6758   0.513   2.787   4.779
 1953SOL    HW2 6759   0.544   2.771   4.939
 1954SOL     OW 6760   2.788   1.808   3.543
 1954SOL    HW1 6761   2.849   1.745   3.495
 1954SOL    HW2 6762   2.769   1.887   3.485
 1955SOL     OW 6763   6.034   5.439   1.870
 1955SOL    HW1 6764   6.022   5.450   1.969
 1955SOL    HW2 6765   6.069   5.347   1.851
 1956SOL     OW 6766   5.462   5.634   2.469
 1956SOL    HW1 6767   5.504   5.718   2.435
 1956SOL    HW2 6768   5.433   5.647   2.564
 1957SOL     OW 6769   1.666   6.571   4.549
 1957SOL    HW1 6770   1.651   6.526   4.461
 1957SOL    HW2 6771   1.647   6.669   4.540
 1958SOL     OW 6772   4.327   3.165   5.864
 1958SOL    HW1 6773   4.310   3.118   5.950
 1958SOL    HW2 6774   4.349   3.261   5.882
 1959SOL     OW 6775   1.946   1.157   0.398
 1959SOL    HW1 6776   1.848   1.176   0.386
 1959SOL    HW2 6777   1.990   1.148   0.309
 1960SOL     OW 6778   5.934   5.798   2.291
 1960SOL    HW1 6779   5.891   5.888   2.292
 1960SOL    HW2 6780   5.930   5.759   2.383
 1961SOL     OW 6781   6.094   4.949   5.000
 1961SOL    HW1 6782   6.157   4.877   4.971
 1961SOL    HW2 6783   6.144   5.035   5.012
 1962SOL     OW 6784   6.790   6.857   3.975
 1962SOL    HW1 6785   6.729   6.927   3.937
 1962SOL    HW2 6786   6.866   6.901   4.023
 1963SOL     OW 6787   2.750   0.570   3.461
 1963SOL    HW1 6788   2.734   0.663   3.493
 1963SOL    HW2 6789   2.798   0.573   3.373
 1964SOL     OW 6790   6.021   3.386   2.218
 1964SOL    HW1 6791   5.990   3.457   2.281
 1964SOL    HW2 6792   6.049   3.305   2.270
 1965SOL     OW 6793   2.185   5.968   3.633
 1965SOL    HW1 6794   2.228   6.035   3.573
 1965SOL    HW2 6795   2.209   5.876   3.603
 1966SOL     OW 6796   6.243   6.857   6.970
 1966SOL    HW1 6797   6.279   6.919   0.020
 1966SOL    HW2 6798   6.163   6.897   6.928
 1967SOL     OW 6799   5.060   3.916   4.980
 1967SOL    HW1 6800   5.098   4.006   4.959
 1967SOL    HW2 6801   5.017   3.878   4.898
 1968SOL     OW 6802   3.915   5.135   4.830
 1968SOL    HW1 6803   3.885   5.081   4.751
 1968SOL    HW2 6804   3.854   5.117   4.907
 1969SOL     OW 6805   6.703   1.619   1.803
 1969SOL    HW1 6806   6.791   1.571   1.799
 1969SOL    HW2 6807   6.637   1.562   1.852
 1970SOL     OW 6808   1.827   0.534   3.584
 1970SOL    HW1 6809   1.856   0.456   3.639
 1970SOL    HW2 6810   1.740   0.513   3.538
 1971SOL     OW 6811   0.493   1.264   5.982
 1971SOL    HW1 6812   0.503   1.362   5.999
 1971SOL    HW2 6813   0.423   1.249   5.912
 1972SOL     OW 6814   1.624   0.514   3.342
 1972SOL    HW1 6815   1.687   0.525   3.265
 1972SOL    HW2 6816   1.542   0.466   3.310
 1973SOL     OW 6817   2.570   3.572   0.333
 1973SOL    HW1 6818   2.536   3.654   0.287
 1973SOL    HW2 6819   2.501   3.499   0.325
 1974SOL     OW 6820   6.014   0.084   4.457
 1974SOL    HW1 6821   5.951   0.113   4.385
 1974SOL    HW2 6822   6.074   0.159   4.482
 1975SOL     OW 6823   2.882   0.274   3.919
 1975SOL    HW1 6824   2.973   0.272   3.959
 1975SOL    HW2 6825   2.888   0.309   3.825
 1976SOL     OW 6826   6.609   4.056   6.558
 1976SOL    HW1 6827   6.575   3.991   6.490
 1976SOL    HW2 6828   6.696   4.023   6.595
 1977SOL     OW 6829   3.007   2.148   5.780
 1977SOL    HW1 6830   2.961   2.225   5.825
 1977SOL    HW2 6831   3.062   2.181   5.704
 1978SOL     OW 6832   6.779   2.255   5.789
 1978SOL    HW1 6833   6.793   2.221   5.882
 1978SOL    HW2 6834   6.793   2.181   5.723
 1979SOL     OW 6835   6.343   4.231   2.491
 1979SOL    HW1 6836   6.391   4.315   2.466
 1979SOL    HW2 6837   6.256   4.227   2.442
 1980SOL     OW 6838   2.873   0.836   1.806
 1980SOL    HW1 6839   2.836   0.908   1.865
 1980SOL    HW2 6840   2.798   0.777   1.776
 1981SOL     OW 6841   5.027   3.602   1.944
 1981SOL    HW1 6842   5.018   3.521   2.003
 1981SOL    HW2 6843   4.982   3.680   1.986
 1982SOL     OW 6844   6.689   6.543   5.241
 1982SOL    HW1 6845   6.732   6.467   5.289
 1982SOL    HW2 6846   6.599   6.560   5.280
 1983SOL     OW 6847   0.289   4.503   2.224
 1983SOL    HW1 6848   0.234   4.452   2.291
 1983SOL    HW2 6849   0.320   4.589   2.265
 1984SOL     OW 6850   4.571   0.576   4.950
 1984SOL    HW1 6851   4.650   0.630   4.977
 1984SOL    HW2 6852   4.545   0.600   4.856
 1985SOL     OW 6853   1.622   6.281   1.157
 1985SOL    HW1 6854   1.667   6.192   1.164
 1985SOL    HW2 6855   1.610   6.320   1.248
 1986SOL     OW 6856   0.043   2.109   6.902
 1986SOL    HW1 6857   6.971   2.123   6.940
 1986SOL    HW2 6858   0.088   2.197   6.889
 1987SOL     OW 6859   2.650   4.574   0.109
 1987SOL    HW1 6860   2.628   4.637   0.183
 1987SOL    HW2 6861   2.575   4.508   0.098
 1988SOL     OW 6862   4.643   3.534   0.398
 1988SOL    HW1 6863   4.590   3.579   0.470
 1988SOL    HW2 6864   4.640   3.435   0.413
 1989SOL     OW 6865   2.033   2.073   4.258
 1989SOL    HW1 6866   1.935   2.091   4.252
 1989SOL    HW2 6867   2.063   2.087   4.352
 1990SOL     OW 6868   1.568   0.614   2.903
 1990SOL    HW1 6869   1.563   0.571   2.813
 1990SOL    HW2 6870   1.651   0.670   2.908
 1991SOL     OW 6871   4.230   5.679   2.938
 1991SOL    HW1 6872   4.320   5.648   2.969
 1991SOL    HW2 6873   4.163   5.661   3.009
 1992SOL     OW 6874   2.823   6.078   4.946
 1992SOL    HW1 6875   2.844   5.980   4.946
 1992SOL    HW2 6876   2.838   6.115   5.038
 1993SOL     OW 6877   2.885   3.381   4.286
 1993SOL    HW1 6878   2.935   3.307   4.240
 1993SOL    HW2 6879   2.792   3.385   4.250
 1994SOL     OW 6880   6.035   2.186   1.851
 1994SOL    HW1 6881   6.112   2.121   1.848
 1994SOL    HW2 6882   5.964   2.156   1.787
 1995SOL     OW 6883   4.032   2.506   1.468
 1995SOL    HW1 6884   3.989   2.429   1.516
 1995SOL    HW2 6885   4.129   2.485   1.452
 1996SOL     OW 6886   2.885   4.295   5.315
 1996SOL    HW1 6887   2.925   4.222   5.260
 1996SOL    HW2 6888   2.890   4.381   5.265
 1997SOL     OW 6889   5.665   6.535   3.489
 1997SOL    HW1 6890   5.714   6.605   3.540
 1997SOL    HW2 6891   5.719   6.451   3.485
 1998SOL     OW 6892   3.074   5.134   4.786
 1998SOL    HW1 6893   3.151   5.095   4.734
 1998SOL    HW2 6894   3.081   5.106   4.881
 1999SOL     OW 6895   2.635   1.001   1.685
 1999SOL    HW1 6896   2.550   1.036   1.726
 1999SOL    HW2 6897   2.712   1.057   1.716
 2000SOL     OW 6898   3.394   1.422   5.106
 2000SOL    HW1 6899   3.304   1.465   5.095
 2000SOL    HW2 6900   3.408   1.354   5.034
 2001SOL     OW 6901   2.347   3.624   7.017
 2001SOL    HW1 6902   2.418   3.557   6.995
 2001SOL    HW2 6903   2.291   3.642   6.935
 2002SOL     OW 6904   1.196   5.313   4.870
 2002SOL    HW1 6905   1.100   5.335   4.886
 2002SOL    HW2 6906   1.205   5.217   4.845
 2003SOL     OW 6907   6.616   4.419   3.150
 2003SOL    HW1 6908   6.706   4.373   3.148
 2003SOL    HW2 6909   6.562   4.389   3.071
 2004SOL     OW 6910   2.906   0.007   6.604
 2004SOL    HW1 6911   2.981   6.970   6.571
 2004SOL    HW2 6912   2.871   6.990   6.690
 2005SOL     OW 6913   3.196   6.717   5.238
 2005SOL    HW1 6914   3.241   6.667   5.164
 2005SOL    HW2 6915   3.230   6.684   5.326
 2006SOL     OW 6916   5.158   6.819   3.238
 2006SOL    HW1 6917   5.117   6.768   3.314
 2006SOL    HW2 6918   5.225   6.761   3.192
 2007SOL     OW 6919   6.299   5.333   0.026
 2007SOL    HW1 6920   6.332   5.427   0.016
 2007SOL    HW2 6921   6.296   5.289   6.956
 2008SOL     OW 6922   0.035   6.315   4.900
 2008SOL    HW1 6923   6.963   6.303   4.937
 2008SOL    HW2 6924   0.080   6.227   4.892
 2009SOL     OW 6925   0.872   0.588   0.020
 2009SOL    HW1 6926   0.819   0.544   6.967
 2009SOL    HW2 6927   0.811   0.649   0.072
 2010SOL     OW 6928   1.408   0.698   1.222
 2010SOL    HW1 6929   1.498   0.655   1.213
 2010SOL    HW2 6930   1.376   0.728   1.132
 2011SOL     OW 6931   0.029   2.233   5.251
 2011SOL    HW1 6932   7.011   2.258   5.340
 2011SOL    HW2 6933   0.054   2.136   5.251
 2012SOL     OW 6934   6.784   3.486   1.008
 2012SOL    HW1 6935   6.874   3.485   0.966
 2012SOL    HW2 6936   6.731   3.407   0.977
 2013SOL     OW 6937   4.030   1.832   2.175
 2013SOL    HW1 6938   3.966   1.823   2.251
 2013SOL    HW2 6939   4.085   1.749   2.167
 2014SOL     OW 6940   3.045   5.932   3.562
 2014SOL    HW1 6941   2.966   5.972   3.609
 2014SOL    HW2 6942   3.096   6.003   3.514
 2015SOL     OW 6943   3.105   6.755   0.124
 2015SOL    HW1 6944   3.167   6.682   0.096
 2015SOL    HW2 6945   3.043   6.721   0.194
 2016SOL     OW 6946   6.455   5.743   4.072
 2016SOL    HW1 6947   6.510   5.712   3.995
 2016SOL    HW2 6948   6.382   5.803   4.039
 2017SOL     OW 6949   2.243   5.043   2.121
 2017SOL    HW1 6950   2.276   4.948   2.128
 2017SOL    HW2 6951   2.305   5.094   2.062
 2018SOL     OW 6952   0.506   4.072   6.067
 2018SOL    HW1 6953   0.428   4.068   6.129
 2018SOL    HW2 6954   0.480   4.036   5.977
 2019SOL     OW 6955   5.706   1.848   3.390
 2019SOL    HW1 6956   5.695   1.838   3.489
 2019SOL    HW2 6957   5.795   1.813   3.362
 2020SOL     OW 6958   1.873   5.535   3.153
 2020SOL    HW1 6959   1.850   5.591   3.073
 2020SOL    HW2 6960   1.879   5.594   3.234
 2021SOL     OW 6961   2.109   0.246   1.448
 2021SOL    HW1 6962   2.051   0.281   1.522
 2021SOL    HW2 6963   2.139   0.153   1.471
 2022SOL     OW 6964   2.536   4.690   0.865
 2022SOL    HW1 6965   2.487   4.742   0.936
 2022SOL    HW2 6966   2.555   4.598   0.899
 2023SOL     OW 6967   6.160   1.360   6.398
 2023SOL    HW1 6968   6.108   1.309   6.329
 2023SOL    HW2 6969   6.097   1.410   6.457
 2024SOL     OW 6970   6.247   0.348   2.676
 2024SOL    HW1 6971   6.301   0.283   2.728
 2024SOL    HW2 6972   6.309   0.414   2.631
 2025SOL     OW 6973   6.207   0.779   1.161
 2025SOL    HW1 6974   6.297   0.771   1.204
 2025SOL    HW2 6975   6.213   0.746   1.066
 2026SOL     OW 6976   1.624   1.758   5.179
 2026SOL    HW1 6977   1.658   1.842   5.221
 2026SOL    HW2 6978   1.614   1.771   5.080
 2027SOL     OW 6979   0.716   1.156   2.536
 2027SOL    HW1 6980   0.636   1.102   2.510
 2027SOL    HW2 6981   0.794   1.129   2.480
 2028SOL     OW 6982   3.763   4.048   5.895
 2028SOL    HW1 6983   3.817   3.970   5.864
 2028SOL    HW2 6984   3.779   4.126   5.835
 2029SOL     OW 6985   1.719   0.821   0.321
 2029SOL    HW1 6986   1.811   0.795   0.292
 2029SOL    HW2 6987   1.725   0.882   0.400
 2030SOL     OW 6988   1.872   2.846   3.267
 2030SOL    HW1 6989   1.966   2.850   3.301
 2030SOL    HW2 6990   1.824   2.929   3.295
 2031SOL     OW 6991   5.770   0.109   2.726
 2031SOL    HW1 6992   5.833   0.176   2.688
 2031SOL    HW2 6993   5.811   0.018   2.723
 2032SOL     OW 6994   4.762   5.954   1.627
 2032SOL    HW1 6995   4.748   5.860   1.594
 2032SOL    HW2 6996   4.768   6.016   1.548
 2033SOL     OW 6997   6.863   5.180   6.600
 2033SOL    HW1 6998   6.897   5.178   6.694
 2033SOL    HW2 6999   6.885   5.092   6.556
 2034SOL     OW 7000   2.332   6.737   3.616
 2034SOL    HW1 7001   2.278   6.709   3.537
 2034SOL    HW2 7002   2.359   6.655   3.668
 2035SOL     OW 7003   6.994   2.536   1.339
 2035SOL    HW1 7004   0.021   2.566   1.421
 2035SOL    HW2 7005   6.951   2.447   1.355
 2036SOL     OW 7006   0.406   4.226   0.675
 2036SOL    HW1 7007   0.333   4.210   0.609
 2036SOL    HW2 7008   0.459   4.307   0.647
 2037SOL     OW 7009   0.299   2.037   6.431
 2037SOL    HW1 7010   0.336   1.984   6.507
 2037SOL    HW2 7011   0.207   2.068   6.453
 2038SOL     OW 7012   1.212   0.122   4.965
 2038SOL    HW1 7013   1.242   0.209   5.003
 2038SOL    HW2 7014   1.193   0.058   5.039
 2039SOL     OW 7015   1.287   5.545   2.110
 2039SOL    HW1 7016   1.321   5.637   2.089
 2039SOL    HW2 7017   1.201   5.529   2.062
 2040SOL     OW 7018   3.928   3.966   4.487
 2040SOL    HW1 7019   3.865   3.890   4.505
 2040SOL    HW2 7020   3.956   4.007   4.573
 2041SOL     OW 7021   5.768   3.172   0.168
 2041SOL    HW1 7022   5.736   3.234   0.097
 2041SOL    HW2 7023   5.737   3.204   0.257
 2042SOL     OW 7024   3.279   5.920   0.353
 2042SOL    HW1 7025   3.258   5.824   0.370
 2042SOL    HW2 7026   3.243   5.946   0.263
 2043SOL     OW 7027   4.479   4.917   2.382
 2043SOL    HW1 7028   4.491   4.824   2.349
 2043SOL    HW2 7029   4.415   4.918   2.458
 2044SOL     OW 7030   6.412   0.801   1.920
 2044SOL    HW1 7031   6.482   0.796   1.992
 2044SOL    HW2 7032   6.355   0.719   1.923
 2045SOL     OW 7033   2.432   6.376   5.820
 2045SOL    HW1 7034   2.468   6.291   5.858
 2045SOL    HW2 7035   2.449   6.451   5.883
 2046SOL     OW 7036   6.271   0.149   4.802
 2046SOL    HW1 7037   6.200   0.219   4.798
 2046SOL    HW2 7038   6.334   0.169   4.877
 2047SOL     OW 7039   5.002   2.547   0.207
 2047SOL    HW1 7040   4.988   2.630   0.153
 2047SOL    HW2 7041   5.056   2.481   0.154
 2048SOL     OW 7042   4.558   6.466   5.343
 2048SOL    HW1 7043   4.621   6.400   5.301
 2048SOL    HW2 7044   4.468   6.424   5.353
 2049SOL     OW 7045   4.594   6.302   0.290
 2049SOL    HW1 7046   4.556   6.358   0.216
 2049SOL    HW2 7047   4.658   6.235   0.251
 2050SOL     OW 7048   5.429   0.901   3.786
 2050SOL    HW1 7049   5.339   0.872   3.820
 2050SOL    HW2 7050   5.440   1.000   3.800
 2051SOL     OW 7051   2.335   5.304   0.994
 2051SOL    HW1 7052   2.302   5.288   0.901
 2051SOL    HW2 7053   2.258   5.320   1.055
 2052SOL     OW 7054   1.548   2.910   0.914
 2052SOL    HW1 7055   1.510   3.002   0.901
 2052SOL    HW2 7056   1.608   2.910   0.994
 2053SOL     OW 7057   5.109   0.862   0.187
 2053SOL    HW1 7058   5.127   0.771   0.151
 2053SOL    HW2 7059   5.010   0.875   0.195
 2054SOL     OW 7060   6.970   3.541   1.634
 2054SOL    HW1 7061   6.888   3.505   1.590
 2054SOL    HW2 7062   6.961   3.639   1.646
 2055SOL     OW 7063   6.136   1.944   4.216
 2055SOL    HW1 7064   6.095   2.031   4.189
 2055SOL    HW2 7065   6.216   1.925   4.159
 2056SOL     OW 7066   0.864   0.283   1.873
 2056SOL    HW1 7067   0.841   0.231   1.791
 2056SOL    HW2 7068   0.821   0.241   1.952
 2057SOL     OW 7069   6.459   2.138   4.351
 2057SOL    HW1 7070   6.397   2.062   4.369
 2057SOL    HW2 7071   6.510   2.160   4.435
 2058SOL     OW 7072   0.764   1.514   1.912
 2058SOL    HW1 7073   0.667   1.492   1.922
 2058SOL    HW2 7074   0.774   1.603   1.867
 2059SOL     OW 7075   1.670   0.444   6.797
 2059SOL    HW1 7076   1.687   0.476   6.704
 2059SOL    HW2 7077   1.718   0.358   6.812
 2060SOL     OW 7078   0.304   5.693   2.053
 2060SOL    HW1 7079   0.364   5.670   1.976
 2060SOL    HW2 7080   0.327   5.785   2.086
 2061SOL     OW 7081   0.777   1.073   1.322
 2061SOL    HW1 7082   0.738   1.041   1.236
 2061SOL    HW2 7083   0.741   1.163   1.345
 2062SOL     OW 7084   4.078   0.429   4.005
 2062SOL    HW1 7085   4.095   0.436   4.104
 2062SOL    HW2 7086   4.152   0.475   3.956
 2063SOL     OW 7087   2.572   2.005   0.381
 2063SOL    HW1 7088   2.483   2.040   0.411
 2063SOL    HW2 7089   2.626   1.980   0.461
 2064SOL     OW 7090   0.789   2.009   0.244
 2064SOL    HW1 7091   0.868   1.948   0.236
 2064SOL    HW2 7092   0.741   1.991   0.329
 2065SOL     OW 7093   6.246   2.878   2.177
 2065SOL    HW1 7094   6.270   2.800   2.119
 2065SOL    HW2 7095   6.328   2.908   2.227
 2066SOL     OW 7096   1.650   6.792   2.861
 2066SOL    HW1 7097   1.733   6.847   2.862
 2066SOL    HW2 7098   1.570   6.852   2.863
 2067SOL     OW 7099   6.685   0.208   0.574
 2067SOL    HW1 7100   6.609   0.216   0.638
 2067SOL    HW2 7101   6.769   0.243   0.616
 2068SOL     OW 7102   2.105   1.341   4.904
 2068SOL    HW1 7103   2.120   1.425   4.853
 2068SOL    HW2 7104   2.169   1.271   4.872
 2069SOL     OW 7105   0.744   1.783   1.848
 2069SOL    HW1 7106   0.758   1.802   1.751
 2069SOL    HW2 7107   0.755   1.868   1.900
 2070SOL     OW 7108   1.005   0.930   2.856
 2070SOL    HW1 7109   1.004   0.903   2.760
 2070SOL    HW2 7110   1.083   0.991   2.873
 2071SOL     OW 7111   1.924   6.182   5.046
 2071SOL    HW1 7112   1.995   6.122   5.009
 2071SOL    HW2 7113   1.840   6.131   5.062
 2072SOL     OW 7114   4.806   4.622   2.122
 2072SOL    HW1 7115   4.710   4.625   2.096
 2072SOL    HW2 7116   4.826   4.534   2.164
 2073SOL     OW 7117   3.766   6.052   5.287
 2073SOL    HW1 7118   3.811   6.136   5.258
 2073SOL    HW2 7119   3.794   6.030   5.381
 2074SOL     OW 7120   6.259   2.076   2.335
 2074SOL    HW1 7121   6.358   2.089   2.343
 2074SOL    HW2 7122   6.222   2.144   2.272
 2075SOL     OW 7123   3.969   3.581   6.388
 2075SOL    HW1 7124   3.974   3.550   6.483
 2075SOL    HW2 7125   3.912   3.663   6.383
 2076SOL     OW 7126   4.769   0.159   1.283
 2076SOL    HW1 7127   4.839   0.089   1.269
 2076SOL    HW2 7128   4.682   0.114   1.303
 2077SOL     OW 7129   5.207   1.325   3.461
 2077SOL    HW1 7130   5.227   1.247   3.520
 2077SOL    HW2 7131   5.260   1.404   3.491
 2078SOL     OW 7132   4.106   5.753   4.974
 2078SOL    HW1 7133   4.096   5.702   4.889
 2078SOL    HW2 7134   4.164   5.833   4.959
 2079SOL     OW 7135   5.864   0.775   3.530
 2079SOL    HW1 7136   5.841   0.871   3.544
 2079SOL    HW2 7137   5.946   0.768   3.472
 2080SOL     OW 7138   2.837   2.285   4.133
 2080SOL    HW1 7139   2.817   2.346   4.056
 2080SOL    HW2 7140   2.835   2.190   4.101
 2081SOL     OW 7141   0.950   5.836   4.398
 2081SOL    HW1 7142   0.919   5.826   4.303
 2081SOL    HW2 7143   1.007   5.918   4.405
 2082SOL     OW 7144   4.910   0.644   2.203
 2082SOL    HW1 7145   4.927   0.741   2.187
 2082SOL    HW2 7146   4.874   0.602   2.120
 2083SOL     OW 7147   3.522   4.953   5.867
 2083SOL    HW1 7148   3.487   5.028   5.811
 2083SOL    HW2 7149   3.463   4.941   5.947
 2084SOL     OW 7150   0.153   2.733   2.413
 2084SOL    HW1 7151   0.170   2.766   2.319
 2084SOL    HW2 7152   0.200   2.646   2.426
 2085SOL     OW 7153   5.334   6.128   6.698
 2085SOL    HW1 7154   5.363   6.157   6.790
 2085SOL    HW2 7155   5.339   6.028   6.691
 2086SOL     OW 7156   3.711   5.339   0.413
 2086SOL    HW1 7157   3.619   5.350   0.373
 2086SOL    HW2 7158   3.703   5.307   0.507
 2087SOL     OW 7159   6.343   5.654   3.675
 2087SOL    HW1 7160   6.285   5.584   3.633
 2087SOL    HW2 7161   6.286   5.723   3.718
 2088SOL     OW 7162   2.268   0.454   0.847
 2088SOL    HW1 7163   2.332   0.385   0.880
 2088SOL    HW2 7164   2.174   0.422   0.861
 2089SOL     OW 7165   2.885   1.250   6.380
 2089SOL    HW1 7166   2.980   1.229   6.356
 2089SOL    HW2 7167   2.883   1.310   6.460
 2090SOL     OW 7168   3.335   3.077   3.936
 2090SOL    HW1 7169   3.345   3.034   4.026
 2090SOL    HW2 7170   3.238   3.083   3.914
 2091SOL     OW 7171   1.928   5.351   0.743
 2091SOL    HW1 7172   1.987   5.428   0.769
 2091SOL    HW2 7173   1.985   5.275   0.711
 2092SOL     OW 7174   0.207   6.293   1.427
 2092SOL    HW1 7175   0.275   6.229   1.390
 2092SOL    HW2 7176   0.246   6.385   1.429
 2093SOL     OW 7177   0.624   2.781   1.509
 2093SOL    HW1 7178   0.617   2.783   1.409
 2093SOL    HW2 7179   0.719   2.763   1.535
 2094SOL     OW 7180   6.339   0.404   1.681
 2094SOL    HW1 7181   6.273   0.330   1.677
 2094SOL    HW2 7182   6.316   0.467   1.755
 2095SOL     OW 7183   6.764   4.811   4.754
 2095SOL    HW1 7184   6.834   4.803   4.683
 2095SOL    HW2 7185   6.808   4.835   4.841
 2096SOL     OW 7186   5.051   3.791   3.520
 2096SOL    HW1 7187   5.086   3.749   3.436
 2096SOL    HW2 7188   4.987   3.729   3.565
 2097SOL     OW 7189   6.411   3.435   0.098
 2097SOL    HW1 7190   6.407   3.516   0.039
 2097SOL    HW2 7191   6.333   3.375   0.079
 2098SOL     OW 7192   4.724   0.236   4.031
 2098SOL    HW1 7193   4.735   0.160   4.095
 2098SOL    HW2 7194   4.676   0.311   4.076
 2099SOL     OW 7195   2.902   2.120   2.976
 2099SOL    HW1 7196   2.975   2.136   3.042
 2099SOL    HW2 7197   2.935   2.061   2.903
 2100SOL     OW 7198   3.684   4.462   6.517
 2100SOL    HW1 7199   3.683   4.396   6.443
 2100SOL    HW2 7200   3.590   4.489   6.539
 2101SOL     OW 7201   0.112   0.515   2.735
 2101SOL    HW1 7202   0.135   0.500   2.831
 2101SOL    HW2 7203   0.139   0.436   2.681
 2102SOL     OW 7204   0.183   4.761   1.688
 2102SOL    HW1 7205   0.102   4.749   1.746
 2102SOL    HW2 7206   0.231   4.674   1.680
 2103SOL     OW 7207   2.549   3.703   6.369
 2103SOL    HW1 7208   2.458   3.736   6.396
 2103SOL    HW2 7209   2.619   3.758   6.415
 2104SOL     OW 7210   1.325   3.834   5.351
 2104SOL    HW1 7211   1.253   3.790   5.405
 2104SOL    HW2 7212   1.373   3.765   5.296
 2105SOL     OW 7213   6.107   5.965   1.508
 2105SOL    HW1 7214   6.068   5.998   1.594
 2105SOL    HW2 7215   6.175   6.031   1.474
 2106SOL     OW 7216   5.753   5.359   6.518
 2106SOL    HW1 7217   5.800   5.366   6.430
 2106SOL    HW2 7218   5.728   5.451   6.550
 2107SOL     OW 7219   2.867   4.792   0.031
 2107SOL    HW1 7220   2.928   4.821   6.977
 2107SOL    HW2 7221   2.778   4.767   7.013
 2108SOL     OW 7222   5.268   4.638   5.609
 2108SOL    HW1 7223   5.223   4.580   5.540
 2108SOL    HW2 7224   5.343   4.588   5.651
 2109SOL     OW 7225   5.901   6.341   2.375
 2109SOL    HW1 7226   5.982   6.332   2.318
 2109SOL    HW2 7227   5.929   6.375   2.466
 2110SOL     OW 7228   2.261   4.945   5.010
 2110SOL    HW1 7229   2.293   4.936   4.916
 2110SOL    HW2 7230   2.305   5.024   5.052
 2111SOL     OW 7231   2.003   2.644   6.749
 2111SOL    HW1 7232   2.021   2.736   6.784
 2111SOL    HW2 7233   2.014   2.578   6.823
 2112SOL     OW 7234   5.190   3.245   0.878
 2112SOL    HW1 7235   5.200   3.159   0.828
 2112SOL    HW2 7236   5.181   3.320   0.813
 2113SOL     OW 7237   6.740   1.963   3.078
 2113SOL    HW1 7238   6.682   2.036   3.116
 2113SOL    HW2 7239   6.689   1.913   3.008
 2114SOL     OW 7240   1.508   3.732   0.624
 2114SOL    HW1 7241   1.549   3.755   0.713
 2114SOL    HW2 7242   1.481   3.636   0.624
 2115SOL     OW 7243   3.166   5.538   2.351
 2115SOL    HW1 7244   3.080   5.519   2.304
 2115SOL    HW2 7245   3.234   5.569   2.285
 2116SOL     OW 7246   0.282   4.152   3.064
 2116SOL    HW1 7247   0.255   4.077   3.124
 2116SOL    HW2 7248   0.213   4.162   2.991
 2117SOL     OW 7249   0.171   5.537   6.579
 2117SOL    HW1 7250   0.270   5.543   6.592
 2117SOL    HW2 7251   0.142   5.600   6.507
 2118SOL     OW 7252   6.600   3.546   2.330
 2118SOL    HW1 7253   6.538   3.493   2.274
 2118SOL    HW2 7254   6.557   3.632   2.357
 2119SOL     OW 7255   3.483   5.750   0.630
 2119SOL    HW1 7256   3.455   5.685   0.560
 2119SOL    HW2 7257   3.568   5.795   0.601
 2120SOL     OW 7258   6.827   4.789   2.496
 2120SOL    HW1 7259   6.854   4.859   2.563
 2120SOL    HW2 7260   6.749   4.738   2.530
 2121SOL     OW 7261   0.681   3.984   4.603
 2121SOL    HW1 7262   0.687   4.009   4.699
 2121SOL    HW2 7263   0.586   3.966   4.579
 2122SOL     OW 7264   4.529   4.406   5.531
 2122SOL    HW1 7265   4.453   4.341   5.531
 2122SOL    HW2 7266   4.563   4.417   5.437
 2123SOL     OW 7267   4.370   4.655   3.739
 2123SOL    HW1 7268   4.312   4.689   3.813
 2123SOL    HW2 7269   4.313   4.614   3.668
 2124SOL     OW 7270   3.226   1.181   1.382
 2124SOL    HW1 7271   3.237   1.196   1.284
 2124SOL    HW2 7272   3.231   1.269   1.430
 2125SOL     OW 7273   3.364   6.997   0.948
 2125SOL    HW1 7274   3.293   0.027   0.997
 2125SOL    HW2 7275   3.454   7.019   0.987
 2126SOL     OW 7276   2.780   0.520   1.798
 2126SOL    HW1 7277   2.691   0.526   1.754
 2126SOL    HW2 7278   2.769   0.495   1.894
 2127SOL     OW 7279   5.642   2.996   4.993
 2127SOL    HW1 7280   5.725   3.046   5.019
 2127SOL    HW2 7281   5.595   2.963   5.075
 2128SOL     OW 7282   0.729   4.339   4.184
 2128SOL    HW1 7283   0.706   4.308   4.092
 2128SOL    HW2 7284   0.761   4.434   4.180
 2129SOL     OW 7285   3.904   2.288   5.511
 2129SOL    HW1 7286   3.813   2.321   5.486
 2129SOL    HW2 7287   3.971   2.317   5.442
 2130SOL     OW 7288   4.675   0.603   3.519
 2130SOL    HW1 7289   4.637   0.515   3.547
 2130SOL    HW2 7290   4.747   0.588   3.451
 2131SOL     OW 7291   5.446   1.842   6.818
 2131SOL    HW1 7292   5.511   1.774   6.852
 2131SOL    HW2 7293   5.387   1.800   6.749
 2132SOL     OW 7294   1.881   3.623   0.701
 2132SOL    HW1 7295   1.845   3.687   0.633
 2132SOL    HW2 7296   1.920   3.674   0.778
 2133SOL     OW 7297   2.320   3.833   5.675
 2133SOL    HW1 7298   2.403   3.790   5.708
 2133SOL    HW2 7299   2.243   3.769   5.682
 2134SOL     OW 7300   0.490   0.128   0.905
 2134SOL    HW1 7301   0.397   0.093   0.914
 2134SOL    HW2 7302   0.552   0.052   0.884
 2135SOL     OW 7303   6.757   4.494   5.487
 2135SOL    HW1 7304   6.784   4.566   5.552
 2135SOL    HW2 7305   6.839   4.450   5.451
 2136SOL     OW 7306   0.676   4.909   0.916
 2136SOL    HW1 7307   0.601   4.968   0.946
 2136SOL    HW2 7308   0.655   4.814   0.938
 2137SOL     OW 7309   1.197   6.530   4.335
 2137SOL    HW1 7310   1.203   6.438   4.374
 2137SOL    HW2 7311   1.110   6.540   4.287
 2138SOL     OW 7312   5.127   1.807   1.667
 2138SOL    HW1 7313   5.167   1.886   1.713
 2138SOL    HW2 7314   5.070   1.756   1.732
 2139SOL     OW 7315   2.995   0.047   5.627
 2139SOL    HW1 7316   2.962   0.091   5.544
 2139SOL    HW2 7317   3.068   7.002   5.604
 2140SOL     OW 7318   2.465   1.797   4.084
 2140SOL    HW1 7319   2.478   1.789   4.183
 2140SOL    HW2 7320   2.402   1.873   4.065
 2141SOL     OW 7321   6.755   3.223   3.177
 2141SOL    HW1 7322   6.846   3.236   3.137
 2141SOL    HW2 7323   6.746   3.130   3.213
 2142SOL     OW 7324   1.533   2.244   2.353
 2142SOL    HW1 7325   1.549   2.208   2.261
 2142SOL    HW2 7326   1.602   2.206   2.416
 2143SOL     OW 7327   0.875   4.795   6.200
 2143SOL    HW1 7328   0.890   4.706   6.244
 2143SOL    HW2 7329   0.877   4.784   6.100
 2144SOL     OW 7330   6.863   4.700   3.423
 2144SOL    HW1 7331   6.790   4.632   3.423
 2144SOL    HW2 7332   6.873   4.738   3.331
 2145SOL     OW 7333   4.209   1.369   3.225
 2145SOL    HW1 7334   4.175   1.289   3.175
 2145SOL    HW2 7335   4.278   1.340   3.291
 2146SOL     OW 7336   2.489   2.891   0.019
 2146SOL    HW1 7337   2.574   2.944   0.011
 2146SOL    HW2 7338   2.509   2.802   0.060
 2147SOL     OW 7339   5.926   6.928   3.935
 2147SOL    HW1 7340   5.943   6.870   4.015
 2147SOL    HW2 7341   6.004   6.922   3.873
 2148SOL     OW 7342   0.407   3.245   5.824
 2148SOL    HW1 7343   0.416   3.168   5.887
 2148SOL    HW2 7344   0.311   3.264   5.807
 2149SOL     OW 7345   0.854   0.311   0.112
 2149SOL    HW1 7346   0.772   0.282   0.063
 2149SOL    HW2 7347   0.873   0.407   0.092
 2150SOL     OW 7348   1.819   3.065   1.384
 2150SOL    HW1 7349   1.765   3.068   1.299
 2150SOL    HW2 7350   1.822   2.971   1.418
 2151SOL     OW 7351   0.645   5.045   0.670
 2151SOL    HW1 7352   0.716   5.003   0.725
 2151SOL    HW2 7353   0.598   5.116   0.723
 2152SOL     OW 7354   5.627   5.976   3.949
 2152SOL    HW1 7355   5.656   5.904   3.886
 2152SOL    HW2 7356   5.664   6.063   3.919
 2153SOL     OW 7357   5.373   0.735   4.256
 2153SOL    HW1 7358   5.349   0.664   4.191
 2153SOL    HW2 7359   5.395   0.694   4.344
 2154SOL     OW 7360   2.891   0.607   2.769
 2154SOL    HW1 7361   2.977   0.558   2.783
 2154SOL    HW2 7362   2.875   0.668   2.847
 2155SOL     OW 7363   3.980   0.930   1.080
 2155SOL    HW1 7364   3.982   0.866   1.157
 2155SOL    HW2 7365   3.908   0.902   1.015
 2156SOL     OW 7366   5.184   2.182   4.967
 2156SOL    HW1 7367   5.168   2.281   4.961
 2156SOL    HW2 7368   5.282   2.164   4.969
 2157SOL     OW 7369   3.841   6.256   4.196
 2157SOL    HW1 7370   3.749   6.294   4.196
 2157SOL    HW2 7371   3.860   6.214   4.107
 2158SOL     OW 7372   2.800   0.172   0.184
 2158SOL    HW1 7373   2.743   0.254   0.173
 2158SOL    HW2 7374   2.809   0.127   0.095
 2159SOL     OW 7375   0.875   0.817   5.365
 2159SOL    HW1 7376   0.894   0.735   5.311
 2159SOL    HW2 7377   0.881   0.796   5.462
 2160SOL     OW 7378   5.582   6.773   6.939
 2160SOL    HW1 7379   5.554   6.791   0.013
 2160SOL    HW2 7380   5.667   6.821   6.919
 2161SOL     OW 7381   1.686   3.091   1.140
 2161SOL    HW1 7382   1.718   3.076   1.047
 2161SOL    HW2 7383   1.587   3.086   1.143
 2162SOL     OW 7384   1.419   0.197   1.472
 2162SOL    HW1 7385   1.344   0.244   1.426
 2162SOL    HW2 7386   1.403   0.197   1.571
 2163SOL     OW 7387   1.588   3.205   3.104
 2163SOL    HW1 7388   1.614   3.301   3.111
 2163SOL    HW2 7389   1.507   3.189   3.160
 2164SOL     OW 7390   1.995   3.369   2.378
 2164SOL    HW1 7391   2.042   3.421   2.449
 2164SOL    HW2 7392   1.896   3.371   2.397
 2165SOL     OW 7393   6.530   1.184   4.633
 2165SOL    HW1 7394   6.542   1.276   4.598
 2165SOL    HW2 7395   6.560   1.180   4.728
 2166SOL     OW 7396   0.000   3.338   2.561
 2166SOL    HW1 7397   6.926   3.366   2.543
 2166SOL    HW2 7398   0.052   3.336   2.476
 2167SOL     OW 7399   2.113   1.781   3.013
 2167SOL    HW1 7400   2.098   1.851   3.083
 2167SOL    HW2 7401   2.031   1.772   2.957
 2168SOL     OW 7402   2.007   2.006   3.224
 2168SOL    HW1 7403   2.006   1.960   3.313
 2168SOL    HW2 7404   1.914   2.009   3.187
 2169SOL     OW 7405   6.839   6.762   1.396
 2169SOL    HW1 7406   6.770   6.833   1.383
 2169SOL    HW2 7407   6.876   6.769   1.489
 2170SOL     OW 7408   1.167   3.483   6.166
 2170SOL    HW1 7409   1.128   3.569   6.135
 2170SOL    HW2 7410   1.248   3.501   6.222
 2171SOL     OW 7411   6.577   6.209   1.153
 2171SOL    HW1 7412   6.633   6.292   1.159
 2171SOL    HW2 7413   6.484   6.233   1.128
 2172SOL     OW 7414   2.305   1.503   5.163
 2172SOL    HW1 7415   2.372   1.469   5.229
 2172SOL    HW2 7416   2.353   1.543   5.085
 2173SOL     OW 7417   5.042   0.839   5.098
 2173SOL    HW1 7418   5.076   0.895   5.023
 2173SOL    HW2 7419   5.060   0.884   5.185
 2174SOL     OW 7420   5.765   0.292   6.124
 2174SOL    HW1 7421   5.715   0.304   6.038
 2174SOL    HW2 7422   5.747   0.369   6.184
 2175SOL     OW 7423   2.670   3.938   5.293
 2175SOL    HW1 7424   2.663   3.953   5.391
 2175SOL    HW2 7425   2.578   3.922   5.256
 2176SOL     OW 7426   5.335   2.361   2.809
 2176SOL    HW1 7427   5.430   2.392   2.798
 2176SOL    HW2 7428   5.334   2.262   2.819
 2177SOL     OW 7429   1.119   0.762   4.829
 2177SOL    HW1 7430   1.071   0.740   4.743
 2177SOL    HW2 7431   1.111   0.860   4.847
 2178SOL     OW 7432   1.315   1.935   2.839
 2178SOL    HW1 7433   1.285   1.965   2.929
 2178SOL    HW2 7434   1.382   1.862   2.849
 2179SOL     OW 7435   1.905   4.089   6.698
 2179SOL    HW1 7436   1.876   4.158   6.632
 2179SOL    HW2 7437   1.993   4.051   6.670
 2180SOL     OW 7438   0.587   5.754   2.716
 2180SOL    HW1 7439   0.586   5.842   2.669
 2180SOL    HW2 7440   0.501   5.706   2.697
 2181SOL     OW 7441   4.074   4.870   4.793
 2181SOL    HW1 7442   3.995   4.886   4.734
 2181SOL    HW2 7443   4.045   4.869   4.889
 2182SOL     OW 7444   0.422   6.200   1.636
 2182SOL    HW1 7445   0.483   6.128   1.602
 2182SOL    HW2 7446   0.474   6.264   1.692
 2183SOL     OW 7447   3.023   3.374   6.573
 2183SOL    HW1 7448   2.962   3.300   6.602
 2183SOL    HW2 7449   3.090   3.391   6.645
 2184SOL     OW 7450   6.435   1.449   0.701
 2184SOL    HW1 7451   6.348   1.412   0.731
 2184SOL    HW2 7452   6.510   1.390   0.732
 2185SOL     OW 7453   0.724   0.724   6.070
 2185SOL    HW1 7454   0.633   0.729   6.028
 2185SOL    HW2 7455   0.759   0.816   6.086
 2186SOL     OW 7456   6.713   5.697   5.441
 2186SOL    HW1 7457   6.732   5.790   5.474
 2186SOL    HW2 7458   6.620   5.672   5.466
 2187SOL     OW 7459   6.492   5.129   1.746
 2187SOL    HW1 7460   6.497   5.228   1.750
 2187SOL    HW2 7461   6.571   5.093   1.697
 2188SOL     OW 7462   2.420   0.944   0.331
 2188SOL    HW1 7463   2.516   0.957   0.357
 2188SOL    HW2 7464   2.415   0.914   0.236
 2189SOL     OW 7465   2.062   1.321   1.582
 2189SOL    HW1 7466   2.088   1.398   1.525
 2189SOL    HW2 7467   2.124   1.244   1.564
 2190SOL     OW 7468   6.931   3.914   1.499
 2190SOL    HW1 7469   6.921   3.874   1.590
 2190SOL    HW2 7470   6.959   3.842   1.435
 2191SOL     OW 7471   3.180   0.679   6.582
 2191SOL    HW1 7472   3.142   0.591   6.552
 2191SOL    HW2 7473   3.105   0.742   6.603
 2192SOL     OW 7474   4.936   1.696   1.840
 2192SOL    HW1 7475   4.928   1.648   1.928
 2192SOL    HW2 7476   4.857   1.755   1.827
 2193SOL     OW 7477   2.247   0.095   5.396
 2193SOL    HW1 7478   2.327   0.133   5.443
 2193SOL    HW2 7479   2.175   0.076   5.462
 2194SOL     OW 7480   0.696   3.871   6.396
 2194SOL    HW1 7481   0.618   3.820   6.359
 2194SOL    HW2 7482   0.697   3.963   6.358
 2195SOL     OW 7483   0.444   3.776   4.778
 2195SOL    HW1 7484   0.474   3.761   4.684
 2195SOL    HW2 7485   0.346   3.759   4.784
 2196SOL     OW 7486   3.698   0.723   6.770
 2196SOL    HW1 7487   3.602   0.722   6.797
 2196SOL    HW2 7488   3.709   0.781   6.689
 2197SOL     OW 7489   3.744   5.834   5.946
 2197SOL    HW1 7490   3.682   5.853   6.022
 2197SOL    HW2 7491   3.766   5.736   5.945
 2198SOL     OW 7492   1.246   0.983   6.799
 2198SOL    HW1 7493   1.334   0.966   6.843
 2198SOL    HW2 7494   1.216   1.077   6.818
 2199SOL     OW 7495   4.069   0.029   3.921
 2199SOL    HW1 7496   4.120   0.076   3.849
 2199SOL    HW2 7497   4.060   6.952   3.898
 2200SOL     OW 7498   2.792   2.174   3.805
 2200SOL    HW1 7499   2.890   2.184   3.785
 2200SOL    HW2 7500   2.773   2.079   3.829
 2201SOL     OW 7501   5.537   3.767   5.102
 2201SOL    HW1 7502   5.533   3.703   5.025
 2201SOL    HW2 7503   5.569   3.856   5.069
 2202SOL     OW 7504   3.802   0.142   2.836
 2202SOL    HW1 7505   3.833   0.127   2.742
 2202SOL    HW2 7506   3.730   0.075   2.858
 2203SOL     OW 7507   1.619   5.104   1.159
 2203SOL    HW1 7508   1.562   5.145   1.230
 2203SOL    HW2 7509   1.563   5.042   1.103
 2204SOL     OW 7510   6.006   2.699   0.653
 2204SOL    HW1 7511   5.935   2.629   0.654
 2204SOL    HW2 7512   6.050   2.700   0.563
 2205SOL     OW 7513   6.974   5.505   0.793
 2205SOL    HW1 7514   0.004   5.590   0.814
 2205SOL    HW2 7515   6.933   5.469   0.876
 2206SOL     OW 7516   3.839   2.614   5.609
 2206SOL    HW1 7517   3.780   2.571   5.678
 2206SOL    HW2 7518   3.846   2.554   5.529
 2207SOL     OW 7519   4.765   6.087   1.362
 2207SOL    HW1 7520   4.858   6.095   1.325
 2207SOL    HW2 7521   4.701   6.068   1.287
 2208SOL     OW 7522   6.814   6.704   3.049
 2208SOL    HW1 7523   6.741   6.689   3.116
 2208SOL    HW2 7524   6.840   6.616   3.008
 2209SOL     OW 7525   3.025   6.140   4.179
 2209SOL    HW1 7526   3.062   6.187   4.098
 2209SOL    HW2 7527   2.976   6.058   4.149
 2210SOL     OW 7528   4.659   0.141   1.687
 2210SOL    HW1 7529   4.597   0.119   1.612
 2210SOL    HW2 7530   4.706   0.227   1.668
 2211SOL     OW 7531   1.414   1.736   1.150
 2211SOL    HW1 7532   1.357   1.723   1.068
 2211SOL    HW2 7533   1.392   1.824   1.192
 2212SOL     OW 7534   2.918   5.749   6.619
 2212SOL    HW1 7535   2.954   5.813   6.551
 2212SOL    HW2 7536   2.863   5.799   6.686
 2213SOL     OW 7537   3.696   1.829   4.631
 2213SOL    HW1 7538   3.663   1.850   4.539
 2213SOL    HW2 7539   3.619   1.802   4.689
 2214SOL     OW 7540   4.395   4.191   6.598
 2214SOL    HW1 7541   4.390   4.215   6.501
 2214SOL    HW2 7542   4.346   4.105   6.614
 2215SOL     OW 7543   3.708   6.978   0.355
 2215SOL    HW1 7544   3.697   6.912   0.280
 2215SOL    HW2 7545   3.725   6.928   0.440
 2216SOL     OW 7546   0.243   6.662   6.220
 2216SOL    HW1 7547   0.279   6.569   6.230
 2216SOL    HW2 7548   0.318   6.727   6.229
 2217SOL     OW 7549   4.439   1.565   3.661
 2217SOL    HW1 7550   4.354   1.513   3.667
 2217SOL    HW2 7551   4.444   1.612   3.573
 2218SOL     OW 7552   0.035   5.463   5.245
 2218SOL    HW1 7553   7.014   5.547   5.281
 2218SOL    HW2 7554   6.988   5.415   5.189
 2219SOL     OW 7555   5.114   1.086   0.940
 2219SOL    HW1 7556   5.165   1.172   0.943
 2219SOL    HW2 7557   5.058   1.077   1.022
 2220SOL     OW 7558   0.056   5.787   4.292
 2220SOL    HW1 7559   6.983   5.762   4.319
 2220SOL    HW2 7560   0.084   5.870   4.340
 2221SOL     OW 7561   6.161   1.268   4.337
 2221SOL    HW1 7562   6.135   1.189   4.391
 2221SOL    HW2 7563   6.252   1.254   4.297
 2222SOL     OW 7564   4.766   0.176   2.707
 2222SOL    HW1 7565   4.691   0.151   2.646
 2222SOL    HW2 7566   4.803   0.264   2.680
 2223SOL     OW 7567   0.903   6.598   5.199
 2223SOL    HW1 7568   1.001   6.617   5.195
 2223SOL    HW2 7569   0.856   6.652   5.130
 2224SOL     OW 7570   5.322   3.996   0.516
 2224SOL    HW1 7571   5.301   3.927   0.586
 2224SOL    HW2 7572   5.379   3.955   0.445
 2225SOL     OW 7573   6.982   6.476   1.776
 2225SOL    HW1 7574   6.956   6.569   1.750
 2225SOL    HW2 7575   0.050   6.452   1.734
 2226SOL     OW 7576   2.220   4.756   6.951
 2226SOL    HW1 7577   2.190   4.787   0.021
 2226SOL    HW2 7578   2.223   4.833   6.888
 2227SOL     OW 7579   4.100   1.774   1.747
 2227SOL    HW1 7580   4.188   1.813   1.719
 2227SOL    HW2 7581   4.042   1.847   1.784
 2228SOL     OW 7582   5.247   5.161   6.945
 2228SOL    HW1 7583   5.215   5.071   6.915
 2228SOL    HW2 7584   5.259   5.220   6.866
 2229SOL     OW 7585   3.032   3.205   4.172
 2229SOL    HW1 7586   3.037   3.169   4.079
 2229SOL    HW2 7587   3.065   3.136   4.237
 2230SOL     OW 7588   6.446   0.443   6.911
 2230SOL    HW1 7589   6.400   0.434   7.000
 2230SOL    HW2 7590   6.545   0.439   6.925
 2231SOL     OW 7591   1.159   6.859   6.168
 2231SOL    HW1 7592   1.175   6.831   6.263
 2231SOL    HW2 7593   1.149   6.777   6.111
 2232SOL     OW 7594   1.742   0.481   5.739
 2232SOL    HW1 7595   1.765   0.571   5.774
 2232SOL    HW2 7596   1.727   0.418   5.815
 2233SOL     OW 7597   2.763   4.625   0.484
 2233SOL    HW1 7598   2.776   4.687   0.561
 2233SOL    HW2 7599   2.850   4.583   0.459
 2234SOL     OW 7600   4.957   2.067   1.770
 2234SOL    HW1 7601   4.963   2.057   1.671
 2234SOL    HW2 7602   4.862   2.061   1.799
 2235SOL     OW 7603   0.748   1.710   3.248
 2235SOL    HW1 7604   0.843   1.685   3.268
 2235SOL    HW2 7605   0.687   1.637   3.278
 2236SOL     OW 7606   2.883   4.945   5.487
 2236SOL    HW1 7607   2.846   4.891   5.411
 2236SOL    HW2 7608   2.936   4.886   5.548
 2237SOL     OW 7609   6.299   5.831   6.005
 2237SOL    HW1 7610   6.235   5.829   5.928
 2237SOL    HW2 7611   6.334   5.924   6.017
 2238SOL     OW 7612   6.072   3.376   1.775
 2238SOL    HW1 7613   6.043   3.290   1.734
 2238SOL    HW2 7614   6.005   3.404   1.845
 2239SOL     OW 7615   4.935   6.511   3.055
 2239SOL    HW1 7616   4.854   6.541   3.004
 2239SOL    HW2 7617   4.914   6.427   3.104
 2240SOL     OW 7618   5.075   5.056   1.934
 2240SOL    HW1 7619   5.047   5.070   2.029
 2240SOL    HW2 7620   5.028   4.977   1.897
 2241SOL     OW 7621   0.600   1.453   2.827
 2241SOL    HW1 7622   0.621   1.551   2.823
 2241SOL    HW2 7623   0.578   1.420   2.735
 2242SOL     OW 7624   5.290   2.403   3.658
 2242SOL    HW1 7625   5.268   2.473   3.726
 2242SOL    HW2 7626   5.385   2.412   3.628
 2243SOL     OW 7627   2.420   6.973   0.766
 2243SOL    HW1 7628   2.350   0.017   0.797
 2243SOL    HW2 7629   2.420   6.893   0.825
 2244SOL     OW 7630   2.286   1.603   0.397
 2244SOL    HW1 7631   2.332   1.518   0.420
 2244SOL    HW2 7632   2.330   1.679   0.445
 2245SOL     OW 7633   0.368   0.753   0.346
 2245SOL    HW1 7634   0.454   0.769   0.395
 2245SOL    HW2 7635   0.363   0.658   0.316
 2246SOL     OW 7636   3.625   2.111   5.109
 2246SOL    HW1 7637   3.645   2.060   5.192
 2246SOL    HW2 7638   3.535   2.152   5.115
 2247SOL     OW 7639   3.152   3.066   2.577
 2247SOL    HW1 7640   3.102   3.143   2.537
 2247SOL    HW2 7641   3.132   3.061   2.675
 2248SOL     OW 7642   4.715   3.872   5.434
 2248SOL    HW1 7643   4.628   3.922   5.423
 2248SOL    HW2 7644   4.783   3.909   5.371
 2249SOL     OW 7645   1.866   6.622   2.875
 2249SOL    HW1 7646   1.942   6.685   2.890
 2249SOL    HW2 7647   1.780   6.670   2.890
 2250SOL     OW 7648   4.449   5.798   6.612
 2250SOL    HW1 7649   4.514   5.828   6.682
 2250SOL    HW2 7650   4.495   5.790   6.524
 2251SOL     OW 7651   4.890   6.281   4.869
 2251SOL    HW1 7652   4.887   6.348   4.943
 2251SOL    HW2 7653   4.802   6.233   4.864
 2252SOL     OW 7654   4.010   1.151   2.330
 2252SOL    HW1 7655   4.072   1.213   2.378
 2252SOL    HW2 7656   3.970   1.199   2.252
 2253SOL     OW 7657   0.109   3.461   1.260
 2253SOL    HW1 7658   0.017   3.421   1.259
 2253SOL    HW2 7659   0.161   3.422   1.336
 2254SOL     OW 7660   4.020   3.586   2.909
 2254SOL    HW1 7661   3.920   3.589   2.910
 2254SOL    HW2 7662   4.051   3.514   2.971
 2255SOL     OW 7663   2.122   3.538   6.412
 2255SOL    HW1 7664   2.154   3.457   6.362
 2255SOL    HW2 7665   2.070   3.510   6.492
 2256SOL     OW 7666   5.448   0.010   1.346
 2256SOL    HW1 7667   5.360   0.027   1.302
 2256SOL    HW2 7668   5.444   0.040   1.441
 2257SOL     OW 7669   6.779   0.724   5.412
 2257SOL    HW1 7670   6.875   0.752   5.410
 2257SOL    HW2 7671   6.759   0.681   5.500
 2258SOL     OW 7672   2.874   5.935   4.080
 2258SOL    HW1 7673   2.890   5.875   4.158
 2258SOL    HW2 7674   2.820   5.887   4.011
 2259SOL     OW 7675   6.266   2.378   5.100
 2259SOL    HW1 7676   6.304   2.285   5.090
 2259SOL    HW2 7677   6.328   2.434   5.154
 2260SOL     OW 7678   0.634   3.981   1.507
 2260SOL    HW1 7679   0.616   4.015   1.599
 2260SOL    HW2 7680   0.732   3.961   1.498
 2261SOL     OW 7681   5.335   3.959   6.981
 2261SOL    HW1 7682   5.240   3.958   7.013
 2261SOL    HW2 7683   5.358   4.049   6.945
 2262SOL     OW 7684   6.737   0.061   4.512
 2262SOL    HW1 7685   6.647   0.103   4.512
 2262SOL    HW2 7686   6.786   0.087   4.428
 2263SOL     OW 7687   2.064   4.498   6.265
 2263SOL    HW1 7688   1.980   4.503   6.319
 2263SOL    HW2 7689   2.048   4.437   6.186
 2264SOL     OW 7690   3.347   0.135   5.877
 2264SOL    HW1 7691   3.399   0.058   5.914
 2264SOL    HW2 7692   3.345   0.209   5.944
 2265SOL     OW 7693   6.708   6.489   4.427
 2265SOL    HW1 7694   6.657   6.573   4.443
 2265SOL    HW2 7695   6.805   6.505   4.443
 2266SOL     OW 7696   4.289   3.108   6.700
 2266SOL    HW1 7697   4.235   3.064   6.629
 2266SOL    HW2 7698   4.331   3.038   6.758
 2267SOL     OW 7699   5.351   2.959   4.358
 2267SOL    HW1 7700   5.279   2.946   4.290
 2267SOL    HW2 7701   5.387   2.870   4.387
 2268SOL     OW 7702   1.410   5.880   4.586
 2268SOL    HW1 7703   1.498   5.852   4.548
 2268SOL    HW2 7704   1.371   5.806   4.640
 2269SOL     OW 7705   1.696   1.974   5.332
 2269SOL    HW1 7706   1.649   2.023   5.259
 2269SOL    HW2 7707   1.794   1.970   5.312
 2270SOL     OW 7708   4.675   1.536   6.102
 2270SOL    HW1 7709   4.599   1.472   6.104
 2270SOL    HW2 7710   4.688   1.576   6.193
 2271SOL     OW 7711   4.714   5.347   5.410
 2271SOL    HW1 7712   4.697   5.417   5.341
 2271SOL    HW2 7713   4.643   5.277   5.405
 2272SOL     OW 7714   5.399   1.370   5.815
 2272SOL    HW1 7715   5.444   1.419   5.741
 2272SOL    HW2 7716   5.436   1.278   5.823
 2273SOL     OW 7717   1.142   2.391   3.252
 2273SOL    HW1 7718   1.229   2.341   3.245
 2273SOL    HW2 7719   1.150   2.478   3.205
 2274SOL     OW 7720   0.680   1.534   0.054
 2274SOL    HW1 7721   0.635   1.600   7.013
 2274SOL    HW2 7722   0.614   1.498   0.119
 2275SOL     OW 7723   5.767   3.862   2.962
 2275SOL    HW1 7724   5.784   3.925   2.886
 2275SOL    HW2 7725   5.671   3.837   2.964
 2276SOL     OW 7726   2.054   2.161   0.975
 2276SOL    HW1 7727   2.091   2.071   0.998
 2276SOL    HW2 7728   2.072   2.182   0.879
 2277SOL     OW 7729   3.880   3.083   3.785
 2277SOL    HW1 7730   3.826   3.165   3.765
 2277SOL    HW2 7731   3.825   3.002   3.763
 2278SOL     OW 7732   0.391   2.584   3.872
 2278SOL    HW1 7733   0.487   2.555   3.868
 2278SOL    HW2 7734   0.338   2.531   3.805
 2279SOL     OW 7735   0.615   5.833   5.195
 2279SOL    HW1 7736   0.686   5.775   5.154
 2279SOL    HW2 7737   0.606   5.917   5.141
 2280SOL     OW 7738   4.525   2.141   5.849
 2280SOL    HW1 7739   4.479   2.090   5.776
 2280SOL    HW2 7740   4.584   2.211   5.809
 2281SOL     OW 7741   5.974   6.739   2.522
 2281SOL    HW1 7742   5.910   6.679   2.568
 2281SOL    HW2 7743   6.063   6.694   2.515
 2282SOL     OW 7744   3.860   6.678   5.481
 2282SOL    HW1 7745   3.807   6.676   5.396
 2282SOL    HW2 7746   3.955   6.699   5.460
 2283SOL     OW 7747   0.317   0.611   3.959
 2283SOL    HW1 7748   0.293   0.596   4.054
 2283SOL    HW2 7749   0.318   0.709   3.939
 2284SOL     OW 7750   1.124   2.729   0.195
 2284SOL    HW1 7751   1.169   2.801   0.249
 2284SOL    HW2 7752   1.044   2.695   0.246
 2285SOL     OW 7753   1.764   4.418   6.402
 2285SOL    HW1 7754   1.709   4.383   6.478
 2285SOL    HW2 7755   1.732   4.376   6.316
 2286SOL     OW 7756   4.798   4.942   3.242
 2286SOL    HW1 7757   4.754   4.889   3.315
 2286SOL    HW2 7758   4.745   4.933   3.158
 2287SOL     OW 7759   1.128   1.110   3.223
 2287SOL    HW1 7760   1.170   1.128   3.134
 2287SOL    HW2 7761   1.036   1.150   3.225
 2288SOL     OW 7762   6.855   5.570   2.916
 2288SOL    HW1 7763   6.852   5.542   2.820
 2288SOL    HW2 7764   6.818   5.497   2.973
 2289SOL     OW 7765   0.211   5.661   0.819
 2289SOL    HW1 7766   0.131   5.693   0.769
 2289SOL    HW2 7767   0.253   5.738   0.868
 2290SOL     OW 7768   0.864   5.645   0.276
 2290SOL    HW1 7769   0.807   5.656   0.195
 2290SOL    HW2 7770   0.811   5.667   0.358
 2291SOL     OW 7771   1.973   1.608   6.953
 2291SOL    HW1 7772   2.014   1.663   0.006
 2291SOL    HW2 7773   1.947   1.518   6.989
 2292SOL     OW 7774   2.161   1.560   4.714
 2292SOL    HW1 7775   2.201   1.641   4.757
 2292SOL    HW2 7776   2.224   1.524   4.645
 2293SOL     OW 7777   5.189   4.193   2.721
 2293SOL    HW1 7778   5.164   4.108   2.767
 2293SOL    HW2 7779   5.212   4.263   2.789
 2294SOL     OW 7780   3.011   6.032   6.719
 2294SOL    HW1 7781   3.012   6.106   6.787
 2294SOL    HW2 7782   3.094   6.038   6.663
 2295SOL     OW 7783   0.894   2.180   1.253
 2295SOL    HW1 7784   0.844   2.107   1.300
 2295SOL    HW2 7785   0.972   2.208   1.309
 2296SOL     OW 7786   3.233   6.460   0.943
 2296SOL    HW1 7787   3.151   6.508   0.909
 2296SOL    HW2 7788   3.279   6.518   1.010
 2297SOL     OW 7789   3.995   6.339   6.324
 2297SOL    HW1 7790   4.029   6.431   6.342
 2297SOL    HW2 7791   3.901   6.343   6.291
 2298SOL     OW 7792   4.152   3.003   6.466
 2298SOL    HW1 7793   4.078   2.956   6.515
 2298SOL    HW2 7794   4.208   2.936   6.418
 2299SOL     OW 7795   4.146   6.619   0.171
 2299SOL    HW1 7796   4.223   6.636   0.233
 2299SOL    HW2 7797   4.061   6.642   0.218
 2300SOL     OW 7798   1.457   4.532   1.673
 2300SOL    HW1 7799   1.377   4.546   1.614
 2300SOL    HW2 7800   1.488   4.621   1.708
 2301SOL     OW 7801   4.087   3.586   1.921
 2301SOL    HW1 7802   4.009   3.524   1.933
 2301SOL    HW2 7803   4.172   3.534   1.930
 2302SOL     OW 7804   2.558   6.005   3.420
 2302SOL    HW1 7805   2.558   5.906   3.413
 2302SOL    HW2 7806   2.639   6.042   3.375
 2303SOL     OW 7807   0.656   3.112   5.046
 2303SOL    HW1 7808   0.729   3.176   5.072
 2303SOL    HW2 7809   0.645   3.043   5.118
 2304SOL     OW 7810   2.587   0.597   4.066
 2304SOL    HW1 7811   2.591   0.544   3.981
 2304SOL    HW2 7812   2.655   0.562   4.130
 2305SOL     OW 7813   3.841   5.264   1.547
 2305SOL    HW1 7814   3.744   5.238   1.545
 2305SOL    HW2 7815   3.892   5.205   1.485
 2306SOL     OW 7816   0.777   3.655   0.461
 2306SOL    HW1 7817   0.851   3.706   0.505
 2306SOL    HW2 7818   0.732   3.713   0.393
 2307SOL     OW 7819   0.133   2.065   2.848
 2307SOL    HW1 7820   0.106   2.129   2.775
 2307SOL    HW2 7821   0.215   2.100   2.893
 2308SOL     OW 7822   0.329   0.267   0.293
 2308SOL    HW1 7823   0.358   0.172   0.283
 2308SOL    HW2 7824   0.367   0.304   0.377
 2309SOL     OW 7825   3.765   5.117   6.046
 2309SOL    HW1 7826   3.753   5.149   6.140
 2309SOL    HW2 7827   3.707   5.036   6.031
 2310SOL     OW 7828   5.769   1.533   2.618
 2310SOL    HW1 7829   5.710   1.605   2.581
 2310SOL    HW2 7830   5.714   1.453   2.642
 2311SOL     OW 7831   2.743   0.245   2.851
 2311SOL    HW1 7832   2.810   0.275   2.783
 2311SOL    HW2 7833   2.693   0.325   2.886
 2312SOL     OW 7834   2.347   0.997   2.742
 2312SOL    HW1 7835   2.406   1.072   2.714
 2312SOL    HW2 7836   2.255   1.011   2.704
 2313SOL     OW 7837   5.344   4.330   1.566
 2313SOL    HW1 7838   5.391   4.342   1.653
 2313SOL    HW2 7839   5.370   4.242   1.526
 2314SOL     OW 7840   6.338   0.073   2.947
 2314SOL    HW1 7841   6.250   0.076   2.995
 2314SOL    HW2 7842   6.337   7.018   2.880
 2315SOL     OW 7843   4.300   5.842   5.391
 2315SOL    HW1 7844   4.202   5.859   5.401
 2315SOL    HW2 7845   4.315   5.771   5.322
 2316SOL     OW 7846   2.786   1.799   5.990
 2316SOL    HW1 7847   2.810   1.823   5.896
 2316SOL    HW2 7848   2.775   1.882   6.044
 2317SOL     OW 7849   6.908   5.962   3.540
 2317SOL    HW1 7850   6.967   5.948   3.619
 2317SOL    HW2 7851   6.964   5.970   3.458
 2318SOL     OW 7852   1.620   5.009   5.590
 2318SOL    HW1 7853   1.550   5.010   5.519
 2318SOL    HW2 7854   1.584   5.048   5.675
 2319SOL     OW 7855   2.497   4.760   3.742
 2319SOL    HW1 7856   2.547   4.721   3.820
 2319SOL    HW2 7857   2.400   4.770   3.766
 2320SOL     OW 7858   1.216   2.525   5.396
 2320SOL    HW1 7859   1.263   2.578   5.466
 2320SOL    HW2 7860   1.261   2.436   5.386
 2321SOL     OW 7861   2.486   4.726   5.860
 2321SOL    HW1 7862   2.476   4.771   5.771
 2321SOL    HW2 7863   2.573   4.677   5.862
 2322SOL     OW 7864   0.783   3.927   1.841
 2322SOL    HW1 7865   0.702   3.922   1.900
 2322SOL    HW2 7866   0.778   3.855   1.771
 2323SOL     OW 7867   2.244   5.053   1.520
 2323SOL    HW1 7868   2.173   5.017   1.581
 2323SOL    HW2 7869   2.313   5.100   1.574
 2324SOL     OW 7870   6.909   5.224   2.330
 2324SOL    HW1 7871   6.812   5.205   2.345
 2324SOL    HW2 7872   6.948   5.153   2.271
 2325SOL     OW 7873   0.219   5.307   1.776
 2325SOL    HW1 7874   0.187   5.213   1.774
 2325SOL    HW2 7875   0.188   5.355   1.693
 2326SOL     OW 7876   1.492   0.633   6.830
 2326SOL    HW1 7877   1.570   0.573   6.811
 2326SOL    HW2 7878   1.473   0.633   6.928
 2327SOL     OW 7879   0.162   0.200   2.618
 2327SOL    HW1 7880   0.235   0.211   2.549
 2327SOL    HW2 7881   0.078   0.171   2.572
 2328SOL     OW 7882   2.426   2.652   2.673
 2328SOL    HW1 7883   2.443   2.638   2.771
 2328SOL    HW2 7884   2.511   2.635   2.623
 2329SOL     OW 7885   0.708   5.134   3.362
 2329SOL    HW1 7886   0.748   5.044   3.381
 2329SOL    HW2 7887   0.610   5.124   3.346
 2330SOL     OW 7888   6.481   2.694   0.411
 2330SOL    HW1 7889   6.429   2.714   0.494
 2330SOL    HW2 7890   6.497   2.779   0.361
 2331SOL     OW 7891   3.899   6.476   0.510
 2331SOL    HW1 7892   3.823   6.411   0.519
 2331SOL    HW2 7893   3.967   6.458   0.581
 2332SOL     OW 7894   5.412   6.670   6.185
 2332SOL    HW1 7895   5.457   6.700   6.269
 2332SOL    HW2 7896   5.366   6.747   6.142
 2333SOL     OW 7897   0.244   4.486   2.862
 2333SOL    HW1 7898   0.309   4.455   2.792
 2333SOL    HW2 7899   0.151   4.467   2.832
 2334SOL     OW 7900   3.099   1.413   6.079
 2334SOL    HW1 7901   3.012   1.379   6.045
 2334SOL    HW2 7902   3.174   1.370   6.029
 2335SOL     OW 7903   6.369   1.346   3.294
 2335SOL    HW1 7904   6.343   1.326   3.388
 2335SOL    HW2 7905   6.457   1.394   3.293
 2336SOL     OW 7906   1.902   1.774   2.831
 2336SOL    HW1 7907   1.843   1.853   2.818
 2336SOL    HW2 7908   1.936   1.742   2.743
 2337SOL     OW 7909   4.535   1.822   1.321
 2337SOL    HW1 7910   4.556   1.865   1.409
 2337SOL    HW2 7911   4.441   1.789   1.321
 2338SOL     OW 7912   6.838   4.016   4.017
 2338SOL    HW1 7913   6.761   3.994   4.077
 2338SOL    HW2 7914   6.808   4.080   3.947
 2339SOL     OW 7915   3.748   3.022   2.971
 2339SOL    HW1 7916   3.824   2.964   3.000
 2339SOL    HW2 7917   3.749   3.030   2.871
 2340SOL     OW 7918   1.929   5.600   6.300
 2340SOL    HW1 7919   1.837   5.572   6.330
 2340SOL    HW2 7920   1.929   5.611   6.200
 2341SOL     OW 7921   2.417   4.442   3.573
 2341SOL    HW1 7922   2.454   4.515   3.517
 2341SOL    HW2 7923   2.425   4.467   3.670
 2342SOL     OW 7924   3.035   6.909   4.221
 2342SOL    HW1 7925   2.972   6.964   4.166
 2342SOL    HW2 7926   3.019   6.812   4.202
 2343SOL     OW 7927   1.486   6.623   2.313
 2343SOL    HW1 7928   1.437   6.679   2.246
 2343SOL    HW2 7929   1.518   6.682   2.388
 2344SOL     OW 7930   5.638   3.908   0.741
 2344SOL    HW1 7931   5.581   3.965   0.801
 2344SOL    HW2 7932   5.733   3.913   0.772
 2345SOL     OW 7933   2.845   5.778   5.077
 2345SOL    HW1 7934   2.749   5.757   5.055
 2345SOL    HW2 7935   2.895   5.693   5.092
 2346SOL     OW 7936   4.074   4.328   6.638
 2346SOL    HW1 7937   4.173   4.316   6.636
 2346SOL    HW2 7938   4.033   4.257   6.695
 2347SOL     OW 7939   1.063   2.267   2.454
 2347SOL    HW1 7940   0.966   2.287   2.438
 2347SOL    HW2 7941   1.110   2.259   2.366
 2348SOL     OW 7942   0.351   4.976   2.630
 2348SOL    HW1 7943   0.407   4.968   2.548
 2348SOL    HW2 7944   0.260   4.939   2.613
 2349SOL     OW 7945   0.412   4.252   6.493
 2349SOL    HW1 7946   0.481   4.184   6.468
 2349SOL    HW2 7947   0.458   4.339   6.513
 2350SOL     OW 7948   6.184   3.657   6.710
 2350SOL    HW1 7949   6.180   3.575   6.769
 2350SOL    HW2 7950   6.112   3.652   6.641
 2351SOL     OW 7951   2.980   5.351   3.010
 2351SOL    HW1 7952   2.946   5.319   3.098
 2351SOL    HW2 7953   2.937   5.298   2.936
 2352SOL     OW 7954   7.006   3.055   3.932
 2352SOL    HW1 7955   6.957   3.130   3.976
 2352SOL    HW2 7956   0.085   3.066   3.947
 2353SOL     OW 7957   3.546   5.659   5.083
 2353SOL    HW1 7958   3.576   5.638   5.176
 2353SOL    HW2 7959   3.617   5.710   5.036
 2354SOL     OW 7960   2.037   2.059   3.645
 2354SOL    HW1 7961   2.068   1.993   3.713
 2354SOL    HW2 7962   2.115   2.103   3.601
 2355SOL     OW 7963   2.426   6.002   5.243
 2355SOL    HW1 7964   2.387   6.006   5.150
 2355SOL    HW2 7965   2.522   6.029   5.240
 2356SOL     OW 7966   0.017   3.618   0.063
 2356SOL    HW1 7967   6.949   3.587   0.098
 2356SOL    HW2 7968   0.086   3.610   0.135
 2357SOL     OW 7969   2.327   6.511   2.586
 2357SOL    HW1 7970   2.426   6.528   2.592
 2357SOL    HW2 7971   2.287   6.571   2.517
 2358SOL     OW 7972   3.474   4.625   6.601
 2358SOL    HW1 7973   3.542   4.696   6.586
 2358SOL    HW2 7974   3.382   4.665   6.594
 2359SOL     OW 7975   1.630   0.077   4.675
 2359SOL    HW1 7976   1.534   0.098   4.695
 2359SOL    HW2 7977   1.673   0.157   4.633
 2360SOL     OW 7978   6.568   3.512   0.330
 2360SOL    HW1 7979   6.610   3.602   0.338
 2360SOL    HW2 7980   6.491   3.516   0.267
 2361SOL     OW 7981   3.739   1.609   6.359
 2361SOL    HW1 7982   3.696   1.542   6.418
 2361SOL    HW2 7983   3.808   1.564   6.302
 2362SOL     OW 7984   3.613   5.500   3.490
 2362SOL    HW1 7985   3.592   5.597   3.507
 2362SOL    HW2 7986   3.531   5.453   3.460
 2363SOL     OW 7987   3.738   1.413   4.177
 2363SOL    HW1 7988   3.696   1.461   4.100
 2363SOL    HW2 7989   3.762   1.320   4.151
 2364SOL     OW 7990   1.178   2.633   1.205
 2364SOL    HW1 7991   1.171   2.533   1.210
 2364SOL    HW2 7992   1.243   2.658   1.133
 2365SOL     OW 7993   5.453   2.243   6.457
 2365SOL    HW1 7994   5.378   2.216   6.517
 2365SOL    HW2 7995   5.428   2.325   6.406
 2366SOL     OW 7996   3.684   5.235   0.673
 2366SOL    HW1 7997   3.740   5.315   0.692
 2366SOL    HW2 7998   3.718   5.157   0.726
 2367SOL     OW 7999   2.306   3.067   6.976
 2367SOL    HW1 8000   2.211   3.042   6.996
 2367SOL    HW2 8001   2.367   3.012   0.012
 2368SOL     OW 8002   6.516   5.655   2.912
 2368SOL    HW1 8003   6.538   5.590   2.985
 2368SOL    HW2 8004   6.569   5.739   2.926
 2369SOL     OW 8005   2.323   0.480   3.334
 2369SOL    HW1 8006   2.384   0.441   3.403
 2369SOL    HW2 8007   2.253   0.536   3.379
 2370SOL     OW 8008   5.282   2.171   6.658
 2370SOL    HW1 8009   5.239   2.172   6.748
 2370SOL    HW2 8010   5.284   2.077   6.623
 2371SOL     OW 8011   2.311   6.497   1.825
 2371SOL    HW1 8012   2.342   6.406   1.799
 2371SOL    HW2 8013   2.389   6.553   1.851
 2372SOL     OW 8014   6.579   3.254   2.526
 2372SOL    HW1 8015   6.646   3.324   2.550
 2372SOL    HW2 8016   6.503   3.297   2.478
 2373SOL     OW 8017   2.386   3.420   6.783
 2373SOL    HW1 8018   2.287   3.423   6.767
 2373SOL    HW2 8019   2.403   3.384   6.875
 2374SOL     OW 8020   6.123   2.489   4.702
 2374SOL    HW1 8021   6.116   2.516   4.606
 2374SOL    HW2 8022   6.035   2.504   4.748
 2375SOL     OW 8023   3.390   5.498   4.931
 2375SOL    HW1 8024   3.465   5.564   4.926
 2375SOL    HW2 8025   3.352   5.484   4.839
 2376SOL     OW 8026   6.287   3.307   4.524
 2376SOL    HW1 8027   6.348   3.331   4.599
 2376SOL    HW2 8028   6.283   3.383   4.459
 2377SOL     OW 8029   2.937   3.468   3.963
 2377SOL    HW1 8030   2.955   3.383   3.914
 2377SOL    HW2 8031   3.021   3.523   3.966
 2378SOL     OW 8032   5.325   2.472   6.698
 2378SOL    HW1 8033   5.389   2.438   6.630
 2378SOL    HW2 8034   5.300   2.398   6.760
 2379SOL     OW 8035   6.398   0.277   0.622
 2379SOL    HW1 8036   6.381   0.233   0.710
 2379SOL    HW2 8037   6.413   0.374   0.635
 2380SOL     OW 8038   6.255   2.092   1.502
 2380SOL    HW1 8039   6.183   2.066   1.438
 2380SOL    HW2 8040   6.325   2.145   1.454
 2381SOL     OW 8041   1.755   6.512   3.358
 2381SOL    HW1 8042   1.841   6.480   3.397
 2381SOL    HW2 8043   1.743   6.475   3.266
 2382SOL     OW 8044   2.092   3.415   5.103
 2382SOL    HW1 8045   2.134   3.454   5.185
 2382SOL    HW2 8046   2.110   3.316   5.100
 2383SOL     OW 8047   6.221   6.189   0.873
 2383SOL    HW1 8048   6.266   6.278   0.874
 2383SOL    HW2 8049   6.195   6.165   0.779
 2384SOL     OW 8050   4.549   1.639   1.698
 2384SOL    HW1 8051   4.595   1.713   1.746
 2384SOL    HW2 8052   4.453   1.664   1.682
 2385SOL     OW 8053   0.776   1.967   6.213
 2385SOL    HW1 8054   0.821   2.055   6.218
 2385SOL    HW2 8055   0.726   1.959   6.127
 2386SOL     OW 8056   5.128   5.499   4.137
 2386SOL    HW1 8057   5.188   5.422   4.117
 2386SOL    HW2 8058   5.181   5.584   4.135
 2387SOL     OW 8059   1.741   1.664   3.431
 2387SOL    HW1 8060   1.668   1.680   3.497
 2387SOL    HW2 8061   1.804   1.741   3.431
 2388SOL     OW 8062   6.104   2.349   4.373
 2388SOL    HW1 8063   6.194   2.391   4.372
 2388SOL    HW2 8064   6.034   2.420   4.381
 2389SOL     OW 8065   4.097   5.213   2.710
 2389SOL    HW1 8066   4.135   5.262   2.789
 2389SOL    HW2 8067   4.039   5.275   2.658
 2390SOL     OW 8068   3.427   4.140   1.931
 2390SOL    HW1 8069   3.360   4.066   1.939
 2390SOL    HW2 8070   3.477   4.149   2.016
 2391SOL     OW 8071   4.438   5.272   5.786
 2391SOL    HW1 8072   4.487   5.350   5.826
 2391SOL    HW2 8073   4.399   5.299   5.698
 2392SOL     OW 8074   3.797   0.929   6.594
 2392SOL    HW1 8075   3.755   0.970   6.513
 2392SOL    HW2 8076   3.820   1.000   6.660
 2393SOL     OW 8077   4.290   4.498   5.747
 2393SOL    HW1 8078   4.389   4.494   5.736
 2393SOL    HW2 8079   4.268   4.526   5.840
 2394SOL     OW 8080   0.742   4.039   4.876
 2394SOL    HW1 8081   0.829   4.064   4.918
 2394SOL    HW2 8082   0.678   4.009   4.947
 2395SOL     OW 8083   3.934   6.994   5.942
 2395SOL    HW1 8084   3.856   0.035   5.927
 2395SOL    HW2 8085   3.945   6.934   5.863
 2396SOL     OW 8086   4.315   4.525   0.549
 2396SOL    HW1 8087   4.222   4.517   0.513
 2396SOL    HW2 8088   4.348   4.436   0.578
 2397SOL     OW 8089   0.205   3.644   4.725
 2397SOL    HW1 8090   0.147   3.659   4.806
 2397SOL    HW2 8091   0.176   3.705   4.651
 2398SOL     OW 8092   4.034   4.398   5.630
 2398SOL    HW1 8093   4.111   4.369   5.686
 2398SOL    HW2 8094   4.055   4.383   5.533
 2399SOL     OW 8095   4.304   1.916   1.622
 2399SOL    HW1 8096   4.384   1.962   1.583
 2399SOL    HW2 8097   4.245   1.883   1.548
 2400SOL     OW 8098   2.565   5.252   1.582
 2400SOL    HW1 8099   2.632   5.282   1.650
 2400SOL    HW2 8100   2.575   5.153   1.568
 2401SOL     OW 8101   6.622   6.445   5.845
 2401SOL    HW1 8102   6.580   6.495   5.921
 2401SOL    HW2 8103   6.626   6.505   5.765
 2402SOL     OW 8104   6.981   6.529   4.563
 2402SOL    HW1 8105   0.055   6.562   4.560
 2402SOL    HW2 8106   6.980   6.432   4.584
 2403SOL     OW 8107   0.426   2.032   5.421
 2403SOL    HW1 8108   0.507   2.026   5.362
 2403SOL    HW2 8109   0.365   1.956   5.401
 2404SOL     OW 8110   0.915   0.290   0.494
 2404SOL    HW1 8111   0.957   0.379   0.504
 2404SOL    HW2 8112   0.902   0.248   0.584
 2405SOL     OW 8113   2.644   3.906   1.721
 2405SOL    HW1 8114   2.742   3.883   1.719
 2405SOL    HW2 8115   2.591   3.826   1.692
 2406SOL     OW 8116   4.603   1.337   0.860
 2406SOL    HW1 8117   4.591   1.241   0.834
 2406SOL    HW2 8118   4.587   1.395   0.780
 2407SOL     OW 8119   5.553   0.806   3.556
 2407SOL    HW1 8120   5.489   0.734   3.529
 2407SOL    HW2 8121   5.522   0.847   3.642
 2408SOL     OW 8122   4.652   4.319   2.214
 2408SOL    HW1 8123   4.598   4.316   2.298
 2408SOL    HW2 8124   4.592   4.304   2.136
 2409SOL     OW 8125   1.745   4.375   0.455
 2409SOL    HW1 8126   1.774   4.453   0.511
 2409SOL    HW2 8127   1.825   4.319   0.433
 2410SOL     OW 8128   3.896   3.021   2.673
 2410SOL    HW1 8129   3.879   2.993   2.579
 2410SOL    HW2 8130   3.988   2.991   2.700
 2411SOL     OW 8131   5.213   0.204   4.391
 2411SOL    HW1 8132   5.263   0.208   4.305
 2411SOL    HW2 8133   5.150   0.126   4.390
 2412SOL     OW 8134   4.237   3.249   0.834
 2412SOL    HW1 8135   4.336   3.238   0.847
 2412SOL    HW2 8136   4.207   3.192   0.758
 2413SOL     OW 8137   4.687   0.214   2.294
 2413SOL    HW1 8138   4.787   0.213   2.286
 2413SOL    HW2 8139   4.650   0.288   2.238
 2414SOL     OW 8140   5.453   3.299   4.103
 2414SOL    HW1 8141   5.527   3.235   4.082
 2414SOL    HW2 8142   5.471   3.342   4.192
 2415SOL     OW 8143   4.708   1.454   3.726
 2415SOL    HW1 8144   4.635   1.504   3.773
 2415SOL    HW2 8145   4.700   1.469   3.627
 2416SOL     OW 8146   4.700   1.972   5.971
 2416SOL    HW1 8147   4.743   2.039   6.032
 2416SOL    HW2 8148   4.628   2.016   5.918
 2417SOL     OW 8149   2.883   3.643   4.217
 2417SOL    HW1 8150   2.873   3.555   4.265
 2417SOL    HW2 8151   2.851   3.634   4.123
 2418SOL     OW 8152   3.640   2.889   3.432
 2418SOL    HW1 8153   3.550   2.877   3.475
 2418SOL    HW2 8154   3.630   2.881   3.333
 2419SOL     OW 8155   0.225   6.881   2.890
 2419SOL    HW1 8156   0.147   6.832   2.930
 2419SOL    HW2 8157   0.302   6.877   2.953
 2420SOL     OW 8158   2.369   0.169   2.018
 2420SOL    HW1 8159   2.352   0.175   1.920
 2420SOL    HW2 8160   2.283   0.183   2.067
 2421SOL     OW 8161   3.058   2.157   3.747
 2421SOL    HW1 8162   3.069   2.061   3.722
 2421SOL    HW2 8163   3.130   2.212   3.704
 2422SOL     OW 8164   4.634   1.800   0.807
 2422SOL    HW1 8165   4.691   1.717   0.806
 2422SOL    HW2 8166   4.583   1.804   0.893
 2423SOL     OW 8167   2.423   4.984   2.512
 2423SOL    HW1 8168   2.464   5.057   2.567
 2423SOL    HW2 8169   2.342   5.019   2.465
 2424SOL     OW 8170   5.907   0.376   1.062
 2424SOL    HW1 8171   5.992   0.401   1.109
 2424SOL    HW2 8172   5.831   0.430   1.098
 2425SOL     OW 8173   6.445   6.953   4.407
 2425SOL    HW1 8174   6.528   6.988   4.453
 2425SOL    HW2 8175   6.433   7.000   4.320
 2426SOL     OW 8176   2.704   5.059   4.199
 2426SOL    HW1 8177   2.711   4.982   4.136
 2426SOL    HW2 8178   2.683   5.142   4.148
 2427SOL     OW 8179   5.999   6.960   5.567
 2427SOL    HW1 8180   6.094   6.973   5.594
 2427SOL    HW2 8181   5.996   6.927   5.473
 2428SOL     OW 8182   5.995   0.557   0.567
 2428SOL    HW1 8183   6.080   0.581   0.613
 2428SOL    HW2 8184   5.939   0.639   0.556
 2429SOL     OW 8185   4.796   5.307   2.133
 2429SOL    HW1 8186   4.868   5.368   2.100
 2429SOL    HW2 8187   4.742   5.354   2.203
 2430SOL     OW 8188   5.679   0.814   2.678
 2430SOL    HW1 8189   5.606   0.762   2.723
 2430SOL    HW2 8190   5.642   0.862   2.599
 2431SOL     OW 8191   4.388   0.491   2.200
 2431SOL    HW1 8192   4.311   0.466   2.259
 2431SOL    HW2 8193   4.444   0.561   2.244
 2432SOL     OW 8194   2.467   6.217   2.779
 2432SOL    HW1 8195   2.443   6.211   2.682
 2432SOL    HW2 8196   2.451   6.129   2.823
 2433SOL     OW 8197   3.939   0.268   0.610
 2433SOL    HW1 8198   4.010   0.221   0.558
 2433SOL    HW2 8199   3.853   0.265   0.558
 2434SOL     OW 8200   3.659   3.517   5.769
 2434SOL    HW1 8201   3.691   3.518   5.674
 2434SOL    HW2 8202   3.701   3.440   5.818
 2435SOL     OW 8203   6.042   6.071   5.316
 2435SOL    HW1 8204   6.043   5.987   5.261
 2435SOL    HW2 8205   6.091   6.055   5.402
 2436SOL     OW 8206   2.849   5.292   0.353
 2436SOL    HW1 8207   2.822   5.370   0.409
 2436SOL    HW2 8208   2.799   5.211   0.383
 2437SOL     OW 8209   6.662   0.454   5.974
 2437SOL    HW1 8210   6.641   0.375   6.032
 2437SOL    HW2 8211   6.597   0.527   5.993
 2438SOL     OW 8212   2.868   2.880   1.227
 2438SOL    HW1 8213   2.817   2.950   1.177
 2438SOL    HW2 8214   2.804   2.820   1.275
 2439SOL     OW 8215   6.027   4.356   5.089
 2439SOL    HW1 8216   5.934   4.365   5.125
 2439SOL    HW2 8217   6.028   4.284   5.019
 2440SOL     OW 8218   6.035   4.928   5.785
 2440SOL    HW1 8219   6.096   4.854   5.812
 2440SOL    HW2 8220   6.006   4.913   5.690
 2441SOL     OW 8221   6.417   1.933   0.738
 2441SOL    HW1 8222   6.334   1.898   0.694
 2441SOL    HW2 8223   6.396   2.017   0.787
 2442SOL     OW 8224   6.761   3.302   5.548
 2442SOL    HW1 8225   6.776   3.327   5.643
 2442SOL    HW2 8226   6.816   3.221   5.526
 2443SOL     OW 8227   2.642   5.100   5.547
 2443SOL    HW1 8228   2.730   5.056   5.528
 2443SOL    HW2 8229   2.649   5.198   5.526
 2444SOL     OW 8230   3.543   2.705   5.624
 2444SOL    HW1 8231   3.580   2.699   5.531
 2444SOL    HW2 8232   3.526   2.613   5.659
 2445SOL     OW 8233   0.537   0.027   0.621
 2445SOL    HW1 8234   0.488   0.025   0.534
 2445SOL    HW2 8235   0.487   6.994   0.689
 2446SOL     OW 8236   5.513   3.640   6.429
 2446SOL    HW1 8237   5.608   3.617   6.405
 2446SOL    HW2 8238   5.455   3.559   6.418
 2447SOL     OW 8239   0.618   2.690   6.623
 2447SOL    HW1 8240   0.530   2.726   6.654
 2447SOL    HW2 8241   0.652   2.623   6.689
 2448SOL     OW 8242   0.116   0.366   4.437
 2448SOL    HW1 8243   0.049   0.381   4.510
 2448SOL    HW2 8244   0.116   0.269   4.412
 2449SOL     OW 8245   0.925   2.786   4.421
 2449SOL    HW1 8246   0.905   2.878   4.388
 2449SOL    HW2 8247   0.852   2.724   4.394
 2450SOL     OW 8248   1.464   3.272   1.810
 2450SOL    HW1 8249   1.490   3.355   1.859
 2450SOL    HW2 8250   1.395   3.294   1.741
 2451SOL     OW 8251   2.641   6.600   4.647
 2451SOL    HW1 8252   2.732   6.559   4.637
 2451SOL    HW2 8253   2.613   6.638   4.559
 2452SOL     OW 8254   2.303   2.399   4.263
 2452SOL    HW1 8255   2.345   2.330   4.322
 2452SOL    HW2 8256   2.371   2.432   4.198
 2453SOL     OW 8257   0.362   3.253   1.771
 2453SOL    HW1 8258   0.461   3.252   1.763
 2453SOL    HW2 8259   0.331   3.171   1.820
 2454SOL     OW 8260   2.386   0.005   1.339
 2454SOL    HW1 8261   2.423   0.055   1.418
 2454SOL    HW2 8262   2.311   0.057   1.299
 2455SOL     OW 8263   5.169   3.620   1.277
 2455SOL    HW1 8264   5.155   3.585   1.184
 2455SOL    HW2 8265   5.146   3.550   1.343
 2456SOL     OW 8266   2.857   6.919   0.980
 2456SOL    HW1 8267   2.841   6.825   1.009
 2456SOL    HW2 8268   2.919   6.919   0.901
 2457SOL     OW 8269   5.966   5.913   1.208
 2457SOL    HW1 8270   6.045   5.970   1.184
 2457SOL    HW2 8271   5.929   5.944   1.296
 2458SOL     OW 8272   0.343   5.642   2.635
 2458SOL    HW1 8273   0.322   5.545   2.636
 2458SOL    HW2 8274   0.269   5.693   2.678
 2459SOL     OW 8275   0.525   1.241   0.086
 2459SOL    HW1 8276   0.475   1.323   0.114
 2459SOL    HW2 8277   0.533   1.240   7.006
 2460SOL     OW 8278   3.001   4.814   1.315
 2460SOL    HW1 8279   2.999   4.856   1.406
 2460SOL    HW2 8280   3.083   4.845   1.266
 2461SOL     OW 8281   4.932   1.442   3.163
 2461SOL    HW1 8282   4.966   1.418   3.254
 2461SOL    HW2 8283   5.010   1.463   3.103
 2462SOL     OW 8284   2.865   4.147   6.262
 2462SOL    HW1 8285   2.896   4.159   6.168
 2462SOL    HW2 8286   2.940   4.166   6.325
 2463SOL     OW 8287   0.596   2.255   4.754
 2463SOL    HW1 8288   0.516   2.220   4.705
 2463SOL    HW2 8289   0.633   2.334   4.704
 2464SOL     OW 8290   1.505   4.153   0.701
 2464SOL    HW1 8291   1.506   4.103   0.788
 2464SOL    HW2 8292   1.448   4.105   0.635
 2465SOL     OW 8293   5.847   5.168   2.376
 2465SOL    HW1 8294   5.920   5.159   2.443
 2465SOL    HW2 8295   5.765   5.203   2.421
 2466SOL     OW 8296   3.563   1.493   1.606
 2466SOL    HW1 8297   3.559   1.577   1.661
 2466SOL    HW2 8298   3.505   1.424   1.648
 2467SOL     OW 8299   0.294   1.504   5.254
 2467SOL    HW1 8300   0.333   1.449   5.327
 2467SOL    HW2 8301   0.336   1.478   5.167
 2468SOL     OW 8302   6.800   4.457   0.678
 2468SOL    HW1 8303   6.747   4.375   0.660
 2468SOL    HW2 8304   6.890   4.449   0.635
 2469SOL     OW 8305   2.731   2.953   5.642
 2469SOL    HW1 8306   2.760   3.038   5.688
 2469SOL    HW2 8307   2.742   2.963   5.543
 2470SOL     OW 8308   5.633   2.664   0.755
 2470SOL    HW1 8309   5.696   2.597   0.717
 2470SOL    HW2 8310   5.578   2.621   0.827
 2471SOL     OW 8311   0.343   1.191   3.570
 2471SOL    HW1 8312   0.411   1.118   3.560
 2471SOL    HW2 8313   0.260   1.154   3.611
 2472SOL     OW 8314   5.661   1.441   3.593
 2472SOL    HW1 8315   5.751   1.450   3.637
 2472SOL    HW2 8316   5.670   1.462   3.495
 2473SOL     OW 8317   0.488   6.418   5.302
 2473SOL    HW1 8318   0.584   6.397   5.282
 2473SOL    HW2 8319   0.464   6.382   5.392
 2474SOL     OW 8320   6.157   6.928   4.252
 2474SOL    HW1 8321   6.107   7.012   4.231
 2474SOL    HW2 8322   6.151   6.910   4.350
 2475SOL     OW 8323   4.324   2.272   5.979
 2475SOL    HW1 8324   4.409   2.224   5.959
 2475SOL    HW2 8325   4.255   2.247   5.911
 2476SOL     OW 8326   0.321   1.633   3.756
 2476SOL    HW1 8327   0.378   1.689   3.815
 2476SOL    HW2 8328   0.377   1.563   3.711
 2477SOL     OW 8329   4.450   5.037   2.103
 2477SOL    HW1 8330   4.521   5.095   2.062
 2477SOL    HW2 8331   4.459   5.038   2.202
 2478SOL     OW 8332   6.978   6.771   3.278
 2478SOL    HW1 8333   6.960   6.829   3.199
 2478SOL    HW2 8334   6.997   6.678   3.248
 2479SOL     OW 8335   0.405   2.076   6.760
 2479SOL    HW1 8336   0.431   2.137   6.835
 2479SOL    HW2 8337   0.487   2.045   6.712
 2480SOL     OW 8338   0.273   5.343   2.045
 2480SOL    HW1 8339   0.259   5.326   1.947
 2480SOL    HW2 8340   0.203   5.406   2.078
 2481SOL     OW 8341   4.045   4.912   2.237
 2481SOL    HW1 8342   4.008   4.991   2.285
 2481SOL    HW2 8343   3.971   4.854   2.205
 2482SOL     OW 8344   5.425   2.739   4.507
 2482SOL    HW1 8345   5.457   2.677   4.435
 2482SOL    HW2 8346   5.492   2.743   4.581
 2483SOL     OW 8347   0.527   3.066   0.023
 2483SOL    HW1 8348   0.626   3.079   0.014
 2483SOL    HW2 8349   0.480   3.137   6.990
 2484SOL     OW 8350   4.105   3.718   6.184
 2484SOL    HW1 8351   4.085   3.656   6.260
 2484SOL    HW2 8352   4.020   3.743   6.138
 2485SOL     OW 8353   0.320   6.118   0.271
 2485SOL    HW1 8354   0.268   6.196   0.305
 2485SOL    HW2 8355   0.403   6.106   0.326
 2486SOL     OW 8356   0.940   4.908   3.726
 2486SOL    HW1 8357   0.871   4.890   3.796
 2486SOL    HW2 8358   1.000   4.982   3.757
 2487SOL     OW 8359   3.427   1.576   1.391
 2487SOL    HW1 8360   3.440   1.517   1.312
 2487SOL    HW2 8361   3.479   1.541   1.469
 2488SOL     OW 8362   2.736   5.918   6.330
 2488SOL    HW1 8363   2.782   5.970   6.402
 2488SOL    HW2 8364   2.794   5.914   6.249
 2489SOL     OW 8365   0.193   6.203   4.362
 2489SOL    HW1 8366   0.156   6.186   4.271
 2489SOL    HW2 8367   0.278   6.254   4.354
 2490SOL     OW 8368   5.392   3.164   1.769
 2490SOL    HW1 8369   5.477   3.138   1.814
 2490SOL    HW2 8370   5.315   3.137   1.827
 2491SOL     OW 8371   0.050   4.151   2.907
 2491SOL    HW1 8372   0.048   4.230   2.847
 2491SOL    HW2 8373   7.010   4.169   2.986
 2492SOL     OW 8374   3.792   1.299   5.976
 2492SOL    HW1 8375   3.783   1.209   5.934
 2492SOL    HW2 8376   3.882   1.337   5.954
 2493SOL     OW 8377   6.893   0.911   4.998
 2493SOL    HW1 8378   6.882   0.978   4.924
 2493SOL    HW2 8379   6.880   0.819   4.961
 2494SOL     OW 8380   4.374   4.936   0.670
 2494SOL    HW1 8381   4.413   4.992   0.597
 2494SOL    HW2 8382   4.398   4.975   0.759
 2495SOL     OW 8383   6.935   0.944   2.943
 2495SOL    HW1 8384   6.846   0.898   2.934
 2495SOL    HW2 8385   7.007   0.876   2.956
 2496SOL     OW 8386   1.566   5.545   0.131
 2496SOL    HW1 8387   1.515   5.459   0.129
 2496SOL    HW2 8388   1.502   5.621   0.120
 2497SOL     OW 8389   5.580   0.083   6.831
 2497SOL    HW1 8390   5.604   0.167   6.880
 2497SOL    HW2 8391   5.639   0.073   6.751
 2498SOL     OW 8392   1.041   3.245   4.874
 2498SOL    HW1 8393   0.959   3.243   4.931
 2498SOL    HW2 8394   1.055   3.154   4.834
 2499SOL     OW 8395   5.151   0.693   6.922
 2499SOL    HW1 8396   5.083   0.675   6.851
 2499SOL    HW2 8397   5.143   0.624   6.994
 2500SOL     OW 8398   4.141   4.064   6.489
 2500SOL    HW1 8399   4.157   4.086   6.393
 2500SOL    HW2 8400   4.061   4.114   6.521
 2501SOL     OW 8401   6.328   5.017   0.901
 2501SOL    HW1 8402   6.356   5.090   0.963
 2501SOL    HW2 8403   6.229   5.005   0.905
 2502SOL     OW 8404   0.460   6.982   3.556
 2502SOL    HW1 8405   0.363   6.993   3.579
 2502SOL    HW2 8406   0.491   0.041   3.503
 2503SOL     OW 8407   5.447   6.899   4.023
 2503SOL    HW1 8408   5.428   6.803   4.005
 2503SOL    HW2 8409   5.388   6.932   4.097
 2504SOL     OW 8410   2.123   4.314   3.249
 2504SOL    HW1 8411   2.207   4.355   3.213
 2504SOL    HW2 8412   2.101   4.231   3.198
 2505SOL     OW 8413   4.951   4.264   4.951
 2505SOL    HW1 8414   4.944   4.209   4.868
 2505SOL    HW2 8415   5.045   4.261   4.985
 2506SOL     OW 8416   0.414   0.965   0.654
 2506SOL    HW1 8417   0.451   1.051   0.687
 2506SOL    HW2 8418   0.365   0.981   0.568
 2507SOL     OW 8419   6.403   6.855   6.757
 2507SOL    HW1 8420   6.337   6.859   6.832
 2507SOL    HW2 8421   6.379   6.923   6.688
 2508SOL     OW 8422   1.855   2.290   1.759
 2508SOL    HW1 8423   1.828   2.342   1.677
 2508SOL    HW2 8424   1.953   2.297   1.772
 2509SOL     OW 8425   6.042   1.261   3.204
 2509SOL    HW1 8426   6.038   1.186   3.269
 2509SOL    HW2 8427   6.130   1.307   3.212
 2510SOL     OW 8428   3.851   5.971   2.300
 2510SOL    HW1 8429   3.938   5.978   2.349
 2510SOL    HW2 8430   3.826   5.875   2.290
 2511SOL     OW 8431   1.088   6.810   3.281
 2511SOL    HW1 8432   1.094   6.710   3.278
 2511SOL    HW2 8433   0.993   6.837   3.298
 2512SOL     OW 8434   5.917   3.889   4.447
 2512SOL    HW1 8435   5.821   3.910   4.465
 2512SOL    HW2 8436   5.925   3.796   4.413
 2513SOL     OW 8437   0.048   4.416   0.599
 2513SOL    HW1 8438   0.051   4.320   0.571
 2513SOL    HW2 8439   0.079   4.425   0.694
 2514SOL     OW 8440   0.048   2.503   3.574
 2514SOL    HW1 8441   0.049   2.550   3.662
 2514SOL    HW2 8442   0.017   2.409   3.587
 2515SOL     OW 8443   1.051   4.776   6.890
 2515SOL    HW1 8444   1.140   4.804   6.854
 2515SOL    HW2 8445   1.059   4.755   6.988
 2516SOL     OW 8446   5.445   6.552   3.759
 2516SOL    HW1 8447   5.496   6.527   3.676
 2516SOL    HW2 8448   5.410   6.469   3.802
 2517SOL     OW 8449   1.784   5.598   0.976
 2517SOL    HW1 8450   1.722   5.539   1.028
 2517SOL    HW2 8451   1.877   5.560   0.980
 2518SOL     OW 8452   2.037   2.993   6.916
 2518SOL    HW1 8453   2.060   2.932   6.991
 2518SOL    HW2 8454   1.977   3.066   6.950
 2519SOL     OW 8455   5.784   4.019   5.071
 2519SOL    HW1 8456   5.868   3.982   5.031
 2519SOL    HW2 8457   5.705   3.974   5.029
 2520SOL     OW 8458   3.398   5.435   1.939
 2520SOL    HW1 8459   3.352   5.347   1.928
 2520SOL    HW2 8460   3.374   5.495   1.863
 2521SOL     OW 8461   5.354   6.504   5.956
 2521SOL    HW1 8462   5.300   6.419   5.956
 2521SOL    HW2 8463   5.352   6.545   6.048
 2522SOL     OW 8464   2.575   4.658   4.628
 2522SOL    HW1 8465   2.630   4.694   4.704
 2522SOL    HW2 8466   2.478   4.662   4.652
 2523SOL     OW 8467   0.967   2.213   5.334
 2523SOL    HW1 8468   0.992   2.184   5.427
 2523SOL    HW2 8469   1.004   2.147   5.268
 2524SOL     OW 8470   1.628   6.901   4.269
 2524SOL    HW1 8471   1.699   6.839   4.236
 2524SOL    HW2 8472   1.558   6.911   4.199
 2525SOL     OW 8473   2.485   4.562   2.670
 2525SOL    HW1 8474   2.547   4.636   2.641
 2525SOL    HW2 8475   2.474   4.497   2.595
 2526SOL     OW 8476   1.824   2.434   4.673
 2526SOL    HW1 8477   1.864   2.513   4.719
 2526SOL    HW2 8478   1.818   2.452   4.575
 2527SOL     OW 8479   6.775   0.171   4.252
 2527SOL    HW1 8480   6.689   0.148   4.206
 2527SOL    HW2 8481   6.838   0.212   4.187
 2528SOL     OW 8482   5.978   5.410   6.917
 2528SOL    HW1 8483   6.049   5.340   6.907
 2528SOL    HW2 8484   5.930   5.397   7.004
 2529SOL     OW 8485   5.044   3.866   5.335
 2529SOL    HW1 8486   5.106   3.828   5.404
 2529SOL    HW2 8487   4.973   3.800   5.313
 2530SOL     OW 8488   1.003   6.291   3.290
 2530SOL    HW1 8489   0.929   6.356   3.301
 2530SOL    HW2 8490   0.993   6.217   3.356
 2531SOL     OW 8491   4.978   1.275   6.829
 2531SOL    HW1 8492   5.047   1.237   6.768
 2531SOL    HW2 8493   4.966   1.373   6.810
 2532SOL     OW 8494   0.789   4.526   5.731
 2532SOL    HW1 8495   0.886   4.503   5.741
 2532SOL    HW2 8496   0.738   4.491   5.810
 2533SOL     OW 8497   5.653   0.215   5.590
 2533SOL    HW1 8498   5.721   0.203   5.519
 2533SOL    HW2 8499   5.673   0.299   5.642
 2534SOL     OW 8500   6.866   1.833   3.271
 2534SOL    HW1 8501   6.880   1.904   3.340
 2534SOL    HW2 8502   6.831   1.875   3.187
 2535SOL     OW 8503   2.729   1.251   2.660
 2535SOL    HW1 8504   2.683   1.284   2.742
 2535SOL    HW2 8505   2.722   1.320   2.588
 2536SOL     OW 8506   6.809   0.793   4.607
 2536SOL    HW1 8507   6.831   0.862   4.538
 2536SOL    HW2 8508   6.716   0.810   4.642
 2537SOL     OW 8509   3.786   6.197   2.654
 2537SOL    HW1 8510   3.707   6.152   2.613
 2537SOL    HW2 8511   3.854   6.217   2.584
 2538SOL     OW 8512   0.486   4.588   5.299
 2538SOL    HW1 8513   0.501   4.664   5.235
 2538SOL    HW2 8514   0.410   4.531   5.266
 2539SOL     OW 8515   2.205   0.576   5.448
 2539SOL    HW1 8516   2.179   0.497   5.503
 2539SOL    HW2 8517   2.154   0.657   5.480
 2540SOL     OW 8518   4.807   1.894   2.068
 2540SOL    HW1 8519   4.764   1.866   2.154
 2540SOL    HW2 8520   4.827   1.992   2.072
 2541SOL     OW 8521   1.148   1.088   6.127
 2541SOL    HW1 8522   1.136   1.113   6.223
 2541SOL    HW2 8523   1.175   1.169   6.074
 2542SOL     OW 8524   3.768   2.126   3.787
 2542SOL    HW1 8525   3.784   2.117   3.689
 2542SOL    HW2 8526   3.710   2.206   3.804
 2543SOL     OW 8527   6.735   1.283   5.082
 2543SOL    HW1 8528   6.731   1.258   5.178
 2543SOL    HW2 8529   6.722   1.382   5.073
 2544SOL     OW 8530   0.224   6.409   1.684
 2544SOL    HW1 8531   0.267   6.334   1.635
 2544SOL    HW2 8532   0.204   6.484   1.620
 2545SOL     OW 8533   6.852   1.330   0.281
 2545SOL    HW1 8534   6.878   1.308   0.375
 2545SOL    HW2 8535   6.754   1.312   0.270
 2546SOL     OW 8536   6.231   3.116   2.484
 2546SOL    HW1 8537   6.171   3.177   2.535
 2546SOL    HW2 8538   6.230   3.141   2.387
 2547SOL     OW 8539   5.885   3.951   0.863
 2547SOL    HW1 8540   5.960   3.894   0.830
 2547SOL    HW2 8541   5.907   3.986   0.954
 2548SOL     OW 8542   6.458   0.776   5.611
 2548SOL    HW1 8543   6.509   0.853   5.648
 2548SOL    HW2 8544   6.499   0.690   5.642
 2549SOL     OW 8545   2.632   5.163   0.682
 2549SOL    HW1 8546   2.721   5.186   0.721
 2549SOL    HW2 8547   2.577   5.117   0.751
 2550SOL     OW 8548   3.738   6.505   0.904
 2550SOL    HW1 8549   3.653   6.474   0.863
 2550SOL    HW2 8550   3.745   6.471   0.998
 2551SOL     OW 8551   3.230   4.920   1.204
 2551SOL    HW1 8552   3.285   4.841   1.179
 2551SOL    HW2 8553   3.273   5.004   1.170
 2552SOL     OW 8554   2.189   4.316   1.608
 2552SOL    HW1 8555   2.194   4.350   1.702
 2552SOL    HW2 8556   2.095   4.323   1.575
 2553SOL     OW 8557   4.668   0.871   6.907
 2553SOL    HW1 8558   4.605   0.838   6.977
 2553SOL    HW2 8559   4.659   0.815   6.825
 2554SOL     OW 8560   0.923   5.585   1.318
 2554SOL    HW1 8561   0.993   5.526   1.277
 2554SOL    HW2 8562   0.874   5.633   1.245
 2555SOL     OW 8563   0.359   6.306   5.078
 2555SOL    HW1 8564   0.399   6.214   5.073
 2555SOL    HW2 8565   0.385   6.349   5.164
 2556SOL     OW 8566   4.515   0.055   1.466
 2556SOL    HW1 8567   4.542   6.980   1.447
 2556SOL    HW2 8568   4.429   0.075   1.420
 2557SOL     OW 8569   2.580   1.138   0.115
 2557SOL    HW1 8570   2.596   1.189   0.030
 2557SOL    HW2 8571   2.512   1.067   0.099
 2558SOL     OW 8572   5.290   1.850   1.232
 2558SOL    HW1 8573   5.222   1.796   1.182
 2558SOL    HW2 8574   5.263   1.947   1.230
 2559SOL     OW 8575   6.539   5.411   3.582
 2559SOL    HW1 8576   6.568   5.497   3.623
 2559SOL    HW2 8577   6.450   5.384   3.620
 2560SOL     OW 8578   4.728   2.430   2.049
 2560SOL    HW1 8579   4.630   2.415   2.039
 2560SOL    HW2 8580   4.746   2.528   2.057
 2561SOL     OW 8581   3.293   0.042   4.683
 2561SOL    HW1 8582   3.304   0.142   4.679
 2561SOL    HW2 8583   3.213   0.016   4.629
 2562SOL     OW 8584   1.649   6.467   5.155
 2562SOL    HW1 8585   1.641   6.392   5.221
 2562SOL    HW2 8586   1.739   6.510   5.165
 2563SOL     OW 8587   3.646   2.671   6.441
 2563SOL    HW1 8588   3.591   2.733   6.496
 2563SOL    HW2 8589   3.608   2.578   6.448
 2564SOL     OW 8590   1.230   1.357   0.204
 2564SOL    HW1 8591   1.208   1.422   0.131
 2564SOL    HW2 8592   1.171   1.374   0.283
 2565SOL     OW 8593   0.590   0.812   0.835
 2565SOL    HW1 8594   0.533   0.811   0.752
 2565SOL    HW2 8595   0.672   0.867   0.818
 2566SOL     OW 8596   2.848   0.786   0.694
 2566SOL    HW1 8597   2.775   0.725   0.664
 2566SOL    HW2 8598   2.808   0.868   0.736
 2567SOL     OW 8599   2.093   0.505   6.571
 2567SOL    HW1 8600   2.145   0.583   6.534
 2567SOL    HW2 8601   2.121   0.421   6.524
 2568SOL     OW 8602   1.741   5.542   1.344
 2568SOL    HW1 8603   1.696   5.512   1.261
 2568SOL    HW2 8604   1.814   5.607   1.321
 2569SOL     OW 8605   1.842   6.464   6.804
 2569SOL    HW1 8606   1.746   6.483   6.827
 2569SOL    HW2 8607   1.855   6.476   6.706
 2570SOL     OW 8608   1.016   6.612   3.983
 2570SOL    HW1 8609   0.943   6.616   3.915
 2570SOL    HW2 8610   0.976   6.610   4.075
 2571SOL     OW 8611   3.780   4.042   3.163
 2571SOL    HW1 8612   3.814   3.975   3.228
 2571SOL    HW2 8613   3.816   4.021   3.072
 2572SOL     OW 8614   3.151   5.346   2.782
 2572SOL    HW1 8615   3.067   5.352   2.836
 2572SOL    HW2 8616   3.130   5.355   2.685
 2573SOL     OW 8617   6.691   0.990   3.316
 2573SOL    HW1 8618   6.746   0.997   3.400
 2573SOL    HW2 8619   6.735   1.041   3.243
 2574SOL     OW 8620   0.268   3.281   2.156
 2574SOL    HW1 8621   0.230   3.197   2.196
 2574SOL    HW2 8622   0.368   3.274   2.156
 2575SOL     OW 8623   4.865   3.506   5.620
 2575SOL    HW1 8624   4.841   3.596   5.655
 2575SOL    HW2 8625   4.899   3.449   5.695
 2576SOL     OW 8626   0.783   0.616   3.282
 2576SOL    HW1 8627   0.837   0.532   3.277
 2576SOL    HW2 8628   0.723   0.612   3.361
 2577SOL     OW 8629   1.510   4.811   1.731
 2577SOL    HW1 8630   1.576   4.860   1.674
 2577SOL    HW2 8631   1.419   4.852   1.720
 2578SOL     OW 8632   4.657   2.568   4.995
 2578SOL    HW1 8633   4.603   2.537   4.916
 2578SOL    HW2 8634   4.691   2.660   4.977
 2579SOL     OW 8635   0.223   1.289   6.363
 2579SOL    HW1 8636   0.182   1.369   6.406
 2579SOL    HW2 8637   0.316   1.311   6.333
 2580SOL     OW 8638   1.875   1.229   5.513
 2580SOL    HW1 8639   1.786   1.222   5.467
 2580SOL    HW2 8640   1.947   1.201   5.450
 2581SOL     OW 8641   6.245   6.541   4.281
 2581SOL    HW1 8642   6.332   6.504   4.248
 2581SOL    HW2 8643   6.262   6.598   4.362
 2582SOL     OW 8644   6.957   4.671   3.024
 2582SOL    HW1 8645   6.948   4.588   3.079
 2582SOL    HW2 8646   6.877   4.729   3.039
 2583SOL     OW 8647   3.044   1.089   7.020
 2583SOL    HW1 8648   3.103   1.167   7.000
 2583SOL    HW2 8649   2.978   1.114   0.071
 2584SOL     OW 8650   4.220   0.613   3.443
 2584SOL    HW1 8651   4.202   0.711   3.443
 2584SOL    HW2 8652   4.247   0.584   3.351
 2585SOL     OW 8653   4.104   0.822   2.050
 2585SOL    HW1 8654   4.036   0.850   2.117
 2585SOL    HW2 8655   4.072   0.740   2.002
 2586SOL     OW 8656   0.085   1.466   4.336
 2586SOL    HW1 8657   0.050   1.374   4.350
 2586SOL    HW2 8658   0.102   1.509   4.425
 2587SOL     OW 8659   6.838   5.261   2.833
 2587SOL    HW1 8660   6.936   5.261   2.813
 2587SOL    HW2 8661   6.823   5.272   2.931
 2588SOL     OW 8662   4.664   6.914   2.590
 2588SOL    HW1 8663   4.709   6.946   2.674
 2588SOL    HW2 8664   4.567   6.897   2.610
 2589SOL     OW 8665   4.417   6.346   1.381
 2589SOL    HW1 8666   4.381   6.335   1.474
 2589SOL    HW2 8667   4.369   6.284   1.320
 2590SOL     OW 8668   3.679   6.099   3.641
 2590SOL    HW1 8669   3.666   6.020   3.701
 2590SOL    HW2 8670   3.758   6.084   3.582
 2591SOL     OW 8671   6.123   0.657   0.886
 2591SOL    HW1 8672   6.031   0.622   0.868
 2591SOL    HW2 8673   6.167   0.682   0.800
 2592SOL     OW 8674   2.889   4.735   1.722
 2592SOL    HW1 8675   2.865   4.655   1.776
 2592SOL    HW2 8676   2.813   4.758   1.661
 2593SOL     OW 8677   3.416   6.922   3.343
 2593SOL    HW1 8678   3.507   6.888   3.319
 2593SOL    HW2 8679   3.422   6.981   3.423
 2594SOL     OW 8680   0.903   6.018   6.563
 2594SOL    HW1 8681   0.871   5.933   6.604
 2594SOL    HW2 8682   0.958   5.997   6.482
 2595SOL     OW 8683   6.750   2.755   4.003
 2595SOL    HW1 8684   6.776   2.787   3.912
 2595SOL    HW2 8685   6.807   2.798   4.072
 2596SOL     OW 8686   3.865   2.059   0.912
 2596SOL    HW1 8687   3.783   2.010   0.940
 2596SOL    HW2 8688   3.924   2.072   0.992
 2597SOL     OW 8689   2.121   2.502   6.282
 2597SOL    HW1 8690   2.093   2.569   6.213
 2597SOL    HW2 8691   2.220   2.504   6.292
 2598SOL     OW 8692   6.753   0.643   3.035
 2598SOL    HW1 8693   6.834   0.678   3.082
 2598SOL    HW2 8694   6.742   0.546   3.056
 2599SOL     OW 8695   4.911   5.880   6.656
 2599SOL    HW1 8696   4.861   5.932   6.726
 2599SOL    HW2 8697   4.893   5.783   6.667
 2600SOL     OW 8698   0.400   2.271   4.554
 2600SOL    HW1 8699   0.386   2.362   4.594
 2600SOL    HW2 8700   0.441   2.281   4.464
 2601SOL     OW 8701   4.123   3.825   5.039
 2601SOL    HW1 8702   4.172   3.747   5.002
 2601SOL    HW2 8703   4.031   3.829   5.000
 2602SOL     OW 8704   6.046   6.255   6.074
 2602SOL    HW1 8705   6.035   6.323   6.147
 2602SOL    HW2 8706   6.130   6.202   6.090
 2603SOL     OW 8707   1.221   2.347   6.562
 2603SOL    HW1 8708   1.206   2.261   6.512
 2603SOL    HW2 8709   1.157   2.416   6.529
 2604SOL     OW 8710   5.769   1.922   0.819
 2604SOL    HW1 8711   5.803   1.828   0.831
 2604SOL    HW2 8712   5.689   1.936   0.877
 2605SOL     OW 8713   6.240   3.516   4.343
 2605SOL    HW1 8714   6.201   3.465   4.266
 2605SOL    HW2 8715   6.250   3.612   4.318
 2606SOL     OW 8716   6.775   4.442   1.078
 2606SOL    HW1 8717   6.695   4.457   1.135
 2606SOL    HW2 8718   6.797   4.344   1.076
 2607SOL     OW 8719   1.320   1.456   4.336
 2607SOL    HW1 8720   1.321   1.551   4.307
 2607SOL    HW2 8721   1.226   1.423   4.340
 2608SOL     OW 8722   5.128   6.962   0.800
 2608SOL    HW1 8723   5.063   6.887   0.812
 2608SOL    HW2 8724   5.144   7.006   0.888
 2609SOL     OW 8725   0.696   2.586   3.453
 2609SOL    HW1 8726   0.724   2.640   3.373
 2609SOL    HW2 8727   0.684   2.491   3.427
 2610SOL     OW 8728   5.699   6.146   4.382
 2610SOL    HW1 8729   5.704   6.198   4.298
 2610SOL    HW2 8730   5.606   6.151   4.419
 2611SOL     OW 8731   2.684   5.263   1.826
 2611SOL    HW1 8732   2.644   5.334   1.883
 2611SOL    HW2 8733   2.638   5.176   1.842
 2612SOL     OW 8734   0.505   6.796   5.292
 2612SOL    HW1 8735   0.539   6.856   5.364
 2612SOL    HW2 8736   0.405   6.795   5.295
 2613SOL     OW 8737   3.533   0.992   0.727
 2613SOL    HW1 8738   3.510   0.895   0.728
 2613SOL    HW2 8739   3.607   1.008   0.661
 2614SOL     OW 8740   6.385   6.219   6.485
 2614SOL    HW1 8741   6.477   6.187   6.510
 2614SOL    HW2 8742   6.349   6.278   6.558
 2615SOL     OW 8743   5.682   4.469   1.356
 2615SOL    HW1 8744   5.762   4.424   1.396
 2615SOL    HW2 8745   5.625   4.506   1.429
 2616SOL     OW 8746   3.955   3.386   2.251
 2616SOL    HW1 8747   3.989   3.292   2.255
 2616SOL    HW2 8748   4.002   3.441   2.319
 2617SOL     OW 8749   2.699   6.758   1.206
 2617SOL    HW1 8750   2.623   6.821   1.188
 2617SOL    HW2 8751   2.672   6.665   1.179
 2618SOL     OW 8752   0.630   6.888   0.300
 2618SOL    HW1 8753   0.706   6.892   0.235
 2618SOL    HW2 8754   0.610   6.793   0.322
 2619SOL     OW 8755   6.149   1.719   1.456
 2619SOL    HW1 8756   6.137   1.630   1.414
 2619SOL    HW2 8757   6.155   1.709   1.555
 2620SOL     OW 8758   1.424   5.683   4.157
 2620SOL    HW1 8759   1.464   5.655   4.244
 2620SOL    HW2 8760   1.410   5.603   4.099
 2621SOL     OW 8761   0.545   5.200   3.923
 2621SOL    HW1 8762   0.460   5.219   3.874
 2621SOL    HW2 8763   0.550   5.102   3.944
 2622SOL     OW 8764   2.329   2.532   5.158
 2622SOL    HW1 8765   2.418   2.487   5.152
 2622SOL    HW2 8766   2.288   2.512   5.247
 2623SOL     OW 8767   3.394   0.204   6.493
 2623SOL    HW1 8768   3.398   0.211   6.593
 2623SOL    HW2 8769   3.410   0.109   6.466
 2624SOL     OW 8770   6.544   2.048   4.090
 2624SOL    HW1 8771   6.537   2.117   4.018
 2624SOL    HW2 8772   6.527   2.091   4.179
 2625SOL     OW 8773   3.730   0.175   5.900
 2625SOL    HW1 8774   3.789   0.254   5.907
 2625SOL    HW2 8775   3.671   0.184   5.819
 2626SOL     OW 8776   1.891   0.343   2.840
 2626SOL    HW1 8777   1.950   0.284   2.896
 2626SOL    HW2 8778   1.907   0.438   2.865
 2627SOL     OW 8779   0.500   0.624   5.066
 2627SOL    HW1 8780   0.571   0.553   5.067
 2627SOL    HW2 8781   0.523   0.692   4.997
 2628SOL     OW 8782   3.405   6.206   0.016
 2628SOL    HW1 8783   3.434   6.300   0.035
 2628SOL    HW2 8784   3.420   6.150   0.098
 2629SOL     OW 8785   2.889   3.753   1.627
 2629SOL    HW1 8786   2.935   3.820   1.568
 2629SOL    HW2 8787   2.956   3.690   1.664
 2630SOL     OW 8788   2.653   2.387   2.581
 2630SOL    HW1 8789   2.744   2.391   2.623
 2630SOL    HW2 8790   2.628   2.292   2.566
 2631SOL     OW 8791   4.085   6.045   4.653
 2631SOL    HW1 8792   4.094   5.949   4.625
 2631SOL    HW2 8793   4.114   6.104   4.578
 2632SOL     OW 8794   4.620   0.991   1.111
 2632SOL    HW1 8795   4.627   0.892   1.100
 2632SOL    HW2 8796   4.643   1.036   1.025
 2633SOL     OW 8797   6.824   2.648   6.745
 2633SOL    HW1 8798   6.795   2.553   6.760
 2633SOL    HW2 8799   6.886   2.651   6.667
 2634SOL     OW 8800   3.237   5.106   0.958
 2634SOL    HW1 8801   3.216   5.074   0.865
 2634SOL    HW2 8802   3.336   5.109   0.970
 2635SOL     OW 8803   6.372   4.482   3.709
 2635SOL    HW1 8804   6.371   4.438   3.619
 2635SOL    HW2 8805   6.293   4.452   3.761
 2636SOL     OW 8806   5.733   6.108   5.100
 2636SOL    HW1 8807   5.731   6.009   5.084
 2636SOL    HW2 8808   5.726   6.126   5.198
 2637SOL     OW 8809   5.262   6.390   2.489
 2637SOL    HW1 8810   5.352   6.429   2.507
 2637SOL    HW2 8811   5.203   6.405   2.569
 2638SOL     OW 8812   5.264   5.792   0.887
 2638SOL    HW1 8813   5.316   5.788   0.802
 2638SOL    HW2 8814   5.189   5.858   0.877
 2639SOL     OW 8815   6.698   6.399   6.334
 2639SOL    HW1 8816   6.721   6.467   6.264
 2639SOL    HW2 8817   6.685   6.445   6.422
 2640SOL     OW 8818   6.226   6.826   6.470
 2640SOL    HW1 8819   6.184   6.834   6.379
 2640SOL    HW2 8820   6.242   6.918   6.507
 2641SOL     OW 8821   6.328   5.685   0.415
 2641SOL    HW1 8822   6.426   5.688   0.396
 2641SOL    HW2 8823   6.287   5.610   0.364
 2642SOL     OW 8824   6.410   0.527   3.974
 2642SOL    HW1 8825   6.473   0.471   4.027
 2642SOL    HW2 8826   6.456   0.561   3.892
 2643SOL     OW 8827   2.566   0.258   2.184
 2643SOL    HW1 8828   2.514   0.234   2.102
 2643SOL    HW2 8829   2.508   0.312   2.245
 2644SOL     OW 8830   6.949   5.704   5.280
 2644SOL    HW1 8831   6.878   5.703   5.350
 2644SOL    HW2 8832   6.938   5.785   5.223
 2645SOL     OW 8833   5.794   5.763   6.022
 2645SOL    HW1 8834   5.818   5.860   6.031
 2645SOL    HW2 8835   5.850   5.721   5.951
 2646SOL     OW 8836   5.835   6.170   6.793
 2646SOL    HW1 8837   5.875   6.119   6.716
 2646SOL    HW2 8838   5.786   6.106   6.853
 2647SOL     OW 8839   3.023   3.442   0.121
 2647SOL    HW1 8840   3.087   3.373   0.085
 2647SOL    HW2 8841   3.043   3.530   0.079
 2648SOL     OW 8842   4.054   1.087   3.614
 2648SOL    HW1 8843   4.108   1.170   3.595
 2648SOL    HW2 8844   4.108   1.007   3.590
 2649SOL     OW 8845   3.224   3.259   5.390
 2649SOL    HW1 8846   3.125   3.247   5.391
 2649SOL    HW2 8847   3.256   3.281   5.482
 2650SOL     OW 8848   6.772   6.607   2.771
 2650SOL    HW1 8849   6.830   6.680   2.734
 2650SOL    HW2 8850   6.688   6.647   2.809
 2651SOL     OW 8851   0.815   0.210   3.548
 2651SOL    HW1 8852   0.905   0.175   3.523
 2651SOL    HW2 8853   0.826   0.289   3.608
 2652SOL     OW 8854   3.063   3.108   2.842
 2652SOL    HW1 8855   3.001   3.186   2.843
 2652SOL    HW2 8856   3.077   3.076   2.936
 2653SOL     OW 8857   6.949   6.120   0.235
 2653SOL    HW1 8858   0.024   6.149   0.248
 2653SOL    HW2 8859   6.897   6.138   0.318
 2654SOL     OW 8860   6.277   1.356   5.778
 2654SOL    HW1 8861   6.330   1.382   5.697
 2654SOL    HW2 8862   6.333   1.369   5.860
 2655SOL     OW 8863   5.128   5.428   4.858
 2655SOL    HW1 8864   5.106   5.506   4.917
 2655SOL    HW2 8865   5.132   5.459   4.763
 2656SOL     OW 8866   5.689   3.413   5.150
 2656SOL    HW1 8867   5.633   3.357   5.089
 2656SOL    HW2 8868   5.654   3.408   5.243
 2657SOL     OW 8869   3.084   1.984   6.042
 2657SOL    HW1 8870   3.134   1.975   5.956
 2657SOL    HW2 8871   3.050   2.077   6.051
 2658SOL     OW 8872   6.223   4.187   5.299
 2658SOL    HW1 8873   6.149   4.253   5.282
 2658SOL    HW2 8874   6.231   4.171   5.397
 2659SOL     OW 8875   6.560   1.512   3.790
 2659SOL    HW1 8876   6.657   1.507   3.766
 2659SOL    HW2 8877   6.517   1.424   3.772
 2660SOL     OW 8878   0.019   2.308   3.188
 2660SOL    HW1 8879   6.995   2.245   3.123
 2660SOL    HW2 8880   0.058   2.386   3.139
 2661SOL     OW 8881   3.670   6.880   2.606
 2661SOL    HW1 8882   3.577   6.914   2.620
 2661SOL    HW2 8883   3.707   6.919   2.522
 2662SOL     OW 8884   3.777   0.941   3.851
 2662SOL    HW1 8885   3.875   0.921   3.849
 2662SOL    HW2 8886   3.759   1.025   3.801
 2663SOL     OW 8887   0.518   4.227   2.889
 2663SOL    HW1 8888   0.472   4.183   2.966
 2663SOL    HW2 8889   0.553   4.156   2.827
 2664SOL     OW 8890   4.227   3.981   1.799
 2664SOL    HW1 8891   4.180   4.044   1.737
 2664SOL    HW2 8892   4.282   4.033   1.864
 2665SOL     OW 8893   4.877   0.496   4.761
 2665SOL    HW1 8894   4.902   0.527   4.669
 2665SOL    HW2 8895   4.940   0.535   4.828
 2666SOL     OW 8896   4.998   6.335   1.802
 2666SOL    HW1 8897   5.068   6.345   1.873
 2666SOL    HW2 8898   5.030   6.270   1.733
 2667SOL     OW 8899   2.250   5.211   3.043
 2667SOL    HW1 8900   2.184   5.258   3.101
 2667SOL    HW2 8901   2.202   5.144   2.986
 2668SOL     OW 8902   6.627   2.433   5.652
 2668SOL    HW1 8903   6.676   2.459   5.569
 2668SOL    HW2 8904   6.689   2.381   5.712
 2669SOL     OW 8905   4.358   5.638   5.235
 2669SOL    HW1 8906   4.329   5.542   5.244
 2669SOL    HW2 8907   4.357   5.664   5.139
 2670SOL     OW 8908   2.501   0.075   5.144
 2670SOL    HW1 8909   2.507   0.122   5.056
 2670SOL    HW2 8910   2.545   0.132   5.214
 2671SOL     OW 8911   3.237   4.481   6.369
 2671SOL    HW1 8912   3.238   4.395   6.318
 2671SOL    HW2 8913   3.163   4.538   6.334
 2672SOL     OW 8914   1.125   4.370   0.244
 2672SOL    HW1 8915   1.198   4.302   0.241
 2672SOL    HW2 8916   1.053   4.340   0.306
 2673SOL     OW 8917   4.238   2.333   3.509
 2673SOL    HW1 8918   4.167   2.265   3.525
 2673SOL    HW2 8919   4.277   2.320   3.418
 2674SOL     OW 8920   6.185   5.702   5.464
 2674SOL    HW1 8921   6.108   5.638   5.469
 2674SOL    HW2 8922   6.179   5.767   5.540
 2675SOL     OW 8923   0.759   4.266   5.252
 2675SOL    HW1 8924   0.780   4.317   5.336
 2675SOL    HW2 8925   0.687   4.199   5.271
 2676SOL     OW 8926   4.791   0.205   1.911
 2676SOL    HW1 8927   4.833   0.117   1.934
 2676SOL    HW2 8928   4.724   0.193   1.838
 2677SOL     OW 8929   2.445   4.529   2.350
 2677SOL    HW1 8930   2.354   4.570   2.362
 2677SOL    HW2 8931   2.494   4.576   2.277
 2678SOL     OW 8932   6.898   6.736   6.293
 2678SOL    HW1 8933   6.879   6.814   6.353
 2678SOL    HW2 8934   6.962   6.673   6.338
 2679SOL     OW 8935   2.681   5.061   1.408
 2679SOL    HW1 8936   2.773   5.089   1.436
 2679SOL    HW2 8937   2.668   5.080   1.310
 2680SOL     OW 8938   1.563   2.605   1.484
 2680SOL    HW1 8939   1.612   2.677   1.434
 2680SOL    HW2 8940   1.465   2.623   1.480
 2681SOL     OW 8941   1.821   1.745   2.188
 2681SOL    HW1 8942   1.794   1.770   2.281
 2681SOL    HW2 8943   1.800   1.821   2.126
 2682SOL     OW 8944   6.337   2.670   4.129
 2682SOL    HW1 8945   6.246   2.710   4.129
 2682SOL    HW2 8946   6.345   2.604   4.054
 2683SOL     OW 8947   1.577   0.530   0.641
 2683SOL    HW1 8948   1.570   0.547   0.543
 2683SOL    HW2 8949   1.511   0.459   0.668
 2684SOL     OW 8950   2.607   5.406   3.020
 2684SOL    HW1 8951   2.652   5.433   3.105
 2684SOL    HW2 8952   2.525   5.462   3.006
 2685SOL     OW 8953   5.316   6.131   5.126
 2685SOL    HW1 8954   5.283   6.073   5.051
 2685SOL    HW2 8955   5.400   6.091   5.163
 2686SOL     OW 8956   1.285   3.100   4.526
 2686SOL    HW1 8957   1.212   3.159   4.558
 2686SOL    HW2 8958   1.259   3.057   4.439
 2687SOL     OW 8959   4.808   4.582   3.333
 2687SOL    HW1 8960   4.787   4.499   3.384
 2687SOL    HW2 8961   4.778   4.662   3.386
 2688SOL     OW 8962   3.989   4.811   5.919
 2688SOL    HW1 8963   4.007   4.909   5.929
 2688SOL    HW2 8964   3.957   4.791   5.826
 2689SOL     OW 8965   6.935   3.238   4.330
 2689SOL    HW1 8966   6.934   3.333   4.364
 2689SOL    HW2 8967   0.008   3.201   4.337
 2690SOL     OW 8968   3.346   2.932   3.054
 2690SOL    HW1 8969   3.263   2.978   3.084
 2690SOL    HW2 8970   3.337   2.905   2.958
 2691SOL     OW 8971   1.166   5.954   1.857
 2691SOL    HW1 8972   1.169   6.004   1.770
 2691SOL    HW2 8973   1.093   5.887   1.854
 2692SOL     OW 8974   0.211   5.351   3.120
 2692SOL    HW1 8975   0.276   5.314   3.054
 2692SOL    HW2 8976   0.174   5.438   3.086
 2693SOL     OW 8977   1.750   3.481   3.017
 2693SOL    HW1 8978   1.802   3.410   3.063
 2693SOL    HW2 8979   1.780   3.571   3.050
 2694SOL     OW 8980   2.644   0.977   3.129
 2694SOL    HW1 8981   2.692   1.065   3.134
 2694SOL    HW2 8982   2.680   0.916   3.200
 2695SOL     OW 8983   4.052   2.216   2.390
 2695SOL    HW1 8984   4.079   2.246   2.482
 2695SOL    HW2 8985   3.963   2.170   2.395
 2696SOL     OW 8986   4.180   3.875   5.297
 2696SOL    HW1 8987   4.183   3.900   5.200
 2696SOL    HW2 8988   4.085   3.876   5.329
 2697SOL     OW 8989   2.711   1.885   4.593
 2697SOL    HW1 8990   2.736   1.848   4.682
 2697SOL    HW2 8991   2.646   1.960   4.605
 2698SOL     OW 8992   2.148   3.214   6.333
 2698SOL    HW1 8993   2.224   3.240   6.275
 2698SOL    HW2 8994   2.086   3.153   6.283
 2699SOL     OW 8995   2.457   5.951   2.857
 2699SOL    HW1 8996   2.509   5.898   2.923
 2699SOL    HW2 8997   2.453   5.903   2.769
 2700SOL     OW 8998   1.669   4.199   3.029
 2700SOL    HW1 8999   1.605   4.167   2.960
 2700SOL    HW2 9000   1.761   4.167   3.006
 2701SOL     OW 9001   3.623   0.305   5.335
 2701SOL    HW1 9002   3.713   0.349   5.336
 2701SOL    HW2 9003   3.563   0.350   5.401
 2702SOL     OW 9004   6.938   6.344   2.588
 2702SOL    HW1 9005   6.848   6.362   2.548
 2702SOL    HW2 9006   6.987   6.431   2.598
 2703SOL     OW 9007   1.555   1.800   3.239
 2703SOL    HW1 9008   1.652   1.789   3.216
 2703SOL    HW2 9009   1.499   1.768   3.162
 2704SOL     OW 9010   1.234   6.333   0.075
 2704SOL    HW1 9011   1.260   6.286   7.010
 2704SOL    HW2 9012   1.152   6.388   0.060
 2705SOL     OW 9013   0.167   3.774   2.837
 2705SOL    HW1 9014   0.238   3.797   2.770
 2705SOL    HW2 9015   0.083   3.824   2.815
 2706SOL     OW 9016   6.535   2.298   2.426
 2706SOL    HW1 9017   6.578   2.359   2.493
 2706SOL    HW2 9018   6.543   2.338   2.334
 2707SOL     OW 9019   2.486   1.488   5.887
 2707SOL    HW1 9020   2.495   1.393   5.916
 2707SOL    HW2 9021   2.400   1.525   5.923
 2708SOL     OW 9022   1.542   4.406   0.734
 2708SOL    HW1 9023   1.478   4.452   0.673
 2708SOL    HW2 9024   1.519   4.309   0.739
 2709SOL     OW 9025   4.092   6.660   1.457
 2709SOL    HW1 9026   4.047   6.747   1.475
 2709SOL    HW2 9027   4.172   6.650   1.517
 2710SOL     OW 9028   6.460   3.943   2.528
 2710SOL    HW1 9029   6.387   3.957   2.595
 2710SOL    HW2 9030   6.488   4.031   2.490
 2711SOL     OW 9031   1.079   6.806   2.312
 2711SOL    HW1 9032   1.140   6.838   2.384
 2711SOL    HW2 9033   1.122   6.730   2.263
 2712SOL     OW 9034   3.692   5.503   2.688
 2712SOL    HW1 9035   3.658   5.556   2.766
 2712SOL    HW2 9036   3.649   5.413   2.687
 2713SOL     OW 9037   2.291   2.335   4.956
 2713SOL    HW1 9038   2.283   2.388   5.040
 2713SOL    HW2 9039   2.365   2.370   4.900
 2714SOL     OW 9040   5.446   0.128   6.012
 2714SOL    HW1 9041   5.480   0.080   6.093
 2714SOL    HW2 9042   5.405   0.215   6.040
 2715SOL     OW 9043   5.836   0.057   0.319
 2715SOL    HW1 9044   5.785   6.991   0.321
 2715SOL    HW2 9045   5.822   0.101   0.230
 2716SOL     OW 9046   0.045   6.598   2.559
 2716SOL    HW1 9047   0.024   6.600   2.461
 2716SOL    HW2 9048   0.003   6.676   2.604
 2717SOL     OW 9049   0.693   0.159   3.239
 2717SOL    HW1 9050   0.772   0.099   3.250
 2717SOL    HW2 9051   0.643   0.133   3.156
 2718SOL     OW 9052   0.667   4.760   3.240
 2718SOL    HW1 9053   0.664   4.667   3.203
 2718SOL    HW2 9054   0.708   4.822   3.173
 2719SOL     OW 9055   4.311   4.723   2.963
 2719SOL    HW1 9056   4.297   4.650   3.031
 2719SOL    HW2 9057   4.406   4.722   2.933
 2720SOL     OW 9058   0.715   6.136   3.927
 2720SOL    HW1 9059   0.788   6.165   3.866
 2720SOL    HW2 9060   0.731   6.174   4.018
 2721SOL     OW 9061   5.141   6.502   4.000
 2721SOL    HW1 9062   5.228   6.552   4.011
 2721SOL    HW2 9063   5.149   6.412   4.042
 2722SOL     OW 9064   1.288   6.078   1.263
 2722SOL    HW1 9065   1.253   6.109   1.175
 2722SOL    HW2 9066   1.345   5.997   1.250
 2723SOL     OW 9067   2.308   1.868   4.549
 2723SOL    HW1 9068   2.244   1.884   4.624
 2723SOL    HW2 9069   2.335   1.955   4.509
 2724SOL     OW 9070   3.280   6.220   6.726
 2724SOL    HW1 9071   3.304   6.215   6.823
 2724SOL    HW2 9072   3.282   6.316   6.696
 2725SOL     OW 9073   2.627   4.703   3.503
 2725SOL    HW1 9074   2.592   4.703   3.596
 2725SOL    HW2 9075   2.556   4.667   3.441
 2726SOL     OW 9076   4.759   6.484   2.617
 2726SOL    HW1 9077   4.761   6.407   2.681
 2726SOL    HW2 9078   4.720   6.455   2.530
 2727SOL     OW 9079   2.102   5.530   3.438
 2727SOL    HW1 9080   2.009   5.555   3.463
 2727SOL    HW2 9081   2.139   5.466   3.505
 2728SOL     OW 9082   3.654   6.660   5.288
 2728SOL    HW1 9083   3.600   6.701   5.361
 2728SOL    HW2 9084   3.593   6.612   5.225
 2729SOL     OW 9085   0.039   4.602   2.558
 2729SOL    HW1 9086   0.096   4.685   2.550
 2729SOL    HW2 9087   6.967   4.622   2.525
 2730SOL     OW 9088   1.195   4.847   1.702
 2730SOL    HW1 9089   1.205   4.814   1.796
 2730SOL    HW2 9090   1.208   4.946   1.700
 2731SOL     OW 9091   3.078   3.613   1.064
 2731SOL    HW1 9092   3.004   3.602   0.997
 2731SOL    HW2 9093   3.052   3.567   1.149
 2732SOL     OW 9094   5.588   3.074   4.294
 2732SOL    HW1 9095   5.503   3.029   4.321
 2732SOL    HW2 9096   5.634   3.112   4.374
 2733SOL     OW 9097   2.398   0.531   5.926
 2733SOL    HW1 9098   2.498   0.522   5.925
 2733SOL    HW2 9099   2.360   0.463   5.988
 2734SOL     OW 9100   2.569   6.973   4.110
 2734SOL    HW1 9101   2.513   0.035   4.121
 2734SOL    HW2 9102   2.514   6.899   4.070
 2735SOL     OW 9103   1.313   5.212   1.073
 2735SOL    HW1 9104   1.246   5.221   1.000
 2735SOL    HW2 9105   1.367   5.129   1.059
 2736SOL     OW 9106   3.487   7.000   6.283
 2736SOL    HW1 9107   3.532   6.914   6.261
 2736SOL    HW2 9108   3.502   0.045   6.208
 2737SOL     OW 9109   4.480   3.023   5.687
 2737SOL    HW1 9110   4.407   3.022   5.618
 2737SOL    HW2 9111   4.441   3.049   5.776
 2738SOL     OW 9112   5.800   4.480   4.216
 2738SOL    HW1 9113   5.835   4.568   4.248
 2738SOL    HW2 9114   5.876   4.421   4.189
 2739SOL     OW 9115   5.105   4.181   0.372
 2739SOL    HW1 9116   5.169   4.174   0.448
 2739SOL    HW2 9117   5.042   4.104   0.373
 2740SOL     OW 9118   6.351   2.485   3.417
 2740SOL    HW1 9119   6.286   2.429   3.468
 2740SOL    HW2 9120   6.349   2.579   3.454
 2741SOL     OW 9121   1.681   2.963   4.780
 2741SOL    HW1 9122   1.759   3.012   4.819
 2741SOL    HW2 9123   1.628   3.024   4.722
 2742SOL     OW 9124   3.206   6.024   5.620
 2742SOL    HW1 9125   3.113   6.056   5.603
 2742SOL    HW2 9126   3.207   5.924   5.621
 2743SOL     OW 9127   5.997   4.761   0.435
 2743SOL    HW1 9128   6.053   4.841   0.412
 2743SOL    HW2 9129   5.950   4.777   0.522
 2744SOL     OW 9130   4.272   0.635   0.753
 2744SOL    HW1 9131   4.299   0.540   0.771
 2744SOL    HW2 9132   4.193   0.658   0.810
 2745SOL     OW 9133   2.188   5.842   1.152
 2745SOL    HW1 9134   2.140   5.887   1.076
 2745SOL    HW2 9135   2.209   5.909   1.223
 2746SOL     OW 9136   0.951   2.467   6.214
 2746SOL    HW1 9137   1.006   2.491   6.135
 2746SOL    HW2 9138   0.984   2.517   6.294
 2747SOL     OW 9139   5.487   5.689   3.993
 2747SOL    HW1 9140   5.581   5.722   3.982
 2747SOL    HW2 9141   5.439   5.695   3.906
 2748SOL     OW 9142   4.786   0.738   4.511
 2748SOL    HW1 9143   4.854   0.665   4.501
 2748SOL    HW2 9144   4.827   0.815   4.559
 2749SOL     OW 9145   5.137   4.499   3.637
 2749SOL    HW1 9146   5.043   4.465   3.644
 2749SOL    HW2 9147   5.154   4.566   3.709
 2750SOL     OW 9148   0.639   6.660   0.709
 2750SOL    HW1 9149   0.651   6.647   0.807
 2750SOL    HW2 9150   0.719   6.625   0.660
 2751SOL     OW 9151   1.823   0.239   6.878
 2751SOL    HW1 9152   1.912   0.276   6.851
 2751SOL    HW2 9153   1.815   0.238   6.977
 2752SOL     OW 9154   6.760   6.607   5.622
 2752SOL    HW1 9155   6.849   6.622   5.665
 2752SOL    HW2 9156   6.769   6.540   5.549
 2753SOL     OW 9157   3.544   5.145   5.368
 2753SOL    HW1 9158   3.537   5.187   5.278
 2753SOL    HW2 9159   3.633   5.168   5.409
 2754SOL     OW 9160   0.925   5.965   4.139
 2754SOL    HW1 9161   0.860   5.890   4.124
 2754SOL    HW2 9162   0.882   6.035   4.197
 2755SOL     OW 9163   4.600   5.690   2.479
 2755SOL    HW1 9164   4.540   5.762   2.444
 2755SOL    HW2 9165   4.684   5.731   2.515
 2756SOL     OW 9166   0.709   2.876   5.532
 2756SOL    HW1 9167   0.794   2.824   5.533
 2756SOL    HW2 9168   0.689   2.909   5.624
 2757SOL     OW 9169   4.829   3.714   6.937
 2757SOL    HW1 9170   4.803   3.811   6.933
 2757SOL    HW2 9171   4.765   3.665   6.996
 2758SOL     OW 9172   6.959   6.776   2.100
 2758SOL    HW1 9173   0.005   6.819   2.037
 2758SOL    HW2 9174   7.009   6.733   2.175
 2759SOL     OW 9175   3.015   3.450   5.145
 2759SOL    HW1 9176   2.984   3.446   5.240
 2759SOL    HW2 9177   2.961   3.517   5.095
 2760SOL     OW 9178   5.846   5.511   2.466
 2760SOL    HW1 9179   5.844   5.519   2.367
 2760SOL    HW2 9180   5.941   5.510   2.498
 2761SOL     OW 9181   1.571   3.430   3.360
 2761SOL    HW1 9182   1.661   3.468   3.376
 2761SOL    HW2 9183   1.550   3.363   3.431
 2762SOL     OW 9184   3.555   1.700   1.083
 2762SOL    HW1 9185   3.594   1.615   1.118
 2762SOL    HW2 9186   3.515   1.753   1.158
 2763SOL     OW 9187   5.937   1.533   3.802
 2763SOL    HW1 9188   6.008   1.557   3.868
 2763SOL    HW2 9189   5.852   1.580   3.826
 2764SOL     OW 9190   0.128   2.994   3.572
 2764SOL    HW1 9191   0.173   2.942   3.644
 2764SOL    HW2 9192   0.197   3.032   3.510
 2765SOL     OW 9193   6.228   6.231   5.719
 2765SOL    HW1 9194   6.161   6.296   5.754
 2765SOL    HW2 9195   6.312   6.237   5.773
 2766SOL     OW 9196   4.472   0.414   0.491
 2766SOL    HW1 9197   4.447   0.319   0.512
 2766SOL    HW2 9198   4.569   0.418   0.467
 2767SOL     OW 9199   0.442   5.325   6.262
 2767SOL    HW1 9200   0.412   5.266   6.187
 2767SOL    HW2 9201   0.439   5.274   6.347
 2768SOL     OW 9202   3.639   6.318   1.426
 2768SOL    HW1 9203   3.618   6.261   1.346
 2768SOL    HW2 9204   3.618   6.413   1.405
 2769SOL     OW 9205   0.352   4.292   5.472
 2769SOL    HW1 9206   0.404   4.207   5.477
 2769SOL    HW2 9207   0.412   4.369   5.490
 2770SOL     OW 9208   1.982   0.355   0.819
 2770SOL    HW1 9209   1.903   0.299   0.843
 2770SOL    HW2 9210   1.953   0.433   0.765
 2771SOL     OW 9211   4.576   6.715   5.407
 2771SOL    HW1 9212   4.556   6.623   5.374
 2771SOL    HW2 9213   4.674   6.733   5.401
 2772SOL     OW 9214   5.129   1.567   3.040
 2772SOL    HW1 9215   5.141   1.646   3.100
 2772SOL    HW2 9216   5.217   1.522   3.024
 2773SOL     OW 9217   5.917   2.519   5.741
 2773SOL    HW1 9218   5.916   2.466   5.826
 2773SOL    HW2 9219   5.956   2.609   5.758
 2774SOL     OW 9220   6.173   0.521   3.867
 2774SOL    HW1 9221   6.105   0.476   3.924
 2774SOL    HW2 9222   6.259   0.529   3.918
 2775SOL     OW 9223   0.113   2.557   4.670
 2775SOL    HW1 9224   0.122   2.657   4.664
 2775SOL    HW2 9225   0.017   2.533   4.684
 2776SOL     OW 9226   4.890   4.477   6.318
 2776SOL    HW1 9227   4.811   4.495   6.377
 2776SOL    HW2 9228   4.948   4.558   6.317
 2777SOL     OW 9229   2.044   2.238   6.343
 2777SOL    HW1 9230   1.946   2.229   6.324
 2777SOL    HW2 9231   2.077   2.325   6.305
 2778SOL     OW 9232   3.321   0.505   6.302
 2778SOL    HW1 9233   3.259   0.559   6.244
 2778SOL    HW2 9234   3.274   0.480   6.387
 2779SOL     OW 9235   5.179   1.324   1.752
 2779SOL    HW1 9236   5.172   1.331   1.851
 2779SOL    HW2 9237   5.091   1.345   1.710
 2780SOL     OW 9238   0.099   0.933   5.121
 2780SOL    HW1 9239   0.165   0.956   5.049
 2780SOL    HW2 9240   0.011   0.909   5.079
 2781SOL     OW 9241   6.965   0.276   3.356
 2781SOL    HW1 9242   6.957   0.346   3.428
 2781SOL    HW2 9243   0.041   0.268   3.329
 2782SOL     OW 9244   5.372   0.321   5.654
 2782SOL    HW1 9245   5.295   0.371   5.613
 2782SOL    HW2 9246   5.444   0.308   5.586
 2783SOL     OW 9247   5.655   2.810   1.723
 2783SOL    HW1 9248   5.659   2.910   1.727
 2783SOL    HW2 9249   5.716   2.772   1.792
 2784SOL     OW 9250   0.087   2.995   1.739
 2784SOL    HW1 9251   0.137   3.039   1.664
 2784SOL    HW2 9252   7.008   3.000   1.720
 2785SOL     OW 9253   5.195   3.790   2.880
 2785SOL    HW1 9254   5.186   3.809   2.782
 2785SOL    HW2 9255   5.110   3.814   2.927
 2786SOL     OW 9256   0.832   6.005   0.658
 2786SOL    HW1 9257   0.779   5.923   0.638
 2786SOL    HW2 9258   0.924   5.996   0.618
 2787SOL     OW 9259   0.475   5.830   6.164
 2787SOL    HW1 9260   0.402   5.891   6.192
 2787SOL    HW2 9261   0.492   5.841   6.066
 2788SOL     OW 9262   2.761   6.498   0.058
 2788SOL    HW1 9263   2.841   6.556   0.039
 2788SOL    HW2 9264   2.755   6.480   0.156
 2789SOL     OW 9265   1.746   2.066   4.316
 2789SOL    HW1 9266   1.683   2.142   4.299
 2789SOL    HW2 9267   1.751   2.009   4.234
 2790SOL     OW 9268   0.125   5.465   1.561
 2790SOL    HW1 9269   0.174   5.551   1.555
 2790SOL    HW2 9270   0.076   5.448   1.475
 2791SOL     OW 9271   0.643   3.421   4.740
 2791SOL    HW1 9272   0.620   3.328   4.713
 2791SOL    HW2 9273   0.725   3.451   4.692
 2792SOL     OW 9274   2.933   1.787   6.485
 2792SOL    HW1 9275   2.984   1.837   6.415
 2792SOL    HW2 9276   2.967   1.693   6.491
 2793SOL     OW 9277   3.518   3.651   6.696
 2793SOL    HW1 9278   3.482   3.696   6.778
 2793SOL    HW2 9279   3.617   3.664   6.693
 2794SOL     OW 9280   1.759   1.784   6.999
 2794SOL    HW1 9281   1.754   1.869   6.946
 2794SOL    HW2 9282   1.846   1.738   6.981
 2795SOL     OW 9283   1.200   6.541   1.057
 2795SOL    HW1 9284   1.205   6.629   1.012
 2795SOL    HW2 9285   1.263   6.477   1.014
 2796SOL     OW 9286   2.060   6.039   6.746
 2796SOL    HW1 9287   1.998   6.045   6.824
 2796SOL    HW2 9288   2.095   5.946   6.738
 2797SOL     OW 9289   4.794   4.165   4.139
 2797SOL    HW1 9290   4.894   4.167   4.134
 2797SOL    HW2 9291   4.765   4.182   4.233
 2798SOL     OW 9292   5.195   2.047   1.896
 2798SOL    HW1 9293   5.099   2.051   1.867
 2798SOL    HW2 9294   5.205   1.980   1.969
 2799SOL     OW 9295   3.659   6.355   5.300
 2799SOL    HW1 9296   3.684   6.261   5.280
 2799SOL    HW2 9297   3.738   6.415   5.284
 2800SOL     OW 9298   4.722   0.728   6.489
 2800SOL    HW1 9299   4.786   0.797   6.522
 2800SOL    HW2 9300   4.645   0.720   6.552
 2801SOL     OW 9301   0.447   4.560   3.746
 2801SOL    HW1 9302   0.412   4.466   3.740
 2801SOL    HW2 9303   0.393   4.619   3.686
 2802SOL     OW 9304   1.309   4.960   4.720
 2802SOL    HW1 9305   1.287   5.017   4.640
 2802SOL    HW2 9306   1.235   4.895   4.736
 2803SOL     OW 9307   3.731   2.060   6.767
 2803SOL    HW1 9308   3.772   2.142   6.808
 2803SOL    HW2 9309   3.632   2.073   6.759
 2804SOL     OW 9310   6.499   2.694   3.794
 2804SOL    HW1 9311   6.474   2.619   3.856
 2804SOL    HW2 9312   6.588   2.674   3.753
 2805SOL     OW 9313   4.072   4.604   0.443
 2805SOL    HW1 9314   4.042   4.688   0.396
 2805SOL    HW2 9315   3.997   4.539   0.446
 2806SOL     OW 9316   0.092   3.217   5.482
 2806SOL    HW1 9317   0.069   3.309   5.450
 2806SOL    HW2 9318   0.190   3.210   5.497
 2807SOL     OW 9319   4.804   1.291   4.065
 2807SOL    HW1 9320   4.740   1.325   4.134
 2807SOL    HW2 9321   4.753   1.240   3.995
 2808SOL     OW 9322   1.259   5.997   5.607
 2808SOL    HW1 9323   1.169   5.955   5.615
 2808SOL    HW2 9324   1.304   5.965   5.524
 2809SOL     OW 9325   0.779   6.089   1.241
 2809SOL    HW1 9326   0.696   6.063   1.191
 2809SOL    HW2 9327   0.856   6.036   1.207
 2810SOL     OW 9328   0.841   6.006   2.931
 2810SOL    HW1 9329   0.888   6.008   2.842
 2810SOL    HW2 9330   0.873   6.082   2.987
 2811SOL     OW 9331   0.464   1.265   0.753
 2811SOL    HW1 9332   0.505   1.342   0.703
 2811SOL    HW2 9333   0.485   1.274   0.850
 2812SOL     OW 9334   1.314   1.496   0.824
 2812SOL    HW1 9335   1.354   1.469   0.911
 2812SOL    HW2 9336   1.376   1.558   0.776
 2813SOL     OW 9337   0.059   2.605   0.990
 2813SOL    HW1 9338   7.010   2.547   1.033
 2813SOL    HW2 9339   0.081   2.682   1.051
 2814SOL     OW 9340   2.822   4.504   6.801
 2814SOL    HW1 9341   2.883   4.532   6.875
 2814SOL    HW2 9342   2.821   4.574   6.730
 2815SOL     OW 9343   0.049   5.378   4.423
 2815SOL    HW1 9344   0.076   5.308   4.488
 2815SOL    HW2 9345   0.116   5.382   4.349
 2816SOL     OW 9346   1.069   4.975   5.075
 2816SOL    HW1 9347   1.088   4.924   5.159
 2816SOL    HW2 9348   1.034   4.912   5.005
 2817SOL     OW 9349   2.603   1.036   2.401
 2817SOL    HW1 9350   2.586   1.091   2.483
 2817SOL    HW2 9351   2.662   0.959   2.426
 2818SOL     OW 9352   1.537   0.874   0.121
 2818SOL    HW1 9353   1.458   0.834   0.168
 2818SOL    HW2 9354   1.615   0.877   0.183
 2819SOL     OW 9355   0.649   0.258   6.636
 2819SOL    HW1 9356   0.728   0.292   6.688
 2819SOL    HW2 9357   0.580   0.329   6.631
 2820SOL     OW 9358   2.162   1.984   6.689
 2820SOL    HW1 9359   2.122   1.899   6.725
 2820SOL    HW2 9360   2.123   2.004   6.599
 2821SOL     OW 9361   3.080   2.619   6.010
 2821SOL    HW1 9362   3.137   2.576   6.080
 2821SOL    HW2 9363   3.012   2.679   6.054
 2822SOL     OW 9364   4.191   2.765   0.538
 2822SOL    HW1 9365   4.143   2.725   0.616
 2822SOL    HW2 9366   4.128   2.826   0.489
 2823SOL     OW 9367   5.545   3.697   1.884
 2823SOL    HW1 9368   5.544   3.719   1.981
 2823SOL    HW2 9369   5.620   3.634   1.865
 2824SOL     OW 9370   0.491   4.061   5.498
 2824SOL    HW1 9371   0.472   4.079   5.402
 2824SOL    HW2 9372   0.434   3.985   5.530
 2825SOL     OW 9373   5.258   2.110   5.773
 2825SOL    HW1 9374   5.180   2.112   5.710
 2825SOL    HW2 9375   5.236   2.163   5.855
 2826SOL     OW 9376   2.722   3.692   6.959
 2826SOL    HW1 9377   2.724   3.605   7.007
 2826SOL    HW2 9378   2.666   3.683   6.876
 2827SOL     OW 9379   5.653   1.670   6.914
 2827SOL    HW1 9380   5.735   1.693   6.968
 2827SOL    HW2 9381   5.602   1.598   6.961
 2828SOL     OW 9382   1.213   4.337   1.045
 2828SOL    HW1 9383   1.302   4.353   1.003
 2828SOL    HW2 9384   1.173   4.424   1.072
 2829SOL     OW 9385   3.437   3.630   1.903
 2829SOL    HW1 9386   3.506   3.612   1.833
 2829SOL    HW2 9387   3.482   3.669   1.984
 2830SOL     OW 9388   3.539   5.736   4.795
 2830SOL    HW1 9389   3.521   5.645   4.758
 2830SOL    HW2 9390   3.580   5.793   4.724
 2831SOL     OW 9391   6.728   1.704   2.126
 2831SOL    HW1 9392   6.631   1.705   2.152
 2831SOL    HW2 9393   6.785   1.697   2.208
 2832SOL     OW 9394   1.191   3.428   2.089
 2832SOL    HW1 9395   1.198   3.353   2.154
 2832SOL    HW2 9396   1.278   3.441   2.042
 2833SOL     OW 9397   6.722   2.662   2.726
 2833SOL    HW1 9398   6.781   2.678   2.647
 2833SOL    HW2 9399   6.700   2.565   2.731
 2834SOL     OW 9400   3.770   0.371   4.355
 2834SOL    HW1 9401   3.769   0.353   4.453
 2834SOL    HW2 9402   3.860   0.349   4.318
 2835SOL     OW 9403   6.813   1.168   6.820
 2835SOL    HW1 9404   6.902   1.169   6.867
 2835SOL    HW2 9405   6.759   1.091   6.853
 2836SOL     OW 9406   3.035   5.400   2.545
 2836SOL    HW1 9407   3.023   5.489   2.588
 2836SOL    HW2 9408   3.108   5.405   2.477
 2837SOL     OW 9409   5.405   4.244   2.068
 2837SOL    HW1 9410   5.384   4.200   2.156
 2837SOL    HW2 9411   5.488   4.203   2.030
 2838SOL     OW 9412   6.966   3.723   6.123
 2838SOL    HW1 9413   6.915   3.641   6.147
 2838SOL    HW2 9414   6.904   3.790   6.082
 2839SOL     OW 9415   6.131   2.880   6.129
 2839SOL    HW1 9416   6.158   2.932   6.048
 2839SOL    HW2 9417   6.032   2.888   6.141
 2840SOL     OW 9418   5.768   6.479   4.803
 2840SOL    HW1 9419   5.710   6.405   4.836
 2840SOL    HW2 9420   5.771   6.478   4.703
 2841SOL     OW 9421   5.496   3.788   2.562
 2841SOL    HW1 9422   5.504   3.747   2.471
 2841SOL    HW2 9423   5.402   3.821   2.575
 2842SOL     OW 9424   0.820   6.877   3.343
 2842SOL    HW1 9425   0.778   6.875   3.434
 2842SOL    HW2 9426   0.770   6.816   3.282
 2843SOL     OW 9427   2.326   2.800   4.272
 2843SOL    HW1 9428   2.351   2.731   4.340
 2843SOL    HW2 9429   2.332   2.761   4.180
 2844SOL     OW 9430   5.236   3.738   0.614
 2844SOL    HW1 9431   5.315   3.690   0.574
 2844SOL    HW2 9432   5.260   3.769   0.706
 2845SOL     OW 9433   3.116   1.825   1.634
 2845SOL    HW1 9434   3.046   1.897   1.637
 2845SOL    HW2 9435   3.084   1.746   1.687
 2846SOL     OW 9436   5.430   6.666   6.720
 2846SOL    HW1 9437   5.385   6.748   6.683
 2846SOL    HW2 9438   5.489   6.692   6.797
 2847SOL     OW 9439   5.134   5.036   0.984
 2847SOL    HW1 9440   5.077   4.961   1.019
 2847SOL    HW2 9441   5.118   5.118   1.040
 2848SOL     OW 9442   0.642   3.797   6.723
 2848SOL    HW1 9443   0.654   3.699   6.732
 2848SOL    HW2 9444   0.711   3.835   6.661
 2849SOL     OW 9445   5.203   0.675   1.429
 2849SOL    HW1 9446   5.106   0.669   1.451
 2849SOL    HW2 9447   5.241   0.582   1.421
 2850SOL     OW 9448   0.758   0.850   1.740
 2850SOL    HW1 9449   0.789   0.760   1.708
 2850SOL    HW2 9450   0.822   0.920   1.708
 2851SOL     OW 9451   3.647   3.062   1.812
 2851SOL    HW1 9452   3.618   3.073   1.717
 2851SOL    HW2 9453   3.698   2.977   1.823
 2852SOL     OW 9454   0.457   5.279   5.448
 2852SOL    HW1 9455   0.523   5.269   5.522
 2852SOL    HW2 9456   0.414   5.369   5.454
 2853SOL     OW 9457   0.260   4.143   4.834
 2853SOL    HW1 9458   0.221   4.233   4.850
 2853SOL    HW2 9459   0.220   4.103   4.752
 2854SOL     OW 9460   2.912   0.627   6.325
 2854SOL    HW1 9461   2.826   0.656   6.283
 2854SOL    HW2 9462   2.989   0.666   6.275
 2855SOL     OW 9463   2.084   1.646   3.971
 2855SOL    HW1 9464   2.165   1.588   3.976
 2855SOL    HW2 9465   2.078   1.703   4.053
 2856SOL     OW 9466   0.898   5.396   4.518
 2856SOL    HW1 9467   0.849   5.475   4.555
 2856SOL    HW2 9468   0.905   5.405   4.419
 2857SOL     OW 9469   6.596   4.086   0.919
 2857SOL    HW1 9470   6.665   4.015   0.905
 2857SOL    HW2 9471   6.634   4.175   0.894
 2858SOL     OW 9472   5.884   4.589   3.493
 2858SOL    HW1 9473   5.904   4.496   3.465
 2858SOL    HW2 9474   5.814   4.628   3.433
 2859SOL     OW 9475   6.031   5.061   1.194
 2859SOL    HW1 9476   6.124   5.095   1.178
 2859SOL    HW2 9477   6.035   4.963   1.215
 2860SOL     OW 9478   1.174   6.936   3.048
 2860SOL    HW1 9479   1.168   6.892   3.137
 2860SOL    HW2 9480   1.229   7.019   3.055
 2861SOL     OW 9481   5.216   4.170   5.686
 2861SOL    HW1 9482   5.195   4.150   5.590
 2861SOL    HW2 9483   5.231   4.084   5.734
 2862SOL     OW 9484   4.403   0.870   0.782
 2862SOL    HW1 9485   4.496   0.880   0.745
 2862SOL    HW2 9486   4.367   0.780   0.756
 2863SOL     OW 9487   5.865   2.404   5.498
 2863SOL    HW1 9488   5.883   2.455   5.582
 2863SOL    HW2 9489   5.951   2.368   5.462
 2864SOL     OW 9490   4.067   4.179   1.133
 2864SOL    HW1 9491   4.100   4.101   1.081
 2864SOL    HW2 9492   3.968   4.190   1.119
 2865SOL     OW 9493   5.541   5.209   5.680
 2865SOL    HW1 9494   5.590   5.205   5.767
 2865SOL    HW2 9495   5.538   5.304   5.648
 2866SOL     OW 9496   3.393   4.707   1.120
 2866SOL    HW1 9497   3.451   4.700   1.039
 2866SOL    HW2 9498   3.433   4.654   1.194
 2867SOL     OW 9499   6.875   6.142   2.765
 2867SOL    HW1 9500   6.915   6.051   2.747
 2867SOL    HW2 9501   6.907   6.206   2.696
 2868SOL     OW 9502   0.244   6.856   5.240
 2868SOL    HW1 9503   0.227   6.844   5.142
 2868SOL    HW2 9504   0.180   6.923   5.276
 2869SOL     OW 9505   6.026   4.599   4.719
 2869SOL    HW1 9506   6.039   4.563   4.626
 2869SOL    HW2 9507   5.931   4.587   4.747
 2870SOL     OW 9508   0.895   1.057   1.637
 2870SOL    HW1 9509   0.857   1.131   1.693
 2870SOL    HW2 9510   0.914   1.092   1.545
 2871SOL     OW 9511   4.761   1.422   3.430
 2871SOL    HW1 9512   4.737   1.476   3.349
 2871SOL    HW2 9513   4.824   1.349   3.403
 2872SOL     OW 9514   2.931   1.942   2.486
 2872SOL    HW1 9515   2.853   1.936   2.548
 2872SOL    HW2 9516   2.901   1.925   2.392
 2873SOL     OW 9517   1.124   0.274   2.216
 2873SOL    HW1 9518   1.134   0.216   2.296
 2873SOL    HW2 9519   1.032   0.313   2.214
 2874SOL     OW 9520   2.152   1.483   3.514
 2874SOL    HW1 9521   2.204   1.546   3.456
 2874SOL    HW2 9522   2.075   1.446   3.462
 2875SOL     OW 9523   2.501   0.063   3.373
 2875SOL    HW1 9524   2.558   0.020   3.444
 2875SOL    HW2 9525   2.406   0.034   3.384
 2876SOL     OW 9526   1.184   6.155   1.012
 2876SOL    HW1 9527   1.087   6.139   0.991
 2876SOL    HW2 9528   1.212   6.241   0.970
 2877SOL     OW 9529   1.889   3.111   4.883
 2877SOL    HW1 9530   1.966   3.059   4.846
 2877SOL    HW2 9531   1.877   3.089   4.980
 2878SOL     OW 9532   3.863   3.026   4.995
 2878SOL    HW1 9533   3.947   3.079   5.005
 2878SOL    HW2 9534   3.784   3.087   4.999
 2879SOL     OW 9535   5.018   5.213   0.063
 2879SOL    HW1 9536   4.951   5.231   7.011
 2879SOL    HW2 9537   5.106   5.191   0.022
 2880SOL     OW 9538   1.456   2.038   3.380
 2880SOL    HW1 9539   1.504   1.956   3.350
 2880SOL    HW2 9540   1.364   2.014   3.410
 2881SOL     OW 9541   5.288   5.197   0.786
 2881SOL    HW1 9542   5.236   5.117   0.817
 2881SOL    HW2 9543   5.239   5.280   0.812
 2882SOL     OW 9544   4.211   6.614   6.872
 2882SOL    HW1 9545   4.283   6.682   6.858
 2882SOL    HW2 9546   4.183   6.614   6.968
 2883SOL     OW 9547   5.665   6.219   3.576
 2883SOL    HW1 9548   5.739   6.247   3.515
 2883SOL    HW2 9549   5.585   6.277   3.560
 2884SOL     OW 9550   6.063   5.522   3.830
 2884SOL    HW1 9551   6.115   5.494   3.749
 2884SOL    HW2 9552   6.020   5.442   3.871
 2885SOL     OW 9553   0.402   2.877   3.784
 2885SOL    HW1 9554   0.394   2.787   3.826
 2885SOL    HW2 9555   0.445   2.869   3.694
 2886SOL     OW 9556   2.551   4.705   5.041
 2886SOL    HW1 9557   2.633   4.761   5.041
 2886SOL    HW2 9558   2.502   4.716   4.955
 2887SOL     OW 9559   6.852   5.508   2.647
 2887SOL    HW1 9560   6.903   5.423   2.664
 2887SOL    HW2 9561   6.755   5.485   2.632
 2888SOL     OW 9562   5.222   6.797   6.964
 2888SOL    HW1 9563   5.249   6.703   6.945
 2888SOL    HW2 9564   5.217   6.811   0.043
 2889SOL     OW 9565   4.751   6.477   4.402
 2889SOL    HW1 9566   4.783   6.556   4.454
 2889SOL    HW2 9567   4.774   6.393   4.451
 2890SOL     OW 9568   1.437   2.619   0.416
 2890SOL    HW1 9569   1.439   2.528   0.457
 2890SOL    HW2 9570   1.386   2.681   0.476
 2891SOL     OW 9571   0.758   1.489   5.594
 2891SOL    HW1 9572   0.815   1.431   5.535
 2891SOL    HW2 9573   0.721   1.565   5.540
 2892SOL     OW 9574   5.662   4.608   2.138
 2892SOL    HW1 9575   5.710   4.658   2.066
 2892SOL    HW2 9576   5.696   4.638   2.227
 2893SOL     OW 9577   6.692   5.333   4.825
 2893SOL    HW1 9578   6.736   5.244   4.813
 2893SOL    HW2 9579   6.718   5.393   4.749
 2894SOL     OW 9580   1.429   5.452   0.896
 2894SOL    HW1 9581   1.483   5.400   0.830
 2894SOL    HW2 9582   1.390   5.388   0.963
 2895SOL     OW 9583   4.528   6.579   6.034
 2895SOL    HW1 9584   4.485   6.634   5.963
 2895SOL    HW2 9585   4.463   6.564   6.108
 2896SOL     OW 9586   6.265   0.464   4.990
 2896SOL    HW1 9587   6.205   0.426   4.919
 2896SOL    HW2 9588   6.340   0.401   5.007
 2897SOL     OW 9589   3.368   5.413   3.388
 2897SOL    HW1 9590   3.351   5.318   3.411
 2897SOL    HW2 9591   3.281   5.458   3.366
 2898SOL     OW 9592   5.300   2.900   3.098
 2898SOL    HW1 9593   5.387   2.897   3.147
 2898SOL    HW2 9594   5.288   2.815   3.047
 2899SOL     OW 9595   6.424   3.131   0.873
 2899SOL    HW1 9596   6.344   3.076   0.897
 2899SOL    HW2 9597   6.401   3.228   0.884
 2900SOL     OW 9598   2.544   2.663   5.778
 2900SOL    HW1 9599   2.581   2.753   5.803
 2900SOL    HW2 9600   2.505   2.667   5.686
 2901SOL     OW 9601   1.219   3.863   2.460
 2901SOL    HW1 9602   1.239   3.782   2.406
 2901SOL    HW2 9603   1.121   3.879   2.461
 2902SOL     OW 9604   5.840   6.007   3.670
 2902SOL    HW1 9605   5.776   6.075   3.635
 2902SOL    HW2 9606   5.875   6.037   3.759
 2903SOL     OW 9607   6.783   4.970   0.204
 2903SOL    HW1 9608   6.852   4.897   0.205
 2903SOL    HW2 9609   6.750   4.983   0.111
 2904SOL     OW 9610   2.758   4.763   4.833
 2904SOL    HW1 9611   2.820   4.794   4.761
 2904SOL    HW2 9612   2.812   4.733   4.912
 2905SOL     OW 9613   1.087   5.257   1.298
 2905SOL    HW1 9614   1.183   5.234   1.284
 2905SOL    HW2 9615   1.030   5.176   1.282
 2906SOL     OW 9616   0.027   6.120   5.790
 2906SOL    HW1 9617   7.016   6.191   5.854
 2906SOL    HW2 9618   7.018   6.144   5.697
 2907SOL     OW 9619   0.228   0.778   5.495
 2907SOL    HW1 9620   0.321   0.805   5.520
 2907SOL    HW2 9621   0.226   0.679   5.479
 2908SOL     OW 9622   4.814   6.651   3.997
 2908SOL    HW1 9623   4.829   6.553   4.011
 2908SOL    HW2 9624   4.740   6.664   3.931
 2909SOL     OW 9625   6.876   0.166   1.892
 2909SOL    HW1 9626   6.928   0.248   1.914
 2909SOL    HW2 9627   6.811   0.147   1.966
 2910SOL     OW 9628   1.033   0.793   4.557
 2910SOL    HW1 9629   1.095   0.778   4.480
 2910SOL    HW2 9630   0.981   0.877   4.542
 2911SOL     OW 9631   0.267   3.854   5.578
 2911SOL    HW1 9632   0.193   3.880   5.515
 2911SOL    HW2 9633   0.348   3.829   5.525
 2912SOL     OW 9634   0.734   1.783   2.247
 2912SOL    HW1 9635   0.748   1.782   2.148
 2912SOL    HW2 9636   0.812   1.827   2.292
 2913SOL     OW 9637   1.047   6.597   2.812
 2913SOL    HW1 9638   1.046   6.646   2.725
 2913SOL    HW2 9639   1.121   6.631   2.870
 2914SOL     OW 9640   3.802   4.476   1.271
 2914SOL    HW1 9641   3.894   4.510   1.290
 2914SOL    HW2 9642   3.763   4.438   1.355
 2915SOL     OW 9643   2.063   0.836   3.990
 2915SOL    HW1 9644   2.124   0.865   4.063
 2915SOL    HW2 9645   2.077   0.893   3.910
 2916SOL     OW 9646   0.964   5.397   6.914
 2916SOL    HW1 9647   0.887   5.355   6.962
 2916SOL    HW2 9648   1.034   5.328   6.897
 2917SOL     OW 9649   2.701   0.141   3.196
 2917SOL    HW1 9650   2.716   0.237   3.173
 2917SOL    HW2 9651   2.631   0.134   3.266
 2918SOL     OW 9652   4.972   2.445   1.413
 2918SOL    HW1 9653   4.963   2.544   1.424
 2918SOL    HW2 9654   4.993   2.403   1.501
 2919SOL     OW 9655   0.477   6.055   5.040
 2919SOL    HW1 9656   0.433   5.981   4.988
 2919SOL    HW2 9657   0.554   6.090   4.987
 2920SOL     OW 9658   2.945   2.036   1.630
 2920SOL    HW1 9659   2.996   2.108   1.677
 2920SOL    HW2 9660   2.906   2.072   1.546
 2921SOL     OW 9661   0.964   6.610   3.532
 2921SOL    HW1 9662   0.983   6.686   3.593
 2921SOL    HW2 9663   1.027   6.613   3.454
 2922SOL     OW 9664   3.920   4.825   3.781
 2922SOL    HW1 9665   3.836   4.853   3.734
 2922SOL    HW2 9666   3.949   4.898   3.843
 2923SOL     OW 9667   1.028   5.459   4.271
 2923SOL    HW1 9668   1.090   5.389   4.235
 2923SOL    HW2 9669   1.081   5.534   4.310
 2924SOL     OW 9670   5.247   1.580   6.174
 2924SOL    HW1 9671   5.318   1.619   6.115
 2924SOL    HW2 9672   5.279   1.580   6.269
 2925SOL     OW 9673   5.398   6.802   4.737
 2925SOL    HW1 9674   5.407   6.782   4.834
 2925SOL    HW2 9675   5.489   6.800   4.694
 2926SOL     OW 9676   6.813   2.576   4.509
 2926SOL    HW1 9677   6.804   2.670   4.542
 2926SOL    HW2 9678   6.841   2.516   4.584
 2927SOL     OW 9679   1.189   1.804   2.336
 2927SOL    HW1 9680   1.090   1.800   2.353
 2927SOL    HW2 9681   1.237   1.747   2.403
 2928SOL     OW 9682   5.269   2.990   0.475
 2928SOL    HW1 9683   5.207   2.921   0.437
 2928SOL    HW2 9684   5.364   2.961   0.462
 2929SOL     OW 9685   2.665   1.288   3.186
 2929SOL    HW1 9686   2.718   1.372   3.190
 2929SOL    HW2 9687   2.589   1.293   3.250
 2930SOL     OW 9688   0.300   3.486   4.116
 2930SOL    HW1 9689   0.315   3.516   4.211
 2930SOL    HW2 9690   0.325   3.560   4.053
 2931SOL     OW 9691   5.770   4.706   5.846
 2931SOL    HW1 9692   5.712   4.751   5.914
 2931SOL    HW2 9693   5.741   4.733   5.755
 2932SOL     OW 9694   6.406   5.682   1.366
 2932SOL    HW1 9695   6.342   5.690   1.290
 2932SOL    HW2 9696   6.474   5.612   1.344
 2933SOL     OW 9697   1.012   0.090   0.094
 2933SOL    HW1 9698   1.102   0.120   0.063
 2933SOL    HW2 9699   0.950   0.169   0.098
 2934SOL     OW 9700   5.233   5.272   1.860
 2934SOL    HW1 9701   5.238   5.303   1.955
 2934SOL    HW2 9702   5.181   5.186   1.856
 2935SOL     OW 9703   0.819   3.224   5.617
 2935SOL    HW1 9704   0.910   3.223   5.577
 2935SOL    HW2 9705   0.752   3.249   5.548
 2936SOL     OW 9706   4.509   6.899   2.350
 2936SOL    HW1 9707   4.560   6.966   2.403
 2936SOL    HW2 9708   4.553   6.886   2.261
 2937SOL     OW 9709   6.129   3.616   3.161
 2937SOL    HW1 9710   6.132   3.716   3.152
 2937SOL    HW2 9711   6.113   3.575   3.071
 2938SOL     OW 9712   0.360   4.972   0.140
 2938SOL    HW1 9713   0.397   4.892   0.187
 2938SOL    HW2 9714   0.266   4.988   0.169
 2939SOL     OW 9715   6.900   6.111   1.699
 2939SOL    HW1 9716   6.861   6.039   1.755
 2939SOL    HW2 9717   6.981   6.078   1.652
 2940SOL     OW 9718   4.558   6.257   4.298
 2940SOL    HW1 9719   4.628   6.297   4.356
 2940SOL    HW2 9720   4.540   6.317   4.220
 2941SOL     OW 9721   2.810   4.955   3.163
 2941SOL    HW1 9722   2.742   4.893   3.126
 2941SOL    HW2 9723   2.869   4.906   3.228
 2942SOL     OW 9724   3.382   2.070   2.002
 2942SOL    HW1 9725   3.475   2.106   1.988
 2942SOL    HW2 9726   3.342   2.111   2.084
 2943SOL     OW 9727   6.537   3.496   3.706
 2943SOL    HW1 9728   6.487   3.412   3.684
 2943SOL    HW2 9729   6.633   3.474   3.723
 2944SOL     OW 9730   1.711   6.186   2.852
 2944SOL    HW1 9731   1.639   6.232   2.801
 2944SOL    HW2 9732   1.798   6.233   2.837
 2945SOL     OW 9733   5.926   3.424   1.409
 2945SOL    HW1 9734   5.867   3.376   1.473
 2945SOL    HW2 9735   5.871   3.479   1.346
 2946SOL     OW 9736   3.345   2.882   4.671
 2946SOL    HW1 9737   3.272   2.835   4.621
 2946SOL    HW2 9738   3.322   2.885   4.769
 2947SOL     OW 9739   6.375   5.090   0.441
 2947SOL    HW1 9740   6.426   5.015   0.483
 2947SOL    HW2 9741   6.356   5.159   0.511
 2948SOL     OW 9742   6.773   4.107   1.436
 2948SOL    HW1 9743   6.708   4.089   1.361
 2948SOL    HW2 9744   6.828   4.026   1.453
 2949SOL     OW 9745   1.416   6.655   0.773
 2949SOL    HW1 9746   1.363   6.627   0.694
 2949SOL    HW2 9747   1.356   6.696   0.841
 2950SOL     OW 9748   5.914   5.927   2.776
 2950SOL    HW1 9749   5.992   5.970   2.732
 2950SOL    HW2 9750   5.936   5.832   2.799
 2951SOL     OW 9751   0.806   2.395   1.074
 2951SOL    HW1 9752   0.786   2.376   0.978
 2951SOL    HW2 9753   0.839   2.312   1.118
 2952SOL     OW 9754   0.125   1.606   4.550
 2952SOL    HW1 9755   0.212   1.654   4.563
 2952SOL    HW2 9756   0.050   1.664   4.583
 2953SOL     OW 9757   1.963   6.223   3.307
 2953SOL    HW1 9758   1.980   6.269   3.394
 2953SOL    HW2 9759   1.931   6.290   3.240
 2954SOL     OW 9760   0.666   4.280   6.149
 2954SOL    HW1 9761   0.629   4.188   6.135
 2954SOL    HW2 9762   0.629   4.341   6.079
 2955SOL     OW 9763   1.791   4.722   6.420
 2955SOL    HW1 9764   1.807   4.623   6.418
 2955SOL    HW2 9765   1.872   4.769   6.455
 2956SOL     OW 9766   5.406   4.094   4.559
 2956SOL    HW1 9767   5.443   4.151   4.632
 2956SOL    HW2 9768   5.450   4.117   4.472
 2957SOL     OW 9769   2.403   5.669   1.835
 2957SOL    HW1 9770   2.414   5.622   1.747
 2957SOL    HW2 9771   2.314   5.646   1.874
 2958SOL     OW 9772   1.312   4.647   2.171
 2958SOL    HW1 9773   1.219   4.612   2.177
 2958SOL    HW2 9774   1.375   4.572   2.156
 2959SOL     OW 9775   0.131   4.221   3.904
 2959SOL    HW1 9776   0.220   4.266   3.891
 2959SOL    HW2 9777   0.072   4.281   3.958
 2960SOL     OW 9778   4.675   6.300   1.013
 2960SOL    HW1 9779   4.648   6.376   1.071
 2960SOL    HW2 9780   4.653   6.213   1.058
 2961SOL     OW 9781   5.225   2.710   1.786
 2961SOL    HW1 9782   5.242   2.757   1.872
 2961SOL    HW2 9783   5.296   2.642   1.770
 2962SOL     OW 9784   6.952   0.053   3.850
 2962SOL    HW1 9785   6.871   0.027   3.798
 2962SOL    HW2 9786   0.007   0.076   3.787
 2963SOL     OW 9787   1.824   0.666   4.887
 2963SOL    HW1 9788   1.907   0.668   4.943
 2963SOL    HW2 9789   1.837   0.723   4.806
 2964SOL     OW 9790   1.592   0.176   6.600
 2964SOL    HW1 9791   1.687   0.152   6.578
 2964SOL    HW2 9792   1.567   0.261   6.553
 2965SOL     OW 9793   6.025   0.575   6.000
 2965SOL    HW1 9794   5.950   0.532   6.050
 2965SOL    HW2 9795   5.999   0.668   5.974
 2966SOL     OW 9796   3.953   5.414   2.572
 2966SOL    HW1 9797   3.853   5.421   2.580
 2966SOL    HW2 9798   3.978   5.403   2.476
 2967SOL     OW 9799   5.567   0.155   4.950
 2967SOL    HW1 9800   5.644   0.191   4.898
 2967SOL    HW2 9801   5.548   0.061   4.920
 2968SOL     OW 9802   1.377   4.214   1.366
 2968SOL    HW1 9803   1.436   4.200   1.446
 2968SOL    HW2 9804   1.286   4.176   1.385
 2969SOL     OW 9805   4.684   2.828   4.443
 2969SOL    HW1 9806   4.682   2.775   4.358
 2969SOL    HW2 9807   4.621   2.787   4.509
 2970SOL     OW 9808   2.416   2.922   5.540
 2970SOL    HW1 9809   2.451   3.005   5.584
 2970SOL    HW2 9810   2.474   2.899   5.462
 2971SOL     OW 9811   4.625   3.614   0.122
 2971SOL    HW1 9812   4.552   3.681   0.130
 2971SOL    HW2 9813   4.639   3.569   0.210
 2972SOL     OW 9814   0.005   5.744   6.730
 2972SOL    HW1 9815   7.000   5.758   6.825
 2972SOL    HW2 9816   0.100   5.712   6.725
 2973SOL     OW 9817   5.549   1.211   4.350
 2973SOL    HW1 9818   5.501   1.126   4.328
 2973SOL    HW2 9819   5.557   1.267   4.267
 2974SOL     OW 9820   5.557   6.014   1.828
 2974SOL    HW1 9821   5.571   6.104   1.786
 2974SOL    HW2 9822   5.465   6.010   1.867
 2975SOL     OW 9823   6.963   3.465   4.897
 2975SOL    HW1 9824   6.908   3.504   4.971
 2975SOL    HW2 9825   6.962   3.365   4.904
 2976SOL     OW 9826   3.776   0.673   1.677
 2976SOL    HW1 9827   3.755   0.598   1.740
 2976SOL    HW2 9828   3.871   0.666   1.647
 2977SOL     OW 9829   1.632   1.343   1.855
 2977SOL    HW1 9830   1.565   1.324   1.783
 2977SOL    HW2 9831   1.703   1.403   1.818
 2978SOL     OW 9832   2.859   5.549   0.185
 2978SOL    HW1 9833   2.768   5.531   0.147
 2978SOL    HW2 9834   2.910   5.463   0.190
 2979SOL     OW 9835   2.982   0.811   5.279
 2979SOL    HW1 9836   2.920   0.883   5.248
 2979SOL    HW2 9837   2.936   0.722   5.270
 2980SOL     OW 9838   3.484   3.101   4.410
 2980SOL    HW1 9839   3.530   3.027   4.460
 2980SOL    HW2 9840   3.553   3.153   4.358
 2981SOL     OW 9841   2.979   1.687   1.881
 2981SOL    HW1 9842   2.887   1.696   1.919
 2981SOL    HW2 9843   3.046   1.685   1.955
 2982SOL     OW 9844   1.632   0.922   0.823
 2982SOL    HW1 9845   1.650   0.933   0.920
 2982SOL    HW2 9846   1.591   1.007   0.787
 2983SOL     OW 9847   6.496   2.977   6.047
 2983SOL    HW1 9848   6.579   3.019   6.010
 2983SOL    HW2 9849   6.516   2.933   6.134
 2984SOL     OW 9850   0.604   6.351   1.357
 2984SOL    HW1 9851   0.668   6.404   1.412
 2984SOL    HW2 9852   0.654   6.282   1.305
 2985SOL     OW 9853   6.601   0.734   6.060
 2985SOL    HW1 9854   6.609   0.716   6.158
 2985SOL    HW2 9855   6.591   0.832   6.045
 2986SOL     OW 9856   3.318   3.108   2.008
 2986SOL    HW1 9857   3.360   3.176   1.948
 2986SOL    HW2 9858   3.333   3.134   2.103
 2987SOL     OW 9859   2.294   5.525   4.762
 2987SOL    HW1 9860   2.245   5.564   4.840
 2987SOL    HW2 9861   2.336   5.438   4.790
 2988SOL     OW 9862   6.821   2.121   6.036
 2988SOL    HW1 9863   6.910   2.078   6.017
 2988SOL    HW2 9864   6.798   2.107   6.132
 2989SOL     OW 9865   5.689   3.410   5.480
 2989SOL    HW1 9866   5.589   3.416   5.479
 2989SOL    HW2 9867   5.727   3.494   5.520
 2990SOL     OW 9868   5.803   1.557   5.578
 2990SOL    HW1 9869   5.752   1.626   5.630
 2990SOL    HW2 9870   5.901   1.578   5.582
 2991SOL     OW 9871   6.702   3.754   0.317
 2991SOL    HW1 9872   6.706   3.837   0.261
 2991SOL    HW2 9873   6.793   3.732   0.351
 2992SOL     OW 9874   0.499   3.764   5.387
 2992SOL    HW1 9875   0.557   3.755   5.306
 2992SOL    HW2 9876   0.460   3.675   5.410
 2993SOL     OW 9877   2.717   4.812   0.727
 2993SOL    HW1 9878   2.680   4.895   0.686
 2993SOL    HW2 9879   2.650   4.774   0.791
 2994SOL     OW 9880   2.963   4.885   4.656
 2994SOL    HW1 9881   2.969   4.981   4.683
 2994SOL    HW2 9882   3.051   4.840   4.672
 2995SOL     OW 9883   4.843   0.761   1.742
 2995SOL    HW1 9884   4.827   0.808   1.655
 2995SOL    HW2 9885   4.758   0.761   1.795
 2996SOL     OW 9886   6.496   0.977   4.153
 2996SOL    HW1 9887   6.578   0.945   4.105
 2996SOL    HW2 9888   6.426   0.905   4.150
 2997SOL     OW 9889   4.983   5.691   4.503
 2997SOL    HW1 9890   5.016   5.782   4.481
 2997SOL    HW2 9891   5.005   5.628   4.429
 2998SOL     OW 9892   2.503   0.904   1.424
 2998SOL    HW1 9893   2.541   0.949   1.505
 2998SOL    HW2 9894   2.564   0.832   1.393
 2999SOL     OW 9895   1.590   4.771   0.304
 2999SOL    HW1 9896   1.525   4.705   0.343
 2999SOL    HW2 9897   1.680   4.728   0.296
 3000SOL     OW 9898   2.143   3.867   5.229
 3000SOL    HW1 9899   2.119   3.806   5.153
 3000SOL    HW2 9900   2.232   3.909   5.210
 3001SOL     OW 9901   4.266   0.760   6.267
 3001SOL    HW1 9902   4.328   0.759   6.188
 3001SOL    HW2 9903   4.298   0.828   6.333
 3002SOL     OW 9904   1.242   2.232   2.253
 3002SOL    HW1 9905   1.323   2.174   2.256
 3002SOL    HW2 9906   1.192   2.215   2.168
 3003SOL     OW 9907   1.094   5.981   0.579
 3003SOL    HW1 9908   1.115   5.929   0.496
 3003SOL    HW2 9909   1.164   6.050   0.593
 3004SOL     OW 9910   3.211   6.632   3.837
 3004SOL    HW1 9911   3.271   6.555   3.816
 3004SOL    HW2 9912   3.117   6.601   3.843
 3005SOL     OW 9913   2.729   1.742   0.492
 3005SOL    HW1 9914   2.712   1.784   0.403
 3005SOL    HW2 9915   2.653   1.681   0.514
 3006SOL     OW 9916   5.836   1.299   5.664
 3006SOL    HW1 9917   5.797   1.293   5.756
 3006SOL    HW2 9918   5.799   1.379   5.617
 3007SOL     OW 9919   6.166   5.798   5.752
 3007SOL    HW1 9920   6.144   5.891   5.723
 3007SOL    HW2 9921   6.083   5.751   5.779
 3008SOL     OW 9922   4.618   4.175   5.843
 3008SOL    HW1 9923   4.583   4.260   5.804
 3008SOL    HW2 9924   4.715   4.186   5.864
 3009SOL     OW 9925   5.624   3.051   1.873
 3009SOL    HW1 9926   5.710   3.102   1.885
 3009SOL    HW2 9927   5.620   2.976   1.938
 3010SOL     OW 9928   4.617   5.338   1.559
 3010SOL    HW1 9929   4.659   5.279   1.628
 3010SOL    HW2 9930   4.571   5.281   1.491
 3011SOL     OW 9931   5.355   6.828   0.719
 3011SOL    HW1 9932   5.407   6.815   0.804
 3011SOL    HW2 9933   5.261   6.852   0.742
 3012SOL     OW 9934   2.448   1.047   4.616
 3012SOL    HW1 9935   2.503   1.012   4.540
 3012SOL    HW2 9936   2.484   1.012   4.702
 3013SOL     OW 9937   0.970   4.917   5.579
 3013SOL    HW1 9938   0.944   5.011   5.601
 3013SOL    HW2 9939   0.892   4.857   5.593
 3014SOL     OW 9940   3.965   0.186   7.016
 3014SOL    HW1 9941   3.992   0.273   6.975
 3014SOL    HW2 9942   3.955   0.117   6.944
 3015SOL     OW 9943   2.763   0.052   6.143
 3015SOL    HW1 9944   2.813   6.992   6.108
 3015SOL    HW2 9945   2.828   0.115   6.186
 3016SOL     OW 9946   2.806   0.568   4.214
 3016SOL    HW1 9947   2.794   0.474   4.247
 3016SOL    HW2 9948   2.886   0.608   4.259
 3017SOL     OW 9949   0.860   6.165   0.235
 3017SOL    HW1 9950   0.770   6.134   0.266
 3017SOL    HW2 9951   0.872   6.140   0.139
 3018SOL     OW 9952   3.033   1.994   1.959
 3018SOL    HW1 9953   3.110   1.931   1.967
 3018SOL    HW2 9954   3.063   2.077   1.912
 3019SOL     OW 9955   1.213   0.469   5.496
 3019SOL    HW1 9956   1.203   0.406   5.573
 3019SOL    HW2 9957   1.209   0.563   5.529
 3020SOL     OW 9958   4.889   5.112   6.765
 3020SOL    HW1 9959   4.923   5.063   6.685
 3020SOL    HW2 9960   4.859   5.046   6.834
 3021SOL     OW 9961   5.046   6.995   4.396
 3021SOL    HW1 9962   4.991   6.941   4.333
 3021SOL    HW2 9963   5.011   6.984   4.489
 3022SOL     OW 9964   4.544   6.661   4.364
 3022SOL    HW1 9965   4.526   6.693   4.270
 3022SOL    HW2 9966   4.602   6.579   4.360
 3023SOL     OW 9967   5.326   4.435   5.388
 3023SOL    HW1 9968   5.317   4.338   5.411
 3023SOL    HW2 9969   5.263   4.458   5.315
 3024SOL     OW 9970   6.813   1.114   0.686
 3024SOL    HW1 9971   6.730   1.170   0.695
 3024SOL    HW2 9972   6.813   1.042   0.755
 3025SOL     OW 9973   4.073   5.304   0.687
 3025SOL    HW1 9974   4.041   5.378   0.746
 3025SOL    HW2 9975   4.171   5.288   0.704
 3026SOL     OW 9976   0.417   0.747   2.339
 3026SOL    HW1 9977   0.483   0.672   2.332
 3026SOL    HW2 9978   0.370   0.742   2.427
 3027SOL     OW 9979   4.059   6.895   0.488
 3027SOL    HW1 9980   4.013   6.825   0.433
 3027SOL    HW2 9981   4.016   6.984   0.472
 3028SOL     OW 9982   3.709   3.279   4.671
 3028SOL    HW1 9983   3.657   3.340   4.611
 3028SOL    HW2 9984   3.798   3.261   4.631
 3029SOL     OW 9985   0.226   2.635   5.157
 3029SOL    HW1 9986   0.263   2.542   5.157
 3029SOL    HW2 9987   0.209   2.664   5.252
 3030SOL     OW 9988   1.466   2.847   6.453
 3030SOL    HW1 9989   1.532   2.798   6.397
 3030SOL    HW2 9990   1.471   2.812   6.547
 3031SOL     OW 9991   0.524   5.492   0.127
 3031SOL    HW1 9992   0.605   5.434   0.140
 3031SOL    HW2 9993   0.496   5.489   0.031
 3032SOL     OW 9994   3.078   6.943   3.832
 3032SOL    HW1 9995   3.047   6.933   3.737
 3032SOL    HW2 9996   3.153   6.880   3.849
 3033SOL     OW 9997   1.582   1.359   6.193
 3033SOL    HW1 9998   1.509   1.344   6.260
 3033SOL    HW2 9999   1.631   1.443   6.216
 3034SOL     OW10000   5.284   3.513   3.557
 3034SOL    HW110001   5.294   3.514   3.458
 3034SOL    HW210002   5.312   3.602   3.594
 3035SOL     OW10003   6.921   3.812   6.888
 3035SOL    HW110004   7.000   3.857   6.848
 3035SOL    HW210005   6.947   3.722   6.923
 3036SOL     OW10006   3.148   2.348   5.934
 3036SOL    HW110007   3.175   2.313   5.844
 3036SOL    HW210008   3.117   2.443   5.924
 3037SOL     OW10009   1.018   4.830   6.584
 3037SOL    HW110010   0.933   4.794   6.544
 3037SOL    HW210011   0.995   4.885   6.665
 3038SOL     OW10012   6.319   4.906   5.440
 3038SOL    HW110013   6.398   4.946   5.486
 3038SOL    HW210014   6.342   4.887   5.345
 3039SOL     OW10015   5.798   3.624   6.123
 3039SOL    HW110016   5.802   3.688   6.199
 3039SOL    HW210017   5.716   3.568   6.131
 3040SOL     OW10018   3.828   6.138   6.070
 3040SOL    HW110019   3.814   6.223   6.122
 3040SOL    HW210020   3.855   6.065   6.132
 3041SOL     OW10021   1.676   5.523   6.323
 3041SOL    HW110022   1.608   5.539   6.395
 3041SOL    HW210023   1.664   5.431   6.286
 3042SOL     OW10024   0.202   4.986   4.313
 3042SOL    HW110025   0.124   4.999   4.251
 3042SOL    HW210026   0.181   5.028   4.401
 3043SOL     OW10027   3.212   4.397   1.574
 3043SOL    HW110028   3.248   4.407   1.482
 3043SOL    HW210029   3.237   4.477   1.629
 3044SOL     OW10030   3.810   3.625   4.709
 3044SOL    HW110031   3.890   3.574   4.739
 3044SOL    HW210032   3.789   3.603   4.614
 3045SOL     OW10033   5.560   1.236   2.480
 3045SOL    HW110034   5.540   1.314   2.421
 3045SOL    HW210035   5.553   1.264   2.576
 3046SOL     OW10036   5.698   5.494   1.520
 3046SOL    HW110037   5.695   5.404   1.477
 3046SOL    HW210038   5.790   5.533   1.510
 3047SOL     OW10039   5.941   1.940   3.994
 3047SOL    HW110040   5.857   1.892   4.017
 3047SOL    HW210041   5.972   1.995   4.072
 3048SOL     OW10042   4.188   4.932   1.402
 3048SOL    HW110043   4.273   4.906   1.356
 3048SOL    HW210044   4.156   4.857   1.459
 3049SOL     OW10045   0.400   2.088   2.275
 3049SOL    HW110046   0.445   2.148   2.340
 3049SOL    HW210047   0.323   2.136   2.233
 3050SOL     OW10048   3.439   2.191   6.759
 3050SOL    HW110049   3.383   2.111   6.737
 3050SOL    HW210050   3.410   2.268   6.702
 3051SOL     OW10051   2.730   5.174   6.044
 3051SOL    HW110052   2.742   5.206   5.950
 3051SOL    HW210053   2.722   5.074   6.045
 3052SOL     OW10054   6.301   6.026   3.264
 3052SOL    HW110055   6.222   6.019   3.325
 3052SOL    HW210056   6.272   6.067   3.177
 3053SOL     OW10057   0.716   4.157   6.971
 3053SOL    HW110058   0.735   4.142   6.874
 3053SOL    HW210059   0.698   4.070   7.016
 3054SOL     OW10060   5.807   0.146   3.004
 3054SOL    HW110061   5.781   0.238   3.035
 3054SOL    HW210062   5.783   0.136   2.907
 3055SOL     OW10063   4.775   6.593   0.294
 3055SOL    HW110064   4.759   6.505   0.337
 3055SOL    HW210065   4.743   6.666   0.354
 3056SOL     OW10066   4.725   1.871   0.393
 3056SOL    HW110067   4.701   1.775   0.377
 3056SOL    HW210068   4.824   1.880   0.402
 3057SOL     OW10069   6.201   3.736   3.630
 3057SOL    HW110070   6.226   3.640   3.620
 3057SOL    HW210071   6.120   3.756   3.575
 3058SOL     OW10072   0.579   4.978   6.052
 3058SOL    HW110073   0.555   4.894   6.100
 3058SOL    HW210074   0.530   5.055   6.094
 3059SOL     OW10075   1.283   2.319   2.591
 3059SOL    HW110076   1.203   2.285   2.543
 3059SOL    HW210077   1.318   2.401   2.545
 3060SOL     OW10078   5.623   3.581   3.406
 3060SOL    HW110079   5.616   3.650   3.478
 3060SOL    HW210080   5.716   3.583   3.368
 3061SOL     OW10081   5.819   6.681   2.785
 3061SOL    HW110082   5.757   6.753   2.817
 3061SOL    HW210083   5.840   6.619   2.861
 3062SOL     OW10084   3.963   5.021   1.017
 3062SOL    HW110085   3.928   4.940   1.065
 3062SOL    HW210086   4.055   5.041   1.050
 3063SOL     OW10087   6.734   4.745   0.548
 3063SOL    HW110088   6.644   4.732   0.507
 3063SOL    HW210089   6.761   4.841   0.542
 3064SOL     OW10090   4.703   1.713   6.335
 3064SOL    HW110091   4.782   1.774   6.330
 3064SOL    HW210092   4.621   1.765   6.360
 3065SOL     OW10093   5.552   1.175   6.206
 3065SOL    HW110094   5.577   1.147   6.299
 3065SOL    HW210095   5.475   1.120   6.174
 3066SOL     OW10096   5.112   0.173   5.928
 3066SOL    HW110097   5.174   0.233   5.979
 3066SOL    HW210098   5.031   0.224   5.901
 3067SOL     OW10099   1.287   1.632   4.577
 3067SOL    HW110100   1.378   1.623   4.619
 3067SOL    HW210101   1.296   1.669   4.485
 3068SOL     OW10102   5.973   0.186   0.841
 3068SOL    HW110103   5.916   0.249   0.892
 3068SOL    HW210104   5.918   0.142   0.769
 3069SOL     OW10105   5.689   6.209   3.832
 3069SOL    HW110106   5.674   6.216   3.733
 3069SOL    HW210107   5.766   6.268   3.858
 3070SOL     OW10108   2.416   1.390   0.842
 3070SOL    HW110109   2.365   1.304   0.843
 3070SOL    HW210110   2.409   1.435   0.931
 3071SOL     OW10111   5.473   4.663   5.009
 3071SOL    HW110112   5.398   4.634   5.070
 3071SOL    HW210113   5.496   4.588   4.947
 3072SOL     OW10114   1.374   6.892   5.299
 3072SOL    HW110115   1.399   6.914   5.205
 3072SOL    HW210116   1.457   6.884   5.354
 3073SOL     OW10117   6.773   5.488   2.296
 3073SOL    HW110118   6.758   5.451   2.204
 3073SOL    HW210119   6.822   5.421   2.351
 3074SOL     OW10120   3.095   2.957   1.966
 3074SOL    HW110121   3.163   3.006   2.021
 3074SOL    HW210122   3.116   2.859   1.968
 3075SOL     OW10123   3.942   4.969   1.769
 3075SOL    HW110124   3.914   5.065   1.759
 3075SOL    HW210125   3.889   4.913   1.705
 3076SOL     OW10126   1.890   1.388   3.514
 3076SOL    HW110127   1.907   1.390   3.613
 3076SOL    HW210128   1.845   1.473   3.487
 3077SOL     OW10129   0.214   3.420   1.928
 3077SOL    HW110130   0.262   3.356   1.868
 3077SOL    HW210131   0.239   3.401   2.023
 3078SOL     OW10132   6.965   3.404   1.878
 3078SOL    HW110133   6.953   3.466   1.800
 3078SOL    HW210134   0.042   3.399   1.901
 3079SOL     OW10135   1.405   3.878   4.160
 3079SOL    HW110136   1.358   3.966   4.154
 3079SOL    HW210137   1.454   3.861   4.075
 3080SOL     OW10138   3.974   4.797   1.492
 3080SOL    HW110139   3.982   4.706   1.451
 3080SOL    HW210140   3.877   4.816   1.510
 3081SOL     OW10141   2.105   3.002   5.925
 3081SOL    HW110142   2.021   3.028   5.972
 3081SOL    HW210143   2.164   3.082   5.915
 3082SOL     OW10144   5.325   3.914   5.293
 3082SOL    HW110145   5.382   3.845   5.248
 3082SOL    HW210146   5.231   3.905   5.260
 3083SOL     OW10147   3.992   5.724   0.984
 3083SOL    HW110148   4.039   5.741   1.071
 3083SOL    HW210149   3.902   5.769   0.985
 3084SOL     OW10150   6.929   5.068   4.085
 3084SOL    HW110151   6.904   5.127   4.009
 3084SOL    HW210152   6.984   4.991   4.051
 3085SOL     OW10153   6.330   6.043   6.959
 3085SOL    HW110154   6.289   5.997   0.018
 3085SOL    HW210155   6.325   6.142   6.971
 3086SOL     OW10156   5.944   6.381   6.301
 3086SOL    HW110157   5.874   6.313   6.322
 3086SOL    HW210158   5.901   6.471   6.290
 3087SOL     OW10159   3.148   0.184   2.448
 3087SOL    HW110160   3.161   0.280   2.473
 3087SOL    HW210161   3.063   0.150   2.490
 3088SOL     OW10162   2.398   3.749   5.403
 3088SOL    HW110163   2.383   3.804   5.320
 3088SOL    HW210164   2.364   3.799   5.482
 3089SOL     OW10165   4.113   6.260   6.570
 3089SOL    HW110166   4.183   6.189   6.580
 3089SOL    HW210167   4.082   6.263   6.475
 3090SOL     OW10168   0.902   2.627   1.840
 3090SOL    HW110169   0.831   2.559   1.859
 3090SOL    HW210170   0.985   2.603   1.891
 3091SOL     OW10171   1.097   2.385   0.222
 3091SOL    HW110172   1.124   2.398   0.318
 3091SOL    HW210173   1.155   2.440   0.163
 3092SOL     OW10174   5.991   1.272   2.319
 3092SOL    HW110175   5.964   1.361   2.357
 3092SOL    HW210176   5.933   1.200   2.357
 3093SOL     OW10177   6.198   5.198   6.710
 3093SOL    HW110178   6.213   5.264   6.636
 3093SOL    HW210179   6.103   5.167   6.709
 3094SOL     OW10180   2.205   1.461   6.023
 3094SOL    HW110181   2.195   1.391   6.093
 3094SOL    HW210182   2.191   1.421   5.933
 3095SOL     OW10183   1.549   3.885   4.769
 3095SOL    HW110184   1.634   3.875   4.820
 3095SOL    HW210185   1.472   3.852   4.825
 3096SOL     OW10186   1.653   3.118   4.384
 3096SOL    HW110187   1.606   3.159   4.462
 3096SOL    HW210188   1.747   3.150   4.381
 3097SOL     OW10189   5.441   3.147   5.594
 3097SOL    HW110190   5.402   3.054   5.598
 3097SOL    HW210191   5.413   3.198   5.675
 3098SOL     OW10192   1.701   3.435   2.340
 3098SOL    HW110193   1.710   3.420   2.241
 3098SOL    HW210194   1.659   3.354   2.381
 3099SOL     OW10195   0.854   6.665   5.478
 3099SOL    HW110196   0.871   6.632   5.386
 3099SOL    HW210197   0.926   6.729   5.505
 3100SOL     OW10198   5.870   4.855   2.430
 3100SOL    HW110199   5.878   4.761   2.463
 3100SOL    HW210200   5.946   4.875   2.368
 3101SOL     OW10201   4.988   0.233   4.766
 3101SOL    HW110202   5.069   0.290   4.774
 3101SOL    HW210203   4.906   0.288   4.785
 3102SOL     OW10204   5.864   5.013   2.121
 3102SOL    HW110205   5.906   5.050   2.038
 3102SOL    HW210206   5.823   5.087   2.174
 3103SOL     OW10207   1.566   2.135   2.109
 3103SOL    HW110208   1.615   2.203   2.055
 3103SOL    HW210209   1.593   2.043   2.079
 3104SOL     OW10210   5.689   2.265   5.341
 3104SOL    HW110211   5.768   2.306   5.387
 3104SOL    HW210212   5.606   2.313   5.368
 3105SOL     OW10213   5.262   4.350   0.772
 3105SOL    HW110214   5.208   4.277   0.813
 3105SOL    HW210215   5.236   4.361   0.676
 3106SOL     OW10216   5.526   2.141   5.648
 3106SOL    HW110217   5.612   2.113   5.692
 3106SOL    HW210218   5.449   2.116   5.706
 3107SOL     OW10219   3.956   2.166   4.753
 3107SOL    HW110220   3.921   2.194   4.842
 3107SOL    HW210221   4.053   2.187   4.747
 3108SOL     OW10222   1.683   4.363   3.546
 3108SOL    HW110223   1.763   4.390   3.491
 3108SOL    HW210224   1.637   4.444   3.581
 3109SOL     OW10225   6.743   5.921   3.150
 3109SOL    HW110226   6.731   5.863   3.231
 3109SOL    HW210227   6.740   5.864   3.068
 3110SOL     OW10228   1.235   5.388   3.789
 3110SOL    HW110229   1.264   5.349   3.702
 3110SOL    HW210230   1.136   5.403   3.787
 3111SOL     OW10231   6.660   4.012   3.593
 3111SOL    HW110232   6.637   3.936   3.654
 3111SOL    HW210233   6.702   4.086   3.645
 3112SOL     OW10234   3.935   1.194   0.401
 3112SOL    HW110235   3.850   1.180   0.351
 3112SOL    HW210236   4.011   1.159   0.346
 3113SOL     OW10237   1.533   0.019   3.122
 3113SOL    HW110238   1.571   6.963   3.174
 3113SOL    HW210239   1.605   0.066   3.072
 3114SOL     OW10240   4.462   6.204   5.909
 3114SOL    HW110241   4.473   6.275   5.979
 3114SOL    HW210242   4.523   6.222   5.832
 3115SOL     OW10243   4.708   5.214   4.537
 3115SOL    HW110244   4.674   5.165   4.618
 3115SOL    HW210245   4.775   5.282   4.565
 3116SOL     OW10246   1.137   1.836   6.051
 3116SOL    HW110247   1.116   1.838   6.149
 3116SOL    HW210248   1.140   1.930   6.015
 3117SOL     OW10249   3.689   6.890   1.157
 3117SOL    HW110250   3.700   6.958   1.085
 3117SOL    HW210251   3.667   6.935   1.244
 3118SOL     OW10252   0.965   1.871   3.556
 3118SOL    HW110253   0.988   1.793   3.498
 3118SOL    HW210254   0.948   1.840   3.649
 3119SOL     OW10255   4.990   5.813   4.190
 3119SOL    HW110256   5.082   5.809   4.152
 3119SOL    HW210257   4.981   5.893   4.249
 3120SOL     OW10258   2.488   5.667   0.246
 3120SOL    HW110259   2.544   5.704   0.172
 3120SOL    HW210260   2.433   5.591   0.211
 3121SOL     OW10261   4.352   2.279   3.978
 3121SOL    HW110262   4.309   2.258   4.065
 3121SOL    HW210263   4.428   2.215   3.962
 3122SOL     OW10264   5.502   4.479   5.731
 3122SOL    HW110265   5.593   4.482   5.772
 3122SOL    HW210266   5.438   4.436   5.795
 3123SOL     OW10267   1.774   2.263   2.847
 3123SOL    HW110268   1.816   2.333   2.905
 3123SOL    HW210269   1.778   2.291   2.752
 3124SOL     OW10270   5.117   6.788   5.312
 3124SOL    HW110271   5.145   6.738   5.230
 3124SOL    HW210272   5.196   6.801   5.372
 3125SOL     OW10273   1.262   1.070   5.523
 3125SOL    HW110274   1.304   1.148   5.568
 3125SOL    HW210275   1.329   1.025   5.464
 3126SOL     OW10276   4.814   4.652   5.799
 3126SOL    HW110277   4.890   4.619   5.856
 3126SOL    HW210278   4.755   4.711   5.854
 3127SOL     OW10279   6.579   1.740   5.275
 3127SOL    HW110280   6.525   1.687   5.340
 3127SOL    HW210281   6.629   1.677   5.215
 3128SOL     OW10282   3.577   0.731   0.976
 3128SOL    HW110283   3.571   0.812   1.034
 3128SOL    HW210284   3.491   0.679   0.982
 3129SOL     OW10285   4.362   4.324   0.164
 3129SOL    HW110286   4.416   4.241   0.151
 3129SOL    HW210287   4.414   4.389   0.220
 3130SOL     OW10288   0.631   5.965   1.711
 3130SOL    HW110289   0.560   5.896   1.695
 3130SOL    HW210290   0.685   5.977   1.627
 3131SOL     OW10291   6.771   3.411   2.886
 3131SOL    HW110292   6.781   3.459   2.974
 3131SOL    HW210293   6.706   3.336   2.897
 3132SOL     OW10294   5.045   4.389   6.933
 3132SOL    HW110295   5.102   4.388   7.015
 3132SOL    HW210296   4.991   4.305   6.929
 3133SOL     OW10297   5.522   6.791   3.398
 3133SOL    HW110298   5.478   6.833   3.478
 3133SOL    HW210299   5.573   6.710   3.427
 3134SOL     OW10300   5.536   4.521   2.901
 3134SOL    HW110301   5.440   4.519   2.872
 3134SOL    HW210302   5.544   4.482   2.993
 3135SOL     OW10303   3.604   6.931   6.700
 3135SOL    HW110304   3.588   6.944   6.798
 3135SOL    HW210305   3.516   6.926   6.653
 3136SOL     OW10306   6.985   0.028   2.801
 3136SOL    HW110307   6.890   0.049   2.821
 3136SOL    HW210308   7.000   0.024   2.702
 3137SOL     OW10309   3.853   5.812   6.926
 3137SOL    HW110310   3.807   5.841   7.010
 3137SOL    HW210311   3.951   5.808   6.942
 3138SOL     OW10312   6.715   6.656   5.002
 3138SOL    HW110313   6.665   6.607   5.073
 3138SOL    HW210314   6.695   6.754   5.009
 3139SOL     OW10315   1.492   5.399   1.781
 3139SOL    HW110316   1.568   5.431   1.725
 3139SOL    HW210317   1.512   5.418   1.877
 3140SOL     OW10318   6.004   5.998   7.001
 3140SOL    HW110319   5.910   5.990   6.968
 3140SOL    HW210320   6.061   5.930   6.956
 3141SOL     OW10321   5.711   1.489   6.559
 3141SOL    HW110322   5.658   1.565   6.597
 3141SOL    HW210323   5.668   1.458   6.474
 3142SOL     OW10324   4.639   1.089   3.917
 3142SOL    HW110325   4.672   0.996   3.932
 3142SOL    HW210326   4.678   1.126   3.833
 3143SOL     OW10327   6.577   1.124   0.957
 3143SOL    HW110328   6.525   1.078   1.029
 3143SOL    HW210329   6.657   1.169   0.996
 3144SOL     OW10330   3.820   4.834   6.840
 3144SOL    HW110331   3.800   4.776   6.919
 3144SOL    HW210332   3.815   4.778   6.756
 3145SOL     OW10333   0.663   5.444   6.646
 3145SOL    HW110334   0.673   5.360   6.700
 3145SOL    HW210335   0.565   5.462   6.631
 3146SOL     OW10336   6.638   2.346   4.819
 3146SOL    HW110337   6.613   2.294   4.737
 3146SOL    HW210338   6.567   2.412   4.839
 3147SOL     OW10339   4.340   0.040   0.198
 3147SOL    HW110340   4.241   0.039   0.179
 3147SOL    HW210341   4.380   6.973   0.170
 3148SOL     OW10342   6.891   4.862   0.807
 3148SOL    HW110343   6.854   4.940   0.858
 3148SOL    HW210344   6.818   4.799   0.784
 3149SOL     OW10345   3.835   3.390   0.138
 3149SOL    HW110346   3.919   3.337   0.141
 3149SOL    HW210347   3.760   3.333   0.106
 3150SOL     OW10348   0.190   0.058   5.632
 3150SOL    HW110349   0.196   6.992   5.683
 3150SOL    HW210350   0.162   0.038   5.538
 3151SOL     OW10351   7.010   0.474   5.635
 3151SOL    HW110352   0.073   0.490   5.582
 3151SOL    HW210353   0.003   0.395   5.695
 3152SOL     OW10354   2.292   2.496   5.435
 3152SOL    HW110355   2.358   2.568   5.457
 3152SOL    HW210356   2.310   2.415   5.491
 3153SOL     OW10357   5.429   5.560   1.886
 3153SOL    HW110358   5.406   5.465   1.906
 3153SOL    HW210359   5.407   5.580   1.790
 3154SOL     OW10360   3.552   2.386   0.736
 3154SOL    HW110361   3.641   2.377   0.779
 3154SOL    HW210362   3.509   2.296   0.726
 3155SOL     OW10363   0.595   4.779   6.904
 3155SOL    HW110364   0.643   4.853   6.952
 3155SOL    HW210365   0.645   4.693   6.916
 3156SOL     OW10366   3.803   4.158   1.039
 3156SOL    HW110367   3.832   4.177   0.945
 3156SOL    HW210368   3.740   4.229   1.070
 3157SOL     OW10369   1.480   1.083   4.182
 3157SOL    HW110370   1.483   1.182   4.198
 3157SOL    HW210371   1.495   1.035   4.268
 3158SOL     OW10372   2.665   0.569   5.923
 3158SOL    HW110373   2.719   0.651   5.938
 3158SOL    HW210374   2.725   0.489   5.921
 3159SOL     OW10375   5.038   6.840   1.616
 3159SOL    HW110376   5.022   6.783   1.697
 3159SOL    HW210377   5.115   6.902   1.634
 3160SOL     OW10378   2.141   0.917   5.272
 3160SOL    HW110379   2.046   0.898   5.247
 3160SOL    HW210380   2.161   0.874   5.360
 3161SOL     OW10381   1.798   2.493   2.334
 3161SOL    HW110382   1.853   2.505   2.417
 3161SOL    HW210383   1.837   2.419   2.279
 3162SOL     OW10384   1.213   5.801   1.539
 3162SOL    HW110385   1.166   5.728   1.588
 3162SOL    HW210386   1.307   5.773   1.520
 3163SOL     OW10387   4.742   4.418   0.812
 3163SOL    HW110388   4.643   4.420   0.826
 3163SOL    HW210389   4.769   4.494   0.754
 3164SOL     OW10390   2.558   6.716   4.397
 3164SOL    HW110391   2.462   6.721   4.368
 3164SOL    HW210392   2.594   6.808   4.409
 3165SOL     OW10393   0.538   6.687   6.003
 3165SOL    HW110394   0.605   6.620   6.036
 3165SOL    HW210395   0.522   6.756   6.073
 3166SOL     OW10396   4.424   1.526   4.171
 3166SOL    HW110397   4.365   1.445   4.172
 3166SOL    HW210398   4.420   1.569   4.081
 3167SOL     OW10399   5.674   2.726   1.447
 3167SOL    HW110400   5.661   2.761   1.540
 3167SOL    HW210401   5.683   2.802   1.384
 3168SOL     OW10402   4.965   1.114   0.536
 3168SOL    HW110403   4.892   1.115   0.468
 3168SOL    HW210404   5.051   1.086   0.493
 3169SOL     OW10405   1.047   4.895   2.292
 3169SOL    HW110406   0.957   4.925   2.259
 3169SOL    HW210407   1.066   4.939   2.380
 3170SOL     OW10408   2.219   4.035   3.725
 3170SOL    HW110409   2.226   4.081   3.814
 3170SOL    HW210410   2.246   4.099   3.653
 3171SOL     OW10411   5.141   1.706   4.457
 3171SOL    HW110412   5.196   1.625   4.477
 3171SOL    HW210413   5.087   1.689   4.374
 3172SOL     OW10414   5.757   4.368   0.979
 3172SOL    HW110415   5.703   4.355   0.895
 3172SOL    HW210416   5.696   4.367   1.058
 3173SOL     OW10417   5.306   2.699   0.592
 3173SOL    HW110418   5.250   2.732   0.515
 3173SOL    HW210419   5.247   2.678   0.670
 3174SOL     OW10420   3.644   2.369   6.585
 3174SOL    HW110421   3.661   2.298   6.517
 3174SOL    HW210422   3.546   2.376   6.602
 3175SOL     OW10423   5.735   6.779   5.165
 3175SOL    HW110424   5.664   6.720   5.126
 3175SOL    HW210425   5.777   6.734   5.243
 3176SOL     OW10426   0.343   4.766   3.938
 3176SOL    HW110427   0.343   4.667   3.948
 3176SOL    HW210428   0.432   4.802   3.968
 3177SOL     OW10429   5.195   3.346   3.726
 3177SOL    HW110430   5.108   3.358   3.773
 3177SOL    HW210431   5.214   3.425   3.668
 3178SOL     OW10432   0.765   0.414   2.878
 3178SOL    HW110433   0.667   0.433   2.887
 3178SOL    HW210434   0.782   0.319   2.905
 3179SOL     OW10435   0.620   3.062   2.424
 3179SOL    HW110436   0.572   3.040   2.339
 3179SOL    HW210437   0.699   3.119   2.404
 3180SOL     OW10438   6.676   6.432   6.631
 3180SOL    HW110439   6.629   6.509   6.674
 3180SOL    HW210440   6.772   6.432   6.658
 3181SOL     OW10441   0.510   5.573   5.191
 3181SOL    HW110442   0.538   5.549   5.098
 3181SOL    HW210443   0.526   5.671   5.207
 3182SOL     OW10444   1.766   6.819   1.583
 3182SOL    HW110445   1.845   6.849   1.637
 3182SOL    HW210446   1.722   6.899   1.542
 3183SOL     OW10447   4.059   3.447   0.903
 3183SOL    HW110448   3.968   3.406   0.905
 3183SOL    HW210449   4.128   3.374   0.904
 3184SOL     OW10450   6.400   1.555   4.298
 3184SOL    HW110451   6.434   1.562   4.205
 3184SOL    HW210452   6.303   1.532   4.296
 3185SOL     OW10453   0.994   6.432   6.518
 3185SOL    HW110454   0.967   6.527   6.532
 3185SOL    HW210455   0.918   6.372   6.545
 3186SOL     OW10456   0.057   3.116   6.518
 3186SOL    HW110457   0.039   3.180   6.444
 3186SOL    HW210458   0.006   3.145   6.600
 3187SOL     OW10459   5.083   6.828   2.947
 3187SOL    HW110460   5.122   6.917   2.924
 3187SOL    HW210461   5.106   6.806   3.042
 3188SOL     OW10462   1.694   6.698   0.789
 3188SOL    HW110463   1.707   6.667   0.883
 3188SOL    HW210464   1.601   6.676   0.759
 3189SOL     OW10465   2.777   1.637   6.229
 3189SOL    HW110466   2.765   1.694   6.148
 3189SOL    HW210467   2.864   1.659   6.273
 3190SOL     OW10468   6.102   6.068   3.442
 3190SOL    HW110469   6.032   6.006   3.479
 3190SOL    HW210470   6.149   6.113   3.518
 3191SOL     OW10471   3.582   5.427   1.433
 3191SOL    HW110472   3.506   5.442   1.370
 3191SOL    HW210473   3.548   5.426   1.527
 3192SOL     OW10474   5.532   0.963   2.504
 3192SOL    HW110475   5.479   0.912   2.436
 3192SOL    HW210476   5.519   1.061   2.489
 3193SOL     OW10477   3.489   5.336   5.134
 3193SOL    HW110478   3.451   5.397   5.065
 3193SOL    HW210479   3.588   5.336   5.128
 3194SOL     OW10480   1.650   6.752   5.804
 3194SOL    HW110481   1.606   6.748   5.894
 3194SOL    HW210482   1.692   6.842   5.791
 3195SOL     OW10483   0.831   0.198   0.747
 3195SOL    HW110484   0.893   0.160   0.816
 3195SOL    HW210485   0.740   0.158   0.758
 3196SOL     OW10486   6.344   6.906   2.740
 3196SOL    HW110487   6.266   6.857   2.778
 3196SOL    HW210488   6.377   6.858   2.658
 3197SOL     OW10489   2.800   0.842   6.657
 3197SOL    HW110490   2.863   0.887   6.720
 3197SOL    HW210491   2.790   0.897   6.574
 3198SOL     OW10492   5.585   2.602   3.919
 3198SOL    HW110493   5.580   2.568   4.013
 3198SOL    HW210494   5.640   2.540   3.863
 3199SOL     OW10495   4.901   3.826   3.005
 3199SOL    HW110496   4.824   3.826   3.068
 3199SOL    HW210497   4.875   3.875   2.921
 3200SOL     OW10498   5.582   3.327   4.597
 3200SOL    HW110499   5.493   3.313   4.640
 3200SOL    HW210500   5.652   3.339   4.668
 3201SOL     OW10501   6.407   4.332   2.013
 3201SOL    HW110502   6.354   4.416   2.030
 3201SOL    HW210503   6.431   4.327   1.916
 3202SOL     OW10504   2.615   3.170   6.274
 3202SOL    HW110505   2.656   3.237   6.337
 3202SOL    HW210506   2.555   3.218   6.210
 3203SOL     OW10507   3.286   6.778   1.750
 3203SOL    HW110508   3.309   6.698   1.805
 3203SOL    HW210509   3.192   6.807   1.769
 3204SOL     OW10510   4.215   0.555   4.226
 3204SOL    HW110511   4.182   0.628   4.166
 3204SOL    HW210512   4.211   0.585   4.321
 3205SOL     OW10513   5.011   3.113   5.842
 3205SOL    HW110514   5.028   3.058   5.761
 3205SOL    HW210515   4.912   3.116   5.860
 3206SOL     OW10516   2.658   4.155   1.158
 3206SOL    HW110517   2.685   4.247   1.130
 3206SOL    HW210518   2.649   4.152   1.258
 3207SOL     OW10519   2.333   5.974   4.225
 3207SOL    HW110520   2.386   5.955   4.142
 3207SOL    HW210521   2.395   5.981   4.303
 3208SOL     OW10522   6.801   4.792   6.215
 3208SOL    HW110523   6.881   4.734   6.200
 3208SOL    HW210524   6.722   4.736   6.236
 3209SOL     OW10525   5.355   6.353   6.468
 3209SOL    HW110526   5.285   6.414   6.505
 3209SOL    HW210527   5.319   6.260   6.463
 3210SOL     OW10528   4.995   5.641   1.466
 3210SOL    HW110529   4.904   5.605   1.490
 3210SOL    HW210530   5.063   5.601   1.526
 3211SOL     OW10531   1.936   6.259   6.564
 3211SOL    HW110532   1.966   6.199   6.639
 3211SOL    HW210533   1.902   6.203   6.489
 3212SOL     OW10534   3.417   6.799   3.732
 3212SOL    HW110535   3.467   6.875   3.774
 3212SOL    HW210536   3.369   6.748   3.803
 3213SOL     OW10537   1.555   0.137   5.759
 3213SOL    HW110538   1.483   0.173   5.819
 3213SOL    HW210539   1.545   0.175   5.668
 3214SOL     OW10540   3.998   0.421   2.691
 3214SOL    HW110541   3.910   0.465   2.672
 3214SOL    HW210542   4.072   0.486   2.673
 3215SOL     OW10543   2.169   3.089   1.941
 3215SOL    HW110544   2.133   3.146   2.015
 3215SOL    HW210545   2.190   2.998   1.977
 3216SOL     OW10546   6.088   5.269   0.860
 3216SOL    HW110547   6.010   5.310   0.907
 3216SOL    HW210548   6.154   5.235   0.927
 3217SOL     OW10549   7.014   5.083   3.734
 3217SOL    HW110550   6.953   5.012   3.699
 3217SOL    HW210551   0.086   5.046   3.746
 3218SOL     OW10552   5.815   1.648   3.082
 3218SOL    HW110553   5.843   1.716   3.149
 3218SOL    HW210554   5.779   1.694   3.001
 3219SOL     OW10555   5.657   1.825   5.060
 3219SOL    HW110556   5.695   1.872   4.981
 3219SOL    HW210557   5.728   1.813   5.129
 3220SOL     OW10558   0.092   3.720   5.750
 3220SOL    HW110559   0.109   3.634   5.800
 3220SOL    HW210560   0.173   3.744   5.697
 3221SOL     OW10561   3.602   1.385   2.014
 3221SOL    HW110562   3.649   1.463   1.974
 3221SOL    HW210563   3.505   1.387   1.988
 3222SOL     OW10564   3.573   1.418   3.172
 3222SOL    HW110565   3.514   1.497   3.156
 3222SOL    HW210566   3.664   1.437   3.136
 3223SOL     OW10567   1.535   5.250   0.712
 3223SOL    HW110568   1.475   5.170   0.704
 3223SOL    HW210569   1.550   5.289   0.621
 3224SOL     OW10570   4.755   2.449   4.337
 3224SOL    HW110571   4.670   2.467   4.387
 3224SOL    HW210572   4.794   2.362   4.370
 3225SOL     OW10573   4.584   1.013   4.738
 3225SOL    HW110574   4.594   1.001   4.837
 3225SOL    HW210575   4.491   1.044   4.718
 3226SOL     OW10576   5.745   0.989   0.667
 3226SOL    HW110577   5.786   0.899   0.652
 3226SOL    HW210578   5.803   1.059   0.625
 3227SOL     OW10579   5.817   3.980   5.542
 3227SOL    HW110580   5.768   4.038   5.477
 3227SOL    HW210581   5.896   4.029   5.578
 3228SOL     OW10582   2.312   4.441   0.428
 3228SOL    HW110583   2.246   4.424   0.501
 3228SOL    HW210584   2.376   4.512   0.458
 3229SOL     OW10585   1.652   2.008   0.629
 3229SOL    HW110586   1.720   1.936   0.621
 3229SOL    HW210587   1.695   2.092   0.660
 3230SOL     OW10588   3.534   5.935   5.182
 3230SOL    HW110589   3.560   5.886   5.099
 3230SOL    HW210590   3.608   5.998   5.208
 3231SOL     OW10591   1.928   2.634   2.527
 3231SOL    HW110592   1.998   2.692   2.569
 3231SOL    HW210593   1.841   2.647   2.574
 3232SOL     OW10594   3.323   4.916   3.463
 3232SOL    HW110595   3.243   4.944   3.411
 3232SOL    HW210596   3.383   4.861   3.405
 3233SOL     OW10597   2.117   6.917   7.014
 3233SOL    HW110598   2.077   6.943   0.082
 3233SOL    HW210599   2.197   6.860   0.010
 3234SOL     OW10600   3.019   3.360   0.712
 3234SOL    HW110601   2.987   3.270   0.744
 3234SOL    HW210602   3.000   3.369   0.615
 3235SOL     OW10603   0.406   1.276   3.299
 3235SOL    HW110604   0.481   1.209   3.291
 3235SOL    HW210605   0.354   1.257   3.382
 3236SOL     OW10606   4.461   0.070   1.194
 3236SOL    HW110607   4.377   0.116   1.224
 3236SOL    HW210608   4.439   6.996   1.166
 3237SOL     OW10609   6.144   1.172   5.202
 3237SOL    HW110610   6.203   1.121   5.139
 3237SOL    HW210611   6.146   1.128   5.291
 3238SOL     OW10612   5.939   4.526   1.671
 3238SOL    HW110613   5.909   4.501   1.763
 3238SOL    HW210614   6.033   4.498   1.657
 3239SOL     OW10615   6.057   0.895   4.826
 3239SOL    HW110616   6.017   0.888   4.917
 3239SOL    HW210617   6.022   0.977   4.780
 3240SOL     OW10618   6.944   1.216   0.028
 3240SOL    HW110619   0.023   1.209   0.044
 3240SOL    HW210620   6.900   1.258   0.108
 3241SOL     OW10621   6.716   3.209   5.244
 3241SOL    HW110622   6.723   3.262   5.329
 3241SOL    HW210623   6.804   3.208   5.198
 3242SOL     OW10624   6.917   3.869   4.656
 3242SOL    HW110625   6.871   3.958   4.655
 3242SOL    HW210626   6.919   3.833   4.749
 3243SOL     OW10627   5.919   5.076   3.926
 3243SOL    HW110628   5.894   5.172   3.939
 3243SOL    HW210629   6.015   5.069   3.900
 3244SOL     OW10630   4.689   6.831   0.469
 3244SOL    HW110631   4.757   6.873   0.529
 3244SOL    HW210632   4.652   6.900   0.407
 3245SOL     OW10633   3.646   6.833   4.311
 3245SOL    HW110634   3.591   6.861   4.232
 3245SOL    HW210635   3.628   6.737   4.332
 3246SOL     OW10636   6.535   6.292   2.875
 3246SOL    HW110637   6.617   6.257   2.920
 3246SOL    HW210638   6.523   6.247   2.786
 3247SOL     OW10639   1.648   4.167   3.766
 3247SOL    HW110640   1.595   4.238   3.812
 3247SOL    HW210641   1.673   4.198   3.674
 3248SOL     OW10642   5.477   2.766   3.424
 3248SOL    HW110643   5.490   2.737   3.519
 3248SOL    HW210644   5.495   2.689   3.362
 3249SOL     OW10645   2.889   3.339   3.500
 3249SOL    HW110646   2.911   3.436   3.515
 3249SOL    HW210647   2.806   3.332   3.445
 3250SOL     OW10648   4.559   5.971   3.030
 3250SOL    HW110649   4.594   5.886   2.990
 3250SOL    HW210650   4.542   5.959   3.127
 3251SOL     OW10651   2.840   2.246   2.741
 3251SOL    HW110652   2.834   2.231   2.840
 3251SOL    HW210653   2.914   2.189   2.703
 3252SOL     OW10654   2.333   1.531   3.315
 3252SOL    HW110655   2.397   1.478   3.370
 3252SOL    HW210656   2.276   1.468   3.261
 3253SOL     OW10657   6.791   3.525   0.108
 3253SOL    HW110658   6.748   3.521   0.018
 3253SOL    HW210659   6.726   3.564   0.174
 3254SOL     OW10660   6.447   6.592   1.181
 3254SOL    HW110661   6.445   6.566   1.278
 3254SOL    HW210662   6.416   6.687   1.172
 3255SOL     OW10663   3.766   5.801   1.805
 3255SOL    HW110664   3.710   5.744   1.865
 3255SOL    HW210665   3.752   5.773   1.710
 3256SOL     OW10666   5.220   2.613   1.106
 3256SOL    HW110667   5.188   2.523   1.134
 3256SOL    HW210668   5.279   2.651   1.178
 3257SOL     OW10669   3.034   1.348   3.077
 3257SOL    HW110670   3.114   1.400   3.108
 3257SOL    HW210671   2.971   1.410   3.030
 3258SOL     OW10672   1.768   5.387   4.063
 3258SOL    HW110673   1.818   5.344   3.987
 3258SOL    HW210674   1.684   5.336   4.081
 3259SOL     OW10675   5.572   4.178   4.316
 3259SOL    HW110676   5.586   4.218   4.225
 3259SOL    HW210677   5.629   4.226   4.382
 3260SOL     OW10678   1.817   4.877   3.172
 3260SOL    HW110679   1.745   4.942   3.149
 3260SOL    HW210680   1.775   4.789   3.197
 3261SOL     OW10681   5.692   0.534   4.167
 3261SOL    HW110682   5.743   0.528   4.253
 3261SOL    HW210683   5.745   0.589   4.102
 3262SOL     OW10684   3.316   1.569   3.421
 3262SOL    HW110685   3.373   1.509   3.477
 3262SOL    HW210686   3.301   1.655   3.469
 3263SOL     OW10687   0.095   0.992   1.494
 3263SOL    HW110688   0.172   0.929   1.503
 3263SOL    HW210689   0.028   0.974   1.566
 3264SOL     OW10690   1.632   4.678   6.812
 3264SOL    HW110691   1.587   4.700   6.726
 3264SOL    HW210692   1.695   4.602   6.798
 3265SOL     OW10693   0.101   5.062   6.360
 3265SOL    HW110694   0.086   5.158   6.382
 3265SOL    HW210695   0.153   5.018   6.433
 3266SOL     OW10696   3.744   4.857   6.295
 3266SOL    HW110697   3.732   4.840   6.197
 3266SOL    HW210698   3.810   4.931   6.307
 3267SOL     OW10699   3.457   6.517   0.782
 3267SOL    HW110700   3.467   6.609   0.745
 3267SOL    HW210701   3.374   6.512   0.837
 3268SOL     OW10702   5.506   5.231   2.095
 3268SOL    HW110703   5.521   5.166   2.020
 3268SOL    HW210704   5.521   5.184   2.182
 3269SOL     OW10705   1.760   5.245   1.987
 3269SOL    HW110706   1.829   5.191   2.034
 3269SOL    HW210707   1.712   5.303   2.052
 3270SOL     OW10708   1.217   2.620   5.717
 3270SOL    HW110709   1.136   2.564   5.739
 3270SOL    HW210710   1.192   2.717   5.718
 3271SOL     OW10711   1.332   3.584   1.466
 3271SOL    HW110712   1.306   3.648   1.393
 3271SOL    HW210713   1.415   3.616   1.511
 3272SOL     OW10714   4.153   6.353   1.206
 3272SOL    HW110715   4.207   6.424   1.160
 3272SOL    HW210716   4.058   6.361   1.177
 3273SOL     OW10717   3.806   3.983   6.668
 3273SOL    HW110718   3.728   4.006   6.727
 3273SOL    HW210719   3.889   4.027   6.703
 3274SOL     OW10720   5.057   6.700   2.436
 3274SOL    HW110721   4.994   6.777   2.451
 3274SOL    HW210722   5.063   6.646   2.520
 3275SOL     OW10723   4.970   0.557   1.149
 3275SOL    HW110724   4.946   0.606   1.065
 3275SOL    HW210725   4.941   0.611   1.228
 3276SOL     OW10726   6.105   5.753   6.885
 3276SOL    HW110727   6.186   5.806   6.860
 3276SOL    HW210728   6.118   5.657   6.858
 3277SOL     OW10729   3.235   2.119   2.227
 3277SOL    HW110730   3.267   2.200   2.276
 3277SOL    HW210731   3.135   2.115   2.229
 3278SOL     OW10732   5.188   0.983   6.410
 3278SOL    HW110733   5.210   0.895   6.451
 3278SOL    HW210734   5.161   1.048   6.481
 3279SOL     OW10735   3.861   6.751   2.275
 3279SOL    HW110736   3.799   6.677   2.301
 3279SOL    HW210737   3.954   6.715   2.265
 3280SOL     OW10738   6.869   3.257   4.071
 3280SOL    HW110739   6.896   3.241   4.166
 3280SOL    HW210740   6.925   3.331   4.033
 3281SOL     OW10741   5.907   1.903   1.501
 3281SOL    HW110742   5.993   1.852   1.501
 3281SOL    HW210743   5.831   1.840   1.484
 3282SOL     OW10744   0.062   4.635   4.814
 3282SOL    HW110745   0.103   4.685   4.738
 3282SOL    HW210746   0.119   4.556   4.837
 3283SOL     OW10747   2.939   1.839   0.134
 3283SOL    HW110748   2.887   1.756   0.114
 3283SOL    HW210749   2.984   1.872   0.051
 3284SOL     OW10750   2.077   6.824   4.969
 3284SOL    HW110751   2.088   6.786   5.061
 3284SOL    HW210752   1.985   6.804   4.936
 3285SOL     OW10753   4.119   2.257   4.458
 3285SOL    HW110754   4.041   2.251   4.521
 3285SOL    HW210755   4.202   2.229   4.506
 3286SOL     OW10756   1.867   3.215   3.096
 3286SOL    HW110757   1.782   3.172   3.066
 3286SOL    HW210758   1.860   3.238   3.193
 3287SOL     OW10759   2.753   0.636   0.971
 3287SOL    HW110760   2.700   0.610   0.890
 3287SOL    HW210761   2.704   0.707   1.022
 3288SOL     OW10762   2.852   5.725   2.026
 3288SOL    HW110763   2.763   5.708   1.983
 3288SOL    HW210764   2.905   5.788   1.969
 3289SOL     OW10765   4.021   0.748   6.686
 3289SOL    HW110766   3.940   0.747   6.628
 3289SOL    HW210767   4.026   0.836   6.733
 3290SOL     OW10768   0.546   5.777   0.116
 3290SOL    HW110769   0.550   5.678   0.132
 3290SOL    HW210770   0.602   5.799   0.036
 3291SOL     OW10771   5.036   6.616   4.889
 3291SOL    HW110772   5.088   6.647   4.809
 3291SOL    HW210773   5.081   6.647   4.972
 3292SOL     OW10774   0.181   2.181   0.118
 3292SOL    HW110775   0.258   2.155   0.176
 3292SOL    HW210776   0.148   2.101   0.069
 3293SOL     OW10777   6.871   5.069   3.364
 3293SOL    HW110778   6.932   5.089   3.288
 3293SOL    HW210779   6.810   5.147   3.380
 3294SOL     OW10780   4.726   2.867   5.663
 3294SOL    HW110781   4.699   2.960   5.635
 3294SOL    HW210782   4.645   2.817   5.693
 3295SOL     OW10783   1.287   2.496   2.989
 3295SOL    HW110784   1.381   2.525   2.971
 3295SOL    HW210785   1.253   2.539   3.072
 3296SOL     OW10786   2.527   0.606   6.488
 3296SOL    HW110787   2.584   0.580   6.566
 3296SOL    HW210788   2.576   0.673   6.432
 3297SOL     OW10789   4.223   1.531   5.145
 3297SOL    HW110790   4.168   1.513   5.063
 3297SOL    HW210791   4.319   1.534   5.120
 3298SOL     OW10792   3.402   4.099   5.551
 3298SOL    HW110793   3.394   4.014   5.603
 3298SOL    HW210794   3.489   4.100   5.501
 3299SOL     OW10795   2.803   6.017   3.594
 3299SOL    HW110796   2.792   6.087   3.664
 3299SOL    HW210797   2.798   6.059   3.503
 3300SOL     OW10798   1.974   1.093   4.130
 3300SOL    HW110799   2.035   1.016   4.111
 3300SOL    HW210800   1.891   1.060   4.176
 3301SOL     OW10801   0.853   1.068   3.439
 3301SOL    HW110802   0.901   1.045   3.524
 3301SOL    HW210803   0.864   0.994   3.373
 3302SOL     OW10804   1.031   5.217   5.204
 3302SOL    HW110805   0.935   5.242   5.193
 3302SOL    HW210806   1.048   5.130   5.157
 3303SOL     OW10807   3.827   3.690   6.842
 3303SOL    HW110808   3.901   3.652   6.787
 3303SOL    HW210809   3.829   3.789   6.837
 3304SOL     OW10810   2.044   3.989   0.171
 3304SOL    HW110811   2.123   4.037   0.209
 3304SOL    HW210812   2.057   3.890   0.181
 3305SOL     OW10813   3.243   2.618   0.093
 3305SOL    HW110814   3.179   2.689   0.123
 3305SOL    HW210815   3.218   2.530   0.133
 3306SOL     OW10816   2.304   0.443   6.975
 3306SOL    HW110817   2.232   0.424   6.908
 3306SOL    HW210818   2.375   0.498   6.931
 3307SOL     OW10819   1.947   5.656   4.577
 3307SOL    HW110820   2.016   5.728   4.568
 3307SOL    HW210821   1.946   5.623   4.671
 3308SOL     OW10822   4.421   4.865   1.270
 3308SOL    HW110823   4.365   4.908   1.199
 3308SOL    HW210824   4.514   4.852   1.236
 3309SOL     OW10825   5.244   3.942   3.228
 3309SOL    HW110826   5.305   3.967   3.303
 3309SOL    HW210827   5.203   3.853   3.247
 3310SOL     OW10828   6.578   4.628   6.260
 3310SOL    HW110829   6.604   4.552   6.202
 3310SOL    HW210830   6.529   4.593   6.341
 3311SOL     OW10831   2.218   3.604   0.797
 3311SOL    HW110832   2.155   3.527   0.806
 3311SOL    HW210833   2.251   3.631   0.887
 3312SOL     OW10834   4.935   2.625   6.684
 3312SOL    HW110835   4.941   2.724   6.681
 3312SOL    HW210836   4.909   2.590   6.594
 3313SOL     OW10837   0.269   0.104   4.583
 3313SOL    HW110838   0.185   0.072   4.628
 3313SOL    HW210839   0.256   0.101   4.484
 3314SOL     OW10840   3.736   5.724   1.512
 3314SOL    HW110841   3.646   5.737   1.555
 3314SOL    HW210842   3.782   5.647   1.556
 3315SOL     OW10843   1.167   5.747   3.806
 3315SOL    HW110844   1.100   5.734   3.733
 3315SOL    HW210845   1.143   5.691   3.884
 3316SOL     OW10846   4.077   2.615   7.014
 3316SOL    HW110847   4.120   2.705   7.002
 3316SOL    HW210848   4.128   2.563   0.063
 3317SOL     OW10849   5.310   2.770   2.119
 3317SOL    HW110850   5.395   2.734   2.158
 3317SOL    HW210851   5.243   2.696   2.111
 3318SOL     OW10852   3.261   3.035   0.596
 3318SOL    HW110853   3.223   3.112   0.545
 3318SOL    HW210854   3.357   3.052   0.615
 3319SOL     OW10855   6.659   6.101   4.103
 3319SOL    HW110856   6.703   6.176   4.151
 3319SOL    HW210857   6.699   6.091   4.012
 3320SOL     OW10858   6.520   6.661   2.029
 3320SOL    HW110859   6.563   6.580   1.992
 3320SOL    HW210860   6.585   6.738   2.027
 3321SOL     OW10861   4.890   1.931   6.869
 3321SOL    HW110862   4.986   1.959   6.861
 3321SOL    HW210863   4.864   1.931   6.966
 3322SOL     OW10864   6.505   2.776   0.952
 3322SOL    HW110865   6.526   2.679   0.963
 3322SOL    HW210866   6.413   2.794   0.987
 3323SOL     OW10867   1.700   1.530   1.438
 3323SOL    HW110868   1.760   1.559   1.364
 3323SOL    HW210869   1.605   1.536   1.407
 3324SOL     OW10870   5.206   5.111   5.643
 3324SOL    HW110871   5.148   5.191   5.658
 3324SOL    HW210872   5.290   5.120   5.697
 3325SOL     OW10873   2.719   5.085   5.170
 3325SOL    HW110874   2.792   5.144   5.205
 3325SOL    HW210875   2.742   4.990   5.187
 3326SOL     OW10876   3.577   2.040   2.272
 3326SOL    HW110877   3.524   2.036   2.187
 3326SOL    HW210878   3.648   2.110   2.265
 3327SOL     OW10879   1.035   5.644   5.835
 3327SOL    HW110880   1.059   5.741   5.830
 3327SOL    HW210881   1.049   5.611   5.928
 3328SOL     OW10882   4.809   2.343   5.023
 3328SOL    HW110883   4.762   2.431   5.015
 3328SOL    HW210884   4.892   2.354   5.076
 3329SOL     OW10885   6.471   6.216   5.827
 3329SOL    HW110886   6.509   6.150   5.764
 3329SOL    HW210887   6.531   6.296   5.832
 3330SOL     OW10888   6.749   3.952   3.340
 3330SOL    HW110889   6.757   3.852   3.344
 3330SOL    HW210890   6.702   3.984   3.422
 3331SOL     OW10891   2.028   3.381   0.538
 3331SOL    HW110892   2.044   3.421   0.629
 3331SOL    HW210893   2.021   3.282   0.546
 3332SOL     OW10894   0.054   4.137   1.198
 3332SOL    HW110895   0.046   4.052   1.250
 3332SOL    HW210896   0.149   4.153   1.174
 3333SOL     OW10897   2.920   5.644   6.027
 3333SOL    HW110898   3.009   5.612   6.058
 3333SOL    HW210899   2.900   5.606   5.937
 3334SOL     OW10900   1.816   3.611   1.803
 3334SOL    HW110901   1.788   3.706   1.810
 3334SOL    HW210902   1.857   3.581   1.889
 3335SOL     OW10903   5.765   4.246   4.542
 3335SOL    HW110904   5.857   4.222   4.511
 3335SOL    HW210905   5.747   4.199   4.629
 3336SOL     OW10906   3.379   5.755   5.979
 3336SOL    HW110907   3.299   5.703   6.009
 3336SOL    HW210908   3.438   5.774   6.057
 3337SOL     OW10909   3.172   1.931   0.908
 3337SOL    HW110910   3.181   1.953   1.005
 3337SOL    HW210911   3.177   1.832   0.895
 3338SOL     OW10912   0.083   5.017   0.478
 3338SOL    HW110913   0.043   5.075   0.549
 3338SOL    HW210914   0.052   4.923   0.492
 3339SOL     OW10915   1.043   5.983   6.336
 3339SOL    HW110916   0.984   6.031   6.271
 3339SOL    HW210917   1.139   6.006   6.317
 3340SOL     OW10918   3.881   0.304   2.107
 3340SOL    HW110919   3.782   0.297   2.112
 3340SOL    HW210920   3.915   0.244   2.034
 3341SOL     OW10921   0.139   6.977   1.608
 3341SOL    HW110922   0.107   0.039   1.561
 3341SOL    HW210923   0.117   6.983   1.705
 3342SOL     OW10924   2.818   0.591   5.239
 3342SOL    HW110925   2.883   0.520   5.212
 3342SOL    HW210926   2.781   0.570   5.329
 3343SOL     OW10927   0.075   2.289   1.079
 3343SOL    HW110928   0.152   2.320   1.136
 3343SOL    HW210929   0.100   2.204   1.033
 3344SOL     OW10930   0.121   2.641   6.142
 3344SOL    HW110931   0.041   2.581   6.140
 3344SOL    HW210932   0.109   2.713   6.073
 3345SOL     OW10933   2.087   3.305   5.417
 3345SOL    HW110934   2.035   3.377   5.462
 3345SOL    HW210935   2.178   3.339   5.393
 3346SOL     OW10936   1.930   6.010   2.284
 3346SOL    HW110937   1.839   6.016   2.326
 3346SOL    HW210938   1.924   6.038   2.188
 3347SOL     OW10939   6.018   4.316   4.186
 3347SOL    HW110940   6.028   4.272   4.276
 3347SOL    HW210941   6.026   4.247   4.114
 3348SOL     OW10942   3.822   3.510   3.312
 3348SOL    HW110943   3.893   3.501   3.381
 3348SOL    HW210944   3.857   3.562   3.234
 3349SOL     OW10945   5.930   3.617   6.550
 3349SOL    HW110946   5.848   3.606   6.606
 3349SOL    HW210947   5.975   3.529   6.537
 3350SOL     OW10948   1.463   2.097   1.020
 3350SOL    HW110949   1.450   2.039   1.100
 3350SOL    HW210950   1.559   2.120   1.009
 3351SOL     OW10951   5.321   2.392   0.489
 3351SOL    HW110952   5.400   2.451   0.474
 3351SOL    HW210953   5.295   2.396   0.586
 3352SOL     OW10954   0.766   3.383   0.465
 3352SOL    HW110955   0.760   3.483   0.468
 3352SOL    HW210956   0.705   3.344   0.534
 3353SOL     OW10957   1.831   6.428   6.000
 3353SOL    HW110958   1.877   6.498   5.946
 3353SOL    HW210959   1.732   6.441   5.992
 3354SOL     OW10960   1.212   1.241   1.778
 3354SOL    HW110961   1.195   1.293   1.694
 3354SOL    HW210962   1.271   1.163   1.757
 3355SOL     OW10963   6.473   1.287   3.015
 3355SOL    HW110964   6.410   1.255   3.086
 3355SOL    HW210965   6.486   1.214   2.947
 3356SOL     OW10966   1.685   3.302   5.381
 3356SOL    HW110967   1.735   3.355   5.449
 3356SOL    HW210968   1.742   3.290   5.300
 3357SOL     OW10969   2.488   5.216   2.305
 3357SOL    HW110970   2.395   5.244   2.280
 3357SOL    HW210971   2.553   5.289   2.282
 3358SOL     OW10972   0.140   4.376   3.626
 3358SOL    HW110973   0.082   4.457   3.633
 3358SOL    HW210974   0.097   4.300   3.675
 3359SOL     OW10975   1.516   1.374   2.110
 3359SOL    HW110976   1.579   1.368   2.033
 3359SOL    HW210977   1.565   1.359   2.196
 3360SOL     OW10978   2.411   0.382   6.367
 3360SOL    HW110979   2.453   0.453   6.423
 3360SOL    HW210980   2.316   0.369   6.395
 3361SOL     OW10981   4.294   1.050   3.282
 3361SOL    HW110982   4.205   1.093   3.298
 3361SOL    HW210983   4.280   0.960   3.240
 3362SOL     OW10984   2.564   1.984   4.936
 3362SOL    HW110985   2.466   2.002   4.943
 3362SOL    HW210986   2.604   1.980   5.028
 3363SOL     OW10987   0.149   0.563   6.078
 3363SOL    HW110988   0.232   0.522   6.042
 3363SOL    HW210989   0.151   0.559   6.178
 3364SOL     OW10990   1.999   4.909   6.195
 3364SOL    HW110991   1.932   4.979   6.171
 3364SOL    HW210992   2.047   4.935   6.279
 3365SOL     OW10993   6.028   2.169   5.819
 3365SOL    HW110994   6.085   2.113   5.878
 3365SOL    HW210995   6.084   2.213   5.749
 3366SOL     OW10996   5.246   0.732   6.553
 3366SOL    HW110997   5.299   0.663   6.502
 3366SOL    HW210998   5.176   0.687   6.608
 3367SOL     OW10999   2.192   0.460   1.763
 3367SOL    HW111000   2.237   0.529   1.819
 3367SOL    HW211001   2.235   0.371   1.779
 3368SOL     OW11002   6.620   0.999   6.029
 3368SOL    HW111003   6.593   1.022   5.936
 3368SOL    HW211004   6.551   1.036   6.093
 3369SOL     OW11005   3.386   6.170   6.117
 3369SOL    HW111006   3.441   6.248   6.088
 3369SOL    HW211007   3.359   6.117   6.036
 3370SOL     OW11008   5.446   6.984   5.379
 3370SOL    HW111009   5.543   6.991   5.355
 3370SOL    HW211010   5.397   0.044   5.344
 3371SOL     OW11011   6.484   4.857   1.335
 3371SOL    HW111012   6.540   4.775   1.342
 3371SOL    HW211013   6.541   4.934   1.307
 3372SOL     OW11014   0.467   2.215   2.506
 3372SOL    HW111015   0.489   2.124   2.541
 3372SOL    HW211016   0.516   2.284   2.560
 3373SOL     OW11017   0.677   2.317   6.390
 3373SOL    HW111018   0.651   2.352   6.300
 3373SOL    HW211019   0.722   2.390   6.442
 3374SOL     OW11020   4.031   5.849   5.455
 3374SOL    HW111021   3.939   5.845   5.494
 3374SOL    HW211022   4.025   5.856   5.356
 3375SOL     OW11023   3.788   4.138   5.164
 3375SOL    HW111024   3.751   4.166   5.076
 3375SOL    HW211025   3.808   4.040   5.163
 3376SOL     OW11026   2.698   3.229   1.780
 3376SOL    HW111027   2.793   3.253   1.798
 3376SOL    HW211028   2.644   3.313   1.770
 3377SOL     OW11029   2.950   5.631   5.377
 3377SOL    HW111030   2.980   5.726   5.369
 3377SOL    HW211031   2.964   5.584   5.290
 3378SOL     OW11032   6.953   0.731   0.524
 3378SOL    HW111033   6.948   0.825   0.489
 3378SOL    HW211034   0.018   0.720   0.577
 3379SOL     OW11035   0.358   5.064   5.704
 3379SOL    HW111036   0.364   5.156   5.742
 3379SOL    HW211037   0.335   5.070   5.607
 3380SOL     OW11038   0.753   3.903   5.487
 3380SOL    HW111039   0.661   3.905   5.447
 3380SOL    HW211040   0.821   3.912   5.414
 3381SOL     OW11041   3.163   2.868   1.454
 3381SOL    HW111042   3.252   2.867   1.500
 3381SOL    HW211043   3.090   2.854   1.521
 3382SOL     OW11044   6.803   6.726   6.830
 3382SOL    HW111045   6.742   6.766   6.898
 3382SOL    HW211046   6.789   6.770   6.742
 3383SOL     OW11047   0.613   4.058   2.697
 3383SOL    HW111048   0.676   3.998   2.746
 3383SOL    HW211049   0.630   4.052   2.598
 3384SOL     OW11050   3.102   3.102   4.888
 3384SOL    HW111051   3.142   3.190   4.914
 3384SOL    HW211052   3.079   3.103   4.791
 3385SOL     OW11053   6.990   3.799   3.601
 3385SOL    HW111054   0.069   3.785   3.597
 3385SOL    HW211055   6.958   3.781   3.695
 3386SOL     OW11056   5.870   3.689   5.128
 3386SOL    HW111057   5.855   3.684   5.227
 3386SOL    HW211058   5.819   3.616   5.083
 3387SOL     OW11059   3.363   2.115   2.749
 3387SOL    HW111060   3.333   2.116   2.845
 3387SOL    HW211061   3.294   2.157   2.692
 3388SOL     OW11062   5.090   3.366   2.077
 3388SOL    HW111063   5.017   3.302   2.100
 3388SOL    HW211064   5.178   3.320   2.083
 3389SOL     OW11065   4.370   4.573   3.181
 3389SOL    HW111066   4.447   4.514   3.205
 3389SOL    HW211067   4.384   4.664   3.219
 3390SOL     OW11068   4.872   2.379   6.004
 3390SOL    HW111069   4.962   2.409   6.034
 3390SOL    HW211070   4.879   2.290   5.960
 3391SOL     OW11071   4.141   2.106   3.870
 3391SOL    HW111072   4.172   2.022   3.915
 3391SOL    HW211073   4.216   2.172   3.865
 3392SOL     OW11074   5.216   6.115   3.317
 3392SOL    HW111075   5.157   6.165   3.379
 3392SOL    HW211076   5.243   6.028   3.359
 3393SOL     OW11077   6.716   0.796   0.087
 3393SOL    HW111078   6.798   0.839   0.124
 3393SOL    HW211079   6.686   0.846   0.006
 3394SOL     OW11080   5.579   1.222   1.828
 3394SOL    HW111081   5.506   1.215   1.761
 3394SOL    HW211082   5.667   1.203   1.784
 3395SOL     OW11083   1.439   3.643   5.200
 3395SOL    HW111084   1.536   3.652   5.176
 3395SOL    HW211085   1.419   3.547   5.221
 3396SOL     OW11086   6.804   3.807   4.376
 3396SOL    HW111087   6.896   3.770   4.384
 3396SOL    HW211088   6.806   3.906   4.395
 3397SOL     OW11089   2.765   6.470   5.860
 3397SOL    HW111090   2.834   6.417   5.908
 3397SOL    HW211091   2.678   6.464   5.909
 3398SOL     OW11092   0.481   0.438   4.221
 3398SOL    HW111093   0.383   0.455   4.232
 3398SOL    HW211094   0.511   0.372   4.289
 3399SOL     OW11095   4.391   5.397   4.245
 3399SOL    HW111096   4.475   5.442   4.218
 3399SOL    HW211097   4.370   5.419   4.340
 3400SOL     OW11098   5.034   2.377   6.786
 3400SOL    HW111099   4.991   2.467   6.775
 3400SOL    HW211100   5.013   2.321   6.705
 3401SOL     OW11101   6.756   4.839   6.587
 3401SOL    HW111102   6.814   4.786   6.525
 3401SOL    HW211103   6.801   4.846   6.676
 3402SOL     OW11104   5.206   5.231   2.323
 3402SOL    HW111105   5.122   5.223   2.377
 3402SOL    HW211106   5.246   5.140   2.310
 3403SOL     OW11107   3.160   1.999   5.036
 3403SOL    HW111108   3.135   2.090   5.003
 3403SOL    HW211109   3.164   2.001   5.136
 3404SOL     OW11110   4.458   0.832   1.461
 3404SOL    HW111111   4.406   0.894   1.404
 3404SOL    HW211112   4.414   0.742   1.463
 3405SOL     OW11113   5.678   3.438   0.636
 3405SOL    HW111114   5.688   3.533   0.609
 3405SOL    HW211115   5.769   3.396   0.643
 3406SOL     OW11116   1.193   4.510   1.612
 3406SOL    HW111117   1.198   4.472   1.704
 3406SOL    HW211118   1.121   4.580   1.608
 3407SOL     OW11119   1.850   5.434   2.740
 3407SOL    HW111120   1.860   5.367   2.814
 3407SOL    HW211121   1.754   5.444   2.717
 3408SOL     OW11122   5.355   4.387   3.098
 3408SOL    HW111123   5.274   4.364   3.152
 3408SOL    HW211124   5.330   4.451   3.026
 3409SOL     OW11125   2.918   0.734   5.944
 3409SOL    HW111126   2.977   0.813   5.927
 3409SOL    HW211127   2.964   0.651   5.913
 3410SOL     OW11128   0.167   0.826   0.004
 3410SOL    HW111129   0.075   0.786   0.006
 3410SOL    HW211130   0.233   0.760   0.040
 3411SOL     OW11131   4.779   2.483   2.353
 3411SOL    HW111132   4.805   2.449   2.263
 3411SOL    HW211133   4.779   2.583   2.352
 3412SOL     OW11134   3.902   5.094   6.768
 3412SOL    HW111135   3.994   5.070   6.736
 3412SOL    HW211136   3.853   5.010   6.794
 3413SOL     OW11137   4.222   1.705   1.986
 3413SOL    HW111138   4.274   1.771   2.041
 3413SOL    HW211139   4.177   1.754   1.911
 3414SOL     OW11140   3.704   1.374   5.056
 3414SOL    HW111141   3.656   1.460   5.043
 3414SOL    HW211142   3.638   1.300   5.067
 3415SOL     OW11143   0.611   5.290   4.180
 3415SOL    HW111144   0.599   5.254   4.088
 3415SOL    HW211145   0.636   5.215   4.242
 3416SOL     OW11146   2.102   5.282   5.890
 3416SOL    HW111147   2.080   5.185   5.893
 3416SOL    HW211148   2.018   5.335   5.882
 3417SOL     OW11149   5.659   0.518   1.459
 3417SOL    HW111150   5.587   0.515   1.390
 3417SOL    HW211151   5.728   0.449   1.438
 3418SOL     OW11152   3.203   2.093   6.432
 3418SOL    HW111153   3.173   2.006   6.392
 3418SOL    HW211154   3.123   2.148   6.454
 3419SOL     OW11155   4.332   3.750   0.501
 3419SOL    HW111156   4.368   3.663   0.536
 3419SOL    HW211157   4.239   3.736   0.469
 3420SOL     OW11158   4.055   2.129   3.570
 3420SOL    HW111159   4.036   2.154   3.665
 3420SOL    HW211160   4.026   2.035   3.554
 3421SOL     OW11161   0.710   6.561   3.936
 3421SOL    HW111162   0.646   6.535   3.864
 3421SOL    HW211163   0.747   6.652   3.916
 3422SOL     OW11164   3.208   1.862   2.394
 3422SOL    HW111165   3.112   1.885   2.412
 3422SOL    HW211166   3.251   1.936   2.344
 3423SOL     OW11167   2.766   1.014   2.024
 3423SOL    HW111168   2.681   1.009   2.075
 3423SOL    HW211169   2.824   1.086   2.064
 3424SOL     OW11170   4.354   0.896   2.103
 3424SOL    HW111171   4.358   0.992   2.128
 3424SOL    HW211172   4.259   0.864   2.109
 3425SOL     OW11173   5.157   4.515   1.605
 3425SOL    HW111174   5.095   4.476   1.673
 3425SOL    HW211175   5.226   4.447   1.580
 3426SOL     OW11176   4.227   3.462   0.493
 3426SOL    HW111177   4.237   3.429   0.587
 3426SOL    HW211178   4.149   3.525   0.489
 3427SOL     OW11179   0.766   1.324   0.546
 3427SOL    HW111180   0.745   1.413   0.588
 3427SOL    HW211181   0.865   1.314   0.537
 3428SOL     OW11182   4.330   4.824   3.328
 3428SOL    HW111183   4.409   4.816   3.388
 3428SOL    HW211184   4.342   4.902   3.266
 3429SOL     OW11185   0.427   3.187   6.787
 3429SOL    HW111186   0.387   3.248   6.856
 3429SOL    HW211187   0.522   3.213   6.772
 3430SOL     OW11188   0.761   6.268   6.570
 3430SOL    HW111189   0.794   6.174   6.578
 3430SOL    HW211190   0.680   6.270   6.512
 3431SOL     OW11191   0.885   6.085   6.994
 3431SOL    HW111192   0.968   6.059   6.943
 3431SOL    HW211193   0.859   6.178   6.968
 3432SOL     OW11194   2.901   2.201   6.426
 3432SOL    HW111195   2.801   2.198   6.427
 3432SOL    HW211196   2.936   2.183   6.518
 3433SOL     OW11197   4.384   0.843   4.285
 3433SOL    HW111198   4.313   0.846   4.356
 3433SOL    HW211199   4.407   0.936   4.257
 3434SOL     OW11200   4.631   2.273   3.188
 3434SOL    HW111201   4.564   2.266   3.114
 3434SOL    HW211202   4.676   2.184   3.200
 3435SOL     OW11203   0.564   1.508   6.705
 3435SOL    HW111204   0.561   1.419   6.659
 3435SOL    HW211205   0.491   1.512   6.773
 3436SOL     OW11206   4.505   0.112   3.364
 3436SOL    HW111207   4.429   0.108   3.429
 3436SOL    HW211208   4.471   0.093   3.272
 3437SOL     OW11209   4.415   0.316   6.151
 3437SOL    HW111210   4.423   0.268   6.063
 3437SOL    HW211211   4.468   0.401   6.147
 3438SOL     OW11212   1.525   4.123   6.478
 3438SOL    HW111213   1.475   4.166   6.553
 3438SOL    HW211214   1.516   4.024   6.484
 3439SOL     OW11215   2.822   6.649   3.636
 3439SOL    HW111216   2.822   6.743   3.669
 3439SOL    HW211217   2.748   6.636   3.570
 3440SOL     OW11218   3.494   2.121   0.751
 3440SOL    HW111219   3.441   2.052   0.701
 3440SOL    HW211220   3.505   2.091   0.846
 3441SOL     OW11221   3.732   0.776   4.297
 3441SOL    HW111222   3.689   0.794   4.209
 3441SOL    HW211223   3.663   0.741   4.361
 3442SOL     OW11224   1.542   4.816   2.936
 3442SOL    HW111225   1.587   4.745   2.881
 3442SOL    HW211226   1.491   4.772   3.011
 3443SOL     OW11227   5.785   0.926   3.790
 3443SOL    HW111228   5.744   0.986   3.721
 3443SOL    HW211229   5.875   0.895   3.757
 3444SOL     OW11230   4.055   5.125   0.490
 3444SOL    HW111231   4.026   5.169   0.405
 3444SOL    HW211232   4.052   5.191   0.565
 3445SOL     OW11233   5.809   5.005   4.772
 3445SOL    HW111234   5.908   4.995   4.779
 3445SOL    HW211235   5.779   4.979   4.680
 3446SOL     OW11236   2.955   6.398   2.925
 3446SOL    HW111237   3.030   6.455   2.891
 3446SOL    HW211238   2.873   6.415   2.871
 3447SOL     OW11239   6.290   5.030   5.987
 3447SOL    HW111240   6.238   5.079   5.916
 3447SOL    HW211241   6.274   5.073   6.076
 3448SOL     OW11242   3.523   2.168   1.199
 3448SOL    HW111243   3.563   2.212   1.280
 3448SOL    HW211244   3.425   2.154   1.213
 3449SOL     OW11245   6.215   6.055   2.827
 3449SOL    HW111246   6.167   6.138   2.800
 3449SOL    HW211247   6.175   6.019   2.911
 3450SOL     OW11248   0.744   2.398   1.643
 3450SOL    HW111249   0.691   2.429   1.721
 3450SOL    HW211250   0.761   2.475   1.581
 3451SOL     OW11251   1.391   5.413   4.008
 3451SOL    HW111252   1.314   5.409   3.944
 3451SOL    HW211253   1.459   5.344   3.983
 3452SOL     OW11254   6.378   2.486   0.226
 3452SOL    HW111255   6.440   2.491   0.148
 3452SOL    HW211256   6.430   2.499   0.311
 3453SOL     OW11257   6.398   6.067   6.047
 3453SOL    HW111258   6.422   6.117   5.964
 3453SOL    HW211259   6.455   6.099   6.123
 3454SOL     OW11260   0.799   1.202   0.086
 3454SOL    HW111261   0.700   1.200   0.104
 3454SOL    HW211262   0.832   1.296   0.096
 3455SOL     OW11263   2.142   2.441   4.552
 3455SOL    HW111264   2.098   2.529   4.568
 3455SOL    HW211265   2.134   2.417   4.455
 3456SOL     OW11266   6.585   0.160   1.125
 3456SOL    HW111267   6.602   0.135   1.029
 3456SOL    HW211268   6.672   0.166   1.173
 3457SOL     OW11269   2.266   5.670   3.785
 3457SOL    HW111270   2.328   5.703   3.856
 3457SOL    HW211271   2.176   5.650   3.824
 3458SOL     OW11272   5.123   5.401   0.938
 3458SOL    HW111273   5.058   5.407   1.015
 3458SOL    HW211274   5.204   5.455   0.960
 3459SOL     OW11275   6.827   6.461   3.398
 3459SOL    HW111276   6.790   6.369   3.381
 3459SOL    HW211277   6.914   6.470   3.350
 3460SOL     OW11278   3.831   3.379   5.926
 3460SOL    HW111279   3.856   3.290   5.965
 3460SOL    HW211280   3.912   3.420   5.884
 3461SOL     OW11281   3.373   5.700   2.527
 3461SOL    HW111282   3.364   5.786   2.577
 3461SOL    HW211283   3.288   5.680   2.479
 3462SOL     OW11284   4.856   3.178   3.090
 3462SOL    HW111285   4.856   3.133   3.000
 3462SOL    HW211286   4.941   3.155   3.138
 3463SOL     OW11287   2.527   2.722   0.846
 3463SOL    HW111288   2.454   2.712   0.913
 3463SOL    HW211289   2.554   2.633   0.812
 3464SOL     OW11290   4.709   2.438   6.395
 3464SOL    HW111291   4.636   2.426   6.461
 3464SOL    HW211292   4.671   2.447   6.303
 3465SOL     OW11293   2.026   4.133   1.963
 3465SOL    HW111294   1.961   4.187   1.910
 3465SOL    HW211295   2.050   4.050   1.911
 3466SOL     OW11296   6.478   4.558   3.940
 3466SOL    HW111297   6.441   4.543   3.848
 3466SOL    HW211298   6.467   4.474   3.994
 3467SOL     OW11299   3.060   2.712   1.134
 3467SOL    HW111300   3.025   2.653   1.061
 3467SOL    HW211301   2.990   2.779   1.159
 3468SOL     OW11302   3.496   1.808   0.796
 3468SOL    HW111303   3.492   1.810   0.896
 3468SOL    HW211304   3.419   1.860   0.759
 3469SOL     OW11305   3.811   6.063   5.799
 3469SOL    HW111306   3.778   5.969   5.808
 3469SOL    HW211307   3.820   6.104   5.890
 3470SOL     OW11308   1.288   3.322   1.609
 3470SOL    HW111309   1.319   3.385   1.537
 3470SOL    HW211310   1.189   3.320   1.612
 3471SOL     OW11311   5.307   3.517   4.475
 3471SOL    HW111312   5.261   3.429   4.461
 3471SOL    HW211313   5.392   3.518   4.423
 3472SOL     OW11314   4.151   1.887   2.682
 3472SOL    HW111315   4.191   1.915   2.595
 3472SOL    HW211316   4.054   1.863   2.668
 3473SOL     OW11317   6.632   4.702   1.690
 3473SOL    HW111318   6.607   4.660   1.778
 3473SOL    HW211319   6.719   4.666   1.659
 3474SOL     OW11320   5.476   4.640   4.438
 3474SOL    HW111321   5.555   4.683   4.394
 3474SOL    HW211322   5.411   4.611   4.368
 3475SOL     OW11323   6.845   4.772   4.201
 3475SOL    HW111324   6.887   4.824   4.126
 3475SOL    HW211325   6.917   4.738   4.262
 3476SOL     OW11326   1.733   0.958   3.698
 3476SOL    HW111327   1.735   0.988   3.793
 3476SOL    HW211328   1.736   1.038   3.638
 3477SOL     OW11329   1.018   4.132   2.208
 3477SOL    HW111330   1.052   4.041   2.185
 3477SOL    HW211331   0.940   4.124   2.270
 3478SOL     OW11332   2.205   1.000   1.512
 3478SOL    HW111333   2.276   1.070   1.518
 3478SOL    HW211334   2.189   0.977   1.416
 3479SOL     OW11335   1.329   5.055   4.986
 3479SOL    HW111336   1.328   5.021   4.892
 3479SOL    HW211337   1.236   5.050   5.024
 3480SOL     OW11338   1.270   4.981   6.838
 3480SOL    HW111339   1.293   4.965   6.742
 3480SOL    HW211340   1.352   4.973   6.893
 3481SOL     OW11341   6.366   0.879   5.178
 3481SOL    HW111342   6.320   0.853   5.263
 3481SOL    HW211343   6.464   0.889   5.194
 3482SOL     OW11344   5.881   3.590   5.601
 3482SOL    HW111345   5.841   3.641   5.677
 3482SOL    HW211346   5.872   3.643   5.517
 3483SOL     OW11347   5.476   2.988   5.201
 3483SOL    HW111348   5.405   2.924   5.229
 3483SOL    HW211349   5.505   3.043   5.280
 3484SOL     OW11350   1.709   3.651   5.163
 3484SOL    HW111351   1.735   3.599   5.244
 3484SOL    HW211352   1.712   3.590   5.083
 3485SOL     OW11353   6.722   2.881   6.547
 3485SOL    HW111354   6.688   2.935   6.624
 3485SOL    HW211355   6.820   2.865   6.557
 3486SOL     OW11356   2.284   6.085   5.009
 3486SOL    HW111357   2.242   6.084   4.918
 3486SOL    HW211358   2.326   6.174   5.024
 3487SOL     OW11359   4.835   1.115   6.395
 3487SOL    HW111360   4.737   1.101   6.381
 3487SOL    HW211361   4.859   1.208   6.368
 3488SOL     OW11362   5.809   0.507   4.958
 3488SOL    HW111363   5.749   0.557   5.020
 3488SOL    HW211364   5.822   0.414   4.992
 3489SOL     OW11365   3.001   6.131   0.953
 3489SOL    HW111366   3.100   6.136   0.952
 3489SOL    HW211367   2.973   6.037   0.974
 3490SOL     OW11368   3.438   6.688   0.162
 3490SOL    HW111369   3.393   6.777   0.169
 3490SOL    HW211370   3.472   6.661   0.253
 3491SOL     OW11371   4.566   4.843   6.187
 3491SOL    HW111372   4.492   4.907   6.165
 3491SOL    HW211373   4.566   4.824   6.285
 3492SOL     OW11374   6.077   4.291   2.389
 3492SOL    HW111375   6.028   4.290   2.477
 3492SOL    HW211376   6.051   4.372   2.337
 3493SOL     OW11377   6.491   3.045   5.365
 3493SOL    HW111378   6.574   3.077   5.319
 3493SOL    HW211379   6.417   3.037   5.298
 3494SOL     OW11380   4.400   1.725   2.253
 3494SOL    HW111381   4.370   1.630   2.256
 3494SOL    HW211382   4.444   1.749   2.339
 3495SOL     OW11383   0.963   2.859   2.658
 3495SOL    HW111384   0.866   2.844   2.676
 3495SOL    HW211385   1.017   2.824   2.734
 3496SOL     OW11386   5.989   5.523   0.944
 3496SOL    HW111387   5.954   5.549   1.034
 3496SOL    HW211388   5.914   5.490   0.887
 3497SOL     OW11389   3.040   6.487   2.326
 3497SOL    HW111390   3.080   6.576   2.349
 3497SOL    HW211391   2.951   6.478   2.372
 3498SOL     OW11392   2.195   2.523   1.538
 3498SOL    HW111393   2.294   2.535   1.543
 3498SOL    HW211394   2.150   2.605   1.573
 3499SOL     OW11395   6.220   5.913   4.963
 3499SOL    HW111396   6.170   5.990   4.923
 3499SOL    HW211397   6.273   5.946   5.041
 3500SOL     OW11398   2.057   2.168   4.526
 3500SOL    HW111399   2.062   2.130   4.618
 3500SOL    HW211400   1.974   2.225   4.518
 3501SOL     OW11401   1.818   0.397   4.802
 3501SOL    HW111402   1.824   0.488   4.844
 3501SOL    HW211403   1.730   0.356   4.826
 3502SOL     OW11404   4.681   2.729   2.386
 3502SOL    HW111405   4.591   2.687   2.401
 3502SOL    HW211406   4.709   2.778   2.468
 3503SOL     OW11407   6.290   6.383   6.666
 3503SOL    HW111408   6.191   6.370   6.677
 3503SOL    HW211409   6.326   6.430   6.745
 3504SOL     OW11410   1.018   0.698   0.312
 3504SOL    HW111411   1.084   0.772   0.324
 3504SOL    HW211412   0.995   0.689   0.215
 3505SOL     OW11413   5.338   4.817   6.066
 3505SOL    HW111414   5.433   4.790   6.049
 3505SOL    HW211415   5.277   4.740   6.045
 3506SOL     OW11416   4.525   4.886   4.846
 3506SOL    HW111417   4.592   4.905   4.775
 3506SOL    HW211418   4.433   4.903   4.810
 3507SOL     OW11419   2.958   0.370   0.860
 3507SOL    HW111420   2.921   0.459   0.889
 3507SOL    HW211421   2.897   0.297   0.890
 3508SOL     OW11422   3.323   1.932   5.302
 3508SOL    HW111423   3.291   1.915   5.396
 3508SOL    HW211424   3.372   1.851   5.269
 3509SOL     OW11425   3.419   5.623   6.456
 3509SOL    HW111426   3.378   5.711   6.432
 3509SOL    HW211427   3.430   5.618   6.555
 3510SOL     OW11428   2.352   1.363   0.508
 3510SOL    HW111429   2.450   1.375   0.528
 3510SOL    HW211430   2.342   1.303   0.429
 3511SOL     OW11431   2.957   4.312   1.672
 3511SOL    HW111432   2.914   4.369   1.743
 3511SOL    HW211433   3.041   4.357   1.641
 3512SOL     OW11434   0.435   5.318   5.805
 3512SOL    HW111435   0.401   5.390   5.744
 3512SOL    HW211436   0.490   5.359   5.878
 3513SOL     OW11437   6.098   1.615   0.348
 3513SOL    HW111438   6.179   1.673   0.356
 3513SOL    HW211439   6.063   1.593   0.440
 3514SOL     OW11440   3.712   1.262   2.271
 3514SOL    HW111441   3.775   1.286   2.198
 3514SOL    HW211442   3.628   1.226   2.232
 3515SOL     OW11443   0.319   5.701   4.204
 3515SOL    HW111444   0.221   5.705   4.224
 3515SOL    HW211445   0.352   5.609   4.223
 3516SOL     OW11446   4.317   0.489   1.560
 3516SOL    HW111447   4.338   0.497   1.463
 3516SOL    HW211448   4.240   0.426   1.573
 3517SOL     OW11449   5.834   0.341   1.386
 3517SOL    HW111450   5.930   0.319   1.364
 3517SOL    HW211451   5.774   0.288   1.327
 3518SOL     OW11452   4.749   0.938   5.228
 3518SOL    HW111453   4.830   0.996   5.229
 3518SOL    HW211454   4.772   0.847   5.262
 3519SOL     OW11455   3.361   0.587   1.009
 3519SOL    HW111456   3.329   0.495   0.986
 3519SOL    HW211457   3.282   0.647   1.022
 3520SOL     OW11458   2.725   6.179   4.592
 3520SOL    HW111459   2.815   6.189   4.633
 3520SOL    HW211460   2.686   6.091   4.620
 3521SOL     OW11461   2.347   3.175   0.536
 3521SOL    HW111462   2.254   3.138   0.538
 3521SOL    HW211463   2.363   3.219   0.448
 3522SOL     OW11464   0.469   5.608   6.333
 3522SOL    HW111465   0.502   5.663   6.256
 3522SOL    HW211466   0.444   5.517   6.300
 3523SOL     OW11467   1.987   5.522   0.016
 3523SOL    HW111468   1.908   5.482   6.989
 3523SOL    HW211469   1.990   5.620   7.019
 3524SOL     OW11470   5.304   1.050   3.396
 3524SOL    HW111471   5.234   1.007   3.454
 3524SOL    HW211472   5.382   1.076   3.452
 3525SOL     OW11473   6.568   3.691   2.934
 3525SOL    HW111474   6.621   3.667   3.016
 3525SOL    HW211475   6.502   3.762   2.957
 3526SOL     OW11476   0.653   6.736   3.166
 3526SOL    HW111477   0.731   6.712   3.109
 3526SOL    HW211478   0.588   6.660   3.166
 3527SOL     OW11479   0.388   2.553   6.197
 3527SOL    HW111480   0.297   2.594   6.185
 3527SOL    HW211481   0.391   2.503   6.283
 3528SOL     OW11482   2.410   5.868   4.851
 3528SOL    HW111483   2.330   5.814   4.877
 3528SOL    HW211484   2.401   5.960   4.889
 3529SOL     OW11485   4.377   5.292   0.720
 3529SOL    HW111486   4.417   5.356   0.655
 3529SOL    HW211487   4.449   5.250   0.774
 3530SOL     OW11488   6.890   6.728   1.677
 3530SOL    HW111489   6.906   6.811   1.731
 3530SOL    HW211490   6.796   6.698   1.690
 3531SOL     OW11491   5.349   1.883   0.139
 3531SOL    HW111492   5.420   1.848   0.077
 3531SOL    HW211493   5.391   1.911   0.225
 3532SOL     OW11494   1.973   1.390   1.864
 3532SOL    HW111495   1.907   1.441   1.920
 3532SOL    HW211496   1.929   1.309   1.826
 3533SOL     OW11497   1.132   1.278   3.017
 3533SOL    HW111498   1.169   1.352   2.962
 3533SOL    HW211499   1.077   1.316   3.092
 3534SOL     OW11500   0.135   1.772   1.048
 3534SOL    HW111501   0.176   1.682   1.067
 3534SOL    HW211502   0.206   1.836   1.022
 3535SOL     OW11503   2.881   5.852   4.752
 3535SOL    HW111504   2.932   5.919   4.699
 3535SOL    HW211505   2.904   5.760   4.721
 3536SOL     OW11506   3.870   2.132   2.758
 3536SOL    HW111507   3.895   2.086   2.673
 3536SOL    HW211508   3.777   2.107   2.784
 3537SOL     OW11509   2.248   6.539   3.083
 3537SOL    HW111510   2.219   6.498   2.997
 3537SOL    HW211511   2.329   6.596   3.068
 3538SOL     OW11512   3.418   5.177   3.764
 3538SOL    HW111513   3.438   5.180   3.666
 3538SOL    HW211514   3.480   5.240   3.812
 3539SOL     OW11515   3.578   3.423   4.399
 3539SOL    HW111516   3.664   3.465   4.428
 3539SOL    HW211517   3.575   3.418   4.300
 3540SOL     OW11518   1.801   2.385   3.292
 3540SOL    HW111519   1.774   2.316   3.359
 3540SOL    HW211520   1.726   2.448   3.276
 3541SOL     OW11521   3.722   4.115   4.386
 3541SOL    HW111522   3.807   4.067   4.407
 3541SOL    HW211523   3.692   4.167   4.466
 3542SOL     OW11524   0.344   5.342   1.470
 3542SOL    HW111525   0.274   5.396   1.517
 3542SOL    HW211526   0.308   5.250   1.451
 3543SOL     OW11527   6.208   2.877   4.832
 3543SOL    HW111528   6.143   2.903   4.760
 3543SOL    HW211529   6.162   2.882   4.921
 3544SOL     OW11530   2.073   5.926   7.018
 3544SOL    HW111531   2.155   5.891   0.044
 3544SOL    HW211532   2.024   5.850   6.976
 3545SOL     OW11533   2.883   5.171   0.061
 3545SOL    HW111534   2.977   5.138   0.059
 3545SOL    HW211535   2.864   5.219   6.995
 3546SOL     OW11536   6.487   4.568   2.807
 3546SOL    HW111537   6.419   4.516   2.859
 3546SOL    HW211538   6.528   4.638   2.866
 3547SOL     OW11539   4.904   4.772   4.409
 3547SOL    HW111540   4.922   4.834   4.333
 3547SOL    HW211541   4.906   4.678   4.375
 3548SOL     OW11542   4.712   2.999   5.380
 3548SOL    HW111543   4.801   2.954   5.382
 3548SOL    HW211544   4.725   3.098   5.371
 3549SOL     OW11545   6.029   3.782   2.331
 3549SOL    HW111546   6.034   3.713   2.403
 3549SOL    HW211547   6.104   3.847   2.342
 3550SOL     OW11548   5.967   1.949   2.689
 3550SOL    HW111549   5.977   1.859   2.731
 3550SOL    HW211550   5.975   2.019   2.759
 3551SOL     OW11551   2.677   6.917   3.031
 3551SOL    HW111552   2.691   7.008   3.071
 3551SOL    HW211553   2.752   6.856   3.060
 3552SOL     OW11554   0.097   4.435   3.134
 3552SOL    HW111555   0.134   4.368   3.198
 3552SOL    HW211556   0.172   4.481   3.087
 3553SOL     OW11557   5.836   2.203   3.198
 3553SOL    HW111558   5.910   2.270   3.203
 3553SOL    HW211559   5.850   2.142   3.121
 3554SOL     OW11560   3.617   5.534   6.930
 3554SOL    HW111561   3.577   5.609   6.981
 3554SOL    HW211562   3.622   5.559   6.833
 3555SOL     OW11563   0.489   2.845   3.528
 3555SOL    HW111564   0.588   2.843   3.544
 3555SOL    HW211565   0.460   2.757   3.490
 3556SOL     OW11566   3.999   0.875   6.217
 3556SOL    HW111567   4.087   0.855   6.261
 3556SOL    HW211568   4.014   0.905   6.123
 3557SOL     OW11569   0.863   0.982   4.499
 3557SOL    HW111570   0.767   0.980   4.474
 3557SOL    HW211571   0.892   1.077   4.512
 3558SOL     OW11572   6.714   5.444   1.538
 3558SOL    HW111573   6.769   5.524   1.563
 3558SOL    HW211574   6.651   5.470   1.465
 3559SOL     OW11575   0.608   0.993   5.728
 3559SOL    HW111576   0.653   1.079   5.752
 3559SOL    HW211577   0.599   0.986   5.628
 3560SOL     OW11578   6.870   6.287   1.910
 3560SOL    HW111579   6.875   6.201   1.860
 3560SOL    HW211580   6.918   6.358   1.858
 3561SOL     OW11581   4.297   4.702   4.132
 3561SOL    HW111582   4.277   4.717   4.036
 3561SOL    HW211583   4.364   4.628   4.141
 3562SOL     OW11584   4.564   2.519   2.948
 3562SOL    HW111585   4.546   2.422   2.933
 3562SOL    HW211586   4.561   2.539   3.046
 3563SOL     OW11587   4.629   0.441   1.239
 3563SOL    HW111588   4.537   0.406   1.219
 3563SOL    HW211589   4.688   0.366   1.268
 3564SOL     OW11590   6.996   3.922   2.739
 3564SOL    HW111591   6.993   4.004   2.795
 3564SOL    HW211592   6.905   3.905   2.700
 3565SOL     OW11593   2.310   0.405   4.968
 3565SOL    HW111594   2.288   0.446   5.057
 3565SOL    HW211595   2.234   0.422   4.904
 3566SOL     OW11596   1.073   3.704   6.035
 3566SOL    HW111597   1.025   3.760   5.967
 3566SOL    HW211598   1.172   3.708   6.019
 3567SOL     OW11599   0.286   2.807   0.922
 3567SOL    HW111600   0.203   2.862   0.916
 3567SOL    HW211601   0.307   2.789   1.018
 3568SOL     OW11602   5.308   3.787   3.588
 3568SOL    HW111603   5.328   3.884   3.574
 3568SOL    HW211604   5.209   3.772   3.582
 3569SOL     OW11605   3.525   3.357   4.148
 3569SOL    HW111606   3.428   3.338   4.161
 3569SOL    HW211607   3.560   3.301   4.073
 3570SOL     OW11608   0.309   2.388   5.575
 3570SOL    HW111609   0.360   2.302   5.568
 3570SOL    HW211610   0.330   2.446   5.497
 3571SOL     OW11611   2.289   6.588   4.665
 3571SOL    HW111612   2.260   6.538   4.583
 3571SOL    HW211613   2.382   6.559   4.690
 3572SOL     OW11614   5.057   4.748   1.669
 3572SOL    HW111615   5.116   4.670   1.649
 3572SOL    HW211616   5.012   4.734   1.757
 3573SOL     OW11617   0.408   3.953   3.545
 3573SOL    HW111618   0.486   3.937   3.605
 3573SOL    HW211619   0.440   3.982   3.455
 3574SOL     OW11620   2.035   1.553   5.472
 3574SOL    HW111621   2.103   1.490   5.508
 3574SOL    HW211622   2.041   1.556   5.372
 3575SOL     OW11623   5.316   0.028   6.903
 3575SOL    HW111624   5.407   0.029   6.863
 3575SOL    HW211625   5.290   6.954   6.926
 3576SOL     OW11626   1.255   2.387   0.710
 3576SOL    HW111627   1.342   2.386   0.661
 3576SOL    HW211628   1.247   2.473   0.762
 3577SOL     OW11629   1.935   2.693   5.154
 3577SOL    HW111630   1.998   2.647   5.218
 3577SOL    HW211631   1.919   2.634   5.075
 3578SOL     OW11632   3.400   2.686   6.286
 3578SOL    HW111633   3.330   2.620   6.315
 3578SOL    HW211634   3.424   2.669   6.191
 3579SOL     OW11635   0.605   3.716   1.964
 3579SOL    HW111636   0.528   3.780   1.951
 3579SOL    HW211637   0.587   3.632   1.915
 3580SOL     OW11638   0.141   4.174   2.201
 3580SOL    HW111639   0.059   4.142   2.152
 3580SOL    HW211640   0.118   4.256   2.253
 3581SOL     OW11641   1.298   0.348   2.842
 3581SOL    HW111642   1.318   0.398   2.926
 3581SOL    HW211643   1.199   0.339   2.832
 3582SOL     OW11644   4.406   5.321   6.474
 3582SOL    HW111645   4.424   5.404   6.422
 3582SOL    HW211646   4.458   5.245   6.435
 3583SOL     OW11647   0.930   5.029   1.283
 3583SOL    HW111648   0.984   4.975   1.218
 3583SOL    HW211649   0.920   4.978   1.368
 3584SOL     OW11650   6.510   4.873   4.738
 3584SOL    HW111651   6.592   4.830   4.774
 3584SOL    HW211652   6.501   4.965   4.777
 3585SOL     OW11653   3.472   1.352   3.847
 3585SOL    HW111654   3.561   1.378   3.884
 3585SOL    HW211655   3.400   1.388   3.907
 3586SOL     OW11656   6.994   1.897   5.239
 3586SOL    HW111657   6.996   1.829   5.313
 3586SOL    HW211658   7.010   1.851   5.151
 3587SOL     OW11659   3.100   0.158   6.217
 3587SOL    HW111660   3.071   0.071   6.179
 3587SOL    HW211661   3.101   0.153   6.317
 3588SOL     OW11662   6.212   4.785   4.685
 3588SOL    HW111663   6.305   4.754   4.663
 3588SOL    HW211664   6.153   4.705   4.695
 3589SOL     OW11665   0.555   0.290   5.982
 3589SOL    HW111666   0.541   0.195   5.953
 3589SOL    HW211667   0.631   0.294   6.047
 3590SOL     OW11668   0.184   5.439   6.231
 3590SOL    HW111669   0.280   5.420   6.253
 3590SOL    HW211670   0.125   5.395   6.299
 3591SOL     OW11671   5.846   1.148   6.611
 3591SOL    HW111672   5.760   1.116   6.651
 3591SOL    HW211673   5.846   1.248   6.608
 3592SOL     OW11674   1.211   6.475   1.347
 3592SOL    HW111675   1.259   6.504   1.264
 3592SOL    HW211676   1.135   6.537   1.364
 3593SOL     OW11677   4.306   3.023   5.451
 3593SOL    HW111678   4.235   3.058   5.390
 3593SOL    HW211679   4.357   2.950   5.405
 3594SOL     OW11680   4.796   4.621   5.252
 3594SOL    HW111681   4.880   4.587   5.292
 3594SOL    HW211682   4.787   4.586   5.158
 3595SOL     OW11683   5.666   6.362   4.538
 3595SOL    HW111684   5.573   6.339   4.568
 3595SOL    HW211685   5.707   6.282   4.495
 3596SOL     OW11686   4.093   2.044   3.262
 3596SOL    HW111687   4.154   1.975   3.225
 3596SOL    HW211688   4.137   2.090   3.339
 3597SOL     OW11689   3.080   3.757   5.606
 3597SOL    HW111690   3.028   3.842   5.599
 3597SOL    HW211691   3.174   3.773   5.575
 3598SOL     OW11692   0.084   5.586   4.831
 3598SOL    HW111693   0.135   5.620   4.910
 3598SOL    HW211694   0.010   5.527   4.862
 3599SOL     OW11695   2.927   1.338   5.064
 3599SOL    HW111696   2.836   1.362   5.031
 3599SOL    HW211697   2.926   1.328   5.164
 3600SOL     OW11698   3.168   3.890   0.002
 3600SOL    HW111699   3.143   3.803   0.044
 3600SOL    HW211700   3.089   3.929   6.975
 3601SOL     OW11701   4.591   0.963   5.013
 3601SOL    HW111702   4.654   0.954   5.090
 3601SOL    HW211703   4.525   0.888   5.014
 3602SOL     OW11704   1.655   1.919   1.548
 3602SOL    HW111705   1.728   1.885   1.488
 3602SOL    HW211706   1.695   1.955   1.632
 3603SOL     OW11707   2.437   0.263   5.566
 3603SOL    HW111708   2.522   0.313   5.584
 3603SOL    HW211709   2.361   0.309   5.612
 3604SOL     OW11710   0.153   0.533   3.772
 3604SOL    HW111711   0.056   0.547   3.792
 3604SOL    HW211712   0.207   0.550   3.854
 3605SOL     OW11713   1.233   6.660   4.568
 3605SOL    HW111714   1.133   6.662   4.566
 3605SOL    HW211715   1.268   6.612   4.487
 3606SOL     OW11716   2.106   0.321   2.126
 3606SOL    HW111717   2.097   0.387   2.051
 3606SOL    HW211718   2.069   0.361   2.210
 3607SOL     OW11719   6.199   1.604   3.278
 3607SOL    HW111720   6.256   1.666   3.332
 3607SOL    HW211721   6.257   1.533   3.237
 3608SOL     OW11722   3.005   1.620   5.840
 3608SOL    HW111723   2.969   1.683   5.909
 3608SOL    HW211724   3.023   1.671   5.755
 3609SOL     OW11725   3.573   0.756   5.059
 3609SOL    HW111726   3.578   0.804   5.146
 3609SOL    HW211727   3.665   0.734   5.027
 3610SOL     OW11728   1.610   0.319   5.529
 3610SOL    HW111729   1.542   0.359   5.467
 3610SOL    HW211730   1.653   0.392   5.583
 3611SOL     OW11731   5.645   4.333   2.631
 3611SOL    HW111732   5.730   4.281   2.621
 3611SOL    HW211733   5.572   4.271   2.661
 3612SOL     OW11734   5.389   1.242   0.127
 3612SOL    HW111735   5.485   1.222   0.109
 3612SOL    HW211736   5.372   1.237   0.226
 3613SOL     OW11737   3.975   6.394   2.771
 3613SOL    HW111738   3.928   6.359   2.690
 3613SOL    HW211739   3.927   6.474   2.806
 3614SOL     OW11740   3.494   5.738   0.043
 3614SOL    HW111741   3.456   5.803   6.997
 3614SOL    HW211742   3.427   5.719   0.115
 3615SOL     OW11743   5.602   2.503   5.644
 3615SOL    HW111744   5.514   2.463   5.617
 3615SOL    HW211745   5.673   2.474   5.579
 3616SOL     OW11746   1.453   2.345   0.518
 3616SOL    HW111747   1.544   2.320   0.484
 3616SOL    HW211748   1.389   2.270   0.500
 3617SOL     OW11749   4.119   6.023   5.702
 3617SOL    HW111750   4.028   6.020   5.744
 3617SOL    HW211751   4.115   5.981   5.611
 3618SOL     OW11752   0.671   5.082   4.352
 3618SOL    HW111753   0.638   5.040   4.437
 3618SOL    HW211754   0.755   5.036   4.323
 3619SOL     OW11755   5.815   2.626   1.858
 3619SOL    HW111756   5.864   2.627   1.946
 3619SOL    HW211757   5.763   2.541   1.850
 3620SOL     OW11758   5.586   5.934   4.888
 3620SOL    HW111759   5.512   5.930   4.954
 3620SOL    HW211760   5.562   5.881   4.807
 3621SOL     OW11761   3.557   3.219   3.922
 3621SOL    HW111762   3.618   3.244   3.847
 3621SOL    HW211763   3.480   3.165   3.886
 3622SOL     OW11764   1.615   6.160   6.176
 3622SOL    HW111765   1.539   6.141   6.238
 3622SOL    HW211766   1.701   6.136   6.221
 3623SOL     OW11767   1.079   5.899   5.968
 3623SOL    HW111768   1.025   5.971   5.924
 3623SOL    HW211769   1.175   5.927   5.970
 3624SOL     OW11770   2.310   1.998   2.082
 3624SOL    HW111771   2.406   1.999   2.110
 3624SOL    HW211772   2.260   1.932   2.138
 3625SOL     OW11773   6.571   2.397   0.578
 3625SOL    HW111774   6.610   2.368   0.665
 3625SOL    HW211775   6.636   2.455   0.530
 3626SOL     OW11776   1.570   3.242   5.630
 3626SOL    HW111777   1.648   3.199   5.674
 3626SOL    HW211778   1.591   3.261   5.534
 3627SOL     OW11779   3.249   1.798   2.016
 3627SOL    HW111780   3.279   1.741   2.092
 3627SOL    HW211781   3.321   1.862   1.991
 3628SOL     OW11782   6.111   1.749   1.932
 3628SOL    HW111783   6.162   1.754   1.846
 3628SOL    HW211784   6.172   1.769   2.009
 3629SOL     OW11785   1.677   1.471   4.472
 3629SOL    HW111786   1.761   1.482   4.524
 3629SOL    HW211787   1.646   1.376   4.481
 3630SOL     OW11788   6.756   1.996   2.039
 3630SOL    HW111789   6.747   1.899   2.062
 3630SOL    HW211790   6.851   2.025   2.054
 3631SOL     OW11791   2.154   6.187   2.336
 3631SOL    HW111792   2.075   6.130   2.311
 3631SOL    HW211793   2.150   6.273   2.285
 3632SOL     OW11794   4.863   3.817   2.016
 3632SOL    HW111795   4.799   3.801   1.941
 3632SOL    HW211796   4.900   3.909   2.009
 3633SOL     OW11797   4.100   4.298   0.012
 3633SOL    HW111798   4.178   4.278   6.971
 3633SOL    HW211799   4.135   4.320   0.103
 3634SOL     OW11800   2.808   5.157   6.400
 3634SOL    HW111801   2.725   5.207   6.423
 3634SOL    HW211802   2.798   5.114   6.310
 3635SOL     OW11803   0.959   6.642   1.909
 3635SOL    HW111804   0.946   6.566   1.973
 3635SOL    HW211805   0.997   6.607   1.823
 3636SOL     OW11806   0.552   5.554   5.961
 3636SOL    HW111807   0.484   5.625   5.943
 3636SOL    HW211808   0.626   5.561   5.894
 3637SOL     OW11809   5.762   2.923   0.266
 3637SOL    HW111810   5.729   2.865   0.192
 3637SOL    HW211811   5.784   3.014   0.230
 3638SOL     OW11812   6.774   3.421   3.380
 3638SOL    HW111813   6.758   3.337   3.328
 3638SOL    HW211814   6.791   3.398   3.476
 3639SOL     OW11815   3.933   3.297   4.200
 3639SOL    HW111816   3.936   3.296   4.100
 3639SOL    HW211817   3.869   3.228   4.233
 3640SOL     OW11818   3.886   2.110   1.558
 3640SOL    HW111819   3.817   2.052   1.602
 3640SOL    HW211820   3.922   2.175   1.624
 3641SOL     OW11821   6.059   3.726   2.048
 3641SOL    HW111822   6.057   3.751   2.145
 3641SOL    HW211823   6.142   3.674   2.029
 3642SOL     OW11824   5.138   3.416   6.612
 3642SOL    HW111825   5.115   3.482   6.541
 3642SOL    HW211826   5.080   3.431   6.692
 3643SOL     OW11827   4.132   6.113   5.208
 3643SOL    HW111828   4.143   6.117   5.307
 3643SOL    HW211829   4.105   6.020   5.181
 3644SOL     OW11830   3.009   0.409   1.648
 3644SOL    HW111831   3.073   0.473   1.691
 3644SOL    HW211832   2.917   0.426   1.683
 3645SOL     OW11833   1.650   3.802   3.548
 3645SOL    HW111834   1.587   3.850   3.609
 3645SOL    HW211835   1.599   3.744   3.485
 3646SOL     OW11836   1.588   5.289   6.211
 3646SOL    HW111837   1.503   5.324   6.250
 3646SOL    HW211838   1.618   5.209   6.264
 3647SOL     OW11839   3.058   6.912   6.926
 3647SOL    HW111840   3.074   6.871   7.016
 3647SOL    HW211841   2.972   6.877   6.888
 3648SOL     OW11842   4.534   5.304   3.243
 3648SOL    HW111843   4.491   5.305   3.333
 3648SOL    HW211844   4.630   5.276   3.252
 3649SOL     OW11845   5.563   2.317   0.207
 3649SOL    HW111846   5.529   2.404   0.171
 3649SOL    HW211847   5.489   2.269   0.254
 3650SOL     OW11848   5.103   5.895   6.189
 3650SOL    HW111849   5.173   5.824   6.190
 3650SOL    HW211850   5.081   5.922   6.283
 3651SOL     OW11851   0.971   2.020   5.745
 3651SOL    HW111852   0.974   2.059   5.837
 3651SOL    HW211853   0.986   1.922   5.749
 3652SOL     OW11854   4.414   1.910   2.067
 3652SOL    HW111855   4.356   1.985   2.096
 3652SOL    HW211856   4.407   1.835   2.134
 3653SOL     OW11857   1.814   1.631   0.674
 3653SOL    HW111858   1.853   1.540   0.688
 3653SOL    HW211859   1.827   1.658   0.578
 3654SOL     OW11860   4.546   6.852   1.761
 3654SOL    HW111861   4.615   6.823   1.695
 3654SOL    HW211862   4.580   6.834   1.854
 3655SOL     OW11863   0.964   0.387   3.824
 3655SOL    HW111864   0.951   0.483   3.800
 3655SOL    HW211865   0.900   0.362   3.897
 3656SOL     OW11866   0.233   0.220   1.304
 3656SOL    HW111867   0.214   0.141   1.246
 3656SOL    HW211868   0.147   0.263   1.331
 3657SOL     OW11869   5.659   5.315   6.152
 3657SOL    HW111870   5.636   5.232   6.203
 3657SOL    HW211871   5.695   5.290   6.063
 3658SOL     OW11872   1.727   4.750   5.484
 3658SOL    HW111873   1.688   4.838   5.513
 3658SOL    HW211874   1.766   4.760   5.392
 3659SOL     OW11875   0.430   2.882   6.754
 3659SOL    HW111876   0.390   2.844   6.671
 3659SOL    HW211877   0.418   2.982   6.754
 3660SOL     OW11878   4.327   5.383   5.565
 3660SOL    HW111879   4.281   5.465   5.599
 3660SOL    HW211880   4.347   5.393   5.467
 3661SOL     OW11881   0.252   1.443   4.773
 3661SOL    HW111882   0.279   1.539   4.779
 3661SOL    HW211883   0.181   1.433   4.704
 3662SOL     OW11884   3.005   1.750   5.608
 3662SOL    HW111885   2.916   1.783   5.640
 3662SOL    HW211886   3.058   1.826   5.571
 3663SOL     OW11887   2.373   2.869   6.554
 3663SOL    HW111888   2.311   2.793   6.533
 3663SOL    HW211889   2.319   2.952   6.569
 3664SOL     OW11890   2.914   1.834   0.820
 3664SOL    HW111891   2.983   1.869   0.883
 3664SOL    HW211892   2.958   1.800   0.737
 3665SOL     OW11893   0.005   5.291   5.498
 3665SOL    HW111894   6.997   5.366   5.558
 3665SOL    HW211895   6.998   5.312   5.404
 3666SOL     OW11896   2.102   3.368   4.267
 3666SOL    HW111897   2.131   3.318   4.349
 3666SOL    HW211898   2.075   3.303   4.196
 3667SOL     OW11899   1.787   6.987   0.898
 3667SOL    HW111900   1.711   6.946   0.949
 3667SOL    HW211901   1.765   0.061   0.875
 3668SOL     OW11902   5.812   1.261   0.956
 3668SOL    HW111903   5.738   1.195   0.967
 3668SOL    HW211904   5.891   1.216   0.914
 3669SOL     OW11905   0.555   0.753   2.831
 3669SOL    HW111906   0.557   0.735   2.929
 3669SOL    HW211907   0.644   0.728   2.791
 3670SOL     OW11908   2.282   0.204   1.739
 3670SOL    HW111909   2.240   0.126   1.692
 3670SOL    HW211910   2.376   0.215   1.707
 3671SOL     OW11911   6.879   0.679   4.862
 3671SOL    HW111912   6.855   0.697   4.767
 3671SOL    HW211913   6.855   0.584   4.885
 3672SOL     OW11914   4.016   6.789   3.789
 3672SOL    HW111915   4.038   6.727   3.713
 3672SOL    HW211916   4.008   6.736   3.873
 3673SOL     OW11917   3.418   0.529   1.734
 3673SOL    HW111918   3.392   0.625   1.739
 3673SOL    HW211919   3.377   0.480   1.811
 3674SOL     OW11920   0.679   4.197   6.445
 3674SOL    HW111921   0.771   4.178   6.412
 3674SOL    HW211922   0.633   4.258   6.380
 3675SOL     OW11923   0.118   0.764   4.292
 3675SOL    HW111924   0.141   0.789   4.386
 3675SOL    HW211925   0.042   0.820   4.260
 3676SOL     OW11926   3.550   0.984   5.264
 3676SOL    HW111927   3.502   1.000   5.351
 3676SOL    HW211928   3.484   0.990   5.189
 3677SOL     OW11929   1.805   1.430   4.221
 3677SOL    HW111930   1.898   1.400   4.243
 3677SOL    HW211931   1.751   1.437   4.305
 3678SOL     OW11932   1.935   1.000   3.395
 3678SOL    HW111933   1.978   0.943   3.466
 3678SOL    HW211934   1.861   0.948   3.352
 3679SOL     OW11935   3.280   0.024   2.644
 3679SOL    HW111936   3.242   0.070   2.564
 3679SOL    HW211937   3.294   0.091   2.717
 3680SOL     OW11938   3.206   2.170   4.524
 3680SOL    HW111939   3.292   2.145   4.568
 3680SOL    HW211940   3.223   2.193   4.428
 3681SOL     OW11941   0.926   6.641   4.258
 3681SOL    HW111942   0.839   6.610   4.296
 3681SOL    HW211943   0.955   6.725   4.305
 3682SOL     OW11944   5.133   2.258   0.920
 3682SOL    HW111945   5.081   2.338   0.947
 3682SOL    HW211946   5.146   2.258   0.821
 3683SOL     OW11947   6.660   1.330   0.753
 3683SOL    HW111948   6.716   1.320   0.835
 3683SOL    HW211949   6.689   1.411   0.702
 3684SOL     OW11950   2.934   6.077   5.575
 3684SOL    HW111951   2.859   6.067   5.641
 3684SOL    HW211952   2.922   6.161   5.523
 3685SOL     OW11953   2.071   5.941   4.168
 3685SOL    HW111954   2.171   5.942   4.178
 3685SOL    HW211955   2.047   5.939   4.071
 3686SOL     OW11956   0.095   3.924   0.423
 3686SOL    HW111957   7.016   3.924   0.406
 3686SOL    HW211958   0.113   3.894   0.517
 3687SOL     OW11959   5.947   4.695   4.400
 3687SOL    HW111960   5.980   4.727   4.311
 3687SOL    HW211961   5.943   4.772   4.463
 3688SOL     OW11962   6.626   2.949   1.346
 3688SOL    HW111963   6.534   2.923   1.376
 3688SOL    HW211964   6.685   2.868   1.344
 3689SOL     OW11965   1.029   0.849   6.053
 3689SOL    HW111966   1.082   0.929   6.080
 3689SOL    HW211967   1.090   0.772   6.032
 3690SOL     OW11968   5.725   4.884   1.692
 3690SOL    HW111969   5.811   4.878   1.641
 3690SOL    HW211970   5.656   4.930   1.637
 3691SOL     OW11971   1.731   2.512   0.736
 3691SOL    HW111972   1.753   2.416   0.717
 3691SOL    HW211973   1.710   2.559   0.650
 3692SOL     OW11974   1.083   3.354   5.512
 3692SOL    HW111975   1.124   3.442   5.492
 3692SOL    HW211976   1.132   3.310   5.588
 3693SOL     OW11977   0.084   1.580   2.681
 3693SOL    HW111978   0.160   1.529   2.719
 3693SOL    HW211979   7.019   1.528   2.693
 3694SOL     OW11980   6.762   6.938   2.527
 3694SOL    HW111981   6.701   7.012   2.554
 3694SOL    HW211982   6.734   6.902   2.439
 3695SOL     OW11983   5.927   3.642   3.496
 3695SOL    HW111984   5.850   3.641   3.560
 3695SOL    HW211985   5.956   3.736   3.480
 3696SOL     OW11986   4.385   0.550   4.471
 3696SOL    HW111987   4.418   0.550   4.377
 3696SOL    HW211988   4.426   0.626   4.521
 3697SOL     OW11989   6.618   5.417   2.561
 3697SOL    HW111990   6.570   5.349   2.616
 3697SOL    HW211991   6.572   5.428   2.473
 3698SOL     OW11992   2.016   6.985   3.775
 3698SOL    HW111993   2.053   0.039   3.720
 3698SOL    HW211994   2.074   6.970   3.855
 3699SOL     OW11995   2.464   2.652   3.461
 3699SOL    HW111996   2.369   2.638   3.432
 3699SOL    HW211997   2.525   2.619   3.389
 3700SOL     OW11998   0.938   4.789   4.951
 3700SOL    HW111999   0.898   4.702   4.978
 3700SOL    HW212000   0.994   4.776   4.869
 3701SOL     OW12001   0.330   1.155   2.490
 3701SOL    HW112002   0.314   1.135   2.587
 3701SOL    HW212003   0.390   1.086   2.451
 3702SOL     OW12004   6.753   4.346   3.660
 3702SOL    HW112005   6.722   4.390   3.576
 3702SOL    HW212006   6.849   4.319   3.650
 3703SOL     OW12007   1.347   1.646   3.453
 3703SOL    HW112008   1.388   1.576   3.394
 3703SOL    HW212009   1.418   1.684   3.513
 3704SOL     OW12010   6.242   0.251   0.862
 3704SOL    HW112011   6.266   0.336   0.907
 3704SOL    HW212012   6.142   0.244   0.856
 3705SOL     OW12013   5.995   4.015   3.667
 3705SOL    HW112014   6.064   3.993   3.737
 3705SOL    HW212015   5.957   4.105   3.686
 3706SOL     OW12016   1.078   5.203   6.335
 3706SOL    HW112017   0.985   5.165   6.332
 3706SOL    HW212018   1.107   5.227   6.242
 3707SOL     OW12019   1.115   4.528   3.344
 3707SOL    HW112020   1.080   4.620   3.328
 3707SOL    HW212021   1.206   4.519   3.304
 3708SOL     OW12022   1.556   6.327   0.496
 3708SOL    HW112023   1.641   6.378   0.511
 3708SOL    HW212024   1.561   6.280   0.407
 3709SOL     OW12025   1.207   1.494   2.224
 3709SOL    HW112026   1.170   1.582   2.254
 3709SOL    HW212027   1.211   1.492   2.124
 3710SOL     OW12028   1.795   3.857   4.864
 3710SOL    HW112029   1.837   3.895   4.946
 3710SOL    HW212030   1.829   3.764   4.848
 3711SOL     OW12031   1.706   5.433   4.938
 3711SOL    HW112032   1.627   5.494   4.928
 3711SOL    HW212033   1.674   5.338   4.933
 3712SOL     OW12034   2.928   5.386   4.518
 3712SOL    HW112035   3.006   5.327   4.497
 3712SOL    HW212036   2.960   5.467   4.566
 3713SOL     OW12037   5.926   0.262   5.056
 3713SOL    HW112038   5.978   0.305   5.130
 3713SOL    HW212039   5.908   0.166   5.079
 3714SOL     OW12040   0.221   4.479   0.021
 3714SOL    HW112041   0.194   4.462   6.946
 3714SOL    HW212042   0.188   4.404   0.079
 3715SOL     OW12043   6.131   4.439   3.814
 3715SOL    HW112044   6.053   4.377   3.809
 3715SOL    HW212045   6.115   4.517   3.753
 3716SOL     OW12046   5.658   5.688   5.624
 3716SOL    HW112047   5.650   5.763   5.691
 3716SOL    HW212048   5.713   5.719   5.546
 3717SOL     OW12049   4.176   0.539   1.066
 3717SOL    HW112050   4.231   0.623   1.064
 3717SOL    HW212051   4.090   0.554   1.018
 3718SOL     OW12052   5.862   6.596   6.132
 3718SOL    HW112053   5.868   6.694   6.114
 3718SOL    HW212054   5.780   6.559   6.090
 3719SOL     OW12055   3.001   4.482   0.432
 3719SOL    HW112056   3.091   4.522   0.448
 3719SOL    HW212057   2.995   4.393   0.478
 3720SOL     OW12058   0.023   2.828   1.138
 3720SOL    HW112059   6.962   2.830   1.079
 3720SOL    HW212060   0.001   2.869   1.227
 3721SOL     OW12061   6.060   0.395   5.267
 3721SOL    HW112062   6.096   0.478   5.226
 3721SOL    HW212063   5.996   0.418   5.341
 3722SOL     OW12064   5.542   6.319   1.903
 3722SOL    HW112065   5.450   6.357   1.909
 3722SOL    HW212066   5.550   6.240   1.963
 3723SOL     OW12067   4.979   3.911   6.626
 3723SOL    HW112068   5.037   3.898   6.545
 3723SOL    HW212069   4.885   3.931   6.597
 3724SOL     OW12070   0.176   4.211   4.446
 3724SOL    HW112071   0.099   4.194   4.385
 3724SOL    HW212072   0.262   4.200   4.395
 3725SOL     OW12073   1.350   5.701   0.145
 3725SOL    HW112074   1.261   5.672   0.109
 3725SOL    HW212075   1.355   5.800   0.145
 3726SOL     OW12076   6.206   3.851   5.565
 3726SOL    HW112077   6.176   3.823   5.656
 3726SOL    HW212078   6.153   3.800   5.496
 3727SOL     OW12079   6.578   2.288   3.934
 3727SOL    HW112080   6.636   2.286   3.853
 3727SOL    HW212081   6.610   2.359   3.997
 3728SOL     OW12082   2.148   4.309   0.937
 3728SOL    HW112083   2.141   4.328   1.035
 3728SOL    HW212084   2.190   4.219   0.923
 3729SOL     OW12085   0.288   6.866   5.781
 3729SOL    HW112086   0.236   6.821   5.854
 3729SOL    HW212087   0.324   6.798   5.718
 3730SOL     OW12088   4.915   5.059   4.849
 3730SOL    HW112089   4.894   4.961   4.851
 3730SOL    HW212090   4.974   5.079   4.771
 3731SOL     OW12091   0.203   2.229   0.703
 3731SOL    HW112092   0.218   2.283   0.786
 3731SOL    HW212093   0.133   2.160   0.721
 3732SOL     OW12094   3.840   3.049   6.443
 3732SOL    HW112095   3.921   3.105   6.426
 3732SOL    HW212096   3.768   3.076   6.379
 3733SOL     OW12097   1.277   0.787   3.619
 3733SOL    HW112098   1.350   0.820   3.558
 3733SOL    HW212099   1.255   0.858   3.686
 3734SOL     OW12100   3.644   6.850   1.609
 3734SOL    HW112101   3.608   6.887   1.695
 3734SOL    HW212102   3.594   6.891   1.532
 3735SOL     OW12103   4.579   0.544   2.869
 3735SOL    HW112104   4.605   0.449   2.851
 3735SOL    HW212105   4.515   0.575   2.798
 3736SOL     OW12106   0.204   1.255   0.395
 3736SOL    HW112107   0.217   1.354   0.398
 3736SOL    HW212108   0.109   1.234   0.417
 3737SOL     OW12109   5.808   1.966   3.014
 3737SOL    HW112110   5.815   1.876   2.969
 3737SOL    HW212111   5.844   2.036   2.953
 3738SOL     OW12112   0.471   0.568   0.974
 3738SOL    HW112113   0.486   0.659   0.937
 3738SOL    HW212114   0.431   0.574   1.066
 3739SOL     OW12115   3.035   4.228   6.854
 3739SOL    HW112116   3.071   4.318   6.829
 3739SOL    HW212117   3.023   4.223   6.953
 3740SOL     OW12118   5.444   5.745   6.694
 3740SOL    HW112119   5.510   5.701   6.756
 3740SOL    HW212120   5.493   5.791   6.620
 3741SOL     OW12121   5.169   3.740   0.325
 3741SOL    HW112122   5.082   3.693   0.315
 3741SOL    HW212123   5.176   3.778   0.417
 3742SOL     OW12124   4.534   5.616   0.986
 3742SOL    HW112125   4.604   5.557   0.946
 3742SOL    HW212126   4.553   5.711   0.961
 3743SOL     OW12127   2.871   4.068   0.785
 3743SOL    HW112128   2.781   4.105   0.761
 3743SOL    HW212129   2.864   4.016   0.870
 3744SOL     OW12130   6.731   6.031   2.501
 3744SOL    HW112131   6.665   5.956   2.506
 3744SOL    HW212132   6.726   6.086   2.584
 3745SOL     OW12133   4.836   2.546   2.883
 3745SOL    HW112134   4.747   2.542   2.929
 3745SOL    HW212135   4.839   2.478   2.809
 3746SOL     OW12136   5.567   0.255   4.613
 3746SOL    HW112137   5.495   0.186   4.620
 3746SOL    HW212138   5.652   0.219   4.652
 3747SOL     OW12139   3.294   5.814   5.256
 3747SOL    HW112140   3.380   5.842   5.215
 3747SOL    HW212141   3.218   5.837   5.195
 3748SOL     OW12142   5.139   2.328   4.017
 3748SOL    HW112143   5.135   2.336   4.116
 3748SOL    HW212144   5.099   2.240   3.989
 3749SOL     OW12145   6.743   6.583   2.214
 3749SOL    HW112146   6.837   6.611   2.195
 3749SOL    HW212147   6.693   6.573   2.128
 3750SOL     OW12148   5.726   3.909   1.403
 3750SOL    HW112149   5.795   3.934   1.335
 3750SOL    HW212150   5.676   3.992   1.431
 3751SOL     OW12151   0.992   4.387   2.048
 3751SOL    HW112152   0.996   4.303   2.104
 3751SOL    HW212153   1.004   4.466   2.108
 3752SOL     OW12154   0.465   6.838   6.223
 3752SOL    HW112155   0.412   6.923   6.230
 3752SOL    HW212156   0.531   6.834   6.298
 3753SOL     OW12157   6.926   0.428   4.952
 3753SOL    HW112158   7.016   0.468   4.971
 3753SOL    HW212159   6.934   0.329   4.947
 3754SOL     OW12160   6.441   6.246   1.450
 3754SOL    HW112161   6.536   6.254   1.479
 3754SOL    HW212162   6.417   6.150   1.441
 3755SOL     OW12163   4.718   2.810   2.657
 3755SOL    HW112164   4.703   2.845   2.749
 3755SOL    HW212165   4.789   2.864   2.612
 3756SOL     OW12166   3.320   6.915   6.847
 3756SOL    HW112167   3.229   6.933   6.884
 3756SOL    HW212168   3.374   6.999   6.848
 3757SOL     OW12169   3.907   4.612   6.561
 3757SOL    HW112170   3.868   4.704   6.551
 3757SOL    HW212171   3.833   4.545   6.556
 3758SOL     OW12172   0.241   0.475   2.407
 3758SOL    HW112173   0.298   0.412   2.355
 3758SOL    HW212174   0.287   0.564   2.415
 3759SOL     OW12175   4.830   5.206   1.030
 3759SOL    HW112176   4.871   5.263   1.102
 3759SOL    HW212177   4.845   5.110   1.051
 3760SOL     OW12178   2.118   1.971   5.523
 3760SOL    HW112179   2.061   2.022   5.588
 3760SOL    HW212180   2.168   1.900   5.572
 3761SOL     OW12181   6.987   6.252   4.534
 3761SOL    HW112182   6.945   6.163   4.551
 3761SOL    HW212183   0.028   6.246   4.455
 3762SOL     OW12184   0.816   3.326   7.019
 3762SOL    HW112185   0.908   3.360   7.001
 3762SOL    HW212186   0.779   3.369   0.082
 3763SOL     OW12187   6.557   3.661   5.713
 3763SOL    HW112188   6.572   3.581   5.772
 3763SOL    HW212189   6.551   3.743   5.769
 3764SOL     OW12190   2.961   6.640   4.251
 3764SOL    HW112191   2.900   6.563   4.235
 3764SOL    HW212192   2.961   6.664   4.348
 3765SOL     OW12193   6.069   1.473   3.557
 3765SOL    HW112194   6.009   1.532   3.611
 3765SOL    HW212195   6.117   1.529   3.489
 3766SOL     OW12196   2.087   0.373   4.786
 3766SOL    HW112197   2.122   0.284   4.757
 3766SOL    HW212198   1.992   0.382   4.755
 3767SOL     OW12199   0.827   4.527   0.334
 3767SOL    HW112200   0.867   4.450   0.384
 3767SOL    HW212201   0.831   4.508   0.236
 3768SOL     OW12202   4.133   6.623   1.180
 3768SOL    HW112203   4.060   6.677   1.137
 3768SOL    HW212204   4.116   6.616   1.278
 3769SOL     OW12205   4.585   6.833   5.008
 3769SOL    HW112206   4.623   6.764   4.947
 3769SOL    HW212207   4.493   6.857   4.978
 3770SOL     OW12208   2.372   2.491   0.605
 3770SOL    HW112209   2.347   2.510   0.510
 3770SOL    HW212210   2.471   2.503   0.617
 3771SOL     OW12211   4.634   1.797   5.238
 3771SOL    HW112212   4.720   1.806   5.288
 3771SOL    HW212213   4.572   1.737   5.289
 3772SOL     OW12214   4.845   0.501   2.414
 3772SOL    HW112215   4.748   0.524   2.424
 3772SOL    HW212216   4.890   0.573   2.360
 3773SOL     OW12217   6.636   2.077   0.625
 3773SOL    HW112218   6.643   2.168   0.665
 3773SOL    HW212219   6.592   2.015   0.690
 3774SOL     OW12220   0.709   2.074   2.273
 3774SOL    HW112221   0.720   2.067   2.174
 3774SOL    HW212222   0.655   1.996   2.306
 3775SOL     OW12223   5.667   3.253   3.505
 3775SOL    HW112224   5.756   3.286   3.474
 3775SOL    HW212225   5.673   3.155   3.525
 3776SOL     OW12226   2.885   3.138   6.544
 3776SOL    HW112227   2.809   3.075   6.528
 3776SOL    HW212228   2.969   3.086   6.561
 3777SOL     OW12229   1.026   3.937   3.071
 3777SOL    HW112230   1.122   3.947   3.099
 3777SOL    HW212231   0.979   3.878   3.136
 3778SOL     OW12232   2.637   6.574   1.810
 3778SOL    HW112233   2.605   6.647   1.749
 3778SOL    HW212234   2.636   6.487   1.761
 3779SOL     OW12235   1.852   4.604   0.072
 3779SOL    HW112236   1.871   4.590   0.169
 3779SOL    HW212237   1.869   4.519   0.022
 3780SOL     OW12238   2.746   0.299   4.263
 3780SOL    HW112239   2.771   0.227   4.198
 3780SOL    HW212240   2.685   0.261   4.333
 3781SOL     OW12241   2.598   5.710   4.986
 3781SOL    HW112242   2.538   5.753   4.918
 3781SOL    HW212243   2.545   5.687   5.067
 3782SOL     OW12244   2.352   1.007   3.068
 3782SOL    HW112245   2.348   1.002   2.968
 3782SOL    HW212246   2.445   0.989   3.099
 3783SOL     OW12247   4.878   5.721   5.563
 3783SOL    HW112248   4.898   5.804   5.616
 3783SOL    HW212249   4.963   5.678   5.535
 3784SOL     OW12250   4.928   2.118   4.045
 3784SOL    HW112251   4.872   2.200   4.037
 3784SOL    HW212252   4.881   2.051   4.103
 3785SOL     OW12253   1.064   1.839   1.992
 3785SOL    HW112254   1.156   1.855   2.026
 3785SOL    HW212255   1.006   1.918   2.015
 3786SOL     OW12256   3.246   6.362   2.534
 3786SOL    HW112257   3.149   6.346   2.516
 3786SOL    HW212258   3.274   6.449   2.493
 3787SOL     OW12259   4.403   1.266   3.926
 3787SOL    HW112260   4.342   1.263   4.005
 3787SOL    HW212261   4.497   1.247   3.955
 3788SOL     OW12262   6.288   3.447   2.278
 3788SOL    HW112263   6.188   3.445   2.275
 3788SOL    HW212264   6.319   3.514   2.345
 3789SOL     OW12265   1.519   5.488   2.429
 3789SOL    HW112266   1.587   5.451   2.367
 3789SOL    HW212267   1.550   5.477   2.524
 3790SOL     OW12268   2.111   3.262   3.032
 3790SOL    HW112269   2.156   3.181   2.994
 3790SOL    HW212270   2.016   3.240   3.053
 3791SOL     OW12271   6.355   0.700   2.357
 3791SOL    HW112272   6.315   0.613   2.329
 3791SOL    HW212273   6.282   0.768   2.369
 3792SOL     OW12274   0.157   0.163   6.114
 3792SOL    HW112275   0.070   0.181   6.161
 3792SOL    HW212276   0.218   0.115   6.176
 3793SOL     OW12277   1.416   6.393   3.028
 3793SOL    HW112278   1.477   6.338   2.971
 3793SOL    HW212279   1.347   6.335   3.070
 3794SOL     OW12280   4.097   6.714   3.422
 3794SOL    HW112281   4.143   6.634   3.384
 3794SOL    HW212282   4.011   6.687   3.464
 3795SOL     OW12283   5.651   0.148   0.982
 3795SOL    HW112284   5.654   0.246   0.960
 3795SOL    HW212285   5.640   0.136   1.080
 3796SOL     OW12286   1.263   3.080   0.804
 3796SOL    HW112287   1.340   3.128   0.845
 3796SOL    HW212288   1.228   3.012   0.869
 3797SOL     OW12289   0.072   5.409   2.370
 3797SOL    HW112290   0.011   5.336   2.339
 3797SOL    HW212291   0.057   5.491   2.315
 3798SOL     OW12292   0.786   4.081   1.147
 3798SOL    HW112293   0.863   4.102   1.086
 3798SOL    HW212294   0.784   3.982   1.164
 3799SOL     OW12295   1.306   0.378   5.037
 3799SOL    HW112296   1.352   0.438   5.102
 3799SOL    HW212297   1.241   0.431   4.983
 3800SOL     OW12298   5.299   2.510   5.255
 3800SOL    HW112299   5.313   2.437   5.323
 3800SOL    HW212300   5.349   2.592   5.284
 3801SOL     OW12301   0.047   0.051   6.492
 3801SOL    HW112302   0.027   0.123   6.558
 3801SOL    HW212303   6.982   0.007   6.464
 3802SOL     OW12304   1.373   2.308   5.333
 3802SOL    HW112305   1.373   2.229   5.395
 3802SOL    HW212306   1.434   2.378   5.369
 3803SOL     OW12307   3.933   1.313   1.446
 3803SOL    HW112308   3.988   1.343   1.524
 3803SOL    HW212309   3.988   1.258   1.384
 3804SOL     OW12310   4.847   3.065   5.013
 3804SOL    HW112311   4.795   3.118   5.080
 3804SOL    HW212312   4.942   3.097   5.012
 3805SOL     OW12313   1.936   3.531   2.032
 3805SOL    HW112314   2.010   3.510   1.968
 3805SOL    HW212315   1.973   3.577   2.112
 3806SOL     OW12316   3.383   1.451   0.902
 3806SOL    HW112317   3.473   1.464   0.944
 3806SOL    HW212318   3.372   1.355   0.878
 3807SOL     OW12319   1.688   0.151   2.956
 3807SOL    HW112320   1.745   0.227   2.926
 3807SOL    HW212321   1.613   0.137   2.890
 3808SOL     OW12322   2.936   0.475   0.587
 3808SOL    HW112323   2.945   0.432   0.677
 3808SOL    HW212324   3.028   0.488   0.548
 3809SOL     OW12325   4.128   0.429   6.845
 3809SOL    HW112326   4.134   0.510   6.903
 3809SOL    HW212327   4.174   0.445   6.758
 3810SOL     OW12328   2.454   3.600   6.139
 3810SOL    HW112329   2.382   3.657   6.098
 3810SOL    HW212330   2.481   3.639   6.227
 3811SOL     OW12331   1.323   0.660   6.086
 3811SOL    HW112332   1.353   0.702   6.001
 3811SOL    HW212333   1.318   0.561   6.074
 3812SOL     OW12334   5.466   1.103   5.771
 3812SOL    HW112335   5.530   1.059   5.708
 3812SOL    HW212336   5.457   1.048   5.854
 3813SOL     OW12337   3.846   4.866   2.030
 3813SOL    HW112338   3.757   4.822   2.020
 3813SOL    HW212339   3.887   4.881   1.940
 3814SOL     OW12340   1.715   0.425   2.170
 3814SOL    HW112341   1.647   0.438   2.242
 3814SOL    HW212342   1.677   0.369   2.097
 3815SOL     OW12343   5.586   1.971   1.467
 3815SOL    HW112344   5.623   2.064   1.471
 3815SOL    HW212345   5.503   1.966   1.523
 3816SOL     OW12346   0.159   6.563   1.182
 3816SOL    HW112347   0.121   6.471   1.191
 3816SOL    HW212348   0.217   6.583   1.261
 3817SOL     OW12349   4.729   1.399   5.663
 3817SOL    HW112350   4.696   1.491   5.644
 3817SOL    HW212351   4.761   1.394   5.757
 3818SOL     OW12352   4.604   5.631   2.959
 3818SOL    HW112353   4.613   5.601   2.865
 3818SOL    HW212354   4.688   5.610   3.009
 3819SOL     OW12355   6.140   4.441   6.068
 3819SOL    HW112356   6.233   4.405   6.073
 3819SOL    HW212357   6.140   4.537   6.097
 3820SOL     OW12358   5.118   6.204   3.545
 3820SOL    HW112359   5.202   6.173   3.589
 3820SOL    HW212360   5.126   6.302   3.525
 3821SOL     OW12361   0.039   4.434   1.337
 3821SOL    HW112362   0.034   4.431   1.437
 3821SOL    HW212363   7.007   4.358   1.299
 3822SOL     OW12364   0.964   4.653   1.666
 3822SOL    HW112365   0.961   4.706   1.751
 3822SOL    HW212366   0.873   4.651   1.625
 3823SOL     OW12367   2.419   3.209   5.662
 3823SOL    HW112368   2.515   3.199   5.690
 3823SOL    HW212369   2.414   3.230   5.565
 3824SOL     OW12370   6.921   2.298   6.464
 3824SOL    HW112371   6.994   2.231   6.468
 3824SOL    HW212372   6.852   2.277   6.534
 3825SOL     OW12373   6.267   6.547   5.837
 3825SOL    HW112374   6.338   6.603   5.880
 3825SOL    HW212375   6.194   6.528   5.903
 3826SOL     OW12376   6.689   1.967   0.946
 3826SOL    HW112377   6.612   1.912   0.916
 3826SOL    HW212378   6.773   1.913   0.939
 3827SOL     OW12379   5.490   2.238   0.996
 3827SOL    HW112380   5.522   2.237   1.091
 3827SOL    HW212381   5.444   2.151   0.976
 3828SOL     OW12382   4.340   1.290   1.463
 3828SOL    HW112383   4.397   1.363   1.424
 3828SOL    HW212384   4.266   1.330   1.517
 3829SOL     OW12385   1.105   4.870   3.505
 3829SOL    HW112386   1.066   4.835   3.420
 3829SOL    HW212387   1.044   4.849   3.581
 3830SOL     OW12388   3.138   0.297   5.485
 3830SOL    HW112389   3.160   0.256   5.574
 3830SOL    HW212390   3.048   0.266   5.456
 3831SOL     OW12391   4.655   1.610   2.214
 3831SOL    HW112392   4.722   1.656   2.273
 3831SOL    HW212393   4.584   1.675   2.187
 3832SOL     OW12394   5.553   0.064   2.443
 3832SOL    HW112395   5.628   0.125   2.415
 3832SOL    HW212396   5.476   0.076   2.381
 3833SOL     OW12397   1.931   6.402   1.305
 3833SOL    HW112398   1.914   6.448   1.393
 3833SOL    HW212399   1.936   6.303   1.321
 3834SOL     OW12400   2.632   2.555   0.656
 3834SOL    HW112401   2.710   2.500   0.687
 3834SOL    HW212402   2.664   2.643   0.622
 3835SOL     OW12403   3.466   5.673   3.958
 3835SOL    HW112404   3.464   5.574   3.973
 3835SOL    HW212405   3.450   5.692   3.861
 3836SOL     OW12406   1.525   3.028   5.362
 3836SOL    HW112407   1.616   3.034   5.402
 3836SOL    HW212408   1.531   2.987   5.271
 3837SOL     OW12409   3.121   3.495   6.823
 3837SOL    HW112410   3.111   3.578   6.768
 3837SOL    HW212411   3.218   3.473   6.833
 3838SOL     OW12412   5.912   3.116   4.989
 3838SOL    HW112413   5.962   3.194   5.026
 3838SOL    HW212414   5.959   3.083   4.907
 3839SOL     OW12415   0.136   6.214   6.251
 3839SOL    HW112416   0.140   6.261   6.163
 3839SOL    HW212417   0.043   6.219   6.288
 3840SOL     OW12418   2.440   0.718   3.661
 3840SOL    HW112419   2.349   0.732   3.622
 3840SOL    HW212420   2.483   0.807   3.677
 3841SOL     OW12421   0.886   3.811   4.824
 3841SOL    HW112422   0.816   3.878   4.846
 3841SOL    HW212423   0.877   3.783   4.728
 3842SOL     OW12424   1.575   5.277   6.984
 3842SOL    HW112425   1.624   5.338   6.921
 3842SOL    HW212426   1.629   5.265   0.048
 3843SOL     OW12427   5.652   4.132   0.319
 3843SOL    HW112428   5.604   4.056   0.274
 3843SOL    HW212429   5.630   4.218   0.273
 3844SOL     OW12430   2.677   4.307   5.837
 3844SOL    HW112431   2.616   4.348   5.769
 3844SOL    HW212432   2.760   4.275   5.791
 3845SOL     OW12433   3.255   3.367   3.503
 3845SOL    HW112434   3.328   3.338   3.440
 3845SOL    HW212435   3.295   3.418   3.579
 3846SOL     OW12436   6.706   4.338   4.134
 3846SOL    HW112437   6.652   4.306   4.212
 3846SOL    HW212438   6.713   4.438   4.137
 3847SOL     OW12439   0.949   0.100   0.988
 3847SOL    HW112440   1.044   0.132   0.986
 3847SOL    HW212441   0.934   0.047   1.072
 3848SOL     OW12442   2.735   5.463   1.450
 3848SOL    HW112443   2.719   5.378   1.500
 3848SOL    HW212444   2.834   5.480   1.443
 3849SOL     OW12445   2.518   1.768   5.995
 3849SOL    HW112446   2.495   1.679   5.956
 3849SOL    HW212447   2.618   1.781   5.992
 3850SOL     OW12448   2.133   3.795   1.454
 3850SOL    HW112449   2.165   3.737   1.528
 3850SOL    HW212450   2.165   3.889   1.467
 3851SOL     OW12451   2.428   2.386   1.055
 3851SOL    HW112452   2.427   2.302   1.109
 3851SOL    HW212453   2.510   2.387   0.998
 3852SOL     OW12454   4.178   1.150   4.978
 3852SOL    HW112455   4.228   1.180   4.897
 3852SOL    HW212456   4.089   1.195   4.981
 3853SOL     OW12457   1.356   3.038   1.921
 3853SOL    HW112458   1.356   2.967   1.850
 3853SOL    HW212459   1.377   3.126   1.879
 3854SOL     OW12460   1.526   3.153   4.653
 3854SOL    HW112461   1.528   3.192   4.745
 3854SOL    HW212462   1.433   3.158   4.616
 3855SOL     OW12463   6.687   1.553   5.073
 3855SOL    HW112464   6.751   1.606   5.018
 3855SOL    HW212465   6.594   1.566   5.038
 3856SOL     OW12466   0.867   6.340   5.657
 3856SOL    HW112467   0.784   6.315   5.709
 3856SOL    HW212468   0.900   6.429   5.688
 3857SOL     OW12469   0.929   0.433   6.437
 3857SOL    HW112470   0.855   0.378   6.477
 3857SOL    HW212471   0.946   0.513   6.493
 3858SOL     OW12472   2.392   5.154   6.958
 3858SOL    HW112473   2.409   5.214   0.016
 3858SOL    HW212474   2.441   5.067   6.971
 3859SOL     OW12475   6.178   2.457   1.895
 3859SOL    HW112476   6.136   2.366   1.898
 3859SOL    HW212477   6.189   2.485   1.800
 3860SOL     OW12478   2.219   6.254   5.305
 3860SOL    HW112479   2.237   6.277   5.209
 3860SOL    HW212480   2.186   6.160   5.311
 3861SOL     OW12481   3.879   4.418   0.323
 3861SOL    HW112482   3.852   4.465   0.407
 3861SOL    HW212483   3.949   4.350   0.343
 3862SOL     OW12484   0.631   5.551   5.474
 3862SOL    HW112485   0.690   5.475   5.500
 3862SOL    HW212486   0.625   5.556   5.374
 3863SOL     OW12487   2.940   3.692   0.574
 3863SOL    HW112488   2.989   3.778   0.585
 3863SOL    HW212489   2.993   3.631   0.515
 3864SOL     OW12490   2.994   1.486   0.656
 3864SOL    HW112491   2.919   1.423   0.638
 3864SOL    HW212492   2.969   1.578   0.625
 3865SOL     OW12493   4.141   0.797   2.399
 3865SOL    HW112494   4.056   0.790   2.348
 3865SOL    HW212495   4.218   0.796   2.336
 3866SOL     OW12496   2.784   6.220   6.317
 3866SOL    HW112497   2.759   6.164   6.239
 3866SOL    HW212498   2.780   6.317   6.291
 3867SOL     OW12499   1.617   4.646   3.349
 3867SOL    HW112500   1.684   4.649   3.423
 3867SOL    HW212501   1.641   4.573   3.284
 3868SOL     OW12502   3.018   5.627   2.691
 3868SOL    HW112503   3.103   5.632   2.743
 3868SOL    HW212504   2.950   5.687   2.732
 3869SOL     OW12505   0.074   1.325   4.008
 3869SOL    HW112506   0.163   1.298   4.043
 3869SOL    HW212507   0.083   1.408   3.953
 3870SOL     OW12508   3.829   4.486   0.586
 3870SOL    HW112509   3.869   4.533   0.665
 3870SOL    HW212510   3.732   4.510   0.578
 3871SOL     OW12511   3.112   1.316   5.302
 3871SOL    HW112512   3.138   1.391   5.241
 3871SOL    HW212513   3.154   1.331   5.392
 3872SOL     OW12514   4.388   3.682   0.869
 3872SOL    HW112515   4.324   3.650   0.939
 3872SOL    HW212516   4.363   3.775   0.841
 3873SOL     OW12517   5.750   4.810   1.977
 3873SOL    HW112518   5.756   4.838   1.882
 3873SOL    HW212519   5.812   4.866   2.032
 3874SOL     OW12520   4.556   5.508   5.873
 3874SOL    HW112521   4.633   5.509   5.808
 3874SOL    HW212522   4.488   5.576   5.845
 3875SOL     OW12523   2.257   4.184   0.313
 3875SOL    HW112524   2.317   4.119   0.360
 3875SOL    HW212525   2.288   4.277   0.331
 3876SOL     OW12526   5.797   3.651   2.092
 3876SOL    HW112527   5.815   3.597   2.174
 3876SOL    HW212528   5.881   3.698   2.064
 3877SOL     OW12529   4.667   1.831   1.870
 3877SOL    HW112530   4.582   1.867   1.907
 3877SOL    HW212531   4.743   1.855   1.931
 3878SOL     OW12532   4.606   5.784   4.786
 3878SOL    HW112533   4.633   5.880   4.794
 3878SOL    HW212534   4.509   5.775   4.810
 3879SOL     OW12535   2.911   5.895   1.096
 3879SOL    HW112536   2.954   5.874   1.184
 3879SOL    HW212537   2.828   5.841   1.085
 3880SOL     OW12538   6.028   2.193   4.134
 3880SOL    HW112539   5.956   2.240   4.083
 3880SOL    HW212540   6.048   2.243   4.217
 3881SOL     OW12541   0.299   5.778   6.950
 3881SOL    HW112542   0.203   5.796   6.975
 3881SOL    HW212543   0.358   5.813   0.003
 3882SOL     OW12544   0.150   6.311   6.522
 3882SOL    HW112545   0.240   6.322   6.564
 3882SOL    HW212546   0.121   6.216   6.527
 3883SOL     OW12547   3.831   1.839   6.935
 3883SOL    HW112548   3.899   1.780   6.891
 3883SOL    HW212549   3.792   1.901   6.867
 3884SOL     OW12550   1.825   5.353   5.749
 3884SOL    HW112551   1.839   5.446   5.716
 3884SOL    HW212552   1.772   5.354   5.833
 3885SOL     OW12553   6.909   1.207   4.814
 3885SOL    HW112554   6.882   1.185   4.720
 3885SOL    HW212555   6.871   1.296   4.839
 3886SOL     OW12556   0.221   5.854   5.349
 3886SOL    HW112557   0.130   5.837   5.313
 3886SOL    HW212558   0.224   5.828   5.445
 3887SOL     OW12559   5.808   2.759   5.029
 3887SOL    HW112560   5.746   2.837   5.016
 3887SOL    HW212561   5.771   2.699   5.100
 3888SOL     OW12562   5.600   1.696   2.512
 3888SOL    HW112563   5.501   1.695   2.499
 3888SOL    HW212564   5.643   1.748   2.438
 3889SOL     OW12565   6.388   5.805   6.819
 3889SOL    HW112566   6.370   5.895   6.860
 3889SOL    HW212567   6.444   5.817   6.737
 3890SOL     OW12568   6.492   3.437   3.164
 3890SOL    HW112569   6.413   3.463   3.108
 3890SOL    HW212570   6.571   3.421   3.105
 3891SOL     OW12571   4.734   5.175   5.768
 3891SOL    HW112572   4.695   5.113   5.700
 3891SOL    HW212573   4.664   5.201   5.834
 3892SOL     OW12574   5.770   5.776   4.191
 3892SOL    HW112575   5.849   5.715   4.190
 3892SOL    HW212576   5.772   5.834   4.110
 3893SOL     OW12577   2.966   6.240   4.781
 3893SOL    HW112578   2.907   6.193   4.847
 3893SOL    HW212579   3.021   6.172   4.733
 3894SOL     OW12580   5.540   5.177   6.592
 3894SOL    HW112581   5.591   5.245   6.539
 3894SOL    HW212582   5.475   5.224   6.652
 3895SOL     OW12583   1.786   1.885   5.756
 3895SOL    HW112584   1.848   1.806   5.755
 3895SOL    HW212585   1.839   1.969   5.748
 3896SOL     OW12586   6.243   3.585   0.665
 3896SOL    HW112587   6.291   3.668   0.639
 3896SOL    HW212588   6.244   3.521   0.588
 3897SOL     OW12589   3.614   6.647   3.626
 3897SOL    HW112590   3.575   6.556   3.615
 3897SOL    HW212591   3.545   6.709   3.666
 3898SOL     OW12592   3.281   3.289   4.230
 3898SOL    HW112593   3.182   3.274   4.225
 3898SOL    HW212594   3.311   3.285   4.325
 3899SOL     OW12595   4.149   2.005   6.084
 3899SOL    HW112596   4.132   2.068   6.008
 3899SOL    HW212597   4.152   2.056   6.170
 3900SOL     OW12598   0.752   2.633   4.122
 3900SOL    HW112599   0.709   2.639   4.212
 3900SOL    HW212600   0.797   2.544   4.112
 3901SOL     OW12601   3.277   5.355   5.872
 3901SOL    HW112602   3.328   5.394   5.795
 3901SOL    HW212603   3.300   5.258   5.881
 3902SOL     OW12604   3.772   5.526   3.013
 3902SOL    HW112605   3.797   5.461   3.085
 3902SOL    HW212606   3.856   5.564   2.973
 3903SOL     OW12607   3.874   3.792   6.096
 3903SOL    HW112608   3.873   3.795   5.996
 3903SOL    HW212609   3.809   3.859   6.132
 3904SOL     OW12610   2.066   6.614   6.893
 3904SOL    HW112611   2.099   6.680   6.825
 3904SOL    HW212612   1.978   6.578   6.863
 3905SOL     OW12613   4.637   0.056   5.827
 3905SOL    HW112614   4.696   0.029   5.903
 3905SOL    HW212615   4.623   6.998   5.766
 3906SOL     OW12616   6.816   5.722   4.610
 3906SOL    HW112617   6.880   5.746   4.682
 3906SOL    HW212618   6.755   5.649   4.641
 3907SOL     OW12619   0.386   1.698   4.576
 3907SOL    HW112620   0.458   1.725   4.639
 3907SOL    HW212621   0.426   1.655   4.495
 3908SOL     OW12622   2.183   0.619   4.351
 3908SOL    HW112623   2.124   0.592   4.275
 3908SOL    HW212624   2.265   0.665   4.315
 3909SOL     OW12625   5.514   4.001   1.927
 3909SOL    HW112626   5.420   4.034   1.933
 3909SOL    HW212627   5.514   3.901   1.915
 3910SOL     OW12628   2.703   2.693   1.387
 3910SOL    HW112629   2.710   2.742   1.474
 3910SOL    HW212630   2.606   2.682   1.362
 3911SOL     OW12631   0.088   1.303   1.140
 3911SOL    HW112632   0.043   1.252   1.214
 3911SOL    HW212633   0.124   1.240   1.072
 3912SOL     OW12634   4.393   4.260   0.594
 3912SOL    HW112635   4.473   4.292   0.544
 3912SOL    HW212636   4.362   4.173   0.555
 3913SOL     OW12637   4.203   5.197   0.979
 3913SOL    HW112638   4.254   5.279   0.955
 3913SOL    HW212639   4.124   5.223   1.035
 3914SOL     OW12640   6.846   1.164   0.994
 3914SOL    HW112641   6.884   1.255   0.978
 3914SOL    HW212642   6.883   1.126   1.078
 3915SOL     OW12643   5.665   0.557   5.207
 3915SOL    HW112644   5.726   0.533   5.282
 3915SOL    HW212645   5.620   0.644   5.228
 3916SOL     OW12646   1.810   2.186   2.448
 3916SOL    HW112647   1.877   2.229   2.508
 3916SOL    HW212648   1.811   2.232   2.359
 3917SOL     OW12649   4.418   5.386   2.214
 3917SOL    HW112650   4.406   5.365   2.117
 3917SOL    HW212651   4.344   5.448   2.243
 3918SOL     OW12652   4.398   6.817   1.132
 3918SOL    HW112653   4.310   6.828   1.177
 3918SOL    HW212654   4.385   6.814   1.033
 3919SOL     OW12655   5.237   5.696   3.341
 3919SOL    HW112656   5.185   5.690   3.256
 3919SOL    HW212657   5.293   5.614   3.352
 3920SOL     OW12658   3.919   1.875   5.816
 3920SOL    HW112659   3.999   1.874   5.756
 3920SOL    HW212660   3.880   1.968   5.817
 3921SOL     OW12661   1.442   2.959   5.903
 3921SOL    HW112662   1.416   3.040   5.956
 3921SOL    HW212663   1.418   2.877   5.955
 3922SOL     OW12664   4.996   2.577   4.074
 3922SOL    HW112665   5.007   2.586   4.173
 3922SOL    HW212666   5.026   2.486   4.045
 3923SOL     OW12667   5.581   0.834   1.386
 3923SOL    HW112668   5.579   0.757   1.450
 3923SOL    HW212669   5.673   0.843   1.349
 3924SOL     OW12670   5.189   4.760   4.247
 3924SOL    HW112671   5.227   4.850   4.268
 3924SOL    HW212672   5.096   4.770   4.212
 3925SOL     OW12673   3.853   5.531   1.651
 3925SOL    HW112674   3.848   5.453   1.588
 3925SOL    HW212675   3.852   5.499   1.745
 3926SOL     OW12676   1.393   5.908   5.382
 3926SOL    HW112677   1.406   6.004   5.356
 3926SOL    HW212678   1.478   5.858   5.366
 3927SOL     OW12679   5.868   0.167   5.415
 3927SOL    HW112680   5.822   0.103   5.353
 3927SOL    HW212681   5.932   0.117   5.473
 3928SOL     OW12682   4.489   6.146   2.823
 3928SOL    HW112683   4.496   6.069   2.887
 3928SOL    HW212684   4.451   6.225   2.869
 3929SOL     OW12685   1.592   0.950   5.603
 3929SOL    HW112686   1.530   0.886   5.558
 3929SOL    HW212687   1.553   0.980   5.690
 3930SOL     OW12688   2.173   5.825   4.492
 3930SOL    HW112689   2.258   5.805   4.541
 3930SOL    HW212690   2.187   5.813   4.393
 3931SOL     OW12691   0.478   2.557   0.320
 3931SOL    HW112692   0.479   2.645   0.367
 3931SOL    HW212693   0.472   2.483   0.387
 3932SOL     OW12694   2.227   4.011   2.875
 3932SOL    HW112695   2.171   3.999   2.794
 3932SOL    HW212696   2.281   4.095   2.867
 3933SOL     OW12697   1.905   6.578   1.530
 3933SOL    HW112698   2.005   6.574   1.525
 3933SOL    HW212699   1.875   6.674   1.531
 3934SOL     OW12700   1.681   6.589   1.931
 3934SOL    HW112701   1.668   6.630   2.021
 3934SOL    HW212702   1.774   6.609   1.899
 3935SOL     OW12703   0.612   2.102   4.982
 3935SOL    HW112704   0.601   2.144   4.892
 3935SOL    HW212705   0.664   2.164   5.041
 3936SOL     OW12706   6.451   4.006   3.894
 3936SOL    HW112707   6.516   4.078   3.871
 3936SOL    HW212708   6.492   3.944   3.962
 3937SOL     OW12709   0.889   6.602   0.246
 3937SOL    HW112710   0.897   6.658   0.329
 3937SOL    HW212711   0.815   6.535   0.258
 3938SOL     OW12712   0.662   3.889   6.977
 3938SOL    HW112713   0.685   3.836   6.895
 3938SOL    HW212714   0.612   3.832   0.022
 3939SOL     OW12715   1.743   6.578   4.090
 3939SOL    HW112716   1.692   6.652   4.045
 3939SOL    HW212717   1.829   6.563   4.041
 3940SOL     OW12718   2.250   6.009   6.294
 3940SOL    HW112719   2.275   6.030   6.199
 3940SOL    HW212720   2.229   5.912   6.302
 3941SOL     OW12721   5.388   5.339   2.504
 3941SOL    HW112722   5.316   5.290   2.455
 3941SOL    HW212723   5.391   5.434   2.474
 3942SOL     OW12724   6.463   6.710   6.441
 3942SOL    HW112725   6.448   6.621   6.397
 3942SOL    HW212726   6.374   6.750   6.466
 3943SOL     OW12727   1.691   4.264   0.211
 3943SOL    HW112728   1.710   4.308   0.298
 3943SOL    HW212729   1.607   4.304   0.172
 3944SOL     OW12730   4.669   3.351   6.910
 3944SOL    HW112731   4.665   3.328   7.007
 3944SOL    HW212732   4.576   3.367   6.875
 3945SOL     OW12733   6.873   0.733   3.275
 3945SOL    HW112734   6.786   0.783   3.276
 3945SOL    HW212735   6.913   0.735   3.367
 3946SOL     OW12736   6.196   2.316   0.966
 3946SOL    HW112737   6.122   2.334   1.032
 3946SOL    HW212738   6.197   2.388   0.897
 3947SOL     OW12739   5.716   6.621   2.425
 3947SOL    HW112740   5.799   6.655   2.382
 3947SOL    HW212741   5.702   6.525   2.400
 3948SOL     OW12742   2.293   1.144   4.846
 3948SOL    HW112743   2.235   1.080   4.898
 3948SOL    HW212744   2.298   1.115   4.751
 3949SOL     OW12745   6.142   6.819   2.239
 3949SOL    HW112746   6.146   6.818   2.339
 3949SOL    HW212747   6.083   6.745   2.208
 3950SOL     OW12748   2.690   4.820   1.542
 3950SOL    HW112749   2.677   4.912   1.505
 3950SOL    HW212750   2.679   4.753   1.469
 3951SOL     OW12751   6.697   2.686   3.562
 3951SOL    HW112752   6.658   2.776   3.541
 3951SOL    HW212753   6.796   2.690   3.550
 3952SOL     OW12754   5.869   4.476   6.780
 3952SOL    HW112755   5.941   4.541   6.804
 3952SOL    HW212756   5.911   4.392   6.747
 3953SOL     OW12757   3.429   3.614   5.794
 3953SOL    HW112758   3.414   3.619   5.892
 3953SOL    HW212759   3.524   3.586   5.776
 3954SOL     OW12760   1.456   3.373   5.301
 3954SOL    HW112761   1.400   3.294   5.276
 3954SOL    HW212762   1.542   3.342   5.341
 3955SOL     OW12763   6.000   3.440   0.108
 3955SOL    HW112764   6.011   3.539   0.098
 3955SOL    HW212765   5.933   3.421   0.179
 3956SOL     OW12766   0.020   2.850   4.986
 3956SOL    HW112767   6.986   2.933   4.969
 3956SOL    HW212768   0.110   2.875   5.022
 3957SOL     OW12769   0.691   2.471   1.927
 3957SOL    HW112770   0.707   2.461   2.026
 3957SOL    HW212771   0.593   2.482   1.911
 3958SOL     OW12772   5.885   6.221   1.439
 3958SOL    HW112773   5.969   6.237   1.387
 3958SOL    HW212774   5.852   6.128   1.422
 3959SOL     OW12775   2.939   5.211   1.747
 3959SOL    HW112776   2.857   5.263   1.772
 3959SOL    HW212777   2.943   5.126   1.799
 3960SOL     OW12778   6.107   2.684   0.397
 3960SOL    HW112779   6.178   2.727   0.342
 3960SOL    HW212780   6.050   2.626   0.338
 3961SOL     OW12781   6.948   1.067   1.277
 3961SOL    HW112782   0.004   1.045   1.338
 3961SOL    HW212783   6.903   0.982   1.249
 3962SOL     OW12784   6.909   0.517   6.099
 3962SOL    HW112785   6.851   0.476   6.029
 3962SOL    HW212786   7.004   0.513   6.070
 3963SOL     OW12787   5.081   4.168   4.154
 3963SOL    HW112788   5.139   4.089   4.133
 3963SOL    HW212789   5.111   4.247   4.101
 3964SOL     OW12790   5.638   4.717   0.313
 3964SOL    HW112791   5.561   4.702   0.374
 3964SOL    HW212792   5.684   4.630   0.296
 3965SOL     OW12793   3.284   3.760   0.868
 3965SOL    HW112794   3.352   3.782   0.939
 3965SOL    HW212795   3.232   3.680   0.896
 3966SOL     OW12796   6.598   3.405   5.799
 3966SOL    HW112797   6.526   3.389   5.866
 3966SOL    HW212798   6.586   3.343   5.721
 3967SOL     OW12799   2.311   6.720   0.050
 3967SOL    HW112800   2.288   6.676   0.137
 3967SOL    HW212801   2.377   6.664   0.001
 3968SOL     OW12802   4.666   2.241   0.478
 3968SOL    HW112803   4.671   2.171   0.549
 3968SOL    HW212804   4.738   2.226   0.410
 3969SOL     OW12805   6.804   6.561   0.768
 3969SOL    HW112806   6.738   6.525   0.835
 3969SOL    HW212807   6.890   6.581   0.814
 3970SOL     OW12808   5.814   4.555   3.956
 3970SOL    HW112809   5.789   4.508   4.041
 3970SOL    HW212810   5.817   4.654   3.972
 3971SOL     OW12811   0.709   5.867   3.821
 3971SOL    HW112812   0.721   5.942   3.886
 3971SOL    HW212813   0.629   5.885   3.764
 3972SOL     OW12814   1.400   0.372   5.922
 3972SOL    HW112815   1.335   0.364   5.846
 3972SOL    HW212816   1.357   0.340   6.006
 3973SOL     OW12817   3.870   3.299   2.756
 3973SOL    HW112818   3.786   3.318   2.808
 3973SOL    HW212819   3.871   3.202   2.731
 3974SOL     OW12820   4.998   0.648   6.667
 3974SOL    HW112821   4.968   0.737   6.633
 3974SOL    HW212822   4.980   0.579   6.597
 3975SOL     OW12823   0.294   6.585   4.429
 3975SOL    HW112824   0.228   6.643   4.381
 3975SOL    HW212825   0.284   6.490   4.397
 3976SOL     OW12826   1.035   2.808   5.941
 3976SOL    HW112827   1.019   2.864   6.022
 3976SOL    HW212828   1.011   2.860   5.859
 3977SOL     OW12829   3.303   5.040   5.396
 3977SOL    HW112830   3.303   4.944   5.369
 3977SOL    HW212831   3.393   5.080   5.379
 3978SOL     OW12832   5.541   3.117   6.590
 3978SOL    HW112833   5.512   3.070   6.506
 3978SOL    HW212834   5.540   3.052   6.666
 3979SOL     OW12835   1.079   5.930   3.099
 3979SOL    HW112836   1.031   5.984   3.030
 3979SOL    HW212837   1.033   5.941   3.187
 3980SOL     OW12838   5.134   4.110   4.507
 3980SOL    HW112839   5.121   4.067   4.417
 3980SOL    HW212840   5.230   4.101   4.533
 3981SOL     OW12841   6.908   1.429   6.342
 3981SOL    HW112842   6.882   1.397   6.433
 3981SOL    HW212843   6.978   1.500   6.351
 3982SOL     OW12844   2.118   3.188   4.489
 3982SOL    HW112845   2.115   3.134   4.574
 3982SOL    HW212846   2.142   3.282   4.511
 3983SOL     OW12847   3.372   0.692   4.092
 3983SOL    HW112848   3.325   0.735   4.015
 3983SOL    HW212849   3.310   0.630   4.139
 3984SOL     OW12850   1.755   5.662   2.207
 3984SOL    HW112851   1.809   5.579   2.221
 3984SOL    HW212852   1.735   5.703   2.296
 3985SOL     OW12853   1.975   2.506   1.355
 3985SOL    HW112854   1.991   2.458   1.269
 3985SOL    HW212855   2.060   2.512   1.407
 3986SOL     OW12856   7.018   2.415   2.488
 3986SOL    HW112857   0.094   2.413   2.456
 3986SOL    HW212858   7.008   2.353   2.566
 3987SOL     OW12859   1.189   4.344   5.045
 3987SOL    HW112860   1.254   4.400   4.993
 3987SOL    HW212861   1.182   4.380   5.138
 3988SOL     OW12862   4.990   6.834   2.146
 3988SOL    HW112863   4.930   6.754   2.144
 3988SOL    HW212864   5.006   6.861   2.241
 3989SOL     OW12865   4.259   1.297   5.793
 3989SOL    HW112866   4.202   1.269   5.716
 3989SOL    HW212867   4.322   1.224   5.816
 3990SOL     OW12868   6.067   1.163   3.966
 3990SOL    HW112869   6.017   1.148   4.052
 3990SOL    HW212870   6.130   1.240   3.977
 3991SOL     OW12871   0.159   1.892   3.467
 3991SOL    HW112872   0.205   1.916   3.553
 3991SOL    HW212873   0.060   1.889   3.482
 3992SOL     OW12874   5.445   3.871   6.497
 3992SOL    HW112875   5.470   3.781   6.461
 3992SOL    HW212876   5.448   3.869   6.597
 3993SOL     OW12877   1.385   0.582   3.779
 3993SOL    HW112878   1.341   0.646   3.716
 3993SOL    HW212879   1.458   0.629   3.830
 3994SOL     OW12880   3.309   2.057   3.342
 3994SOL    HW112881   3.383   2.000   3.306
 3994SOL    HW212882   3.279   2.121   3.271
 3995SOL     OW12883   1.487   3.547   2.604
 3995SOL    HW112884   1.527   3.462   2.569
 3995SOL    HW212885   1.387   3.541   2.600
 3996SOL     OW12886   6.346   6.456   4.736
 3996SOL    HW112887   6.358   6.398   4.817
 3996SOL    HW212888   6.316   6.546   4.765
 3997SOL     OW12889   5.634   3.886   4.353
 3997SOL    HW112890   5.599   3.978   4.339
 3997SOL    HW212891   5.597   3.849   4.439
 3998SOL     OW12892   5.226   2.134   3.723
 3998SOL    HW112893   5.128   2.115   3.718
 3998SOL    HW212894   5.241   2.233   3.713
 3999SOL     OW12895   4.896   2.809   0.786
 3999SOL    HW112896   4.799   2.787   0.783
 3999SOL    HW212897   4.921   2.838   0.878
 4000SOL     OW12898   2.307   4.841   3.266
 4000SOL    HW112899   2.219   4.833   3.219
 4000SOL    HW212900   2.329   4.938   3.281
 4001SOL     OW12901   0.595   6.176   4.389
 4001SOL    HW112902   0.567   6.083   4.413
 4001SOL    HW212903   0.665   6.207   4.454
 4002SOL     OW12904   3.909   3.808   4.874
 4002SOL    HW112905   3.917   3.892   4.818
 4002SOL    HW212906   3.876   3.734   4.816
 4003SOL     OW12907   2.593   0.909   4.830
 4003SOL    HW112908   2.630   0.894   4.922
 4003SOL    HW212909   2.665   0.948   4.772
 4004SOL     OW12910   2.024   4.162   4.676
 4004SOL    HW112911   2.070   4.110   4.748
 4004SOL    HW212912   2.011   4.256   4.706
 4005SOL     OW12913   4.915   2.650   0.587
 4005SOL    HW112914   4.927   2.716   0.660
 4005SOL    HW212915   4.862   2.691   0.513
 4006SOL     OW12916   6.858   5.414   2.017
 4006SOL    HW112917   6.957   5.427   2.020
 4006SOL    HW212918   6.838   5.318   1.996
 4007SOL     OW12919   0.862   1.308   2.083
 4007SOL    HW112920   0.836   1.390   2.032
 4007SOL    HW212921   0.903   1.335   2.170
 4008SOL     OW12922   3.590   0.938   1.126
 4008SOL    HW112923   3.654   0.957   1.200
 4008SOL    HW212924   3.504   0.986   1.144
 4009SOL     OW12925   3.714   2.303   0.979
 4009SOL    HW112926   3.766   2.218   0.965
 4009SOL    HW212927   3.660   2.296   1.063
 4010SOL     OW12928   1.713   4.585   1.348
 4010SOL    HW112929   1.747   4.673   1.315
 4010SOL    HW212930   1.701   4.589   1.447
 4011SOL     OW12931   6.116   7.014   5.962
 4011SOL    HW112932   6.019   6.995   5.947
 4011SOL    HW212933   6.168   6.990   5.880
 4012SOL     OW12934   5.933   5.375   2.161
 4012SOL    HW112935   5.851   5.414   2.118
 4012SOL    HW212936   5.908   5.330   2.247
 4013SOL     OW12937   6.778   1.720   6.882
 4013SOL    HW112938   6.709   1.738   6.952
 4013SOL    HW212939   6.809   1.625   6.889
 4014SOL     OW12940   3.663   5.811   2.645
 4014SOL    HW112941   3.630   5.724   2.608
 4014SOL    HW212942   3.639   5.818   2.742
 4015SOL     OW12943   4.514   5.640   6.124
 4015SOL    HW112944   4.555   5.604   6.040
 4015SOL    HW212945   4.463   5.723   6.102
 4016SOL     OW12946   5.102   5.077   4.638
 4016SOL    HW112947   5.132   4.982   4.634
 4016SOL    HW212948   5.176   5.134   4.673
 4017SOL     OW12949   1.712   6.158   5.678
 4017SOL    HW112950   1.654   6.091   5.631
 4017SOL    HW212951   1.806   6.123   5.681
 4018SOL     OW12952   4.302   5.464   0.968
 4018SOL    HW112953   4.366   5.532   1.003
 4018SOL    HW212954   4.248   5.504   0.894
 4019SOL     OW12955   6.818   3.472   2.149
 4019SOL    HW112956   6.733   3.437   2.189
 4019SOL    HW212957   6.842   3.417   2.069
 4020SOL     OW12958   6.808   5.720   4.327
 4020SOL    HW112959   6.788   5.700   4.423
 4020SOL    HW212960   6.751   5.797   4.296
 4021SOL     OW12961   4.520   4.862   6.465
 4021SOL    HW112962   4.531   4.786   6.530
 4021SOL    HW212963   4.578   4.938   6.494
 4022SOL     OW12964   3.230   6.387   1.220
 4022SOL    HW112965   3.147   6.412   1.169
 4022SOL    HW212966   3.251   6.291   1.204
 4023SOL     OW12967   0.637   1.924   4.506
 4023SOL    HW112968   0.574   1.885   4.438
 4023SOL    HW212969   0.642   1.862   4.585
 4024SOL     OW12970   0.135   6.370   5.499
 4024SOL    HW112971   0.136   6.446   5.434
 4024SOL    HW212972   0.208   6.306   5.477
 4025SOL     OW12973   0.047   4.841   3.998
 4025SOL    HW112974   0.031   4.751   3.958
 4025SOL    HW212975   0.144   4.865   3.988
 4026SOL     OW12976   0.306   6.506   3.959
 4026SOL    HW112977   0.339   6.600   3.963
 4026SOL    HW212978   0.367   6.452   3.901
 4027SOL     OW12979   3.811   5.050   5.052
 4027SOL    HW112980   3.877   4.975   5.046
 4027SOL    HW212981   3.718   5.012   5.054
 4028SOL     OW12982   5.211   1.453   4.062
 4028SOL    HW112983   5.158   1.445   3.977
 4028SOL    HW212984   5.227   1.549   4.083
 4029SOL     OW12985   1.221   6.790   0.939
 4029SOL    HW112986   1.237   6.877   0.893
 4029SOL    HW212987   1.124   6.781   0.961
 4030SOL     OW12988   0.508   1.678   1.990
 4030SOL    HW112989   0.598   1.719   1.974
 4030SOL    HW212990   0.442   1.717   1.927
 4031SOL     OW12991   5.618   5.904   0.386
 4031SOL    HW112992   5.614   5.987   0.330
 4031SOL    HW212993   5.541   5.844   0.362
 4032SOL     OW12994   5.235   1.183   2.827
 4032SOL    HW112995   5.291   1.265   2.844
 4032SOL    HW212996   5.295   1.105   2.809
 4033SOL     OW12997   2.168   3.051   2.862
 4033SOL    HW112998   2.092   3.016   2.808
 4033SOL    HW212999   2.252   3.050   2.807
 4034SOL     OW13000   1.665   2.404   5.076
 4034SOL    HW113001   1.760   2.427   5.051
 4034SOL    HW213002   1.605   2.428   5.000
 4035SOL     OW13003   4.570   2.134   2.009
 4035SOL    HW113004   4.511   2.203   2.050
 4035SOL    HW213005   4.531   2.043   2.027
 4036SOL     OW13006   3.347   5.970   3.434
 4036SOL    HW113007   3.433   6.012   3.406
 4036SOL    HW213008   3.272   6.034   3.417
 4037SOL     OW13009   1.820   2.032   6.409
 4037SOL    HW113010   1.894   1.972   6.439
 4037SOL    HW213011   1.788   2.088   6.487
 4038SOL     OW13012   3.194   4.693   5.892
 4038SOL    HW113013   3.254   4.644   5.829
 4038SOL    HW213014   3.242   4.772   5.930
 4039SOL     OW13015   5.961   4.749   1.510
 4039SOL    HW113016   6.015   4.725   1.429
 4039SOL    HW213017   5.948   4.668   1.566
 4040SOL     OW13018   3.379   0.548   4.989
 4040SOL    HW113019   3.435   0.619   5.031
 4040SOL    HW213020   3.411   0.458   5.020
 4041SOL     OW13021   1.516   5.427   2.044
 4041SOL    HW113022   1.563   5.429   2.132
 4041SOL    HW213023   1.418   5.435   2.059
 4042SOL     OW13024   0.054   1.697   3.144
 4042SOL    HW113025   0.043   1.718   3.047
 4042SOL    HW213026   7.011   1.754   3.198
 4043SOL     OW13027   4.912   2.617   6.205
 4043SOL    HW113028   4.884   2.696   6.260
 4043SOL    HW213029   4.842   2.545   6.213
 4044SOL     OW13030   4.727   4.238   3.081
 4044SOL    HW113031   4.756   4.198   3.168
 4044SOL    HW213032   4.787   4.204   3.008
 4045SOL     OW13033   4.486   1.592   5.356
 4045SOL    HW113034   4.471   1.569   5.260
 4045SOL    HW213035   4.481   1.509   5.411
 4046SOL     OW13036   5.507   1.796   4.053
 4046SOL    HW113037   5.587   1.811   4.111
 4046SOL    HW213038   5.486   1.880   4.003
 4047SOL     OW13039   3.353   2.438   6.666
 4047SOL    HW113040   3.339   2.514   6.730
 4047SOL    HW213041   3.315   2.462   6.577
 4048SOL     OW13042   5.028   1.842   2.632
 4048SOL    HW113043   5.115   1.878   2.664
 4048SOL    HW213044   4.971   1.818   2.710
 4049SOL     OW13045   4.093   3.947   0.981
 4049SOL    HW113046   4.103   3.859   1.026
 4049SOL    HW213047   4.055   3.934   0.889
 4050SOL     OW13048   0.126   4.862   2.524
 4050SOL    HW113049   0.052   4.921   2.557
 4050SOL    HW213050   0.135   4.873   2.425
 4051SOL     OW13051   5.343   0.625   5.050
 4051SOL    HW113052   5.352   0.537   5.097
 4051SOL    HW213053   5.372   0.698   5.111
 4052SOL     OW13054   5.395   2.016   3.930
 4052SOL    HW113055   5.299   2.006   3.955
 4052SOL    HW213056   5.406   2.096   3.871
 4053SOL     OW13057   0.821   4.811   3.940
 4053SOL    HW113058   0.920   4.826   3.940
 4053SOL    HW213059   0.801   4.717   3.912
 4054SOL     OW13060   4.464   3.954   1.266
 4054SOL    HW113061   4.401   3.982   1.338
 4054SOL    HW213062   4.553   3.932   1.305
 4055SOL     OW13063   0.105   4.506   0.339
 4055SOL    HW113064   0.124   4.420   0.293
 4055SOL    HW213065   0.092   4.489   0.437
 4056SOL     OW13066   5.324   3.216   6.800
 4056SOL    HW113067   5.389   3.144   6.823
 4056SOL    HW213068   5.308   3.216   6.701
 4057SOL     OW13069   0.149   3.951   0.162
 4057SOL    HW113070   0.137   3.933   0.260
 4057SOL    HW213071   0.079   3.903   0.110
 4058SOL     OW13072   3.120   0.340   4.648
 4058SOL    HW113073   3.082   0.418   4.597
 4058SOL    HW213074   3.211   0.364   4.681
 4059SOL     OW13075   0.695   1.602   3.718
 4059SOL    HW113076   0.762   1.559   3.777
 4059SOL    HW213077   0.613   1.544   3.713
 4060SOL     OW13078   0.079   5.970   4.478
 4060SOL    HW113079   0.128   6.055   4.501
 4060SOL    HW213080   7.001   5.986   4.483
 4061SOL     OW13081   0.941   4.927   1.541
 4061SOL    HW113082   0.963   4.835   1.572
 4061SOL    HW213083   0.992   4.994   1.596
 4062SOL     OW13084   1.629   3.757   0.883
 4062SOL    HW113085   1.592   3.846   0.909
 4062SOL    HW213086   1.724   3.751   0.912
 4063SOL     OW13087   3.816   0.408   0.843
 4063SOL    HW113088   3.852   0.361   0.762
 4063SOL    HW213089   3.729   0.367   0.870
 4064SOL     OW13090   1.874   0.936   5.791
 4064SOL    HW113091   1.779   0.958   5.772
 4064SOL    HW213092   1.881   0.840   5.817
 4065SOL     OW13093   2.048   0.626   1.145
 4065SOL    HW113094   2.056   0.592   1.051
 4065SOL    HW213095   2.056   0.549   1.208
 4066SOL     OW13096   0.578   3.698   3.864
 4066SOL    HW113097   0.650   3.652   3.917
 4066SOL    HW213098   0.522   3.629   3.819
 4067SOL     OW13099   5.696   5.067   0.642
 4067SOL    HW113100   5.606   5.051   0.603
 4067SOL    HW213101   5.765   5.068   0.569
 4068SOL     OW13102   2.357   2.724   4.973
 4068SOL    HW113103   2.378   2.813   5.013
 4068SOL    HW213104   2.359   2.654   5.044
 4069SOL     OW13105   4.753   6.027   6.359
 4069SOL    HW113106   4.831   5.982   6.401
 4069SOL    HW213107   4.771   6.125   6.351
 4070SOL     OW13108   1.445   3.717   4.385
 4070SOL    HW113109   1.418   3.754   4.296
 4070SOL    HW213110   1.508   3.640   4.371
 4071SOL     OW13111   1.532   1.003   5.055
 4071SOL    HW113112   1.558   0.920   5.007
 4071SOL    HW213113   1.552   1.083   4.997
 4072SOL     OW13114   3.003   6.217   2.584
 4072SOL    HW113115   2.906   6.236   2.601
 4072SOL    HW213116   3.030   6.135   2.634
 4073SOL     OW13117   4.155   5.016   6.713
 4073SOL    HW113118   4.185   4.979   6.624
 4073SOL    HW213119   4.185   5.111   6.721
 4074SOL     OW13120   2.135   5.680   2.894
 4074SOL    HW113121   2.154   5.617   2.819
 4074SOL    HW213122   2.177   5.645   2.978
 4075SOL     OW13123   6.065   0.785   0.177
 4075SOL    HW113124   6.119   0.723   0.120
 4075SOL    HW213125   5.968   0.762   0.170
 4076SOL     OW13126   2.070   5.580   3.963
 4076SOL    HW113127   1.981   5.605   4.002
 4076SOL    HW213128   2.140   5.584   4.035
 4077SOL     OW13129   3.073   0.624   1.813
 4077SOL    HW113130   3.001   0.693   1.808
 4077SOL    HW213131   3.086   0.596   1.909
 4078SOL     OW13132   3.485   4.947   2.175
 4078SOL    HW113133   3.480   5.038   2.134
 4078SOL    HW213134   3.521   4.883   2.108
 4079SOL     OW13135   7.013   2.257   3.662
 4079SOL    HW113136   7.008   2.164   3.698
 4079SOL    HW213137   0.044   2.256   3.576
 4080SOL     OW13138   6.795   2.082   5.274
 4080SOL    HW113139   6.859   2.006   5.269
 4080SOL    HW213140   6.840   2.166   5.245
 4081SOL     OW13141   0.612   3.273   3.707
 4081SOL    HW113142   0.552   3.251   3.784
 4081SOL    HW213143   0.557   3.290   3.625
 4082SOL     OW13144   0.452   3.974   0.530
 4082SOL    HW113145   0.456   4.072   0.553
 4082SOL    HW213146   0.495   3.921   0.603
 4083SOL     OW13147   6.733   2.791   5.078
 4083SOL    HW113148   6.781   2.720   5.026
 4083SOL    HW213149   6.720   2.872   5.022
 4084SOL     OW13150   6.420   1.223   4.275
 4084SOL    HW113151   6.423   1.132   4.234
 4084SOL    HW213152   6.511   1.247   4.308
 4085SOL     OW13153   2.608   6.425   0.677
 4085SOL    HW113154   2.696   6.470   0.686
 4085SOL    HW213155   2.618   6.345   0.618
 4086SOL     OW13156   0.997   4.191   0.985
 4086SOL    HW113157   1.078   4.245   1.006
 4086SOL    HW213158   1.002   4.159   0.890
 4087SOL     OW13159   2.286   1.780   2.692
 4087SOL    HW113160   2.339   1.717   2.636
 4087SOL    HW213161   2.343   1.858   2.719
 4088SOL     OW13162   6.500   1.618   0.468
 4088SOL    HW113163   6.422   1.662   0.422
 4088SOL    HW213164   6.466   1.544   0.525
 4089SOL     OW13165   1.170   1.380   5.396
 4089SOL    HW113166   1.143   1.289   5.426
 4089SOL    HW213167   1.174   1.383   5.297
 4090SOL     OW13168   2.324   4.818   6.072
 4090SOL    HW113169   2.353   4.909   6.101
 4090SOL    HW213170   2.390   4.782   6.006
 4091SOL     OW13171   3.912   6.991   0.790
 4091SOL    HW113172   3.870   6.916   0.739
 4091SOL    HW213173   3.876   0.059   0.758
 4092SOL     OW13174   6.937   1.781   4.655
 4092SOL    HW113175   6.853   1.750   4.700
 4092SOL    HW213176   6.914   1.852   4.589
 4093SOL     OW13177   5.641   6.851   4.619
 4093SOL    HW113178   5.637   6.915   4.543
 4093SOL    HW213179   5.732   6.852   4.660
 4094SOL     OW13180   3.139   4.399   5.320
 4094SOL    HW113181   3.066   4.443   5.269
 4094SOL    HW213182   3.180   4.327   5.264
 4095SOL     OW13183   1.852   3.415   5.624
 4095SOL    HW113184   1.866   3.316   5.627
 4095SOL    HW213185   1.936   3.461   5.655
 4096SOL     OW13186   4.447   4.609   2.304
 4096SOL    HW113187   4.347   4.606   2.292
 4096SOL    HW213188   4.491   4.588   2.216
 4097SOL     OW13189   3.016   3.872   3.772
 4097SOL    HW113190   3.072   3.932   3.715
 4097SOL    HW213191   3.005   3.912   3.863
 4098SOL     OW13192   0.546   3.186   2.650
 4098SOL    HW113193   0.549   3.124   2.572
 4098SOL    HW213194   0.461   3.171   2.701
 4099SOL     OW13195   2.684   6.364   1.645
 4099SOL    HW113196   2.746   6.310   1.703
 4099SOL    HW213197   2.699   6.341   1.549
 4100SOL     OW13198   3.823   6.212   3.245
 4100SOL    HW113199   3.896   6.215   3.314
 4100SOL    HW213200   3.847   6.144   3.175
 4101SOL     OW13201   4.506   1.131   6.722
 4101SOL    HW113202   4.482   1.098   6.631
 4101SOL    HW213203   4.575   1.203   6.714
 4102SOL     OW13204   5.190   1.013   0.411
 4102SOL    HW113205   5.241   1.094   0.383
 4102SOL    HW213206   5.188   0.946   0.336
 4103SOL     OW13207   0.266   0.294   2.119
 4103SOL    HW113208   0.278   0.231   2.042
 4103SOL    HW213209   0.340   0.361   2.118
 4104SOL     OW13210   1.886   4.799   2.643
 4104SOL    HW113211   1.832   4.741   2.704
 4104SOL    HW213212   1.981   4.768   2.645
 4105SOL     OW13213   5.480   5.056   0.486
 4105SOL    HW113214   5.380   5.044   0.493
 4105SOL    HW213215   5.502   5.096   0.397
 4106SOL     OW13216   0.113   3.695   5.007
 4106SOL    HW113217   0.114   3.595   4.997
 4106SOL    HW213218   0.187   3.724   5.068
 4107SOL     OW13219   6.540   0.604   0.714
 4107SOL    HW113220   6.604   0.670   0.674
 4107SOL    HW213221   6.454   0.650   0.737
 4108SOL     OW13222   6.950   2.810   5.278
 4108SOL    HW113223   6.897   2.816   5.193
 4108SOL    HW213224   7.006   2.892   5.289
 4109SOL     OW13225   3.069   6.557   3.544
 4109SOL    HW113226   2.977   6.596   3.555
 4109SOL    HW213227   3.137   6.630   3.553
 4110SOL     OW13228   4.294   3.453   5.517
 4110SOL    HW113229   4.305   3.445   5.418
 4110SOL    HW213230   4.380   3.484   5.557
 4111SOL     OW13231   4.254   3.632   6.587
 4111SOL    HW113232   4.265   3.720   6.541
 4111SOL    HW213233   4.328   3.571   6.559
 4112SOL     OW13234   3.839   0.763   4.564
 4112SOL    HW113235   3.800   0.831   4.627
 4112SOL    HW213236   3.806   0.780   4.471
 4113SOL     OW13237   4.073   5.578   4.739
 4113SOL    HW113238   4.128   5.567   4.657
 4113SOL    HW213239   4.068   5.491   4.788
 4114SOL     OW13240   3.590   2.071   2.564
 4114SOL    HW113241   3.515   2.074   2.630
 4114SOL    HW213242   3.552   2.067   2.471
 4115SOL     OW13243   5.527   4.585   2.501
 4115SOL    HW113244   5.576   4.515   2.554
 4115SOL    HW213245   5.582   4.668   2.497
 4116SOL     OW13246   3.616   1.008   2.714
 4116SOL    HW113247   3.518   1.028   2.717
 4116SOL    HW213248   3.666   1.084   2.756
 4117SOL     OW13249   0.593   5.666   1.923
 4117SOL    HW113250   0.691   5.648   1.914
 4117SOL    HW213251   0.549   5.654   1.834
 4118SOL     OW13252   2.573   6.843   0.525
 4118SOL    HW113253   2.505   6.848   0.598
 4118SOL    HW213254   2.534   6.879   0.440
 4119SOL     OW13255   4.627   0.942   3.211
 4119SOL    HW113256   4.652   1.026   3.162
 4119SOL    HW213257   4.637   0.864   3.150
 4120SOL     OW13258   3.940   0.907   2.249
 4120SOL    HW113259   3.842   0.927   2.237
 4120SOL    HW213260   3.982   0.982   2.300
 4121SOL     OW13261   6.906   2.618   4.960
 4121SOL    HW113262   6.916   2.560   5.041
 4121SOL    HW213263   6.975   2.690   4.962
 4122SOL     OW13264   1.697   5.693   6.702
 4122SOL    HW113265   1.628   5.656   6.640
 4122SOL    HW213266   1.750   5.764   6.654
 4123SOL     OW13267   4.736   4.384   6.116
 4123SOL    HW113268   4.805   4.430   6.171
 4123SOL    HW213269   4.660   4.446   6.097
 4124SOL     OW13270   5.024   6.549   3.738
 4124SOL    HW113271   5.056   6.543   3.832
 4124SOL    HW213272   4.984   6.640   3.722
 4125SOL     OW13273   5.220   0.793   0.882
 4125SOL    HW113274   5.184   0.880   0.914
 4125SOL    HW213275   5.217   0.790   0.782
 4126SOL     OW13276   2.053   5.125   4.488
 4126SOL    HW113277   2.129   5.071   4.453
 4126SOL    HW213278   2.087   5.211   4.526
 4127SOL     OW13279   6.141   3.956   5.170
 4127SOL    HW113280   6.156   3.933   5.074
 4127SOL    HW213281   6.199   4.034   5.194
 4128SOL     OW13282   0.736   2.038   1.985
 4128SOL    HW113283   0.767   2.099   1.912
 4128SOL    HW213284   0.636   2.041   1.991
 4129SOL     OW13285   5.747   2.211   6.460
 4129SOL    HW113286   5.654   2.232   6.432
 4129SOL    HW213287   5.810   2.272   6.412
 4130SOL     OW13288   6.034   3.186   1.328
 4130SOL    HW113289   6.061   3.174   1.232
 4130SOL    HW213290   6.012   3.282   1.345
 4131SOL     OW13291   6.990   4.047   3.274
 4131SOL    HW113292   0.035   3.970   3.274
 4131SOL    HW213293   6.898   4.013   3.291
 4132SOL     OW13294   4.833   2.250   4.530
 4132SOL    HW113295   4.796   2.286   4.616
 4132SOL    HW213296   4.873   2.160   4.546
 4133SOL     OW13297   2.789   2.316   1.283
 4133SOL    HW113298   2.816   2.386   1.349
 4133SOL    HW213299   2.831   2.229   1.307
 4134SOL     OW13300   1.488   1.825   6.877
 4134SOL    HW113301   1.523   1.780   6.959
 4134SOL    HW213302   1.411   1.884   6.901
 4135SOL     OW13303   1.321   0.853   0.978
 4135SOL    HW113304   1.235   0.826   1.021
 4135SOL    HW213305   1.301   0.908   0.896
 4136SOL     OW13306   1.006   1.671   3.361
 4136SOL    HW113307   1.041   1.577   3.366
 4136SOL    HW213308   1.079   1.732   3.329
 4137SOL     OW13309   3.984   3.793   5.547
 4137SOL    HW113310   3.971   3.891   5.533
 4137SOL    HW213311   3.940   3.742   5.472
 4138SOL     OW13312   4.139   5.669   2.583
 4138SOL    HW113313   4.155   5.710   2.673
 4138SOL    HW213314   4.102   5.577   2.595
 4139SOL     OW13315   2.419   0.925   0.062
 4139SOL    HW113316   2.360   0.948   7.005
 4139SOL    HW213317   2.497   0.871   0.029
 4140SOL     OW13318   4.423   1.993   5.192
 4140SOL    HW113319   4.481   2.070   5.166
 4140SOL    HW213320   4.479   1.911   5.201
 4141SOL     OW13321   5.352   5.346   0.526
 4141SOL    HW113322   5.337   5.274   0.595
 4141SOL    HW213323   5.375   5.304   0.439
 4142SOL     OW13324   6.675   2.428   1.294
 4142SOL    HW113325   6.717   2.412   1.205
 4142SOL    HW213326   6.582   2.461   1.282
 4143SOL     OW13327   0.474   2.633   1.693
 4143SOL    HW113328   0.438   2.722   1.722
 4143SOL    HW213329   0.547   2.647   1.627
 4144SOL     OW13330   4.812   0.518   1.967
 4144SOL    HW113331   4.842   0.423   1.963
 4144SOL    HW213332   4.714   0.522   1.987
 4145SOL     OW13333   3.598   6.968   2.865
 4145SOL    HW113334   3.639   6.930   2.782
 4145SOL    HW213335   3.500   6.951   2.864
 4146SOL     OW13336   4.855   5.649   0.213
 4146SOL    HW113337   4.793   5.571   0.220
 4146SOL    HW213338   4.949   5.617   0.200
 4147SOL     OW13339   2.744   2.481   5.651
 4147SOL    HW113340   2.756   2.506   5.555
 4147SOL    HW213341   2.690   2.551   5.698
 4148SOL     OW13342   6.118   0.440   3.029
 4148SOL    HW113343   6.080   0.470   2.941
 4148SOL    HW213344   6.124   0.340   3.030
 4149SOL     OW13345   5.105   4.635   1.337
 4149SOL    HW113346   5.122   4.590   1.425
 4149SOL    HW213347   5.158   4.720   1.333
 4150SOL     OW13348   4.948   0.460   5.721
 4150SOL    HW113349   4.926   0.398   5.797
 4150SOL    HW213350   4.867   0.470   5.662
 4151SOL     OW13351   0.557   5.481   0.404
 4151SOL    HW113352   0.502   5.415   0.455
 4151SOL    HW213353   0.525   5.486   0.310
 4152SOL     OW13354   3.708   4.313   1.460
 4152SOL    HW113355   3.633   4.316   1.527
 4152SOL    HW213356   3.761   4.229   1.473
 4153SOL     OW13357   5.958   5.632   5.860
 4153SOL    HW113358   6.036   5.601   5.913
 4153SOL    HW213359   5.935   5.563   5.791
 4154SOL     OW13360   4.718   2.491   5.681
 4154SOL    HW113361   4.687   2.535   5.597
 4154SOL    HW213362   4.676   2.537   5.760
 4155SOL     OW13363   1.480   3.217   0.910
 4155SOL    HW113364   1.548   3.285   0.882
 4155SOL    HW213365   1.445   3.241   1.001
 4156SOL     OW13366   6.174   0.151   5.333
 4156SOL    HW113367   6.137   0.065   5.297
 4156SOL    HW213368   6.125   0.227   5.291
 4157SOL     OW13369   3.221   1.063   4.155
 4157SOL    HW113370   3.265   1.034   4.070
 4157SOL    HW213371   3.281   1.041   4.232
 4158SOL     OW13372   0.765   0.360   4.022
 4158SOL    HW113373   0.748   0.379   4.118
 4158SOL    HW213374   0.681   0.375   3.969
 4159SOL     OW13375   0.698   3.578   5.271
 4159SOL    HW113376   0.798   3.581   5.273
 4159SOL    HW213377   0.666   3.583   5.176
 4160SOL     OW13378   1.310   1.030   0.780
 4160SOL    HW113379   1.378   0.963   0.752
 4160SOL    HW213380   1.327   1.117   0.733
 4161SOL     OW13381   6.326   1.799   0.390
 4161SOL    HW113382   6.271   1.814   0.472
 4161SOL    HW213383   6.397   1.868   0.383
 4162SOL     OW13384   0.173   6.617   4.785
 4162SOL    HW113385   0.091   6.632   4.839
 4162SOL    HW213386   0.230   6.547   4.829
 4163SOL     OW13387   6.266   0.832   4.608
 4163SOL    HW113388   6.350   0.779   4.619
 4163SOL    HW213389   6.228   0.854   4.698
 4164SOL     OW13390   2.626   6.913   6.310
 4164SOL    HW113391   2.565   6.967   6.368
 4164SOL    HW213392   2.657   6.968   6.233
 4165SOL     OW13393   2.804   5.836   2.594
 4165SOL    HW113394   2.842   5.824   2.502
 4165SOL    HW213395   2.748   5.757   2.617
 4166SOL     OW13396   6.003   2.441   1.114
 4166SOL    HW113397   5.914   2.441   1.068
 4166SOL    HW213398   6.050   2.528   1.094
 4167SOL     OW13399   2.206   2.902   1.276
 4167SOL    HW113400   2.136   2.838   1.243
 4167SOL    HW213401   2.171   2.951   1.355
 4168SOL     OW13402   1.468   4.485   0.983
 4168SOL    HW113403   1.508   4.462   0.894
 4168SOL    HW213404   1.541   4.490   1.052
 4169SOL     OW13405   6.180   3.652   4.807
 4169SOL    HW113406   6.255   3.716   4.820
 4169SOL    HW213407   6.193   3.573   4.868
 4170SOL     OW13408   4.170   2.043   5.160
 4170SOL    HW113409   4.111   1.966   5.185
 4170SOL    HW213410   4.265   2.013   5.156
 4171SOL     OW13411   5.473   3.503   1.321
 4171SOL    HW113412   5.416   3.520   1.240
 4171SOL    HW213413   5.448   3.416   1.362
 4172SOL     OW13414   2.720   1.170   6.853
 4172SOL    HW113415   2.675   1.200   6.769
 4172SOL    HW213416   2.803   1.223   6.868
 4173SOL     OW13417   5.454   3.669   6.024
 4173SOL    HW113418   5.407   3.730   6.088
 4173SOL    HW213419   5.481   3.721   5.943
 4174SOL     OW13420   5.116   0.850   4.333
 4174SOL    HW113421   5.205   0.813   4.358
 4174SOL    HW213422   5.114   0.870   4.235
 4175SOL     OW13423   3.309   1.826   3.542
 4175SOL    HW113424   3.237   1.841   3.610
 4175SOL    HW213425   3.387   1.885   3.563
 4176SOL     OW13426   6.015   5.245   3.091
 4176SOL    HW113427   5.957   5.166   3.070
 4176SOL    HW213428   6.077   5.221   3.165
 4177SOL     OW13429   6.499   4.888   3.126
 4177SOL    HW113430   6.445   4.804   3.128
 4177SOL    HW213431   6.447   4.960   3.080
 4178SOL     OW13432   3.877   3.139   6.058
 4178SOL    HW113433   3.920   3.063   6.009
 4178SOL    HW213434   3.918   3.149   6.148
 4179SOL     OW13435   6.555   2.634   6.620
 4179SOL    HW113436   6.649   2.658   6.598
 4179SOL    HW213437   6.492   2.699   6.578
 4180SOL     OW13438   4.454   3.637   1.664
 4180SOL    HW113439   4.496   3.726   1.680
 4180SOL    HW213440   4.354   3.646   1.671
 4181SOL     OW13441   6.508   0.961   0.543
 4181SOL    HW113442   6.465   1.029   0.603
 4181SOL    HW213443   6.599   0.939   0.578
 4182SOL     OW13444   5.187   1.234   3.776
 4182SOL    HW113445   5.114   1.281   3.825
 4182SOL    HW213446   5.275   1.260   3.815
 4183SOL     OW13447   2.174   1.725   1.318
 4183SOL    HW113448   2.235   1.710   1.396
 4183SOL    HW213449   2.208   1.800   1.262
 4184SOL     OW13450   4.353   5.094   0.038
 4184SOL    HW113451   4.328   5.189   0.016
 4184SOL    HW213452   4.394   5.052   6.976
 4185SOL     OW13453   6.916   6.646   4.123
 4185SOL    HW113454   6.858   6.613   4.049
 4185SOL    HW213455   6.997   6.588   4.131
 4186SOL     OW13456   3.629   4.282   1.764
 4186SOL    HW113457   3.600   4.377   1.750
 4186SOL    HW213458   3.570   4.240   1.833
 4187SOL     OW13459   4.258   4.871   6.475
 4187SOL    HW113460   4.355   4.895   6.469
 4187SOL    HW213461   4.249   4.773   6.491
 4188SOL     OW13462   5.442   6.157   4.490
 4188SOL    HW113463   5.419   6.147   4.394
 4188SOL    HW213464   5.421   6.250   4.520
 4189SOL     OW13465   1.833   3.520   3.372
 4189SOL    HW113466   1.862   3.594   3.433
 4189SOL    HW213467   1.882   3.528   3.285
 4190SOL     OW13468   2.545   0.151   1.539
 4190SOL    HW113469   2.556   0.233   1.482
 4190SOL    HW213470   2.584   0.168   1.630
 4191SOL     OW13471   0.874   2.734   2.159
 4191SOL    HW113472   0.858   2.740   2.258
 4191SOL    HW213473   0.869   2.825   2.118
 4192SOL     OW13474   6.213   0.795   2.820
 4192SOL    HW113475   6.113   0.788   2.819
 4192SOL    HW213476   6.246   0.794   2.914
 4193SOL     OW13477   2.201   6.662   2.410
 4193SOL    HW113478   2.111   6.619   2.399
 4193SOL    HW213479   2.203   6.749   2.360
 4194SOL     OW13480   6.195   1.043   3.664
 4194SOL    HW113481   6.238   1.073   3.749
 4194SOL    HW213482   6.142   0.960   3.682
 4195SOL     OW13483   5.575   1.064   3.203
 4195SOL    HW113484   5.486   1.106   3.183
 4195SOL    HW213485   5.600   1.082   3.298
 4196SOL     OW13486   4.496   2.362   3.607
 4196SOL    HW113487   4.498   2.456   3.641
 4196SOL    HW213488   4.405   2.342   3.571
 4197SOL     OW13489   5.003   4.075   4.734
 4197SOL    HW113490   4.932   4.009   4.709
 4197SOL    HW213491   5.068   4.084   4.659
 4198SOL     OW13492   5.826   4.033   6.141
 4198SOL    HW113493   5.907   4.047   6.198
 4198SOL    HW213494   5.853   3.997   6.052
 4199SOL     OW13495   3.342   3.899   5.294
 4199SOL    HW113496   3.271   3.829   5.289
 4199SOL    HW213497   3.302   3.986   5.322
 4200SOL     OW13498   2.613   0.295   6.101
 4200SOL    HW113499   2.618   0.230   6.177
 4200SOL    HW213500   2.519   0.302   6.069
 4201SOL     OW13501   5.899   6.972   4.656
 4201SOL    HW113502   5.965   6.921   4.710
 4201SOL    HW213503   5.945   7.015   4.578
 4202SOL     OW13504   5.339   3.604   5.206
 4202SOL    HW113505   5.262   3.640   5.154
 4202SOL    HW213506   5.425   3.630   5.161
 4203SOL     OW13507   4.636   5.287   3.826
 4203SOL    HW113508   4.616   5.380   3.857
 4203SOL    HW213509   4.735   5.278   3.810
 4204SOL     OW13510   1.889   4.381   0.848
 4204SOL    HW113511   1.978   4.346   0.878
 4204SOL    HW213512   1.873   4.471   0.890
 4205SOL     OW13513   2.781   6.134   3.311
 4205SOL    HW113514   2.824   6.224   3.301
 4205SOL    HW213515   2.835   6.065   3.263
 4206SOL     OW13516   5.600   6.254   4.138
 4206SOL    HW113517   5.560   6.341   4.165
 4206SOL    HW213518   5.619   6.255   4.040
 4207SOL     OW13519   0.813   0.732   0.576
 4207SOL    HW113520   0.796   0.654   0.636
 4207SOL    HW213521   0.838   0.699   0.485
 4208SOL     OW13522   1.193   2.650   0.836
 4208SOL    HW113523   1.098   2.675   0.852
 4208SOL    HW213524   1.225   2.693   0.752
 4209SOL     OW13525   3.181   0.817   4.804
 4209SOL    HW113526   3.190   0.820   4.904
 4209SOL    HW213527   3.197   0.909   4.767
 4210SOL     OW13528   4.687   2.590   0.124
 4210SOL    HW113529   4.743   2.512   0.097
 4210SOL    HW213530   4.626   2.562   0.198
 4211SOL     OW13531   5.302   3.635   4.111
 4211SOL    HW113532   5.267   3.567   4.176
 4211SOL    HW213533   5.348   3.589   4.036
 4212SOL     OW13534   6.450   6.255   2.357
 4212SOL    HW113535   6.437   6.323   2.285
 4212SOL    HW213536   6.537   6.271   2.403
 4213SOL     OW13537   0.729   6.836   1.376
 4213SOL    HW113538   0.666   6.914   1.384
 4213SOL    HW213539   0.677   6.751   1.379
 4214SOL     OW13540   3.124   4.993   5.034
 4214SOL    HW113541   3.099   4.924   5.101
 4214SOL    HW213542   3.172   5.068   5.079
 4215SOL     OW13543   0.969   5.994   5.379
 4215SOL    HW113544   0.873   5.986   5.403
 4215SOL    HW213545   1.003   6.084   5.405
 4216SOL     OW13546   2.751   3.153   5.314
 4216SOL    HW113547   2.661   3.144   5.273
 4216SOL    HW213548   2.822   3.150   5.243
 4217SOL     OW13549   6.817   1.031   3.658
 4217SOL    HW113550   6.722   1.006   3.640
 4217SOL    HW213551   6.836   1.121   3.618
 4218SOL     OW13552   3.485   6.331   2.218
 4218SOL    HW113553   3.552   6.283   2.162
 4218SOL    HW213554   3.520   6.342   2.311
 4219SOL     OW13555   5.156   0.037   3.083
 4219SOL    HW113556   5.063   0.061   3.108
 4219SOL    HW213557   5.197   7.001   3.155
 4220SOL     OW13558   0.746   4.018   3.327
 4220SOL    HW113559   0.789   4.086   3.268
 4220SOL    HW213560   0.782   4.025   3.420
 4221SOL     OW13561   5.609   6.049   5.572
 4221SOL    HW113562   5.531   6.096   5.533
 4221SOL    HW213563   5.578   5.982   5.639
 4222SOL     OW13564   3.034   3.063   6.917
 4222SOL    HW113565   2.997   3.148   6.879
 4222SOL    HW213566   2.961   2.996   6.924
 4223SOL     OW13567   2.948   3.817   2.784
 4223SOL    HW113568   2.873   3.842   2.723
 4223SOL    HW213569   3.035   3.826   2.735
 4224SOL     OW13570   3.902   2.199   5.764
 4224SOL    HW113571   3.905   2.228   5.669
 4224SOL    HW213572   3.910   2.278   5.824
 4225SOL     OW13573   5.277   0.633   4.539
 4225SOL    HW113574   5.322   0.676   4.617
 4225SOL    HW213575   5.298   0.535   4.538
 4226SOL     OW13576   1.414   1.458   3.242
 4226SOL    HW113577   1.368   1.472   3.155
 4226SOL    HW213578   1.486   1.389   3.232
 4227SOL     OW13579   5.443   3.818   6.770
 4227SOL    HW113580   5.379   3.874   6.821
 4227SOL    HW213581   5.510   3.778   6.832
 4228SOL     OW13582   5.351   5.411   3.340
 4228SOL    HW113583   5.281   5.357   3.294
 4228SOL    HW213584   5.441   5.370   3.322
 4229SOL     OW13585   4.419   4.836   5.399
 4229SOL    HW113586   4.386   4.742   5.414
 4229SOL    HW213587   4.342   4.895   5.378
 4230SOL     OW13588   3.212   0.603   5.287
 4230SOL    HW113589   3.152   0.666   5.336
 4230SOL    HW213590   3.168   0.514   5.279
 4231SOL     OW13591   3.833   6.654   6.082
 4231SOL    HW113592   3.907   6.703   6.128
 4231SOL    HW213593   3.834   6.675   5.985
 4232SOL     OW13594   2.365   4.295   1.407
 4232SOL    HW113595   2.310   4.314   1.487
 4232SOL    HW213596   2.445   4.355   1.406
 4233SOL     OW13597   5.453   6.387   1.061
 4233SOL    HW113598   5.395   6.467   1.046
 4233SOL    HW213599   5.396   6.308   1.084
 4234SOL     OW13600   3.725   3.778   5.390
 4234SOL    HW113601   3.630   3.746   5.386
 4234SOL    HW213602   3.786   3.701   5.408
 4235SOL     OW13603   0.414   3.983   4.971
 4235SOL    HW113604   0.444   3.930   4.892
 4235SOL    HW213605   0.353   4.056   4.942
 4236SOL     OW13606   0.687   3.618   4.979
 4236SOL    HW113607   0.775   3.576   4.959
 4236SOL    HW213608   0.630   3.617   4.896
 4237SOL     OW13609   5.973   4.147   5.723
 4237SOL    HW113610   6.051   4.207   5.707
 4237SOL    HW213611   5.890   4.202   5.734
 4238SOL     OW13612   4.511   4.484   4.389
 4238SOL    HW113613   4.431   4.436   4.425
 4238SOL    HW213614   4.539   4.556   4.453
 4239SOL     OW13615   5.313   5.737   5.633
 4239SOL    HW113616   5.251   5.778   5.700
 4239SOL    HW213617   5.407   5.740   5.669
 4240SOL     OW13618   2.500   5.074   6.343
 4240SOL    HW113619   2.488   5.078   6.244
 4240SOL    HW213620   2.543   5.158   6.375
 4241SOL     OW13621   4.430   1.991   0.610
 4241SOL    HW113622   4.413   1.901   0.649
 4241SOL    HW213623   4.527   2.014   0.621
 4242SOL     OW13624   1.532   0.429   2.357
 4242SOL    HW113625   1.466   0.354   2.349
 4242SOL    HW213626   1.484   0.514   2.380
 4243SOL     OW13627   1.276   2.712   2.723
 4243SOL    HW113628   1.250   2.615   2.716
 4243SOL    HW213629   1.286   2.751   2.632
 4244SOL     OW13630   3.224   0.439   0.785
 4244SOL    HW113631   3.148   0.381   0.811
 4244SOL    HW213632   3.192   0.534   0.776
 4245SOL     OW13633   6.867   1.523   1.154
 4245SOL    HW113634   6.784   1.468   1.146
 4245SOL    HW213635   6.932   1.494   1.084
 4246SOL     OW13636   4.806   2.777   3.657
 4246SOL    HW113637   4.797   2.769   3.558
 4246SOL    HW213638   4.874   2.712   3.690
 4247SOL     OW13639   1.879   5.364   6.485
 4247SOL    HW113640   1.937   5.445   6.472
 4247SOL    HW213641   1.915   5.311   6.562
 4248SOL     OW13642   2.188   0.752   3.551
 4248SOL    HW113643   2.205   0.806   3.469
 4248SOL    HW213644   2.090   0.753   3.572
 4249SOL     OW13645   5.596   0.426   5.946
 4249SOL    HW113646   5.502   0.398   5.928
 4249SOL    HW213647   5.595   0.511   5.999
 4250SOL     OW13648   0.204   5.661   5.065
 4250SOL    HW113649   0.143   5.607   5.124
 4250SOL    HW213650   0.200   5.757   5.092
 4251SOL     OW13651   4.773   1.982   5.476
 4251SOL    HW113652   4.786   2.046   5.400
 4251SOL    HW213653   4.774   2.033   5.562
 4252SOL     OW13654   6.983   0.177   6.712
 4252SOL    HW113655   7.016   0.238   6.784
 4252SOL    HW213656   6.903   0.217   6.668
 4253SOL     OW13657   4.384   6.396   2.907
 4253SOL    HW113658   4.325   6.386   2.827
 4253SOL    HW213659   4.443   6.476   2.895
 4254SOL     OW13660   1.438   2.073   5.788
 4254SOL    HW113661   1.449   2.020   5.704
 4254SOL    HW213662   1.433   2.171   5.766
 4255SOL     OW13663   0.804   2.748   3.243
 4255SOL    HW113664   0.902   2.758   3.263
 4255SOL    HW213665   0.784   2.793   3.156
 4256SOL     OW13666   6.210   6.039   1.105
 4256SOL    HW113667   6.214   6.092   1.020
 4256SOL    HW213668   6.238   6.097   1.182
 4257SOL     OW13669   6.428   0.929   3.302
 4257SOL    HW113670   6.526   0.952   3.300
 4257SOL    HW213671   6.379   0.988   3.238
 4258SOL     OW13672   3.041   5.784   0.838
 4258SOL    HW113673   3.049   5.840   0.756
 4258SOL    HW213674   2.978   5.708   0.821
 4259SOL     OW13675   1.221   0.132   0.554
 4259SOL    HW113676   1.202   0.036   0.532
 4259SOL    HW213677   1.202   0.189   0.474
 4260SOL     OW13678   6.038   0.359   4.821
 4260SOL    HW113679   5.977   0.316   4.887
 4260SOL    HW213680   6.000   0.447   4.792
 4261SOL     OW13681   2.574   6.131   3.688
 4261SOL    HW113682   2.501   6.103   3.751
 4261SOL    HW213683   2.588   6.061   3.619
 4262SOL     OW13684   1.794   5.157   5.057
 4262SOL    HW113685   1.709   5.106   5.069
 4262SOL    HW213686   1.843   5.122   4.977
 4263SOL     OW13687   2.814   1.522   2.979
 4263SOL    HW113688   2.730   1.486   2.939
 4263SOL    HW213689   2.803   1.533   3.078
 4264SOL     OW13690   4.750   2.056   6.467
 4264SOL    HW113691   4.673   2.060   6.403
 4264SOL    HW213692   4.716   2.060   6.561
 4265SOL     OW13693   2.801   6.103   6.574
 4265SOL    HW113694   2.808   6.152   6.487
 4265SOL    HW213695   2.891   6.100   6.618
 4266SOL     OW13696   1.209   5.109   1.695
 4266SOL    HW113697   1.295   5.127   1.649
 4266SOL    HW213698   1.194   5.178   1.766
 4267SOL     OW13699   0.957   3.470   4.174
 4267SOL    HW113700   1.034   3.524   4.209
 4267SOL    HW213701   0.966   3.376   4.206
 4268SOL     OW13702   1.078   4.329   6.115
 4268SOL    HW113703   1.042   4.298   6.027
 4268SOL    HW213704   1.168   4.288   6.130
 4269SOL     OW13705   2.982   1.322   4.028
 4269SOL    HW113706   2.951   1.403   4.078
 4269SOL    HW213707   2.904   1.261   4.014
 4270SOL     OW13708   4.337   3.994   0.869
 4270SOL    HW113709   4.391   4.058   0.923
 4270SOL    HW213710   4.257   3.964   0.921
 4271SOL     OW13711   6.655   0.818   1.439
 4271SOL    HW113712   6.566   0.772   1.446
 4271SOL    HW213713   6.646   0.912   1.471
 4272SOL     OW13714   6.986   1.595   5.707
 4272SOL    HW113715   6.921   1.525   5.679
 4272SOL    HW213716   0.040   1.553   5.759
 4273SOL     OW13717   3.058   6.298   3.903
 4273SOL    HW113718   3.122   6.280   3.828
 4273SOL    HW213719   3.022   6.391   3.895
 4274SOL     OW13720   0.479   1.159   1.809
 4274SOL    HW113721   0.426   1.241   1.786
 4274SOL    HW213722   0.454   1.086   1.745
 4275SOL     OW13723   6.720   2.400   3.700
 4275SOL    HW113724   6.818   2.394   3.716
 4275SOL    HW213725   6.696   2.349   3.617
 4276SOL     OW13726   1.390   6.610   2.715
 4276SOL    HW113727   1.482   6.605   2.675
 4276SOL    HW213728   1.395   6.590   2.813
 4277SOL     OW13729   6.722   5.299   3.412
 4277SOL    HW113730   6.798   5.359   3.438
 4277SOL    HW213731   6.641   5.323   3.466
 4278SOL     OW13732   0.056   6.825   1.260
 4278SOL    HW113733   0.087   6.740   1.219
 4278SOL    HW213734   6.986   6.811   1.303
 4279SOL     OW13735   0.922   2.252   3.322
 4279SOL    HW113736   0.926   2.168   3.268
 4279SOL    HW213737   1.014   2.289   3.334
 4280SOL     OW13738   1.848   6.670   6.521
 4280SOL    HW113739   1.779   6.613   6.476
 4280SOL    HW213740   1.804   6.732   6.585
 4281SOL     OW13741   6.224   5.747   2.942
 4281SOL    HW113742   6.320   5.720   2.938
 4281SOL    HW213743   6.204   5.788   3.031
 4282SOL     OW13744   5.444   5.213   1.664
 4282SOL    HW113745   5.354   5.211   1.708
 4282SOL    HW213746   5.514   5.189   1.731
 4283SOL     OW13747   6.218   1.341   4.872
 4283SOL    HW113748   6.282   1.303   4.938
 4283SOL    HW213749   6.177   1.267   4.818
 4284SOL     OW13750   4.535   6.155   6.550
 4284SOL    HW113751   4.571   6.180   6.460
 4284SOL    HW213752   4.586   6.076   6.585
 4285SOL     OW13753   3.084   1.532   6.524
 4285SOL    HW113754   3.180   1.508   6.516
 4285SOL    HW213755   3.033   1.456   6.563
 4286SOL     OW13756   5.103   6.699   0.226
 4286SOL    HW113757   5.025   6.679   0.167
 4286SOL    HW213758   5.082   6.671   0.320
 4287SOL     OW13759   3.189   0.732   1.299
 4287SOL    HW113760   3.104   0.741   1.350
 4287SOL    HW213761   3.264   0.714   1.363
 4288SOL     OW13762   6.974   5.774   2.219
 4288SOL    HW113763   6.894   5.807   2.170
 4288SOL    HW213764   0.022   5.848   2.227
 4289SOL     OW13765   0.192   4.402   4.919
 4289SOL    HW113766   0.280   4.376   4.879
 4289SOL    HW213767   0.207   4.463   4.997
 4290SOL     OW13768   6.950   1.677   3.555
 4290SOL    HW113769   6.898   1.703   3.636
 4290SOL    HW213770   6.898   1.700   3.473
 4291SOL     OW13771   4.164   4.753   6.786
 4291SOL    HW113772   4.146   4.850   6.802
 4291SOL    HW213773   4.152   4.703   6.872
 4292SOL     OW13774   6.283   0.756   1.592
 4292SOL    HW113775   6.351   0.738   1.521
 4292SOL    HW213776   6.229   0.674   1.609
 4293SOL     OW13777   3.661   2.967   6.776
 4293SOL    HW113778   3.676   2.921   6.864
 4293SOL    HW213779   3.596   2.915   6.722
 4294SOL     OW13780   3.080   1.863   6.921
 4294SOL    HW113781   3.047   1.926   6.850
 4294SOL    HW213782   3.084   1.770   6.883
 4295SOL     OW13783   4.752   6.256   2.803
 4295SOL    HW113784   4.771   6.297   2.892
 4295SOL    HW213785   4.654   6.235   2.796
 4296SOL     OW13786   2.275   5.591   2.363
 4296SOL    HW113787   2.290   5.504   2.316
 4296SOL    HW213788   2.308   5.666   2.305
 4297SOL     OW13789   4.595   5.269   0.394
 4297SOL    HW113790   4.640   5.261   0.483
 4297SOL    HW213791   4.514   5.210   0.393
 4298SOL     OW13792   1.586   0.154   0.567
 4298SOL    HW113793   1.582   0.055   0.580
 4298SOL    HW213794   1.527   0.199   0.634
 4299SOL     OW13795   0.816   3.136   6.352
 4299SOL    HW113796   0.797   3.223   6.308
 4299SOL    HW213797   0.732   3.097   6.388
 4300SOL     OW13798   2.924   0.401   2.179
 4300SOL    HW113799   3.019   0.432   2.175
 4300SOL    HW213800   2.899   0.380   2.273
 4301SOL     OW13801   1.937   6.078   5.371
 4301SOL    HW113802   1.854   6.111   5.326
 4301SOL    HW213803   2.009   6.064   5.303
 4302SOL     OW13804   3.525   5.067   6.647
 4302SOL    HW113805   3.597   5.136   6.658
 4302SOL    HW213806   3.459   5.099   6.580
 4303SOL     OW13807   4.630   5.277   3.568
 4303SOL    HW113808   4.536   5.302   3.546
 4303SOL    HW213809   4.637   5.254   3.665
 4304SOL     OW13810   3.034   4.059   1.738
 4304SOL    HW113811   2.998   4.006   1.661
 4304SOL    HW213812   2.998   4.152   1.735
 4305SOL     OW13813   0.621   6.330   5.775
 4305SOL    HW113814   0.561   6.409   5.765
 4305SOL    HW213815   0.572   6.247   5.747
 4306SOL     OW13816   5.954   3.372   5.135
 4306SOL    HW113817   5.858   3.393   5.149
 4306SOL    HW213818   6.007   3.406   5.213
 4307SOL     OW13819   7.014   1.380   5.488
 4307SOL    HW113820   0.017   1.477   5.483
 4307SOL    HW213821   0.019   1.335   5.402
 4308SOL     OW13822   4.058   5.609   6.436
 4308SOL    HW113823   4.131   5.597   6.369
 4308SOL    HW213824   4.094   5.656   6.516
 4309SOL     OW13825   2.651   1.938   0.664
 4309SOL    HW113826   2.724   2.002   0.687
 4309SOL    HW213827   2.690   1.846   0.651
 4310SOL     OW13828   6.079   2.166   3.623
 4310SOL    HW113829   6.119   2.089   3.672
 4310SOL    HW213830   6.029   2.132   3.543
 4311SOL     OW13831   0.350   6.837   1.502
 4311SOL    HW113832   0.396   6.911   1.452
 4311SOL    HW213833   0.272   6.874   1.552
 4312SOL     OW13834   0.004   3.650   2.216
 4312SOL    HW113835   6.996   3.687   2.305
 4312SOL    HW213836   6.949   3.596   2.178
 4313SOL     OW13837   1.012   3.805   0.501
 4313SOL    HW113838   1.061   3.835   0.582
 4313SOL    HW213839   1.029   3.708   0.485
 4314SOL     OW13840   1.550   1.409   5.496
 4314SOL    HW113841   1.499   1.492   5.518
 4314SOL    HW213842   1.624   1.431   5.432
 4315SOL     OW13843   2.491   2.240   5.474
 4315SOL    HW113844   2.586   2.254   5.449
 4315SOL    HW213845   2.438   2.215   5.393
 4316SOL     OW13846   4.381   5.339   1.909
 4316SOL    HW113847   4.399   5.424   1.860
 4316SOL    HW213848   4.467   5.293   1.928
 4317SOL     OW13849   4.821   0.672   5.027
 4317SOL    HW113850   4.834   0.768   5.050
 4317SOL    HW213851   4.910   0.627   5.020
 4318SOL     OW13852   1.790   5.843   3.805
 4318SOL    HW113853   1.748   5.777   3.868
 4318SOL    HW213854   1.718   5.891   3.754
 4319SOL     OW13855   1.705   4.817   2.417
 4319SOL    HW113856   1.648   4.735   2.419
 4319SOL    HW213857   1.766   4.818   2.497
 4320SOL     OW13858   3.485   0.317   1.130
 4320SOL    HW113859   3.530   0.405   1.120
 4320SOL    HW213860   3.473   0.296   1.227
 4321SOL     OW13861   6.746   5.826   2.906
 4321SOL    HW113862   6.773   5.732   2.922
 4321SOL    HW213863   6.813   5.871   2.847
 4322SOL     OW13864   2.519   2.492   3.691
 4322SOL    HW113865   2.429   2.448   3.682
 4322SOL    HW213866   2.527   2.564   3.622
 4323SOL     OW13867   4.616   4.773   0.918
 4323SOL    HW113868   4.545   4.706   0.893
 4323SOL    HW213869   4.628   4.838   0.844
 4324SOL     OW13870   0.181   4.422   6.050
 4324SOL    HW113871   0.168   4.427   5.951
 4324SOL    HW213872   0.270   4.461   6.074
 4325SOL     OW13873   1.445   0.101   1.080
 4325SOL    HW113874   1.521   0.163   1.096
 4325SOL    HW213875   1.476   0.006   1.086
 4326SOL     OW13876   4.541   2.593   2.694
 4326SOL    HW113877   4.541   2.583   2.794
 4326SOL    HW213878   4.605   2.666   2.668
 4327SOL     OW13879   2.954   6.528   3.840
 4327SOL    HW113880   2.885   6.545   3.910
 4327SOL    HW213881   2.932   6.580   3.757
 4328SOL     OW13882   6.090   0.157   3.054
 4328SOL    HW113883   5.997   0.132   3.028
 4328SOL    HW213884   6.103   0.140   3.151
 4329SOL     OW13885   6.026   3.719   0.074
 4329SOL    HW113886   6.068   3.801   0.113
 4329SOL    HW213887   5.936   3.743   0.036
 4330SOL     OW13888   2.503   5.042   4.726
 4330SOL    HW113889   2.516   5.014   4.631
 4330SOL    HW213890   2.577   5.005   4.782
 4331SOL     OW13891   5.722   1.761   2.257
 4331SOL    HW113892   5.717   1.691   2.186
 4331SOL    HW213893   5.813   1.763   2.297
 4332SOL     OW13894   6.783   5.721   1.219
 4332SOL    HW113895   6.790   5.734   1.121
 4332SOL    HW213896   6.791   5.809   1.266
 4333SOL     OW13897   3.630   2.914   6.201
 4333SOL    HW113898   3.642   2.998   6.253
 4333SOL    HW213899   3.623   2.837   6.264
 4334SOL     OW13900   0.229   2.883   4.145
 4334SOL    HW113901   0.273   2.794   4.131
 4334SOL    HW213902   0.223   2.902   4.244
 4335SOL     OW13903   2.590   4.178   1.741
 4335SOL    HW113904   2.626   4.087   1.718
 4335SOL    HW213905   2.509   4.168   1.797
 4336SOL     OW13906   2.898   5.264   5.251
 4336SOL    HW113907   2.979   5.235   5.301
 4336SOL    HW213908   2.924   5.334   5.184
 4337SOL     OW13909   0.033   4.677   3.644
 4337SOL    HW113910   6.975   4.650   3.588
 4337SOL    HW213911   0.107   4.709   3.585
 4338SOL     OW13912   3.063   2.394   6.294
 4338SOL    HW113913   3.128   2.321   6.272
 4338SOL    HW213914   2.982   2.355   6.338
 4339SOL     OW13915   4.293   4.612   5.441
 4339SOL    HW113916   4.249   4.531   5.402
 4339SOL    HW213917   4.305   4.599   5.539
 4340SOL     OW13918   7.014   4.168   0.800
 4340SOL    HW113919   6.956   4.209   0.870
 4340SOL    HW213920   0.050   4.096   0.841
 4341SOL     OW13921   6.023   5.534   1.361
 4341SOL    HW113922   6.005   5.613   1.419
 4341SOL    HW213923   5.962   5.536   1.282
 4342SOL     OW13924   5.242   3.108   2.573
 4342SOL    HW113925   5.301   3.137   2.498
 4342SOL    HW213926   5.175   3.180   2.593
 4343SOL     OW13927   3.902   0.328   6.677
 4343SOL    HW113928   3.872   0.234   6.688
 4343SOL    HW213929   3.990   0.341   6.722
 4344SOL     OW13930   0.935   3.888   2.397
 4344SOL    HW113931   0.922   3.985   2.415
 4344SOL    HW213932   0.846   3.842   2.396
 4345SOL     OW13933   3.752   3.640   3.020
 4345SOL    HW113934   3.694   3.714   2.987
 4345SOL    HW213935   3.700   3.555   3.022
 4346SOL     OW13936   0.765   3.177   2.828
 4346SOL    HW113937   0.824   3.226   2.763
 4346SOL    HW213938   0.670   3.185   2.799
 4347SOL     OW13939   6.289   5.264   0.644
 4347SOL    HW113940   6.357   5.336   0.659
 4347SOL    HW213941   6.207   5.284   0.698
 4348SOL     OW13942   5.981   4.480   5.850
 4348SOL    HW113943   5.936   4.566   5.873
 4348SOL    HW213944   6.018   4.438   5.933
 4349SOL     OW13945   0.825   3.748   4.230
 4349SOL    HW113946   0.893   3.678   4.212
 4349SOL    HW213947   0.858   3.837   4.198
 4350SOL     OW13948   4.597   0.702   4.170
 4350SOL    HW113949   4.544   0.767   4.224
 4350SOL    HW213950   4.654   0.751   4.104
 4351SOL     OW13951   0.267   5.756   1.163
 4351SOL    HW113952   0.274   5.739   1.065
 4351SOL    HW213953   0.355   5.737   1.207
 4352SOL     OW13954   3.467   4.991   1.846
 4352SOL    HW113955   3.490   4.922   1.914
 4352SOL    HW213956   3.521   5.074   1.865
 4353SOL     OW13957   2.613   3.964   0.618
 4353SOL    HW113958   2.622   3.864   0.612
 4353SOL    HW213959   2.542   3.995   0.555
 4354SOL     OW13960   5.632   5.249   2.521
 4354SOL    HW113961   5.700   5.318   2.548
 4354SOL    HW213962   5.543   5.294   2.510
 4355SOL     OW13963   2.605   5.126   3.306
 4355SOL    HW113964   2.635   5.101   3.398
 4355SOL    HW213965   2.666   5.086   3.238
 4356SOL     OW13966   5.995   2.882   5.457
 4356SOL    HW113967   5.900   2.859   5.479
 4356SOL    HW213968   5.999   2.935   5.372
 4357SOL     OW13969   5.695   6.251   2.195
 4357SOL    HW113970   5.759   6.245   2.273
 4357SOL    HW213971   5.609   6.292   2.226
 4358SOL     OW13972   2.687   0.996   0.441
 4358SOL    HW113973   2.732   1.065   0.384
 4358SOL    HW213974   2.685   1.028   0.536
 4359SOL     OW13975   2.403   2.054   1.828
 4359SOL    HW113976   2.476   2.122   1.837
 4359SOL    HW213977   2.355   2.044   1.915
 4360SOL     OW13978   2.509   5.940   4.023
 4360SOL    HW113979   2.568   5.906   3.950
 4360SOL    HW213980   2.564   5.987   4.092
 4361SOL     OW13981   0.969   1.797   0.176
 4361SOL    HW113982   1.064   1.831   0.177
 4361SOL    HW213983   0.936   1.795   0.082
 4362SOL     OW13984   0.971   5.441   3.156
 4362SOL    HW113985   1.038   5.515   3.165
 4362SOL    HW213986   1.008   5.357   3.196
 4363SOL     OW13987   3.675   0.770   2.324
 4363SOL    HW113988   3.676   0.855   2.377
 4363SOL    HW213989   3.665   0.792   2.227
 4364SOL     OW13990   3.256   3.931   2.876
 4364SOL    HW113991   3.313   3.999   2.830
 4364SOL    HW213992   3.229   3.861   2.810
 4365SOL     OW13993   2.212   1.187   0.835
 4365SOL    HW113994   2.186   1.183   0.739
 4365SOL    HW213995   2.146   1.242   0.886
 4366SOL     OW13996   4.862   5.687   4.784
 4366SOL    HW113997   4.770   5.726   4.789
 4366SOL    HW213998   4.909   5.720   4.703
 4367SOL     OW13999   2.659   6.067   2.235
 4367SOL    HW114000   2.705   6.086   2.148
 4367SOL    HW214001   2.690   6.132   2.304
 4368SOL     OW14002   4.833   3.806   4.213
 4368SOL    HW114003   4.917   3.800   4.158
 4368SOL    HW214004   4.767   3.864   4.166
 4369SOL     OW14005   5.860   4.283   3.551
 4369SOL    HW114006   5.868   4.330   3.639
 4369SOL    HW214007   5.764   4.261   3.534
 4370SOL     OW14008   3.823   4.990   0.478
 4370SOL    HW114009   3.909   5.039   0.468
 4370SOL    HW214010   3.791   4.998   0.572
 4371SOL     OW14011   3.676   1.280   2.842
 4371SOL    HW114012   3.613   1.309   2.770
 4371SOL    HW214013   3.626   1.226   2.911
 4372SOL     OW14014   1.859   4.474   4.593
 4372SOL    HW114015   1.801   4.456   4.514
 4372SOL    HW214016   1.939   4.527   4.565
 4373SOL     OW14017   4.291   0.605   0.448
 4373SOL    HW114018   4.305   0.649   0.536
 4373SOL    HW214019   4.343   0.520   0.444
 4374SOL     OW14020   2.421   6.922   0.276
 4374SOL    HW114021   2.356   6.847   0.294
 4374SOL    HW214022   2.396   6.967   0.191
 4375SOL     OW14023   3.719   1.540   5.525
 4375SOL    HW114024   3.687   1.585   5.442
 4375SOL    HW214025   3.816   1.563   5.540
 4376SOL     OW14026   2.259   5.822   0.178
 4376SOL    HW114027   2.276   5.736   0.226
 4376SOL    HW214028   2.344   5.875   0.174
 4377SOL     OW14029   4.995   5.935   6.997
 4377SOL    HW114030   4.975   6.008   6.932
 4377SOL    HW214031   4.909   5.899   0.013
 4378SOL     OW14032   3.163   4.854   2.623
 4378SOL    HW114033   3.260   4.832   2.618
 4378SOL    HW214034   3.147   4.920   2.697
 4379SOL     OW14035   0.035   6.620   0.936
 4379SOL    HW114036   0.107   6.592   0.871
 4379SOL    HW214037   0.067   6.605   1.029
 4380SOL     OW14038   1.926   5.715   4.154
 4380SOL    HW114039   1.999   5.780   4.137
 4380SOL    HW214040   1.841   5.764   4.173
 4381SOL     OW14041   4.639   5.542   5.214
 4381SOL    HW114042   4.544   5.573   5.227
 4381SOL    HW214043   4.661   5.544   5.117
 4382SOL     OW14044   5.506   3.973   2.863
 4382SOL    HW114045   5.478   3.991   2.769
 4382SOL    HW214046   5.429   3.932   2.913
 4383SOL     OW14047   1.063   1.107   0.430
 4383SOL    HW114048   1.148   1.070   0.392
 4383SOL    HW214049   1.060   1.206   0.415
 4384SOL     OW14050   3.862   6.733   1.812
 4384SOL    HW114051   3.939   6.678   1.844
 4384SOL    HW214052   3.786   6.672   1.786
 4385SOL     OW14053   5.956   2.216   2.542
 4385SOL    HW114054   6.049   2.191   2.569
 4385SOL    HW214055   5.945   2.203   2.444
 4386SOL     OW14056   1.867   4.000   6.956
 4386SOL    HW114057   1.954   3.993   7.004
 4386SOL    HW214058   1.883   3.998   6.857
 4387SOL     OW14059   6.459   2.475   1.703
 4387SOL    HW114060   6.492   2.385   1.673
 4387SOL    HW214061   6.378   2.501   1.650
 4388SOL     OW14062   3.276   1.750   5.546
 4388SOL    HW114063   3.360   1.787   5.584
 4388SOL    HW214064   3.273   1.651   5.560
 4389SOL     OW14065   6.239   2.180   2.637
 4389SOL    HW114066   6.295   2.143   2.712
 4389SOL    HW214067   6.264   2.134   2.552
 4390SOL     OW14068   4.092   2.929   0.936
 4390SOL    HW114069   4.103   2.836   0.901
 4390SOL    HW214070   4.005   2.967   0.903
 4391SOL     OW14071   0.483   6.464   0.199
 4391SOL    HW114072   0.385   6.458   0.180
 4391SOL    HW214073   0.519   6.372   0.212
 4392SOL     OW14074   5.198   4.266   5.114
 4392SOL    HW114075   5.235   4.358   5.125
 4392SOL    HW214076   5.262   4.211   5.059
 4393SOL     OW14077   5.384   6.139   3.076
 4393SOL    HW114078   5.345   6.105   3.162
 4393SOL    HW214079   5.312   6.183   3.022
 4394SOL     OW14080   4.642   0.670   2.405
 4394SOL    HW114081   4.705   0.733   2.360
 4394SOL    HW214082   4.593   0.719   2.478
 4395SOL     OW14083   5.095   1.728   1.072
 4395SOL    HW114084   5.093   1.630   1.093
 4395SOL    HW214085   5.010   1.753   1.026
 4396SOL     OW14086   1.541   1.194   3.724
 4396SOL    HW114087   1.587   1.142   3.796
 4396SOL    HW214088   1.595   1.190   3.640
 4397SOL     OW14089   5.451   0.004   6.255
 4397SOL    HW114090   5.544   7.007   6.288
 4397SOL    HW214091   5.388   0.007   6.333
 4398SOL     OW14092   0.389   5.424   4.229
 4398SOL    HW114093   0.316   5.370   4.187
 4398SOL    HW214094   0.477   5.377   4.218
 4399SOL     OW14095   3.217   1.252   2.532
 4399SOL    HW114096   3.220   1.321   2.605
 4399SOL    HW214097   3.278   1.280   2.457
 4400SOL     OW14098   3.991   5.722   3.557
 4400SOL    HW114099   4.090   5.708   3.552
 4400SOL    HW214100   3.946   5.663   3.491
 4401SOL     OW14101   5.863   5.961   4.872
 4401SOL    HW114102   5.871   5.864   4.852
 4401SOL    HW214103   5.767   5.987   4.878
 4402SOL     OW14104   6.706   6.391   2.414
 4402SOL    HW114105   6.728   6.301   2.375
 4402SOL    HW214106   6.705   6.459   2.341
 4403SOL     OW14107   0.305   0.901   2.823
 4403SOL    HW114108   0.398   0.875   2.849
 4403SOL    HW214109   0.302   0.999   2.805
 4404SOL     OW14110   2.355   4.843   2.720
 4404SOL    HW114111   2.382   4.905   2.647
 4404SOL    HW214112   2.430   4.780   2.740
 4405SOL     OW14113   2.627   3.878   5.803
 4405SOL    HW114114   2.686   3.928   5.865
 4405SOL    HW214115   2.599   3.792   5.845
 4406SOL     OW14116   5.867   3.359   1.979
 4406SOL    HW114117   5.881   3.260   1.968
 4406SOL    HW214118   5.925   3.393   2.053
 4407SOL     OW14119   0.033   0.953   6.803
 4407SOL    HW114120   0.060   0.932   6.897
 4407SOL    HW214121   0.113   0.947   6.743
 4408SOL     OW14122   3.966   6.204   0.786
 4408SOL    HW114123   4.047   6.148   0.768
 4408SOL    HW214124   3.983   6.298   0.757
 4409SOL     OW14125   2.680   1.721   2.645
 4409SOL    HW114126   2.645   1.709   2.738
 4409SOL    HW214127   2.603   1.718   2.580
 4410SOL     OW14128   1.944   5.757   1.369
 4410SOL    HW114129   2.009   5.806   1.310
 4410SOL    HW214130   1.993   5.689   1.423
 4411SOL     OW14131   4.116   3.409   2.636
 4411SOL    HW114132   4.157   3.443   2.721
 4411SOL    HW214133   4.020   3.386   2.651
 4412SOL     OW14134   3.358   1.806   6.086
 4412SOL    HW114135   3.278   1.866   6.088
 4412SOL    HW214136   3.367   1.760   6.174
 4413SOL     OW14137   4.360   5.295   3.468
 4413SOL    HW114138   4.289   5.353   3.428
 4413SOL    HW214139   4.321   5.245   3.546
 4414SOL     OW14140   3.263   5.338   1.586
 4414SOL    HW114141   3.193   5.380   1.644
 4414SOL    HW214142   3.353   5.370   1.615
 4415SOL     OW14143   4.571   1.488   1.060
 4415SOL    HW114144   4.567   1.416   0.991
 4415SOL    HW214145   4.540   1.575   1.020
 4416SOL     OW14146   2.326   2.229   4.626
 4416SOL    HW114147   2.384   2.303   4.593
 4416SOL    HW214148   2.232   2.261   4.632
 4417SOL     OW14149   6.030   7.002   1.059
 4417SOL    HW114150   6.126   6.992   1.084
 4417SOL    HW214151   6.021   0.057   0.993
 4418SOL     OW14152   4.888   0.968   3.333
 4418SOL    HW114153   4.878   0.922   3.421
 4418SOL    HW214154   4.803   0.959   3.281
 4419SOL     OW14155   6.259   5.234   6.195
 4419SOL    HW114156   6.312   5.301   6.143
 4419SOL    HW214157   6.161   5.254   6.186
 4420SOL     OW14158   4.151   1.025   0.259
 4420SOL    HW114159   4.245   1.050   0.237
 4420SOL    HW214160   4.148   0.929   0.289
 4421SOL     OW14161   0.556   1.814   3.569
 4421SOL    HW114162   0.474   1.773   3.529
 4421SOL    HW214163   0.623   1.743   3.590
 4422SOL     OW14164   1.647   4.763   5.900
 4422SOL    HW114165   1.602   4.688   5.948
 4422SOL    HW214166   1.727   4.727   5.851
 4423SOL     OW14167   7.016   1.720   6.505
 4423SOL    HW114168   6.993   1.789   6.437
 4423SOL    HW214169   0.043   1.644   6.462
 4424SOL     OW14170   1.026   5.979   3.370
 4424SOL    HW114171   1.107   5.973   3.430
 4424SOL    HW214172   0.945   5.996   3.426
 4425SOL     OW14173   5.098   4.437   0.584
 4425SOL    HW114174   5.017   4.433   0.525
 4425SOL    HW214175   5.165   4.500   0.544
 4426SOL     OW14176   0.881   0.569   5.892
 4426SOL    HW114177   0.847   0.629   5.964
 4426SOL    HW214178   0.913   0.625   5.815
 4427SOL     OW14179   1.332   5.980   3.161
 4427SOL    HW114180   1.379   5.999   3.076
 4427SOL    HW214181   1.237   5.956   3.142
 4428SOL     OW14182   2.124   6.770   2.991
 4428SOL    HW114183   2.056   6.810   3.054
 4428SOL    HW214184   2.160   6.686   3.031
 4429SOL     OW14185   3.322   0.285   3.201
 4429SOL    HW114186   3.364   0.270   3.291
 4429SOL    HW214187   3.289   0.198   3.165
 4430SOL     OW14188   1.222   0.728   2.036
 4430SOL    HW114189   1.284   0.769   1.969
 4430SOL    HW214190   1.144   0.686   1.989
 4431SOL     OW14191   2.609   2.039   3.412
 4431SOL    HW114192   2.595   2.082   3.322
 4431SOL    HW214193   2.641   2.107   3.477
 4432SOL     OW14194   3.002   3.280   3.739
 4432SOL    HW114195   2.962   3.300   3.650
 4432SOL    HW214196   3.078   3.342   3.756
 4433SOL     OW14197   6.491   0.244   3.099
 4433SOL    HW114198   6.463   0.171   3.037
 4433SOL    HW214199   6.449   0.330   3.071
 4434SOL     OW14200   4.974   2.661   4.464
 4434SOL    HW114201   4.960   2.760   4.455
 4434SOL    HW214202   4.928   2.629   4.546
 4435SOL     OW14203   3.733   3.270   2.152
 4435SOL    HW114204   3.663   3.341   2.143
 4435SOL    HW214205   3.819   3.312   2.181
 4436SOL     OW14206   5.211   0.072   1.018
 4436SOL    HW114207   5.196   0.098   1.114
 4436SOL    HW214208   5.308   0.053   1.003
 4437SOL     OW14209   3.546   0.324   5.040
 4437SOL    HW114210   3.486   0.244   5.036
 4437SOL    HW214211   3.586   0.331   5.132
 4438SOL     OW14212   3.960   3.312   6.331
 4438SOL    HW114213   3.962   3.410   6.354
 4438SOL    HW214214   4.053   3.275   6.335
 4439SOL     OW14215   2.196   4.706   2.372
 4439SOL    HW114216   2.194   4.802   2.402
 4439SOL    HW214217   2.149   4.649   2.440
 4440SOL     OW14218   6.043   1.113   0.567
 4440SOL    HW114219   6.111   1.052   0.525
 4440SOL    HW214220   5.996   1.164   0.495
 4441SOL     OW14221   6.092   1.076   3.397
 4441SOL    HW114222   6.149   1.095   3.477
 4441SOL    HW214223   6.099   0.978   3.374
 4442SOL     OW14224   1.770   5.941   1.729
 4442SOL    HW114225   1.704   5.899   1.791
 4442SOL    HW214226   1.799   6.030   1.765
 4443SOL     OW14227   2.463   1.545   6.806
 4443SOL    HW114228   2.461   1.615   6.735
 4443SOL    HW214229   2.463   1.589   6.896
 4444SOL     OW14230   4.706   1.335   2.855
 4444SOL    HW114231   4.765   1.358   2.778
 4444SOL    HW214232   4.647   1.258   2.830
 4445SOL     OW14233   1.289   0.669   6.353
 4445SOL    HW114234   1.343   0.652   6.271
 4445SOL    HW214235   1.209   0.723   6.330
 4446SOL     OW14236   5.323   4.832   3.686
 4446SOL    HW114237   5.237   4.823   3.736
 4446SOL    HW214238   5.376   4.908   3.725
 4447SOL     OW14239   5.189   2.882   5.247
 4447SOL    HW114240   5.128   2.961   5.252
 4447SOL    HW214241   5.258   2.889   5.319
 4448SOL     OW14242   2.107   3.461   6.768
 4448SOL    HW114243   2.077   3.408   6.689
 4448SOL    HW214244   2.055   3.434   6.849
 4449SOL     OW14245   0.602   1.234   5.285
 4449SOL    HW114246   0.646   1.225   5.196
 4449SOL    HW214247   0.592   1.330   5.308
 4450SOL     OW14248   3.384   3.618   2.286
 4450SOL    HW114249   3.471   3.578   2.314
 4450SOL    HW214250   3.401   3.706   2.240
 4451SOL     OW14251   0.099   3.719   1.016
 4451SOL    HW114252   0.199   3.723   1.025
 4451SOL    HW214253   0.074   3.641   0.959
 4452SOL     OW14254   6.506   3.596   6.297
 4452SOL    HW114255   6.422   3.589   6.244
 4452SOL    HW214256   6.584   3.604   6.235
 4453SOL     OW14257   4.988   1.628   0.518
 4453SOL    HW114258   4.964   1.632   0.421
 4453SOL    HW214259   5.009   1.720   0.550
 4454SOL     OW14260   4.811   2.731   1.576
 4454SOL    HW114261   4.759   2.753   1.659
 4454SOL    HW214262   4.873   2.655   1.595
 4455SOL     OW14263   4.266   2.112   2.145
 4455SOL    HW114264   4.272   2.190   2.208
 4455SOL    HW214265   4.238   2.144   2.055
 4456SOL     OW14266   1.310   5.609   2.675
 4456SOL    HW114267   1.233   5.662   2.709
 4456SOL    HW214268   1.278   5.549   2.601
 4457SOL     OW14269   4.593   1.455   6.906
 4457SOL    HW114270   4.651   1.383   6.868
 4457SOL    HW214271   4.523   1.481   6.840
 4458SOL     OW14272   4.051   1.757   0.752
 4458SOL    HW114273   3.995   1.727   0.830
 4458SOL    HW214274   4.067   1.855   0.759
 4459SOL     OW14275   5.540   6.603   5.103
 4459SOL    HW114276   5.494   6.558   5.180
 4459SOL    HW214277   5.520   6.552   5.019
 4460SOL     OW14278   1.251   1.445   6.686
 4460SOL    HW114279   1.152   1.459   6.687
 4460SOL    HW214280   1.292   1.502   6.614
 4461SOL     OW14281   1.953   6.573   2.212
 4461SOL    HW114282   1.918   6.484   2.241
 4461SOL    HW214283   2.052   6.567   2.197
 4462SOL     OW14284   6.927   4.712   0.267
 4462SOL    HW114285   7.020   4.732   0.235
 4462SOL    HW214286   6.927   4.700   0.366
 4463SOL     OW14287   1.071   3.958   6.140
 4463SOL    HW114288   1.150   4.000   6.095
 4463SOL    HW214289   1.062   3.863   6.110
 4464SOL     OW14290   6.582   2.811   0.130
 4464SOL    HW114291   6.550   2.826   0.036
 4464SOL    HW214292   6.637   2.888   0.160
 4465SOL     OW14293   0.577   5.801   0.410
 4465SOL    HW114294   0.576   5.777   0.313
 4465SOL    HW214295   0.598   5.720   0.464
 4466SOL     OW14296   6.748   2.936   3.193
 4466SOL    HW114297   6.846   2.941   3.174
 4466SOL    HW214298   6.715   2.845   3.171
 4467SOL     OW14299   1.320   0.162   3.069
 4467SOL    HW114300   1.403   0.112   3.091
 4467SOL    HW214301   1.344   0.253   3.034
 4468SOL     OW14302   1.758   2.244   0.735
 4468SOL    HW114303   1.848   2.225   0.698
 4468SOL    HW214304   1.758   2.230   0.834
 4469SOL     OW14305   4.706   0.158   0.397
 4469SOL    HW114306   4.789   0.104   0.387
 4469SOL    HW214307   4.660   0.166   0.308
 4470SOL     OW14308   4.693   5.090   1.346
 4470SOL    HW114309   4.641   5.083   1.260
 4470SOL    HW214310   4.640   5.050   1.420
 4471SOL     OW14311   6.191   2.534   0.760
 4471SOL    HW114312   6.249   2.502   0.685
 4471SOL    HW214313   6.120   2.594   0.723
 4472SOL     OW14314   1.825   4.686   1.566
 4472SOL    HW114315   1.848   4.649   1.656
 4472SOL    HW214316   1.908   4.720   1.522
 4473SOL     OW14317   0.077   0.608   6.617
 4473SOL    HW114318   7.010   0.656   6.624
 4473SOL    HW214319   0.085   0.566   6.526
 4474SOL     OW14320   5.955   0.569   4.315
 4474SOL    HW114321   5.917   0.651   4.273
 4474SOL    HW214322   6.007   0.594   4.397
 4475SOL     OW14323   1.771   4.134   0.739
 4475SOL    HW114324   1.677   4.156   0.714
 4475SOL    HW214325   1.819   4.217   0.768
 4476SOL     OW14326   5.049   6.498   2.637
 4476SOL    HW114327   4.956   6.500   2.599
 4476SOL    HW214328   5.044   6.475   2.735
 4477SOL     OW14329   1.211   1.745   0.960
 4477SOL    HW114330   1.181   1.837   0.986
 4477SOL    HW214331   1.223   1.741   0.860
 4478SOL     OW14332   1.349   4.845   1.946
 4478SOL    HW114333   1.432   4.834   1.893
 4478SOL    HW214334   1.349   4.781   2.023
 4479SOL     OW14335   1.047   0.145   6.156
 4479SOL    HW114336   1.085   0.237   6.151
 4479SOL    HW214337   1.112   0.080   6.117
 4480SOL     OW14338   7.007   4.107   3.689
 4480SOL    HW114339   0.049   4.108   3.767
 4480SOL    HW214340   6.982   4.013   3.667
 4481SOL     OW14341   0.652   0.707   4.131
 4481SOL    HW114342   0.735   0.747   4.171
 4481SOL    HW214343   0.645   0.611   4.157
 4482SOL     OW14344   1.228   4.071   3.264
 4482SOL    HW114345   1.249   3.976   3.285
 4482SOL    HW214346   1.282   4.132   3.322
 4483SOL     OW14347   5.722   2.926   1.233
 4483SOL    HW114348   5.717   3.021   1.263
 4483SOL    HW214349   5.639   2.902   1.183
 4484SOL     OW14350   3.455   3.626   6.044
 4484SOL    HW114351   3.544   3.601   6.083
 4484SOL    HW214352   3.386   3.560   6.073
 4485SOL     OW14353   4.546   0.500   0.034
 4485SOL    HW114354   4.548   0.592   0.072
 4485SOL    HW214355   4.459   0.456   0.057
 4486SOL     OW14356   5.695   3.264   3.887
 4486SOL    HW114357   5.625   3.303   3.828
 4486SOL    HW214358   5.655   3.189   3.941
 4487SOL     OW14359   3.016   2.964   5.668
 4487SOL    HW114360   2.927   2.938   5.706
 4487SOL    HW214361   3.075   2.997   5.742
 4488SOL     OW14362   6.569   1.618   6.447
 4488SOL    HW114363   6.605   1.608   6.355
 4488SOL    HW214364   6.624   1.685   6.497
 4489SOL     OW14365   0.311   1.177   2.789
 4489SOL    HW114366   0.399   1.182   2.835
 4489SOL    HW214367   0.265   1.266   2.794
 4490SOL     OW14368   6.679   1.968   3.719
 4490SOL    HW114369   6.603   1.904   3.724
 4490SOL    HW214370   6.648   2.053   3.674
 4491SOL     OW14371   1.915   3.758   2.735
 4491SOL    HW114372   1.824   3.746   2.695
 4491SOL    HW214373   1.961   3.835   2.691
 4492SOL     OW14374   5.022   4.820   6.016
 4492SOL    HW114375   5.053   4.734   5.974
 4492SOL    HW214376   5.022   4.892   5.947
 4493SOL     OW14377   5.849   4.808   4.099
 4493SOL    HW114378   5.850   4.907   4.088
 4493SOL    HW214379   5.941   4.776   4.121
 4494SOL     OW14380   5.932   2.856   3.231
 4494SOL    HW114381   5.899   2.765   3.208
 4494SOL    HW214382   5.920   2.873   3.329
 4495SOL     OW14383   4.796   6.164   2.068
 4495SOL    HW114384   4.796   6.129   1.974
 4495SOL    HW214385   4.821   6.090   2.130
 4496SOL     OW14386   5.700   4.407   6.020
 4496SOL    HW114387   5.721   4.372   5.929
 4496SOL    HW214388   5.767   4.373   6.085
 4497SOL     OW14389   6.506   5.367   0.970
 4497SOL    HW114390   6.468   5.458   0.956
 4497SOL    HW214391   6.532   5.327   0.882
 4498SOL     OW14392   0.966   4.078   0.082
 4498SOL    HW114393   0.978   3.979   0.078
 4498SOL    HW214394   0.876   4.102   0.045
 4499SOL     OW14395   5.176   3.170   6.547
 4499SOL    HW114396   5.120   3.247   6.579
 4499SOL    HW214397   5.165   3.160   6.448
 4500SOL     OW14398   3.266   4.105   3.368
 4500SOL    HW114399   3.345   4.165   3.359
 4500SOL    HW214400   3.271   4.032   3.300
 4501SOL     OW14401   1.550   4.858   4.709
 4501SOL    HW114402   1.592   4.787   4.766
 4501SOL    HW214403   1.458   4.877   4.742
 4502SOL     OW14404   6.391   3.032   6.838
 4502SOL    HW114405   6.432   2.944   6.816
 4502SOL    HW214406   6.316   3.019   6.903
 4503SOL     OW14407   1.819   3.414   2.731
 4503SOL    HW114408   1.819   3.449   2.825
 4503SOL    HW214409   1.896   3.453   2.681
 4504SOL     OW14410   4.555   2.480   3.954
 4504SOL    HW114411   4.586   2.505   3.863
 4504SOL    HW214412   4.473   2.423   3.947
 4505SOL     OW14413   1.537   5.045   6.872
 4505SOL    HW114414   1.550   5.140   6.900
 4505SOL    HW214415   1.559   5.035   6.775
 4506SOL     OW14416   4.151   6.764   4.865
 4506SOL    HW114417   4.217   6.811   4.923
 4506SOL    HW214418   4.124   6.825   4.790
 4507SOL     OW14419   6.188   3.155   2.226
 4507SOL    HW114420   6.256   3.220   2.192
 4507SOL    HW214421   6.199   3.068   2.178
 4508SOL     OW14422   2.145   3.845   6.882
 4508SOL    HW114423   2.204   3.921   6.856
 4508SOL    HW214424   2.119   3.854   6.979
 4509SOL     OW14425   0.302   1.936   3.693
 4509SOL    HW114426   0.337   2.028   3.708
 4509SOL    HW214427   0.359   1.870   3.742
 4510SOL     OW14428   3.525   6.378   5.965
 4510SOL    HW114429   3.588   6.364   5.888
 4510SOL    HW214430   3.450   6.438   5.936
 4511SOL     OW14431   6.262   2.131   6.494
 4511SOL    HW114432   6.179   2.173   6.531
 4511SOL    HW214433   6.259   2.032   6.509
 4512SOL     OW14434   2.431   4.699   6.749
 4512SOL    HW114435   2.493   4.719   6.673
 4512SOL    HW214436   2.454   4.757   6.827
 4513SOL     OW14437   5.777   1.243   2.106
 4513SOL    HW114438   5.730   1.155   2.120
 4513SOL    HW214439   5.824   1.269   2.191
 4514SOL     OW14440   3.590   0.978   5.910
 4514SOL    HW114441   3.688   0.995   5.906
 4514SOL    HW214442   3.542   1.051   5.861
 4515SOL     OW14443   6.413   4.897   0.669
 4515SOL    HW114444   6.372   4.965   0.730
 4515SOL    HW214445   6.349   4.820   0.658
 4516SOL     OW14446   0.663   6.894   4.092
 4516SOL    HW114447   0.719   6.930   4.167
 4516SOL    HW214448   0.722   6.871   4.015
 4517SOL     OW14449   3.867   0.427   6.291
 4517SOL    HW114450   3.868   0.520   6.327
 4517SOL    HW214451   3.805   0.371   6.346
 4518SOL     OW14452   1.453   0.256   3.364
 4518SOL    HW114453   1.485   0.294   3.450
 4518SOL    HW214454   1.514   0.182   3.335
 4519SOL     OW14455   6.308   2.890   5.187
 4519SOL    HW114456   6.362   2.809   5.163
 4519SOL    HW214457   6.220   2.885   5.142
 4520SOL     OW14458   0.202   4.004   2.539
 4520SOL    HW114459   0.147   3.927   2.505
 4520SOL    HW214460   0.275   3.969   2.598
 4521SOL     OW14461   5.100   1.560   6.456
 4521SOL    HW114462   5.079   1.653   6.488
 4521SOL    HW214463   5.198   1.552   6.441
 4522SOL     OW14464   5.711   0.367   3.162
 4522SOL    HW114465   5.645   0.296   3.186
 4522SOL    HW214466   5.747   0.409   3.246
 4523SOL     OW14467   4.813   2.817   6.378
 4523SOL    HW114468   4.837   2.792   6.472
 4523SOL    HW214469   4.841   2.911   6.360
 4524SOL     OW14470   6.013   0.632   4.761
 4524SOL    HW114471   6.039   0.729   4.765
 4524SOL    HW214472   5.930   0.618   4.814
 4525SOL     OW14473   6.324   2.051   5.338
 4525SOL    HW114474   6.407   2.106   5.335
 4525SOL    HW214475   6.323   1.988   5.260
 4526SOL     OW14476   3.308   0.925   1.135
 4526SOL    HW114477   3.233   0.937   1.070
 4526SOL    HW214478   3.281   0.857   1.203
 4527SOL     OW14479   4.326   6.618   3.794
 4527SOL    HW114480   4.240   6.568   3.807
 4527SOL    HW214481   4.367   6.592   3.706
 4528SOL     OW14482   4.959   6.922   5.802
 4528SOL    HW114483   4.960   6.846   5.867
 4528SOL    HW214484   5.053   6.952   5.784
 4529SOL     OW14485   3.758   0.247   3.685
 4529SOL    HW114486   3.678   0.187   3.680
 4529SOL    HW214487   3.783   0.261   3.781
 4530SOL     OW14488   0.690   2.921   5.259
 4530SOL    HW114489   0.699   2.906   5.357
 4530SOL    HW214490   0.660   2.837   5.214
 4531SOL     OW14491   0.282   3.728   3.402
 4531SOL    HW114492   0.284   3.640   3.450
 4531SOL    HW214493   0.301   3.802   3.467
 4532SOL     OW14494   6.887   1.572   0.445
 4532SOL    HW114495   6.841   1.524   0.370
 4532SOL    HW214496   6.984   1.545   0.448
 4533SOL     OW14497   3.297   5.977   2.365
 4533SOL    HW114498   3.278   5.993   2.462
 4533SOL    HW214499   3.393   5.953   2.354
 4534SOL     OW14500   0.101   4.383   5.513
 4534SOL    HW114501   0.197   4.370   5.539
 4534SOL    HW214502   0.087   4.479   5.489
 4535SOL     OW14503   4.967   2.759   3.058
 4535SOL    HW114504   4.973   2.678   3.000
 4535SOL    HW214505   5.058   2.782   3.093
 4536SOL     OW14506   6.789   0.517   4.514
 4536SOL    HW114507   6.870   0.483   4.561
 4536SOL    HW214508   6.769   0.610   4.545
 4537SOL     OW14509   4.627   3.266   6.439
 4537SOL    HW114510   4.668   3.196   6.498
 4537SOL    HW214511   4.659   3.255   6.346
 4538SOL     OW14512   3.356   1.940   1.763
 4538SOL    HW114513   3.349   1.984   1.853
 4538SOL    HW214514   3.265   1.933   1.722
 4539SOL     OW14515   2.289   2.299   2.568
 4539SOL    HW114516   2.360   2.245   2.613
 4539SOL    HW214517   2.230   2.340   2.637
 4540SOL     OW14518   3.250   3.140   5.148
 4540SOL    HW114519   3.234   3.191   5.232
 4540SOL    HW214520   3.238   3.200   5.069
 4541SOL     OW14521   6.087   1.134   1.612
 4541SOL    HW114522   6.128   1.109   1.700
 4541SOL    HW214523   6.077   1.051   1.556
 4542SOL     OW14524   4.751   6.914   3.137
 4542SOL    HW114525   4.831   6.854   3.144
 4542SOL    HW214526   4.678   6.865   3.090
 4543SOL     OW14527   5.700   1.746   1.483
 4543SOL    HW114528   5.650   1.667   1.449
 4543SOL    HW214529   5.645   1.828   1.471
 4544SOL     OW14530   4.433   4.980   6.812
 4544SOL    HW114531   4.341   4.941   6.809
 4544SOL    HW214532   4.499   4.908   6.838
 4545SOL     OW14533   4.299   3.686   5.983
 4545SOL    HW114534   4.265   3.726   5.898
 4545SOL    HW214535   4.234   3.704   6.057
 4546SOL     OW14536   0.221   6.449   0.125
 4546SOL    HW114537   0.163   6.460   0.206
 4546SOL    HW214538   0.239   6.538   0.085
 4547SOL     OW14539   4.307   1.498   1.772
 4547SOL    HW114540   4.371   1.440   1.822
 4547SOL    HW214541   4.291   1.582   1.824
 4548SOL     OW14542   0.785   3.568   3.976
 4548SOL    HW114543   0.841   3.523   4.045
 4548SOL    HW214544   0.817   3.542   3.885
 4549SOL     OW14545   4.325   1.437   2.118
 4549SOL    HW114546   4.237   1.435   2.071
 4549SOL    HW214547   4.395   1.395   2.061
 4550SOL     OW14548   1.651   5.759   4.514
 4550SOL    HW114549   1.647   5.787   4.419
 4550SOL    HW214550   1.715   5.683   4.524
 4551SOL     OW14551   6.862   2.948   6.783
 4551SOL    HW114552   6.956   2.975   6.802
 4551SOL    HW214553   6.856   2.848   6.780
 4552SOL     OW14554   6.375   3.200   4.266
 4552SOL    HW114555   6.359   3.248   4.352
 4552SOL    HW214556   6.462   3.231   4.226
 4553SOL     OW14557   5.251   5.201   0.306
 4553SOL    HW114558   5.332   5.209   0.248
 4553SOL    HW214559   5.214   5.108   0.299
 4554SOL     OW14560   5.809   0.132   3.514
 4554SOL    HW114561   5.875   0.171   3.451
 4554SOL    HW214562   5.738   0.083   3.463
 4555SOL     OW14563   4.279   2.582   6.414
 4555SOL    HW114564   4.300   2.487   6.439
 4555SOL    HW214565   4.352   2.618   6.356
 4556SOL     OW14566   4.822   0.667   5.314
 4556SOL    HW114567   4.905   0.644   5.364
 4556SOL    HW214568   4.838   0.659   5.216
 4557SOL     OW14569   5.394   0.701   4.788
 4557SOL    HW114570   5.391   0.662   4.880
 4557SOL    HW214571   5.483   0.682   4.747
 4558SOL     OW14572   5.985   3.099   5.655
 4558SOL    HW114573   5.985   3.018   5.596
 4558SOL    HW214574   6.073   3.108   5.700
 4559SOL     OW14575   0.981   6.314   1.346
 4559SOL    HW114576   1.069   6.336   1.305
 4559SOL    HW214577   0.946   6.229   1.305
 4560SOL     OW14578   5.502   2.280   2.521
 4560SOL    HW114579   5.554   2.338   2.584
 4560SOL    HW214580   5.560   2.205   2.490
 4561SOL     OW14581   3.310   0.832   6.354
 4561SOL    HW114582   3.389   0.892   6.345
 4561SOL    HW214583   3.338   0.749   6.403
 4562SOL     OW14584   2.291   4.537   5.624
 4562SOL    HW114585   2.233   4.574   5.696
 4562SOL    HW214586   2.272   4.585   5.538
 4563SOL     OW14587   5.383   2.499   6.330
 4563SOL    HW114588   5.345   2.576   6.380
 4563SOL    HW214589   5.432   2.533   6.249
 4564SOL     OW14590   0.708   5.223   6.822
 4564SOL    HW114591   0.788   5.163   6.826
 4564SOL    HW214592   0.626   5.169   6.840
 4565SOL     OW14593   2.401   0.873   3.957
 4565SOL    HW114594   2.377   0.777   3.972
 4565SOL    HW214595   2.394   0.923   4.043
 4566SOL     OW14596   1.653   1.167   0.688
 4566SOL    HW114597   1.564   1.211   0.679
 4566SOL    HW214598   1.722   1.235   0.711
 4567SOL     OW14599   5.913   1.051   1.326
 4567SOL    HW114600   5.975   0.979   1.355
 4567SOL    HW214601   5.871   1.094   1.406
 4568SOL     OW14602   3.844   4.850   4.173
 4568SOL    HW114603   3.926   4.833   4.227
 4568SOL    HW214604   3.870   4.873   4.080
 4569SOL     OW14605   0.283   1.889   3.244
 4569SOL    HW114606   0.273   1.812   3.181
 4569SOL    HW214607   0.235   1.869   3.329
 4570SOL     OW14608   5.867   5.868   4.462
 4570SOL    HW114609   5.813   5.889   4.380
 4570SOL    HW214610   5.896   5.954   4.505
 4571SOL     OW14611   3.605   2.888   4.568
 4571SOL    HW114612   3.671   2.935   4.626
 4571SOL    HW214613   3.523   2.866   4.622
 4572SOL     OW14614   2.323   5.233   1.961
 4572SOL    HW114615   2.265   5.229   1.880
 4572SOL    HW214616   2.415   5.262   1.934
 4573SOL     OW14617   4.951   0.266   0.990
 4573SOL    HW114618   4.989   0.347   1.036
 4573SOL    HW214619   4.953   0.188   1.053
 4574SOL     OW14620   0.226   4.097   1.508
 4574SOL    HW114621   0.277   4.131   1.429
 4574SOL    HW214622   0.205   4.173   1.570
 4575SOL     OW14623   0.058   6.364   2.101
 4575SOL    HW114624   0.133   6.408   2.052
 4575SOL    HW214625   6.998   6.357   2.042
 4576SOL     OW14626   3.747   6.154   3.942
 4576SOL    HW114627   3.679   6.228   3.945
 4576SOL    HW214628   3.702   6.069   3.912
 4577SOL     OW14629   1.279   2.700   4.040
 4577SOL    HW114630   1.262   2.788   4.084
 4577SOL    HW214631   1.224   2.629   4.084
 4578SOL     OW14632   0.574   4.907   3.963
 4578SOL    HW114633   0.547   4.914   4.059
 4578SOL    HW214634   0.672   4.890   3.957
 4579SOL     OW14635   5.517   1.814   4.717
 4579SOL    HW114636   5.547   1.739   4.776
 4579SOL    HW214637   5.417   1.823   4.724
 4580SOL     OW14638   7.017   5.487   0.050
 4580SOL    HW114639   6.995   5.397   0.087
 4580SOL    HW214640   7.007   5.486   6.971
 4581SOL     OW14641   3.366   6.348   3.749
 4581SOL    HW114642   3.282   6.316   3.703
 4581SOL    HW214643   3.438   6.360   3.681
 4582SOL     OW14644   5.042   6.603   3.354
 4582SOL    HW114645   4.967   6.619   3.417
 4582SOL    HW214646   5.007   6.561   3.270
 4583SOL     OW14647   3.684   1.270   5.464
 4583SOL    HW114648   3.614   1.262   5.394
 4583SOL    HW214649   3.699   1.367   5.485
 4584SOL     OW14650   1.134   5.232   6.060
 4584SOL    HW114651   1.129   5.143   6.014
 4584SOL    HW214652   1.189   5.295   6.006
 4585SOL     OW14653   3.020   6.461   1.986
 4585SOL    HW114654   3.106   6.475   2.035
 4585SOL    HW214655   2.958   6.407   2.042
 4586SOL     OW14656   2.898   6.164   1.728
 4586SOL    HW114657   2.966   6.197   1.793
 4586SOL    HW214658   2.935   6.167   1.636
 4587SOL     OW14659   2.987   4.967   0.569
 4587SOL    HW114660   3.043   5.050   0.577
 4587SOL    HW214661   2.909   4.986   0.510
 4588SOL     OW14662   3.891   4.307   5.339
 4588SOL    HW114663   3.988   4.324   5.319
 4588SOL    HW214664   3.847   4.267   5.259
 4589SOL     OW14665   1.040   1.607   2.933
 4589SOL    HW114666   1.082   1.681   2.881
 4589SOL    HW214667   0.950   1.637   2.965
 4590SOL     OW14668   4.414   6.334   3.210
 4590SOL    HW114669   4.417   6.337   3.110
 4590SOL    HW214670   4.484   6.270   3.244
 4591SOL     OW14671   6.327   6.830   5.166
 4591SOL    HW114672   6.262   6.824   5.090
 4591SOL    HW214673   6.367   6.741   5.183
 4592SOL     OW14674   3.332   1.338   5.937
 4592SOL    HW114675   3.321   1.437   5.945
 4592SOL    HW214676   3.403   1.317   5.869
 4593SOL     OW14677   4.747   6.310   1.573
 4593SOL    HW114678   4.845   6.328   1.565
 4593SOL    HW214679   4.715   6.263   1.490
 4594SOL     OW14680   3.644   1.784   2.194
 4594SOL    HW114681   3.563   1.725   2.197
 4594SOL    HW214682   3.620   1.875   2.226
 4595SOL     OW14683   5.128   3.619   6.420
 4595SOL    HW114684   5.174   3.703   6.390
 4595SOL    HW214685   5.053   3.598   6.357
 4596SOL     OW14686   5.430   0.648   2.373
 4596SOL    HW114687   5.355   0.594   2.413
 4596SOL    HW214688   5.515   0.623   2.418
 4597SOL     OW14689   6.646   4.638   5.876
 4597SOL    HW114690   6.636   4.567   5.946
 4597SOL    HW214691   6.563   4.695   5.875
 4598SOL     OW14692   3.402   3.891   0.630
 4598SOL    HW114693   3.373   3.883   0.725
 4598SOL    HW214694   3.364   3.816   0.577
 4599SOL     OW14695   2.217   5.385   0.461
 4599SOL    HW114696   2.182   5.418   0.549
 4599SOL    HW214697   2.303   5.432   0.440
 4600SOL     OW14698   3.543   4.598   1.337
 4600SOL    HW114699   3.532   4.585   1.435
 4600SOL    HW214700   3.591   4.520   1.298
 4601SOL     OW14701   1.607   5.876   4.274
 4601SOL    HW114702   1.515   5.863   4.238
 4601SOL    HW214703   1.643   5.965   4.244
 4602SOL     OW14704   1.578   0.977   1.103
 4602SOL    HW114705   1.627   0.928   1.176
 4602SOL    HW214706   1.501   0.921   1.072
 4603SOL     OW14707   2.869   1.353   1.694
 4603SOL    HW114708   2.949   1.394   1.737
 4603SOL    HW214709   2.898   1.290   1.622
 4604SOL     OW14710   1.500   0.756   2.207
 4604SOL    HW114711   1.441   0.680   2.230
 4604SOL    HW214712   1.472   0.795   2.119
 4605SOL     OW14713   4.895   6.427   5.650
 4605SOL    HW114714   4.977   6.479   5.672
 4605SOL    HW214715   4.907   6.379   5.564
 4606SOL     OW14716   6.680   6.116   5.203
 4606SOL    HW114717   6.682   6.172   5.120
 4606SOL    HW214718   6.759   6.055   5.204
 4607SOL     OW14719   2.897   2.517   1.491
 4607SOL    HW114720   2.841   2.595   1.461
 4607SOL    HW214721   2.994   2.539   1.478
 4608SOL     OW14722   1.628   3.494   4.918
 4608SOL    HW114723   1.581   3.557   4.857
 4608SOL    HW214724   1.659   3.414   4.867
 4609SOL     OW14725   3.091   0.264   0.151
 4609SOL    HW114726   3.009   0.246   0.206
 4609SOL    HW214727   3.142   0.179   0.139
 4610SOL     OW14728   6.965   3.108   0.074
 4610SOL    HW114729   6.976   3.173   7.019
 4610SOL    HW214730   6.992   3.017   0.043
 4611SOL     OW14731   1.201   3.748   6.969
 4611SOL    HW114732   1.172   3.833   6.925
 4611SOL    HW214733   1.201   3.760   0.048
 4612SOL     OW14734   2.473   0.078   6.563
 4612SOL    HW114735   2.537   0.123   6.501
 4612SOL    HW214736   2.497   0.101   6.658
 4613SOL     OW14737   3.330   4.876   1.647
 4613SOL    HW114738   3.396   4.912   1.712
 4613SOL    HW214739   3.290   4.951   1.594
 4614SOL     OW14740   2.146   4.824   0.198
 4614SOL    HW114741   2.106   4.732   0.204
 4614SOL    HW214742   2.099   4.884   0.262
 4615SOL     OW14743   6.961   3.333   0.218
 4615SOL    HW114744   6.966   3.244   0.172
 4615SOL    HW214745   6.897   3.392   0.168
 4616SOL     OW14746   5.889   0.390   0.384
 4616SOL    HW114747   5.938   0.351   0.306
 4616SOL    HW214748   5.952   0.444   0.440
 4617SOL     OW14749   0.025   3.810   1.978
 4617SOL    HW114750   0.120   3.837   1.964
 4617SOL    HW214751   0.022   3.730   2.038
 4618SOL     OW14752   0.593   2.967   6.361
 4618SOL    HW114753   0.515   3.013   6.318
 4618SOL    HW214754   0.613   2.883   6.312
 4619SOL     OW14755   3.544   0.597   3.822
 4619SOL    HW114756   3.495   0.510   3.832
 4619SOL    HW214757   3.574   0.607   3.727
 4620SOL     OW14758   2.474   5.599   6.248
 4620SOL    HW114759   2.508   5.662   6.179
 4620SOL    HW214760   2.509   5.507   6.229
 4621SOL     OW14761   0.324   0.075   6.319
 4621SOL    HW114762   0.294   0.076   6.415
 4621SOL    HW214763   0.404   0.135   6.309
 4622SOL     OW14764   2.263   3.433   1.080
 4622SOL    HW114765   2.283   3.467   1.172
 4622SOL    HW214766   2.342   3.446   1.021
 4623SOL     OW14767   5.451   5.035   2.599
 4623SOL    HW114768   5.539   5.079   2.615
 4623SOL    HW214769   5.445   5.007   2.503
 4624SOL     OW14770   4.683   6.951   5.275
 4624SOL    HW114771   4.749   6.884   5.308
 4624SOL    HW214772   4.623   6.909   5.208
 4625SOL     OW14773   1.330   3.989   6.066
 4625SOL    HW114774   1.385   4.053   6.013
 4625SOL    HW214775   1.301   3.913   6.007
 4626SOL     OW14776   5.677   5.450   2.146
 4626SOL    HW114777   5.611   5.376   2.135
 4626SOL    HW214778   5.628   5.537   2.155
 4627SOL     OW14779   1.842   0.165   5.516
 4627SOL    HW114780   1.764   0.226   5.509
 4627SOL    HW214781   1.840   0.099   5.441
 4628SOL     OW14782   6.960   2.716   2.132
 4628SOL    HW114783   6.945   2.683   2.039
 4628SOL    HW214784   6.872   2.738   2.174
 4629SOL     OW14785   4.208   4.685   4.504
 4629SOL    HW114786   4.169   4.628   4.577
 4629SOL    HW214787   4.290   4.730   4.538
 4630SOL     OW14788   1.567   6.782   2.507
 4630SOL    HW114789   1.633   6.857   2.512
 4630SOL    HW214790   1.606   6.700   2.549
 4631SOL     OW14791   1.977   0.590   2.908
 4631SOL    HW114792   2.050   0.658   2.920
 4631SOL    HW214793   1.906   0.628   2.848
 4632SOL     OW14794   6.133   5.795   4.161
 4632SOL    HW114795   6.170   5.878   4.203
 4632SOL    HW214796   6.115   5.727   4.231
 4633SOL     OW14797   5.318   2.416   5.632
 4633SOL    HW114798   5.245   2.351   5.613
 4633SOL    HW214799   5.346   2.408   5.727
 4634SOL     OW14800   3.442   4.632   0.843
 4634SOL    HW114801   3.479   4.542   0.820
 4634SOL    HW214802   3.374   4.658   0.775
 4635SOL     OW14803   5.234   3.370   1.668
 4635SOL    HW114804   5.254   3.440   1.736
 4635SOL    HW214805   5.282   3.286   1.692
 4636SOL     OW14806   0.921   5.628   1.594
 4636SOL    HW114807   0.919   5.544   1.648
 4636SOL    HW214808   0.942   5.606   1.499
 4637SOL     OW14809   1.254   0.721   4.370
 4637SOL    HW114810   1.311   0.657   4.422
 4637SOL    HW214811   1.216   0.675   4.290
 4638SOL     OW14812   4.464   4.460   6.331
 4638SOL    HW114813   4.442   4.369   6.296
 4638SOL    HW214814   4.470   4.524   6.255
 4639SOL     OW14815   0.252   2.390   4.898
 4639SOL    HW114816   0.222   2.444   4.819
 4639SOL    HW214817   0.206   2.301   4.897
 4640SOL     OW14818   6.316   4.674   2.621
 4640SOL    HW114819   6.384   4.643   2.687
 4640SOL    HW214820   6.294   4.770   2.639
 4641SOL     OW14821   2.725   3.488   5.717
 4641SOL    HW114822   2.751   3.532   5.631
 4641SOL    HW214823   2.643   3.531   5.754
 4642SOL     OW14824   6.686   5.951   3.842
 4642SOL    HW114825   6.635   5.866   3.853
 4642SOL    HW214826   6.772   5.933   3.795
 4643SOL     OW14827   3.857   2.665   0.726
 4643SOL    HW114828   3.769   2.661   0.773
 4643SOL    HW214829   3.868   2.754   0.682
 4644SOL     OW14830   3.361   4.827   5.236
 4644SOL    HW114831   3.425   4.750   5.239
 4644SOL    HW214832   3.279   4.799   5.185
 4645SOL     OW14833   1.668   6.282   4.742
 4645SOL    HW114834   1.582   6.263   4.695
 4645SOL    HW214835   1.684   6.380   4.746
 4646SOL     OW14836   3.680   0.788   1.448
 4646SOL    HW114837   3.710   0.748   1.534
 4646SOL    HW214838   3.753   0.780   1.380
 4647SOL     OW14839   6.672   0.488   5.291
 4647SOL    HW114840   6.580   0.527   5.287
 4647SOL    HW214841   6.739   0.561   5.307
 4648SOL     OW14842   1.892   5.102   2.588
 4648SOL    HW114843   1.914   5.005   2.584
 4648SOL    HW214844   1.872   5.129   2.682
 4649SOL     OW14845   5.841   6.307   5.903
 4649SOL    HW114846   5.914   6.303   5.972
 4649SOL    HW214847   5.755   6.333   5.947
 4650SOL     OW14848   6.912   4.647   1.587
 4650SOL    HW114849   6.999   4.602   1.570
 4650SOL    HW214850   6.922   4.712   1.662
 4651SOL     OW14851   5.899   2.259   2.282
 4651SOL    HW114852   5.878   2.170   2.243
 4651SOL    HW214853   5.983   2.295   2.240
 4652SOL     OW14854   6.889   5.951   5.569
 4652SOL    HW114855   6.967   5.888   5.560
 4652SOL    HW214856   6.838   5.930   5.651
 4653SOL     OW14857   0.439   5.608   6.612
 4653SOL    HW114858   0.451   5.593   6.513
 4653SOL    HW214859   0.439   5.706   6.631
 4654SOL     OW14860   1.048   1.751   6.336
 4654SOL    HW114861   1.008   1.659   6.343
 4654SOL    HW214862   1.141   1.750   6.373
 4655SOL     OW14863   0.378   5.300   3.364
 4655SOL    HW114864   0.302   5.336   3.310
 4655SOL    HW214865   0.454   5.365   3.360
 4656SOL     OW14866   2.379   6.753   3.233
 4656SOL    HW114867   2.428   6.822   3.286
 4656SOL    HW214868   2.382   6.778   3.136
 4657SOL     OW14869   6.173   0.494   6.555
 4657SOL    HW114870   6.133   0.584   6.576
 4657SOL    HW214871   6.112   0.444   6.494
 4658SOL     OW14872   4.874   0.917   3.641
 4658SOL    HW114873   4.866   0.828   3.686
 4658SOL    HW214874   4.791   0.970   3.658
 4659SOL     OW14875   2.019   2.656   4.649
 4659SOL    HW114876   2.094   2.705   4.694
 4659SOL    HW214877   1.932   2.697   4.677
 4660SOL     OW14878   6.697   1.209   5.627
 4660SOL    HW114879   6.755   1.151   5.569
 4660SOL    HW214880   6.754   1.256   5.694
 4661SOL     OW14881   4.069   3.181   3.584
 4661SOL    HW114882   4.156   3.145   3.617
 4661SOL    HW214883   3.997   3.160   3.651
 4662SOL     OW14884   5.646   0.423   3.591
 4662SOL    HW114885   5.592   0.366   3.653
 4662SOL    HW214886   5.687   0.499   3.641
 4663SOL     OW14887   0.847   2.187   1.785
 4663SOL    HW114888   0.818   2.261   1.724
 4663SOL    HW214889   0.861   2.103   1.731
 4664SOL     OW14890   3.751   4.001   0.304
 4664SOL    HW114891   3.781   3.950   0.384
 4664SOL    HW214892   3.653   4.018   0.310
 4665SOL     OW14893   5.405   0.416   6.725
 4665SOL    HW114894   5.424   0.511   6.750
 4665SOL    HW214895   5.445   0.355   6.793
 4666SOL     OW14896   2.111   1.733   0.155
 4666SOL    HW114897   2.174   1.807   0.136
 4666SOL    HW214898   2.152   1.669   0.221
 4667SOL     OW14899   0.416   5.108   4.659
 4667SOL    HW114900   0.420   5.189   4.717
 4667SOL    HW214901   0.387   5.029   4.713
 4668SOL     OW14902   5.256   1.006   5.593
 4668SOL    HW114903   5.185   1.073   5.572
 4668SOL    HW214904   5.330   1.050   5.643
 4669SOL     OW14905   2.695   0.718   1.331
 4669SOL    HW114906   2.635   0.694   1.254
 4669SOL    HW214907   2.728   0.634   1.374
 4670SOL     OW14908   2.481   1.739   4.790
 4670SOL    HW114909   2.516   1.809   4.852
 4670SOL    HW214910   2.413   1.781   4.729
 4671SOL     OW14911   5.460   2.353   1.250
 4671SOL    HW114912   5.366   2.378   1.226
 4671SOL    HW214913   5.460   2.307   1.339
 4672SOL     OW14914   2.916   2.817   5.387
 4672SOL    HW114915   2.943   2.797   5.481
 4672SOL    HW214916   2.998   2.839   5.333
 4673SOL     OW14917   4.514   0.794   2.609
 4673SOL    HW114918   4.569   0.860   2.660
 4673SOL    HW214919   4.430   0.837   2.578
 4674SOL     OW14920   5.161   6.349   5.182
 4674SOL    HW114921   5.216   6.413   5.236
 4674SOL    HW214922   5.220   6.278   5.145
 4675SOL     OW14923   0.908   4.118   6.299
 4675SOL    HW114924   0.966   4.046   6.261
 4675SOL    HW214925   0.940   4.207   6.266
 4676SOL     OW14926   0.569   4.594   3.992
 4676SOL    HW114927   0.533   4.605   3.899
 4676SOL    HW214928   0.515   4.525   4.041
 4677SOL     OW14929   1.462   3.425   0.647
 4677SOL    HW114930   1.496   3.345   0.597
 4677SOL    HW214931   1.504   3.428   0.737
 4678SOL     OW14932   1.019   4.640   2.188
 4678SOL    HW114933   1.027   4.721   2.247
 4678SOL    HW214934   0.986   4.668   2.098
 4679SOL     OW14935   4.273   6.931   1.796
 4679SOL    HW114936   4.368   6.947   1.772
 4679SOL    HW214937   4.263   6.929   1.896
 4680SOL     OW14938   2.069   0.345   6.807
 4680SOL    HW114939   2.126   0.266   6.784
 4680SOL    HW214940   2.084   0.417   6.740
 4681SOL     OW14941   5.287   5.618   2.231
 4681SOL    HW114942   5.372   5.667   2.212
 4681SOL    HW214943   5.279   5.540   2.168
 4682SOL     OW14944   3.551   3.841   6.310
 4682SOL    HW114945   3.482   3.788   6.260
 4682SOL    HW214946   3.584   3.915   6.252
 4683SOL     OW14947   6.022   4.665   3.719
 4683SOL    HW114948   6.050   4.761   3.721
 4683SOL    HW214949   5.981   4.643   3.631
 4684SOL     OW14950   5.280   6.100   6.394
 4684SOL    HW114951   5.204   6.036   6.399
 4684SOL    HW214952   5.366   6.049   6.387
 4685SOL     OW14953   3.389   3.976   4.033
 4685SOL    HW114954   3.459   4.011   3.971
 4685SOL    HW214955   3.401   4.018   4.123
 4686SOL     OW14956   1.362   6.780   0.152
 4686SOL    HW114957   1.429   6.826   0.211
 4686SOL    HW214958   1.270   6.806   0.180
 4687SOL     OW14959   2.306   0.265   2.630
 4687SOL    HW114960   2.273   0.360   2.630
 4687SOL    HW214961   2.227   0.203   2.630
 4688SOL     OW14962   5.205   2.189   6.013
 4688SOL    HW114963   5.134   2.259   6.026
 4688SOL    HW214964   5.187   2.112   6.074
 4689SOL     OW14965   6.588   1.056   1.549
 4689SOL    HW114966   6.620   1.044   1.643
 4689SOL    HW214967   6.640   1.129   1.505
 4690SOL     OW14968   2.698   2.398   1.025
 4690SOL    HW114969   2.706   2.355   1.115
 4690SOL    HW214970   2.762   2.474   1.019
 4691SOL     OW14971   6.436   3.831   2.068
 4691SOL    HW114972   6.395   3.758   2.012
 4691SOL    HW214973   6.386   3.916   2.054
 4692SOL     OW14974   5.269   2.910   2.780
 4692SOL    HW114975   5.198   2.839   2.775
 4692SOL    HW214976   5.242   2.988   2.724
 4693SOL     OW14977   1.061   0.862   2.527
 4693SOL    HW114978   1.093   0.775   2.565
 4693SOL    HW214979   1.124   0.893   2.456
 4694SOL     OW14980   2.164   0.267   6.433
 4694SOL    HW114981   2.184   0.234   6.525
 4694SOL    HW214982   2.115   0.197   6.381
 4695SOL     OW14983   2.539   5.176   2.673
 4695SOL    HW114984   2.579   5.125   2.749
 4695SOL    HW214985   2.611   5.227   2.625
 4696SOL     OW14986   1.137   6.286   6.058
 4696SOL    HW114987   1.052   6.234   6.069
 4696SOL    HW214988   1.209   6.226   6.023
 4697SOL     OW14989   4.233   5.658   1.205
 4697SOL    HW114990   4.217   5.583   1.141
 4697SOL    HW214991   4.331   5.671   1.218
 4698SOL     OW14992   5.762   1.099   4.789
 4698SOL    HW114993   5.772   1.076   4.885
 4698SOL    HW214994   5.852   1.115   4.749
 4699SOL     OW14995   1.722   0.785   3.075
 4699SOL    HW114996   1.729   0.883   3.053
 4699SOL    HW214997   1.631   0.767   3.113
 4700SOL     OW14998   6.093   1.729   2.850
 4700SOL    HW114999   6.094   1.646   2.906
 4700SOL    HW215000   6.122   1.706   2.756
 4701SOL     OW15001   3.131   2.592   1.654
 4701SOL    HW115002   3.073   2.537   1.715
 4701SOL    HW215003   3.227   2.576   1.676
 4702SOL     OW15004   5.909   5.150   6.687
 4702SOL    HW115005   5.884   5.220   6.620
 4702SOL    HW215006   5.839   5.146   6.758
 4703SOL     OW15007   0.849   4.929   3.093
 4703SOL    HW115008   0.799   5.016   3.084
 4703SOL    HW215009   0.914   4.920   3.018
 4704SOL     OW15010   1.148   5.009   4.266
 4704SOL    HW115011   1.055   5.021   4.231
 4704SOL    HW215012   1.180   4.917   4.244
 4705SOL     OW15013   3.568   1.788   1.687
 4705SOL    HW115014   3.655   1.817   1.725
 4705SOL    HW215015   3.502   1.863   1.692
 4706SOL     OW15016   2.511   0.579   1.157
 4706SOL    HW115017   2.432   0.556   1.214
 4706SOL    HW215018   2.480   0.621   1.072
 4707SOL     OW15019   1.715   5.301   2.254
 4707SOL    HW115020   1.814   5.316   2.257
 4707SOL    HW215021   1.693   5.218   2.305
 4708SOL     OW15022   1.634   2.861   5.147
 4708SOL    HW115023   1.727   2.856   5.110
 4708SOL    HW215024   1.570   2.815   5.085
 4709SOL     OW15025   5.771   4.337   5.746
 4709SOL    HW115026   5.838   4.400   5.786
 4709SOL    HW215027   5.767   4.351   5.647
 4710SOL     OW15028   5.945   5.868   5.163
 4710SOL    HW115029   5.938   5.768   5.170
 4710SOL    HW215030   5.933   5.896   5.068
 4711SOL     OW15031   4.909   4.383   2.256
 4711SOL    HW115032   4.815   4.354   2.236
 4711SOL    HW215033   4.964   4.378   2.172
 4712SOL     OW15034   4.649   3.915   5.838
 4712SOL    HW115035   4.617   4.006   5.810
 4712SOL    HW215036   4.581   3.875   5.900
 4713SOL     OW15037   5.494   4.075   0.925
 4713SOL    HW115038   5.428   4.142   0.892
 4713SOL    HW215039   5.529   4.104   1.014
 4714SOL     OW15040   4.314   2.322   6.502
 4714SOL    HW115041   4.310   2.291   6.407
 4714SOL    HW215042   4.224   2.316   6.544
 4715SOL     OW15043   6.530   1.331   1.433
 4715SOL    HW115044   6.536   1.430   1.446
 4715SOL    HW215045   6.522   1.286   1.522
 4716SOL     OW15046   3.724   4.668   5.764
 4716SOL    HW115047   3.724   4.569   5.769
 4716SOL    HW215048   3.634   4.701   5.737
 4717SOL     OW15049   2.012   4.744   5.603
 4717SOL    HW115050   1.985   4.715   5.694
 4717SOL    HW215051   1.934   4.739   5.541
 4718SOL     OW15052   4.662   4.772   1.241
 4718SOL    HW115053   4.694   4.704   1.176
 4718SOL    HW215054   4.709   4.759   1.329
 4719SOL     OW15055   6.647   4.194   3.908
 4719SOL    HW115056   6.653   4.232   4.000
 4719SOL    HW215057   6.662   4.267   3.841
 4720SOL     OW15058   2.334   3.345   0.016
 4720SOL    HW115059   2.336   3.250   7.006
 4720SOL    HW215060   2.246   3.365   0.059
 4721SOL     OW15061   0.415   2.586   3.477
 4721SOL    HW115062   0.515   2.579   3.480
 4721SOL    HW215063   0.376   2.536   3.555
 4722SOL     OW15064   0.880   5.693   6.813
 4722SOL    HW115065   0.852   5.699   6.718
 4722SOL    HW215066   0.922   5.605   6.831
 4723SOL     OW15067   3.100   4.484   6.611
 4723SOL    HW115068   3.001   4.475   6.600
 4723SOL    HW215069   3.144   4.474   6.522
 4724SOL     OW15070   0.788   0.128   4.417
 4724SOL    HW115071   0.860   0.167   4.474
 4724SOL    HW215072   0.828   0.082   4.338
 4725SOL     OW15073   5.669   5.253   1.414
 4725SOL    HW115074   5.628   5.243   1.323
 4725SOL    HW215075   5.709   5.166   1.443
 4726SOL     OW15076   1.977   2.688   5.516
 4726SOL    HW115077   1.934   2.684   5.607
 4726SOL    HW215078   2.064   2.736   5.522
 4727SOL     OW15079   6.507   4.485   1.129
 4727SOL    HW115080   6.464   4.566   1.087
 4727SOL    HW215081   6.516   4.500   1.227
 4728SOL     OW15082   5.876   1.917   4.522
 4728SOL    HW115083   5.948   1.984   4.510
 4728SOL    HW215084   5.798   1.959   4.568
 4729SOL     OW15085   5.769   1.450   1.681
 4729SOL    HW115086   5.774   1.546   1.708
 4729SOL    HW215087   5.818   1.394   1.747
 4730SOL     OW15088   3.928   0.366   3.487
 4730SOL    HW115089   4.005   0.310   3.458
 4730SOL    HW215090   3.900   0.339   3.580
 4731SOL     OW15091   2.965   6.396   1.139
 4731SOL    HW115092   2.908   6.391   1.057
 4731SOL    HW215093   2.932   6.470   1.198
 4732SOL     OW15094   0.241   4.940   4.809
 4732SOL    HW115095   0.149   4.901   4.801
 4732SOL    HW215096   0.235   5.030   4.854
 4733SOL     OW15097   1.786   4.209   2.687
 4733SOL    HW115098   1.863   4.226   2.626
 4733SOL    HW215099   1.710   4.171   2.634
 4734SOL     OW15100   4.764   4.241   0.202
 4734SOL    HW115101   4.791   4.264   0.108
 4734SOL    HW215102   4.801   4.309   0.265
 4735SOL     OW15103   0.544   0.108   5.030
 4735SOL    HW115104   0.545   0.189   4.971
 4735SOL    HW215105   0.450   0.075   5.038
 4736SOL     OW15106   6.540   1.529   4.057
 4736SOL    HW115107   6.615   1.470   4.087
 4736SOL    HW215108   6.540   1.534   3.957
 4737SOL     OW15109   1.774   4.859   7.005
 4737SOL    HW115110   1.799   4.770   0.022
 4737SOL    HW215111   1.730   4.847   6.915
 4738SOL     OW15112   0.730   5.598   3.878
 4738SOL    HW115113   0.734   5.690   3.839
 4738SOL    HW215114   0.698   5.604   3.973
 4739SOL     OW15115   5.890   3.167   3.134
 4739SOL    HW115116   5.799   3.207   3.146
 4739SOL    HW215117   5.882   3.071   3.109
 4740SOL     OW15118   1.399   0.330   0.699
 4740SOL    HW115119   1.332   0.360   0.766
 4740SOL    HW215120   1.356   0.323   0.609
 4741SOL     OW15121   5.517   4.710   0.974
 4741SOL    HW115122   5.541   4.804   0.997
 4741SOL    HW215123   5.559   4.647   1.040
 4742SOL     OW15124   2.643   5.467   2.225
 4742SOL    HW115125   2.586   5.524   2.283
 4742SOL    HW215126   2.740   5.488   2.241
 4743SOL     OW15127   2.678   3.704   0.534
 4743SOL    HW115128   2.663   3.650   0.451
 4743SOL    HW215129   2.776   3.707   0.554
 4744SOL     OW15130   2.685   1.925   5.235
 4744SOL    HW115131   2.621   1.877   5.296
 4744SOL    HW215132   2.705   1.867   5.156
 4745SOL     OW15133   4.286   4.895   5.039
 4745SOL    HW115134   4.333   4.970   4.992
 4745SOL    HW215135   4.354   4.833   5.078
 4746SOL     OW15136   5.818   1.207   1.551
 4746SOL    HW115137   5.899   1.177   1.602
 4746SOL    HW215138   5.777   1.286   1.597
 4747SOL     OW15139   0.517   2.969   2.081
 4747SOL    HW115140   0.515   2.872   2.105
 4747SOL    HW215141   0.450   2.987   2.009
 4748SOL     OW15142   1.825   0.755   1.050
 4748SOL    HW115143   1.910   0.715   1.086
 4748SOL    HW215144   1.847   0.830   0.988
 4749SOL     OW15145   2.711   0.164   6.476
 4749SOL    HW115146   2.787   0.128   6.530
 4749SOL    HW215147   2.742   0.243   6.423
 4750SOL     OW15148   0.823   1.572   4.596
 4750SOL    HW115149   0.870   1.652   4.634
 4750SOL    HW215150   0.854   1.490   4.642
 4751SOL     OW15151   1.125   3.825   5.579
 4751SOL    HW115152   1.170   3.909   5.610
 4751SOL    HW215153   1.129   3.756   5.652
 4752SOL     OW15154   1.846   6.058   1.154
 4752SOL    HW115155   1.889   6.072   1.243
 4752SOL    HW215156   1.917   6.058   1.083
 4753SOL     OW15157   0.472   6.557   5.758
 4753SOL    HW115158   0.525   6.627   5.807
 4753SOL    HW215159   0.502   6.555   5.662
 4754SOL     OW15160   1.091   1.276   6.390
 4754SOL    HW115161   0.997   1.244   6.384
 4754SOL    HW215162   1.107   1.318   6.479
 4755SOL     OW15163   2.844   0.496   1.395
 4755SOL    HW115164   2.925   0.538   1.355
 4755SOL    HW215165   2.872   0.425   1.460
 4756SOL     OW15166   5.057   2.913   1.586
 4756SOL    HW115167   4.971   2.865   1.569
 4756SOL    HW215168   5.114   2.858   1.646
 4757SOL     OW15169   2.472   1.494   1.170
 4757SOL    HW115170   2.554   1.440   1.150
 4757SOL    HW215171   2.498   1.584   1.204
 4758SOL     OW15172   5.419   3.675   5.576
 4758SOL    HW115173   5.424   3.772   5.551
 4758SOL    HW215174   5.436   3.665   5.674
 4759SOL     OW15175   6.041   4.046   6.308
 4759SOL    HW115176   6.122   3.988   6.297
 4759SOL    HW215177   5.997   4.027   6.396
 4760SOL     OW15178   1.828   2.931   0.646
 4760SOL    HW115179   1.814   2.943   0.744
 4760SOL    HW215180   1.926   2.926   0.626
 4761SOL     OW15181   1.531   5.925   5.685
 4761SOL    HW115182   1.442   5.969   5.676
 4761SOL    HW215183   1.559   5.926   5.781
 4762SOL     OW15184   4.131   6.599   2.551
 4762SOL    HW115185   4.039   6.619   2.583
 4762SOL    HW215186   4.166   6.676   2.498
 4763SOL     OW15187   5.794   5.242   4.937
 4763SOL    HW115188   5.816   5.148   4.911
 4763SOL    HW215189   5.718   5.275   4.880
 4764SOL     OW15190   3.674   3.861   4.172
 4764SOL    HW115191   3.575   3.870   4.178
 4764SOL    HW215192   3.715   3.949   4.150
 4765SOL     OW15193   6.888   4.973   5.563
 4765SOL    HW115194   6.803   4.966   5.512
 4765SOL    HW215195   6.901   5.068   5.593
 4766SOL     OW15196   3.623   0.591   3.519
 4766SOL    HW115197   3.722   0.604   3.527
 4766SOL    HW215198   3.605   0.513   3.458
 4767SOL     OW15199   3.898   6.739   6.763
 4767SOL    HW115200   3.810   6.704   6.729
 4767SOL    HW215201   3.972   6.699   6.709
 4768SOL     OW15202   1.126   0.959   5.104
 4768SOL    HW115203   1.219   0.991   5.123
 4768SOL    HW215204   1.060   1.014   5.156
 4769SOL     OW15205   3.600   1.018   1.570
 4769SOL    HW115206   3.642   0.933   1.540
 4769SOL    HW215207   3.670   1.079   1.608
 4770SOL     OW15208   1.855   0.442   3.930
 4770SOL    HW115209   1.894   0.409   3.844
 4770SOL    HW215210   1.811   0.367   3.978
 4771SOL     OW15211   4.168   4.358   5.380
 4771SOL    HW115212   4.219   4.356   5.294
 4771SOL    HW215213   4.210   4.294   5.445
 4772SOL     OW15214   2.081   3.336   0.146
 4772SOL    HW115215   2.069   3.364   0.242
 4772SOL    HW215216   1.993   3.342   0.099
 4773SOL     OW15217   0.163   5.301   4.101
 4773SOL    HW115218   0.237   5.305   4.033
 4773SOL    HW215219   0.075   5.311   4.054
 4774SOL     OW15220   1.607   4.407   6.647
 4774SOL    HW115221   1.551   4.484   6.616
 4774SOL    HW215222   1.548   4.333   6.678
 4775SOL     OW15223   2.040   1.691   2.604
 4775SOL    HW115224   2.056   1.650   2.514
 4775SOL    HW215225   2.126   1.725   2.641
 4776SOL     OW15226   4.238   4.616   2.089
 4776SOL    HW115227   4.237   4.714   2.070
 4776SOL    HW215228   4.151   4.576   2.060
 4777SOL     OW15229   2.984   3.952   1.459
 4777SOL    HW115230   3.031   3.918   1.378
 4777SOL    HW215231   2.947   4.043   1.441
 4778SOL     OW15232   5.168   4.067   3.000
 4778SOL    HW115233   5.183   4.066   3.099
 4778SOL    HW215234   5.239   4.011   2.956
 4779SOL     OW15235   5.207   0.793   2.752
 4779SOL    HW115236   5.274   0.867   2.757
 4779SOL    HW215237   5.139   0.806   2.823
 4780SOL     OW15238   1.484   0.159   5.228
 4780SOL    HW115239   1.492   0.250   5.268
 4780SOL    HW215240   1.387   0.137   5.216
 4781SOL     OW15241   2.517   5.730   3.041
 4781SOL    HW115242   2.460   5.649   3.030
 4781SOL    HW215243   2.521   5.755   3.138
 4782SOL     OW15244   5.897   5.904   0.384
 4782SOL    HW115245   5.911   5.984   0.326
 4782SOL    HW215246   5.799   5.884   0.390
 4783SOL     OW15247   6.119   4.040   2.256
 4783SOL    HW115248   6.196   4.042   2.192
 4783SOL    HW215249   6.109   4.130   2.298
 4784SOL     OW15250   5.706   4.393   5.142
 4784SOL    HW115251   5.643   4.362   5.214
 4784SOL    HW215252   5.688   4.490   5.124
 4785SOL     OW15253   5.667   6.639   0.567
 4785SOL    HW115254   5.567   6.648   0.565
 4785SOL    HW215255   5.694   6.562   0.510
 4786SOL     OW15256   1.200   2.950   2.108
 4786SOL    HW115257   1.275   2.988   2.055
 4786SOL    HW215258   1.207   2.850   2.109
 4787SOL     OW15259   4.503   2.230   2.920
 4787SOL    HW115260   4.508   2.144   2.868
 4787SOL    HW215261   4.409   2.243   2.952
 4788SOL     OW15262   1.895   6.633   5.221
 4788SOL    HW115263   1.892   6.589   5.311
 4788SOL    HW215264   1.942   6.574   5.156
 4789SOL     OW15265   5.398   6.606   0.532
 4789SOL    HW115266   5.385   6.620   0.434
 4789SOL    HW215267   5.377   6.690   0.582
 4790SOL     OW15268   5.441   0.292   6.492
 4790SOL    HW115269   5.540   0.277   6.499
 4790SOL    HW215270   5.407   0.331   6.578
 4791SOL     OW15271   4.648   1.603   3.261
 4791SOL    HW115272   4.666   1.608   3.163
 4791SOL    HW215273   4.684   1.685   3.305
 4792SOL     OW15274   3.093   2.400   1.154
 4792SOL    HW115275   3.015   2.438   1.104
 4792SOL    HW215276   3.113   2.459   1.232
 4793SOL     OW15277   0.672   0.485   6.887
 4793SOL    HW115278   0.592   0.513   6.941
 4793SOL    HW215279   0.660   0.513   6.792
 4794SOL     OW15280   4.842   1.137   1.681
 4794SOL    HW115281   4.871   1.062   1.622
 4794SOL    HW215282   4.757   1.176   1.646
 4795SOL     OW15283   5.917   3.004   4.717
 4795SOL    HW115284   5.838   3.025   4.659
 4795SOL    HW215285   6.000   3.038   4.673
 4796SOL     OW15286   5.703   3.736   0.568
 4796SOL    HW115287   5.663   3.793   0.640
 4796SOL    HW215288   5.737   3.795   0.494
 4797SOL     OW15289   0.491   4.816   4.921
 4797SOL    HW115290   0.508   4.825   5.019
 4797SOL    HW215291   0.409   4.867   4.897
 4798SOL     OW15292   6.910   4.762   5.393
 4798SOL    HW115293   6.902   4.798   5.485
 4798SOL    HW215294   6.843   4.805   5.334
 4799SOL     OW15295   4.133   0.947   4.791
 4799SOL    HW115296   4.082   0.863   4.806
 4799SOL    HW215297   4.137   1.000   4.876
 4800SOL     OW15298   2.006   2.399   3.737
 4800SOL    HW115299   1.980   2.303   3.751
 4800SOL    HW215300   2.061   2.430   3.815
 4801SOL     OW15301   0.935   2.769   0.764
 4801SOL    HW115302   0.839   2.785   0.788
 4801SOL    HW215303   0.960   2.826   0.686
 4802SOL     OW15304   1.970   0.311   1.691
 4802SOL    HW115305   2.061   0.345   1.714
 4802SOL    HW215306   1.951   0.228   1.744
 4803SOL     OW15307   0.638   0.219   1.344
 4803SOL    HW115308   0.569   0.287   1.319
 4803SOL    HW215309   0.596   0.128   1.345
 4804SOL     OW15310   3.851   5.478   0.043
 4804SOL    HW115311   3.766   5.504   7.018
 4804SOL    HW215312   3.865   5.380   0.034
 4805SOL     OW15313   0.292   0.848   1.244
 4805SOL    HW115314   0.241   0.907   1.306
 4805SOL    HW215315   0.325   0.902   1.167
 4806SOL     OW15316   6.915   2.800   3.462
 4806SOL    HW115317   7.014   2.785   3.468
 4806SOL    HW215318   6.896   2.898   3.464
 4807SOL     OW15319   0.632   6.362   1.689
 4807SOL    HW115320   0.703   6.327   1.628
 4807SOL    HW215321   0.637   6.461   1.693
 4808SOL     OW15322   5.327   2.876   0.906
 4808SOL    HW115323   5.370   2.806   0.849
 4808SOL    HW215324   5.246   2.912   0.859
 4809SOL     OW15325   3.968   6.989   6.802
 4809SOL    HW115326   3.989   6.899   6.765
 4809SOL    HW215327   3.870   6.994   6.824
 4810SOL     OW15328   1.231   0.449   0.877
 4810SOL    HW115329   1.175   0.513   0.931
 4810SOL    HW215330   1.231   0.360   0.921
 4811SOL     OW15331   5.400   5.130   3.037
 4811SOL    HW115332   5.462   5.123   3.115
 4811SOL    HW215333   5.413   5.219   2.992
 4812SOL     OW15334   6.472   5.086   4.216
 4812SOL    HW115335   6.536   5.017   4.251
 4812SOL    HW215336   6.523   5.157   4.169
 4813SOL     OW15337   5.629   3.286   3.181
 4813SOL    HW115338   5.573   3.307   3.100
 4813SOL    HW215339   5.574   3.301   3.264
 4814SOL     OW15340   6.345   3.558   1.684
 4814SOL    HW115341   6.342   3.458   1.679
 4814SOL    HW215342   6.413   3.593   1.620
 4815SOL     OW15343   4.353   0.518   3.196
 4815SOL    HW115344   4.305   0.488   3.114
 4815SOL    HW215345   4.433   0.460   3.212
 4816SOL     OW15346   5.292   4.693   3.197
 4816SOL    HW115347   5.206   4.653   3.231
 4816SOL    HW215348   5.353   4.712   3.274
 4817SOL     OW15349   0.032   1.486   0.076
 4817SOL    HW115350   6.974   1.498   0.014
 4817SOL    HW215351   0.111   1.452   0.026
 4818SOL     OW15352   0.518   6.155   3.738
 4818SOL    HW115353   0.603   6.148   3.791
 4818SOL    HW215354   0.493   6.065   3.704
 4819SOL     OW15355   1.983   3.319   1.034
 4819SOL    HW115356   1.963   3.221   1.028
 4819SOL    HW215357   2.078   3.332   1.061
 4820SOL     OW15358   0.333   2.721   2.918
 4820SOL    HW115359   0.287   2.734   3.005
 4820SOL    HW215360   0.279   2.763   2.845
 4821SOL     OW15361   0.550   5.453   3.714
 4821SOL    HW115362   0.624   5.494   3.768
 4821SOL    HW215363   0.575   5.359   3.689
 4822SOL     OW15364   2.393   4.299   4.254
 4822SOL    HW115365   2.330   4.250   4.314
 4822SOL    HW215366   2.452   4.358   4.309
 4823SOL     OW15367   2.085   3.032   0.862
 4823SOL    HW115368   2.118   2.949   0.818
 4823SOL    HW215369   2.123   3.038   0.955
 4824SOL     OW15370   6.011   1.480   0.141
 4824SOL    HW115371   6.090   1.457   0.084
 4824SOL    HW215372   6.039   1.544   0.212
 4825SOL     OW15373   1.486   6.794   3.595
 4825SOL    HW115374   1.511   6.890   3.597
 4825SOL    HW215375   1.529   6.746   3.671
 4826SOL     OW15376   3.742   6.053   0.860
 4826SOL    HW115377   3.677   6.048   0.785
 4826SOL    HW215378   3.829   6.091   0.827
 4827SOL     OW15379   6.879   1.599   1.504
 4827SOL    HW115380   6.780   1.581   1.507
 4827SOL    HW215381   6.929   1.519   1.536
 4828SOL     OW15382   5.161   1.388   5.665
 4828SOL    HW115383   5.114   1.473   5.691
 4828SOL    HW215384   5.251   1.386   5.708
 4829SOL     OW15385   4.305   6.374   5.278
 4829SOL    HW115386   4.241   6.448   5.262
 4829SOL    HW215387   4.259   6.286   5.269
 4830SOL     OW15388   1.992   6.417   3.517
 4830SOL    HW115389   1.939   6.435   3.600
 4830SOL    HW215390   2.089   6.416   3.539
 4831SOL     OW15391   3.231   4.663   5.433
 4831SOL    HW115392   3.224   4.566   5.456
 4831SOL    HW215393   3.324   4.684   5.404
 4832SOL     OW15394   4.130   3.613   4.605
 4832SOL    HW115395   4.074   3.655   4.534
 4832SOL    HW215396   4.216   3.663   4.614
 4833SOL     OW15397   6.214   2.306   5.668
 4833SOL    HW115398   6.306   2.270   5.652
 4833SOL    HW215399   6.161   2.302   5.584
 4834SOL     OW15400   1.020   5.296   1.571
 4834SOL    HW115401   1.056   5.291   1.477
 4834SOL    HW215402   0.933   5.248   1.576
 4835SOL     OW15403   0.267   3.298   6.593
 4835SOL    HW115404   0.302   3.241   6.668
 4835SOL    HW215405   0.182   3.260   6.559
 4836SOL     OW15406   4.354   2.058   5.638
 4836SOL    HW115407   4.348   2.103   5.549
 4836SOL    HW215408   4.354   1.959   5.625
 4837SOL     OW15409   1.127   3.672   4.237
 4837SOL    HW115410   1.154   3.717   4.322
 4837SOL    HW215411   1.169   3.719   4.159
 4838SOL     OW15412   1.841   4.049   6.033
 4838SOL    HW115413   1.879   3.957   6.039
 4838SOL    HW215414   1.816   4.082   6.124
 4839SOL     OW15415   2.887   0.978   1.121
 4839SOL    HW115416   2.791   0.994   1.097
 4839SOL    HW215417   2.894   0.959   1.218
 4840SOL     OW15418   5.208   3.340   5.175
 4840SOL    HW115419   5.145   3.291   5.115
 4840SOL    HW215420   5.206   3.438   5.154
 4841SOL     OW15421   2.911   6.791   3.129
 4841SOL    HW115422   2.940   6.844   3.208
 4841SOL    HW215423   2.991   6.763   3.076
 4842SOL     OW15424   3.509   5.786   3.492
 4842SOL    HW115425   3.600   5.828   3.488
 4842SOL    HW215426   3.440   5.858   3.484
 4843SOL     OW15427   6.054   1.367   0.715
 4843SOL    HW115428   6.095   1.291   0.665
 4843SOL    HW215429   6.097   1.375   0.805
 4844SOL     OW15430   1.293   5.786   6.538
 4844SOL    HW115431   1.219   5.767   6.474
 4844SOL    HW215432   1.257   5.792   6.631
 4845SOL     OW15433   4.818   3.873   5.100
 4845SOL    HW115434   4.913   3.904   5.103
 4845SOL    HW215435   4.814   3.783   5.057
 4846SOL     OW15436   6.728   3.636   4.962
 4846SOL    HW115437   6.694   3.649   4.869
 4846SOL    HW215438   6.665   3.578   5.013
 4847SOL     OW15439   2.853   0.111   6.948
 4847SOL    HW115440   2.844   0.190   6.887
 4847SOL    HW215441   2.947   0.075   6.942
 4848SOL     OW15442   4.710   1.704   3.546
 4848SOL    HW115443   4.737   1.610   3.524
 4848SOL    HW215444   4.786   1.765   3.524
 4849SOL     OW15445   2.182   6.568   1.588
 4849SOL    HW115446   2.232   6.541   1.670
 4849SOL    HW215447   2.236   6.634   1.536
 4850SOL     OW15448   3.402   6.537   1.922
 4850SOL    HW115449   3.489   6.565   1.962
 4850SOL    HW215450   3.333   6.529   1.993
 4851SOL     OW15451   4.109   4.670   0.048
 4851SOL    HW115452   4.010   4.662   0.054
 4851SOL    HW215453   4.144   4.713   0.131
 4852SOL     OW15454   4.961   5.059   5.850
 4852SOL    HW115455   5.007   5.061   5.761
 4852SOL    HW215456   4.876   5.111   5.844
 4853SOL     OW15457   4.309   0.436   2.917
 4853SOL    HW115458   4.403   0.410   2.941
 4853SOL    HW215459   4.267   0.363   2.862
 4854SOL     OW15460   4.497   6.626   2.471
 4854SOL    HW115461   4.520   6.719   2.440
 4854SOL    HW215462   4.554   6.560   2.424
 4855SOL     OW15463   4.902   5.280   5.585
 4855SOL    HW115464   4.861   5.266   5.675
 4855SOL    HW215465   4.831   5.303   5.518
 4856SOL     OW15466   0.144   2.939   3.128
 4856SOL    HW115467   0.156   3.028   3.172
 4856SOL    HW215468   0.234   2.897   3.114
 4857SOL     OW15469   1.929   2.467   4.975
 4857SOL    HW115470   1.987   2.446   5.054
 4857SOL    HW215471   1.947   2.400   4.902
 4858SOL     OW15472   1.332   5.734   4.824
 4858SOL    HW115473   1.355   5.653   4.878
 4858SOL    HW215474   1.284   5.800   4.882
 4859SOL     OW15475   6.717   5.794   3.379
 4859SOL    HW115476   6.617   5.797   3.385
 4859SOL    HW215477   6.757   5.854   3.448
 4860SOL     OW15478   3.481   5.727   1.605
 4860SOL    HW115479   3.434   5.673   1.534
 4860SOL    HW215480   3.413   5.777   1.658
 4861SOL     OW15481   0.142   4.634   5.643
 4861SOL    HW115482   0.108   4.718   5.684
 4861SOL    HW215483   0.099   4.555   5.687
 4862SOL     OW15484   1.848   6.090   4.290
 4862SOL    HW115485   1.937   6.045   4.280
 4862SOL    HW215486   1.811   6.072   4.381
 4863SOL     OW15487   5.750   1.704   1.757
 4863SOL    HW115488   5.749   1.730   1.660
 4863SOL    HW215489   5.704   1.775   1.810
 4864SOL     OW15490   2.315   1.941   1.160
 4864SOL    HW115491   2.385   1.890   1.110
 4864SOL    HW215492   2.353   2.028   1.192
 4865SOL     OW15493   3.902   6.414   4.823
 4865SOL    HW115494   3.996   6.394   4.795
 4865SOL    HW215495   3.903   6.483   4.896
 4866SOL     OW15496   0.700   5.699   1.459
 4866SOL    HW115497   0.672   5.616   1.411
 4866SOL    HW215498   0.789   5.685   1.501
 4867SOL     OW15499   5.428   4.940   4.818
 4867SOL    HW115500   5.399   4.886   4.896
 4867SOL    HW215501   5.497   4.890   4.766
 4868SOL     OW15502   1.806   5.599   1.758
 4868SOL    HW115503   1.741   5.578   1.685
 4868SOL    HW215504   1.758   5.645   1.833
 4869SOL     OW15505   6.641   1.126   2.013
 4869SOL    HW115506   6.555   1.158   2.051
 4869SOL    HW215507   6.703   1.100   2.087
 4870SOL     OW15508   5.822   0.861   1.088
 4870SOL    HW115509   5.826   0.949   1.039
 4870SOL    HW215510   5.868   0.870   1.176
 4871SOL     OW15511   1.612   3.668   4.650
 4871SOL    HW115512   1.633   3.660   4.552
 4871SOL    HW215513   1.581   3.761   4.669
 4872SOL     OW15514   1.474   1.402   3.864
 4872SOL    HW115515   1.497   1.330   3.798
 4872SOL    HW215516   1.478   1.365   3.956
 4873SOL     OW15517   1.173   6.626   5.256
 4873SOL    HW115518   1.255   6.648   5.203
 4873SOL    HW215519   1.199   6.585   5.343
 4874SOL     OW15520   6.260   2.446   3.132
 4874SOL    HW115521   6.319   2.500   3.191
 4874SOL    HW215522   6.281   2.464   3.036
 4875SOL     OW15523   0.144   2.853   6.329
 4875SOL    HW115524   0.140   2.784   6.257
 4875SOL    HW215525   0.136   2.944   6.290
 4876SOL     OW15526   6.820   1.447   6.868
 4876SOL    HW115527   6.893   1.389   6.834
 4876SOL    HW215528   6.740   1.391   6.890
 4877SOL     OW15529   5.551   1.495   1.411
 4877SOL    HW115530   5.489   1.419   1.431
 4877SOL    HW215531   5.619   1.466   1.345
 4878SOL     OW15532   0.844   3.046   1.586
 4878SOL    HW115533   0.842   2.947   1.600
 4878SOL    HW215534   0.790   3.069   1.504
 4879SOL     OW15535   4.518   5.846   3.271
 4879SOL    HW115536   4.606   5.812   3.305
 4879SOL    HW215537   4.446   5.782   3.299
 4880SOL     OW15538   5.939   1.889   5.555
 4880SOL    HW115539   5.904   1.939   5.476
 4880SOL    HW215540   5.986   1.807   5.525
 4881SOL     OW15541   2.950   5.832   5.745
 4881SOL    HW115542   2.936   5.842   5.646
 4881SOL    HW215543   2.961   5.735   5.767
 4882SOL     OW15544   5.177   6.148   0.070
 4882SOL    HW115545   5.117   6.225   0.092
 4882SOL    HW215546   5.122   6.065   0.059
 4883SOL     OW15547   6.491   5.167   6.301
 4883SOL    HW115548   6.394   5.174   6.277
 4883SOL    HW215549   6.519   5.070   6.299
 4884SOL     OW15550   4.098   6.635   2.142
 4884SOL    HW115551   4.126   6.538   2.142
 4884SOL    HW215552   4.083   6.665   2.048
 4885SOL     OW15553   1.910   7.013   2.133
 4885SOL    HW115554   1.831   6.979   2.083
 4885SOL    HW215555   1.885   0.074   2.186
 4886SOL     OW15556   5.705   0.686   5.698
 4886SOL    HW115557   5.714   0.587   5.696
 4886SOL    HW215558   5.740   0.721   5.784
 4887SOL     OW15559   0.582   1.650   5.173
 4887SOL    HW115560   0.673   1.648   5.133
 4887SOL    HW215561   0.537   1.736   5.150
 4888SOL     OW15562   3.492   6.193   1.930
 4888SOL    HW115563   3.399   6.190   1.968
 4888SOL    HW215564   3.488   6.229   1.837
 4889SOL     OW15565   1.237   3.505   6.815
 4889SOL    HW115566   1.228   3.588   6.869
 4889SOL    HW215567   1.265   3.529   6.722
 4890SOL     OW15568   0.203   0.497   4.217
 4890SOL    HW115569   0.191   0.444   4.301
 4890SOL    HW215570   0.158   0.586   4.227
 4891SOL     OW15571   1.211   4.337   0.737
 4891SOL    HW115572   1.288   4.331   0.673
 4891SOL    HW215573   1.177   4.431   0.739
 4892SOL     OW15574   2.289   5.367   2.192
 4892SOL    HW115575   2.340   5.309   2.128
 4892SOL    HW215576   2.226   5.425   2.141
 4893SOL     OW15577   0.413   3.937   6.819
 4893SOL    HW115578   0.487   3.888   6.774
 4893SOL    HW215579   0.383   3.886   6.899
 4894SOL     OW15580   0.792   0.133   2.905
 4894SOL    HW115581   0.811   0.147   2.808
 4894SOL    HW215582   0.831   0.046   2.935
 4895SOL     OW15583   5.960   4.244   6.652
 4895SOL    HW115584   5.988   4.159   6.607
 4895SOL    HW215585   5.868   4.233   6.690
 4896SOL     OW15586   4.514   6.387   4.084
 4896SOL    HW115587   4.560   6.438   4.011
 4896SOL    HW215588   4.416   6.385   4.066
 4897SOL     OW15589   2.403   5.971   6.814
 4897SOL    HW115590   2.377   6.003   6.723
 4897SOL    HW215591   2.331   5.913   6.851
 4898SOL     OW15592   5.839   1.900   4.862
 4898SOL    HW115593   5.883   1.831   4.804
 4898SOL    HW215594   5.843   1.989   4.816
 4899SOL     OW15595   5.166   4.836   4.592
 4899SOL    HW115596   5.089   4.809   4.534
 4899SOL    HW215597   5.235   4.764   4.591
 4900SOL     OW15598   0.782   6.297   4.577
 4900SOL    HW115599   0.765   6.388   4.539
 4900SOL    HW215600   0.837   6.305   4.660
 4901SOL     OW15601   0.015   6.505   3.224
 4901SOL    HW115602   0.095   6.444   3.218
 4901SOL    HW215603   6.976   6.490   3.144
 4902SOL     OW15604   3.319   4.397   1.321
 4902SOL    HW115605   3.378   4.463   1.274
 4902SOL    HW215606   3.365   4.309   1.325
 4903SOL     OW15607   5.229   5.390   6.018
 4903SOL    HW115608   5.305   5.327   6.036
 4903SOL    HW215609   5.236   5.425   5.924
 4904SOL     OW15610   2.641   7.004   3.584
 4904SOL    HW115611   2.638   6.911   3.547
 4904SOL    HW215612   2.703   7.006   3.663
 4905SOL     OW15613   6.361   2.968   3.383
 4905SOL    HW115614   6.361   3.066   3.361
 4905SOL    HW215615   6.325   2.917   3.305
 4906SOL     OW15616   5.255   0.595   1.087
 4906SOL    HW115617   5.249   0.677   1.030
 4906SOL    HW215618   5.166   0.578   1.129
 4907SOL     OW15619   2.751   1.670   2.022
 4907SOL    HW115620   2.734   1.572   2.020
 4907SOL    HW215621   2.672   1.719   1.985
 4908SOL     OW15622   4.270   6.313   0.663
 4908SOL    HW115623   4.234   6.223   0.689
 4908SOL    HW215624   4.367   6.318   0.684
 4909SOL     OW15625   6.665   0.127   4.943
 4909SOL    HW115626   6.719   0.163   4.867
 4909SOL    HW215627   6.712   0.145   5.029
 4910SOL     OW15628   5.601   6.395   6.041
 4910SOL    HW115629   5.579   6.365   6.133
 4910SOL    HW215630   5.523   6.443   6.001
 4911SOL     OW15631   0.918   3.952   6.553
 4911SOL    HW115632   0.976   3.877   6.521
 4911SOL    HW215633   0.852   3.977   6.481
 4912SOL     OW15634   2.344   2.290   1.486
 4912SOL    HW115635   2.255   2.336   1.496
 4912SOL    HW215636   2.417   2.355   1.502
 4913SOL     OW15637   2.555   3.017   1.728
 4913SOL    HW115638   2.617   3.089   1.759
 4913SOL    HW215639   2.464   3.055   1.714
 4914SOL     OW15640   1.305   6.884   2.453
 4914SOL    HW115641   1.385   6.838   2.491
 4914SOL    HW215642   1.333   6.970   2.410
 4915SOL     OW15643   2.957   6.401   3.324
 4915SOL    HW115644   3.008   6.405   3.238
 4915SOL    HW215645   2.983   6.478   3.382
 4916SOL     OW15646   1.741   1.873   2.431
 4916SOL    HW115647   1.800   1.949   2.457
 4916SOL    HW215648   1.648   1.906   2.416
 4917SOL     OW15649   1.987   4.297   6.077
 4917SOL    HW115650   1.962   4.207   6.040
 4917SOL    HW215651   1.922   4.365   6.045
 4918SOL     OW15652   2.140   0.206   3.639
 4918SOL    HW115653   2.170   0.297   3.611
 4918SOL    HW215654   2.201   0.172   3.711
 4919SOL     OW15655   2.349   3.183   1.647
 4919SOL    HW115656   2.275   3.204   1.711
 4919SOL    HW215657   2.424   3.249   1.661
 4920SOL     OW15658   3.608   0.835   0.012
 4920SOL    HW115659   3.570   0.850   0.103
 4920SOL    HW215660   3.695   0.786   0.020
 4921SOL     OW15661   6.802   4.789   1.354
 4921SOL    HW115662   6.883   4.750   1.309
 4921SOL    HW215663   6.782   4.738   1.437
 4922SOL     OW15664   1.257   2.696   6.278
 4922SOL    HW115665   1.320   2.743   6.341
 4922SOL    HW215666   1.163   2.722   6.300
 4923SOL     OW15667   2.715   2.386   6.804
 4923SOL    HW115668   2.675   2.425   6.721
 4923SOL    HW215669   2.810   2.417   6.813
 4924SOL     OW15670   6.992   3.504   4.378
 4924SOL    HW115671   6.959   3.490   4.471
 4924SOL    HW215672   0.057   3.558   4.381
 4925SOL     OW15673   4.982   5.649   5.857
 4925SOL    HW115674   4.944   5.579   5.796
 4925SOL    HW215675   4.985   5.614   5.951
 4926SOL     OW15676   4.142   3.125   0.581
 4926SOL    HW115677   4.214   3.161   0.522
 4926SOL    HW215678   4.057   3.118   0.530
 4927SOL     OW15679   2.842   3.407   2.128
 4927SOL    HW115680   2.748   3.427   2.153
 4927SOL    HW215681   2.890   3.492   2.105
 4928SOL     OW15682   0.681   0.409   0.375
 4928SOL    HW115683   0.761   0.382   0.429
 4928SOL    HW215684   0.690   0.372   0.282
 4929SOL     OW15685   1.198   4.754   4.222
 4929SOL    HW115686   1.126   4.686   4.208
 4929SOL    HW215687   1.269   4.743   4.153
 4930SOL     OW15688   0.202   3.087   0.440
 4930SOL    HW115689   0.126   3.043   0.394
 4930SOL    HW215690   0.288   3.055   0.400
 4931SOL     OW15691   6.037   6.579   1.064
 4931SOL    HW115692   5.971   6.653   1.050
 4931SOL    HW215693   6.040   6.521   0.983
 4932SOL     OW15694   3.163   1.668   0.816
 4932SOL    HW115695   3.103   1.618   0.752
 4932SOL    HW215696   3.237   1.608   0.846
 4933SOL     OW15697   2.975   0.168   4.796
 4933SOL    HW115698   2.894   0.143   4.743
 4933SOL    HW215699   3.031   0.232   4.744
 4934SOL     OW15700   2.442   5.625   5.198
 4934SOL    HW115701   2.457   5.527   5.179
 4934SOL    HW215702   2.437   5.640   5.296
 4935SOL     OW15703   2.069   2.105   0.379
 4935SOL    HW115704   2.006   2.073   0.308
 4935SOL    HW215705   2.020   2.161   0.445
 4936SOL     OW15706   5.574   5.185   1.137
 4936SOL    HW115707   5.577   5.179   1.037
 4936SOL    HW215708   5.490   5.230   1.166
 4937SOL     OW15709   0.855   3.515   4.605
 4937SOL    HW115710   0.841   3.606   4.566
 4937SOL    HW215711   0.952   3.502   4.626
 4938SOL     OW15712   3.500   4.613   1.605
 4938SOL    HW115713   3.428   4.682   1.613
 4938SOL    HW215714   3.555   4.613   1.689
 4939SOL     OW15715   1.038   1.605   1.110
 4939SOL    HW115716   1.120   1.637   1.062
 4939SOL    HW215717   0.985   1.684   1.141
 4940SOL     OW15718   0.974   1.779   5.622
 4940SOL    HW115719   1.053   1.722   5.601
 4940SOL    HW215720   0.930   1.808   5.537
 4941SOL     OW15721   3.902   2.535   5.350
 4941SOL    HW115722   3.980   2.499   5.299
 4941SOL    HW215723   3.820   2.530   5.294
 4942SOL     OW15724   7.002   1.428   3.220
 4942SOL    HW115725   6.905   1.404   3.216
 4942SOL    HW215726   7.017   1.515   3.173
 4943SOL     OW15727   4.746   2.691   6.897
 4943SOL    HW115728   4.719   2.642   6.980
 4943SOL    HW215729   4.821   2.642   6.852
 4944SOL     OW15730   1.050   4.702   0.485
 4944SOL    HW115731   1.099   4.711   0.398
 4944SOL    HW215732   0.961   4.661   0.469
 4945SOL     OW15733   2.815   0.320   5.908
 4945SOL    HW115734   2.898   0.265   5.901
 4945SOL    HW215735   2.763   0.291   5.988
 4946SOL     OW15736   2.610   5.486   6.994
 4946SOL    HW115737   2.583   5.465   6.900
 4946SOL    HW215738   2.614   5.402   0.028
 4947SOL     OW15739   0.461   0.365   0.784
 4947SOL    HW115740   0.454   0.440   0.850
 4947SOL    HW215741   0.462   0.278   0.833
 4948SOL     OW15742   1.720   2.335   1.994
 4948SOL    HW115743   1.755   2.327   1.901
 4948SOL    HW215744   1.671   2.422   2.004
 4949SOL     OW15745   6.808   4.686   5.672
 4949SOL    HW115746   6.750   4.639   5.738
 4949SOL    HW215747   6.833   4.776   5.707
 4950SOL     OW15748   3.815   4.234   5.695
 4950SOL    HW115749   3.734   4.293   5.689
 4950SOL    HW215750   3.895   4.289   5.717
 4951SOL     OW15751   5.074   5.256   2.858
 4951SOL    HW115752   5.082   5.343   2.808
 4951SOL    HW215753   5.149   5.196   2.832
 4952SOL     OW15754   0.969   0.916   6.881
 4952SOL    HW115755   0.965   0.922   6.981
 4952SOL    HW215756   1.061   0.938   6.850
 4953SOL     OW15757   1.315   2.249   5.089
 4953SOL    HW115758   1.216   2.257   5.073
 4953SOL    HW215759   1.336   2.276   5.183
 4954SOL     OW15760   2.903   3.936   5.132
 4954SOL    HW115761   2.818   3.951   5.183
 4954SOL    HW215762   2.970   4.006   5.157
 4955SOL     OW15763   3.786   5.791   6.646
 4955SOL    HW115764   3.784   5.815   6.743
 4955SOL    HW215765   3.869   5.830   6.605
 4956SOL     OW15766   2.647   0.154   4.701
 4956SOL    HW115767   2.683   0.062   4.717
 4956SOL    HW215768   2.593   0.183   4.780
 4957SOL     OW15769   5.747   5.154   6.920
 4957SOL    HW115770   5.768   5.201   7.006
 4957SOL    HW215771   5.719   5.060   6.939
 4958SOL     OW15772   3.353   5.362   0.298
 4958SOL    HW115773   3.255   5.346   0.290
 4958SOL    HW215774   3.403   5.279   0.271
 4959SOL     OW15775   6.647   2.414   2.650
 4959SOL    HW115776   6.737   2.372   2.662
 4959SOL    HW215777   6.595   2.405   2.735
 4960SOL     OW15778   5.350   4.500   3.858
 4960SOL    HW115779   5.446   4.522   3.847
 4960SOL    HW215780   5.294   4.580   3.836
 4961SOL     OW15781   3.364   2.667   1.816
 4961SOL    HW115782   3.441   2.627   1.767
 4961SOL    HW215783   3.397   2.711   1.900
 4962SOL     OW15784   1.637   2.791   0.332
 4962SOL    HW115785   1.569   2.754   0.397
 4962SOL    HW215786   1.595   2.864   0.279
 4963SOL     OW15787   0.751   3.962   6.086
 4963SOL    HW115788   0.800   3.986   6.170
 4963SOL    HW215789   0.657   3.995   6.092
 4964SOL     OW15790   1.827   5.363   4.572
 4964SOL    HW115791   1.854   5.402   4.660
 4964SOL    HW215792   1.896   5.384   4.503
 4965SOL     OW15793   2.438   6.759   2.954
 4965SOL    HW115794   2.479   6.668   2.950
 4965SOL    HW215795   2.510   6.827   2.969
 4966SOL     OW15796   4.117   0.157   5.315
 4966SOL    HW115797   4.201   0.135   5.364
 4966SOL    HW215798   4.129   0.242   5.264
 4967SOL     OW15799   4.091   4.808   4.281
 4967SOL    HW115800   4.132   4.772   4.365
 4967SOL    HW215801   4.139   4.770   4.201
 4968SOL     OW15802   6.821   2.912   3.785
 4968SOL    HW115803   6.763   2.982   3.743
 4968SOL    HW215804   6.901   2.955   3.827
 4969SOL     OW15805   0.447   6.064   4.060
 4969SOL    HW115806   0.525   6.099   4.008
 4969SOL    HW215807   0.427   5.971   4.031
 4970SOL     OW15808   1.767   1.517   1.708
 4970SOL    HW115809   1.866   1.524   1.719
 4970SOL    HW215810   1.745   1.492   1.614
 4971SOL     OW15811   0.131   6.063   1.565
 4971SOL    HW115812   0.193   6.008   1.509
 4971SOL    HW215813   0.139   6.159   1.541
 4972SOL     OW15814   0.563   4.493   0.297
 4972SOL    HW115815   0.658   4.522   0.309
 4972SOL    HW215816   0.561   4.404   0.251
 4973SOL     OW15817   5.952   1.307   0.358
 4973SOL    HW115818   5.967   1.362   0.276
 4973SOL    HW215819   5.877   1.345   0.411
 4974SOL     OW15820   3.418   6.965   4.922
 4974SOL    HW115821   3.514   6.984   4.902
 4974SOL    HW215822   3.365   6.973   4.838
 4975SOL     OW15823   4.996   4.486   0.959
 4975SOL    HW115824   4.915   4.429   0.947
 4975SOL    HW215825   5.054   4.478   0.877
 4976SOL     OW15826   0.806   6.811   3.851
 4976SOL    HW115827   0.902   6.806   3.824
 4976SOL    HW215828   0.758   6.875   3.791
 4977SOL     OW15829   1.580   3.981   5.674
 4977SOL    HW115830   1.525   4.033   5.609
 4977SOL    HW215831   1.565   4.016   5.766
 4978SOL     OW15832   6.078   4.439   4.488
 4978SOL    HW115833   6.050   4.343   4.479
 4978SOL    HW215834   6.013   4.497   4.439
 4979SOL     OW15835   2.476   6.833   6.681
 4979SOL    HW115836   2.571   6.801   6.677
 4979SOL    HW215837   2.472   6.929   6.653
 4980SOL     OW15838   5.674   2.814   4.250
 4980SOL    HW115839   5.773   2.827   4.257
 4980SOL    HW215840   5.630   2.901   4.226
 4981SOL     OW15841   3.438   5.665   3.115
 4981SOL    HW115842   3.451   5.588   3.054
 4981SOL    HW215843   3.415   5.632   3.207
 4982SOL     OW15844   3.917   2.166   5.011
 4982SOL    HW115845   3.995   2.132   5.063
 4982SOL    HW215846   3.832   2.140   5.056
 4983SOL     OW15847   5.955   4.296   2.642
 4983SOL    HW115848   5.896   4.233   2.691
 4983SOL    HW215849   5.990   4.365   2.705
 4984SOL     OW15850   4.866   3.809   4.752
 4984SOL    HW115851   4.890   3.748   4.676
 4984SOL    HW215852   4.803   3.761   4.814
 4985SOL     OW15853   5.868   0.426   2.304
 4985SOL    HW115854   5.807   0.450   2.229
 4985SOL    HW215855   5.840   0.339   2.344
 4986SOL     OW15856   0.709   5.398   1.153
 4986SOL    HW115857   0.701   5.415   1.251
 4986SOL    HW215858   0.624   5.426   1.107
 4987SOL     OW15859   1.565   1.778   2.942
 4987SOL    HW115860   1.604   1.703   2.890
 4987SOL    HW215861   1.616   1.862   2.923
 4988SOL     OW15862   6.374   5.455   4.091
 4988SOL    HW115863   6.470   5.427   4.099
 4988SOL    HW215864   6.366   5.552   4.110
 4989SOL     OW15865   5.899   0.338   3.698
 4989SOL    HW115866   5.882   0.436   3.691
 4989SOL    HW215867   5.832   0.288   3.643
 4990SOL     OW15868   4.527   1.991   6.269
 4990SOL    HW115869   4.610   2.027   6.225
 4990SOL    HW215870   4.475   1.939   6.202
 4991SOL     OW15871   1.942   5.879   6.180
 4991SOL    HW115872   1.964   5.879   6.083
 4991SOL    HW215873   2.004   5.818   6.229
 4992SOL     OW15874   1.212   3.865   4.428
 4992SOL    HW115875   1.199   3.911   4.516
 4992SOL    HW215876   1.296   3.811   4.430
 4993SOL     OW15877   1.985   6.400   3.984
 4993SOL    HW115878   2.017   6.431   3.894
 4993SOL    HW215879   2.031   6.455   4.055
 4994SOL     OW15880   4.081   5.284   5.448
 4994SOL    HW115881   4.033   5.371   5.434
 4994SOL    HW215882   4.071   5.256   5.543
 4995SOL     OW15883   0.406   0.540   5.983
 4995SOL    HW115884   0.454   0.453   5.967
 4995SOL    HW215885   0.393   0.587   5.896
 4996SOL     OW15886   0.120   0.833   3.989
 4996SOL    HW115887   0.172   0.911   4.022
 4996SOL    HW215888   0.069   0.791   4.065
 4997SOL     OW15889   3.919   1.479   0.943
 4997SOL    HW115890   3.938   1.460   0.847
 4997SOL    HW215891   3.997   1.452   0.999
 4998SOL     OW15892   0.687   3.786   3.453
 4998SOL    HW115893   0.679   3.853   3.380
 4998SOL    HW215894   0.766   3.727   3.437
 4999SOL     OW15895   0.918   2.637   3.587
 4999SOL    HW115896   0.991   2.574   3.563
 4999SOL    HW215897   0.830   2.600   3.558
 5000SOL     OW15898   2.596   6.720   3.486
 5000SOL    HW115899   2.602   6.673   3.398
 5000SOL    HW215900   2.504   6.708   3.523
 5001SOL     OW15901   0.223   5.789   3.087
 5001SOL    HW115902   0.303   5.779   3.146
 5001SOL    HW215903   0.160   5.856   3.126
 5002SOL     OW15904   1.379   4.726   4.008
 5002SOL    HW115905   1.453   4.743   3.943
 5002SOL    HW215906   1.354   4.629   4.007
 5003SOL     OW15907   3.659   0.504   2.607
 5003SOL    HW115908   3.671   0.474   2.701
 5003SOL    HW215909   3.703   0.593   2.594
 5004SOL     OW15910   3.767   6.106   0.217
 5004SOL    HW115911   3.831   6.093   0.141
 5004SOL    HW215912   3.709   6.025   0.226
 5005SOL     OW15913   3.140   2.709   0.778
 5005SOL    HW115914   3.222   2.653   0.782
 5005SOL    HW215915   3.151   2.790   0.834
 5006SOL     OW15916   5.172   1.086   2.341
 5006SOL    HW115917   5.211   1.174   2.314
 5006SOL    HW215918   5.243   1.015   2.338
 5007SOL     OW15919   6.281   5.682   1.900
 5007SOL    HW115920   6.212   5.616   1.869
 5007SOL    HW215921   6.252   5.723   1.986
 5008SOL     OW15922   5.385   0.593   3.498
 5008SOL    HW115923   5.415   0.498   3.507
 5008SOL    HW215924   5.352   0.609   3.405
 5009SOL     OW15925   7.014   2.064   0.730
 5009SOL    HW115926   6.993   2.133   0.660
 5009SOL    HW215927   6.977   1.976   0.702
 5010SOL     OW15928   4.467   3.670   1.229
 5010SOL    HW115929   4.407   3.606   1.277
 5010SOL    HW215930   4.430   3.763   1.238
 5011SOL     OW15931   1.680   2.725   6.308
 5011SOL    HW115932   1.744   2.699   6.379
 5011SOL    HW215933   1.714   2.694   6.219
 5012SOL     OW15934   6.160   1.241   6.135
 5012SOL    HW115935   6.122   1.170   6.076
 5012SOL    HW215936   6.245   1.276   6.095
 5013SOL     OW15937   5.225   0.008   5.703
 5013SOL    HW115938   5.178   0.075   5.760
 5013SOL    HW215939   5.323   0.008   5.724
 5014SOL     OW15940   5.461   3.170   1.472
 5014SOL    HW115941   5.380   3.185   1.415
 5014SOL    HW215942   5.432   3.148   1.565
 5015SOL     OW15943   6.280   5.606   4.396
 5015SOL    HW115944   6.339   5.685   4.411
 5015SOL    HW215945   6.326   5.523   4.428
 5016SOL     OW15946   1.618   3.282   6.221
 5016SOL    HW115947   1.605   3.368   6.271
 5016SOL    HW215948   1.601   3.205   6.282
 5017SOL     OW15949   0.157   2.731   1.782
 5017SOL    HW115950   0.138   2.826   1.757
 5017SOL    HW215951   0.090   2.701   1.850
 5018SOL     OW15952   1.246   0.715   6.778
 5018SOL    HW115953   1.234   0.815   6.779
 5018SOL    HW215954   1.343   0.693   6.793
 5019SOL     OW15955   1.588   4.404   4.115
 5019SOL    HW115956   1.490   4.411   4.101
 5019SOL    HW215957   1.635   4.458   4.045
 5020SOL     OW15958   2.142   0.225   4.362
 5020SOL    HW115959   2.229   0.273   4.373
 5020SOL    HW215960   2.068   0.292   4.358
 5021SOL     OW15961   2.242   1.062   1.119
 5021SOL    HW115962   2.304   1.126   1.165
 5021SOL    HW215963   2.237   1.084   1.022
 5022SOL     OW15964   6.803   2.818   0.998
 5022SOL    HW115965   6.812   2.770   0.911
 5022SOL    HW215966   6.706   2.830   1.019
 5023SOL     OW15967   0.400   4.367   2.683
 5023SOL    HW115968   0.455   4.308   2.742
 5023SOL    HW215969   0.392   4.325   2.592
 5024SOL     OW15970   4.796   3.725   0.754
 5024SOL    HW115971   4.873   3.704   0.694
 5024SOL    HW215972   4.779   3.648   0.815
 5025SOL     OW15973   4.434   1.765   4.573
 5025SOL    HW115974   4.338   1.791   4.585
 5025SOL    HW215975   4.460   1.701   4.645
 5026SOL     OW15976   5.401   6.632   4.412
 5026SOL    HW115977   5.422   6.684   4.495
 5026SOL    HW215978   5.332   6.563   4.432
 5027SOL     OW15979   5.173   6.537   0.730
 5027SOL    HW115980   5.120   6.457   0.760
 5027SOL    HW215981   5.209   6.521   0.639
 5028SOL     OW15982   5.844   2.026   2.177
 5028SOL    HW115983   5.847   1.954   2.108
 5028SOL    HW215984   5.756   2.022   2.224
 5029SOL     OW15985   5.286   1.869   2.067
 5029SOL    HW115986   5.211   1.826   2.116
 5029SOL    HW215987   5.341   1.799   2.020
 5030SOL     OW15988   0.601   3.554   6.833
 5030SOL    HW115989   0.502   3.559   6.829
 5030SOL    HW215990   0.632   3.464   6.801
 5031SOL     OW15991   6.304   0.286   5.937
 5031SOL    HW115992   6.331   0.379   5.960
 5031SOL    HW215993   6.227   0.258   5.994
 5032SOL     OW15994   2.550   3.634   5.883
 5032SOL    HW115995   2.467   3.582   5.862
 5032SOL    HW215996   2.558   3.645   5.982
 5033SOL     OW15997   2.318   0.054   6.071
 5033SOL    HW115998   2.313   0.030   6.168
 5033SOL    HW215999   2.407   0.026   6.035
 5034SOL     OW16000   4.137   6.358   4.678
 5034SOL    HW116001   4.065   6.368   4.610
 5034SOL    HW216002   4.135   6.265   4.716
 5035SOL     OW16003   2.171   3.623   4.168
 5035SOL    HW116004   2.136   3.540   4.211
 5035SOL    HW216005   2.249   3.600   4.109
 5036SOL     OW16006   1.433   2.463   4.902
 5036SOL    HW116007   1.450   2.481   4.805
 5036SOL    HW216008   1.413   2.366   4.914
 5037SOL     OW16009   4.527   4.128   1.024
 5037SOL    HW116010   4.467   4.076   1.084
 5037SOL    HW216011   4.574   4.199   1.077
 5038SOL     OW16012   3.052   3.453   3.268
 5038SOL    HW116013   2.983   3.515   3.306
 5038SOL    HW216014   3.078   3.386   3.337
 5039SOL     OW16015   1.300   3.899   0.304
 5039SOL    HW116016   1.247   3.818   0.277
 5039SOL    HW216017   1.398   3.875   0.306
 5040SOL     OW16018   0.254   1.501   6.005
 5040SOL    HW116019   0.347   1.525   6.033
 5040SOL    HW216020   0.254   1.478   5.908
 5041SOL     OW16021   6.782   2.035   1.357
 5041SOL    HW116022   6.757   2.077   1.270
 5041SOL    HW216023   6.863   1.977   1.345
 5042SOL     OW16024   1.075   2.544   5.993
 5042SOL    HW116025   1.024   2.508   5.915
 5042SOL    HW216026   1.060   2.643   5.999
 5043SOL     OW16027   4.040   6.360   1.831
 5043SOL    HW116028   4.091   6.277   1.807
 5043SOL    HW216029   3.962   6.370   1.770
 5044SOL     OW16030   6.657   5.464   6.907
 5044SOL    HW116031   6.709   5.534   6.955
 5044SOL    HW216032   6.629   5.393   6.971
 5045SOL     OW16033   5.667   2.751   0.072
 5045SOL    HW116034   5.575   2.780   0.046
 5045SOL    HW216035   5.702   2.688   0.002
 5046SOL     OW16036   3.639   3.181   2.436
 5046SOL    HW116037   3.707   3.122   2.479
 5046SOL    HW216038   3.660   3.191   2.339
 5047SOL     OW16039   1.917   3.761   4.049
 5047SOL    HW116040   1.979   3.787   3.975
 5047SOL    HW216041   1.937   3.818   4.129
 5048SOL     OW16042   2.794   0.566   6.654
 5048SOL    HW116043   2.802   0.664   6.670
 5048SOL    HW216044   2.860   0.537   6.585
 5049SOL     OW16045   4.431   1.942   6.856
 5049SOL    HW116046   4.466   1.877   6.789
 5049SOL    HW216047   4.339   1.914   6.884
 5050SOL     OW16048   1.842   0.559   0.700
 5050SOL    HW116049   1.744   0.549   0.684
 5050SOL    HW216050   1.871   0.652   0.676
 5051SOL     OW16051   4.883   4.977   1.141
 5051SOL    HW116052   4.913   4.884   1.119
 5051SOL    HW216053   4.828   4.977   1.225
 5052SOL     OW16054   2.055   2.282   4.816
 5052SOL    HW116055   2.145   2.281   4.859
 5052SOL    HW216056   2.057   2.340   4.734
 5053SOL     OW16057   0.622   1.176   1.542
 5053SOL    HW116058   0.530   1.216   1.538
 5053SOL    HW216059   0.666   1.203   1.628
 5054SOL     OW16060   3.961   5.783   4.016
 5054SOL    HW116061   3.879   5.742   3.975
 5054SOL    HW216062   4.027   5.804   3.944
 5055SOL     OW16063   0.210   3.790   6.109
 5055SOL    HW116064   0.224   3.848   6.190
 5055SOL    HW216065   0.115   3.760   6.106
 5056SOL     OW16066   5.668   3.965   3.776
 5056SOL    HW116067   5.603   4.030   3.814
 5056SOL    HW216068   5.761   3.990   3.805
 5057SOL     OW16069   0.406   5.507   2.297
 5057SOL    HW116070   0.431   5.583   2.237
 5057SOL    HW216071   0.351   5.541   2.373
 5058SOL     OW16072   2.741   5.277   5.812
 5058SOL    HW116073   2.670   5.247   5.749
 5058SOL    HW216074   2.831   5.263   5.770
 5059SOL     OW16075   6.799   0.455   2.146
 5059SOL    HW116076   6.722   0.401   2.180
 5059SOL    HW216077   6.828   0.520   2.216
 5060SOL     OW16078   6.934   2.449   6.175
 5060SOL    HW116079   6.925   2.380   6.248
 5060SOL    HW216080   6.843   2.470   6.139
 5061SOL     OW16081   5.064   4.380   1.197
 5061SOL    HW116082   5.056   4.420   1.106
 5061SOL    HW216083   5.069   4.453   1.265
 5062SOL     OW16084   6.493   0.515   1.045
 5062SOL    HW116085   6.400   0.479   1.053
 5062SOL    HW216086   6.545   0.494   1.127
 5063SOL     OW16087   1.378   5.865   2.332
 5063SOL    HW116088   1.451   5.910   2.383
 5063SOL    HW216089   1.300   5.850   2.393
 5064SOL     OW16090   4.996   3.228   0.161
 5064SOL    HW116091   4.995   3.319   0.120
 5064SOL    HW216092   5.082   3.182   0.137
 5065SOL     OW16093   2.674   6.462   5.573
 5065SOL    HW116094   2.718   6.454   5.662
 5065SOL    HW216095   2.579   6.493   5.585
 5066SOL     OW16096   4.892   5.308   1.407
 5066SOL    HW116097   4.810   5.252   1.407
 5066SOL    HW216098   4.951   5.282   1.484
 5067SOL     OW16099   5.154   1.143   6.663
 5067SOL    HW116100   5.167   1.072   6.733
 5067SOL    HW216101   5.240   1.191   6.649
 5068SOL     OW16102   3.543   4.852   1.425
 5068SOL    HW116103   3.519   4.767   1.379
 5068SOL    HW216104   3.461   4.894   1.463
 5069SOL     OW16105   6.856   5.040   2.644
 5069SOL    HW116106   6.847   5.104   2.719
 5069SOL    HW216107   6.814   5.078   2.562
 5070SOL     OW16108   4.914   3.486   4.211
 5070SOL    HW116109   4.929   3.575   4.168
 5070SOL    HW216110   4.872   3.499   4.301
 5071SOL     OW16111   4.366   1.083   6.969
 5071SOL    HW116112   4.433   1.128   6.910
 5071SOL    HW216113   4.400   1.082   0.043
 5072SOL     OW16114   1.056   4.112   1.287
 5072SOL    HW116115   1.005   4.136   1.205
 5072SOL    HW216116   1.029   4.172   1.362
 5073SOL     OW16117   4.562   2.114   4.446
 5073SOL    HW116118   4.577   2.087   4.351
 5073SOL    HW216119   4.632   2.072   4.504
 5074SOL     OW16120   4.016   4.846   5.054
 5074SOL    HW116121   4.113   4.832   5.033
 5074SOL    HW216122   3.992   4.795   5.136
 5075SOL     OW16123   6.459   6.603   4.079
 5075SOL    HW116124   6.501   6.683   4.121
 5075SOL    HW216125   6.376   6.630   4.030
 5076SOL     OW16126   3.889   0.722   1.270
 5076SOL    HW116127   3.846   0.647   1.220
 5076SOL    HW216128   3.971   0.688   1.317
 5077SOL     OW16129   6.889   2.659   2.513
 5077SOL    HW116130   6.930   2.568   2.507
 5077SOL    HW216131   6.955   2.728   2.481
 5078SOL     OW16132   6.879   1.111   3.928
 5078SOL    HW116133   6.910   1.205   3.939
 5078SOL    HW216134   6.853   1.095   3.832
 5079SOL     OW16135   4.496   4.746   5.097
 5079SOL    HW116136   4.526   4.804   5.021
 5079SOL    HW216137   4.444   4.669   5.062
 5080SOL     OW16138   5.758   0.411   5.722
 5080SOL    HW116139   5.712   0.402   5.810
 5080SOL    HW216140   5.848   0.369   5.727
 5081SOL     OW16141   3.315   3.928   3.160
 5081SOL    HW116142   3.306   3.835   3.194
 5081SOL    HW216143   3.308   3.928   3.060
 5082SOL     OW16144   6.805   0.272   5.780
 5082SOL    HW116145   6.903   0.270   5.795
 5082SOL    HW216146   6.763   0.342   5.837
 5083SOL     OW16147   1.342   5.803   2.054
 5083SOL    HW116148   1.266   5.855   2.015
 5083SOL    HW216149   1.359   5.835   2.148
 5084SOL     OW16150   1.885   5.697   2.604
 5084SOL    HW116151   1.962   5.701   2.540
 5084SOL    HW216152   1.899   5.622   2.668
 5085SOL     OW16153   6.672   3.097   6.927
 5085SOL    HW116154   6.587   3.047   6.940
 5085SOL    HW216155   6.738   3.039   6.879
 5086SOL     OW16156   6.756   5.011   4.290
 5086SOL    HW116157   6.735   4.914   4.288
 5086SOL    HW216158   6.836   5.028   4.232
 5087SOL     OW16159   6.652   5.434   5.325
 5087SOL    HW116160   6.630   5.472   5.236
 5087SOL    HW216161   6.682   5.506   5.387
 5088SOL     OW16162   5.910   0.803   0.489
 5088SOL    HW116163   5.846   0.824   0.415
 5088SOL    HW216164   6.003   0.830   0.462
 5089SOL     OW16165   5.474   2.635   4.233
 5089SOL    HW116166   5.430   2.696   4.168
 5089SOL    HW216167   5.566   2.668   4.253
 5090SOL     OW16168   1.126   5.275   0.883
 5090SOL    HW116169   1.111   5.219   0.801
 5090SOL    HW216170   1.043   5.326   0.904
 5091SOL     OW16171   1.433   6.565   3.427
 5091SOL    HW116172   1.523   6.530   3.452
 5091SOL    HW216173   1.416   6.651   3.475
 5092SOL     OW16174   3.413   3.161   0.958
 5092SOL    HW116175   3.358   3.235   0.997
 5092SOL    HW216176   3.487   3.138   1.020
 5093SOL     OW16177   1.017   1.946   1.416
 5093SOL    HW116178   1.055   2.037   1.398
 5093SOL    HW216179   1.035   1.887   1.337
 5094SOL     OW16180   0.025   0.361   6.935
 5094SOL    HW116181   0.028   0.325   0.008
 5094SOL    HW216182   6.985   0.441   6.932
 5095SOL     OW16183   3.354   0.117   5.110
 5095SOL    HW116184   3.262   0.151   5.089
 5095SOL    HW216185   3.382   0.053   5.038
 5096SOL     OW16186   3.492   6.121   2.922
 5096SOL    HW116187   3.562   6.193   2.918
 5096SOL    HW216188   3.536   6.032   2.927
 5097SOL     OW16189   0.893   1.511   6.389
 5097SOL    HW116190   0.851   1.459   6.314
 5097SOL    HW216191   0.825   1.574   6.427
 5098SOL     OW16192   6.897   2.904   2.730
 5098SOL    HW116193   6.901   3.003   2.715
 5098SOL    HW216194   6.811   2.881   2.776
 5099SOL     OW16195   0.853   0.418   4.298
 5099SOL    HW116196   0.914   0.342   4.279
 5099SOL    HW216197   0.770   0.384   4.342
 5100SOL     OW16198   4.780   5.320   6.482
 5100SOL    HW116199   4.776   5.221   6.468
 5100SOL    HW216200   4.729   5.345   6.565
 5101SOL     OW16201   4.251   6.437   0.426
 5101SOL    HW116202   4.191   6.394   0.358
 5101SOL    HW216203   4.260   6.376   0.505
 5102SOL     OW16204   3.663   5.615   4.195
 5102SOL    HW116205   3.588   5.556   4.223
 5102SOL    HW216206   3.634   5.675   4.121
 5103SOL     OW16207   1.510   1.350   4.138
 5103SOL    HW116208   1.581   1.417   4.115
 5103SOL    HW216209   1.452   1.387   4.211
 5104SOL     OW16210   0.831   0.387   1.240
 5104SOL    HW116211   0.768   0.322   1.283
 5104SOL    HW216212   0.779   0.460   1.195
 5105SOL     OW16213   2.271   3.114   6.604
 5105SOL    HW116214   2.244   3.130   6.699
 5105SOL    HW216215   2.205   3.156   6.542
 5106SOL     OW16216   2.692   0.014   2.271
 5106SOL    HW116217   2.673   0.109   2.244
 5106SOL    HW216218   2.607   6.981   2.270
 5107SOL     OW16219   1.805   0.493   6.564
 5107SOL    HW116220   1.799   0.411   6.506
 5107SOL    HW216221   1.902   0.513   6.582
 5108SOL     OW16222   2.919   3.619   3.702
 5108SOL    HW116223   2.962   3.707   3.725
 5108SOL    HW216224   2.904   3.567   3.786
 5109SOL     OW16225   0.085   1.653   1.658
 5109SOL    HW116226   0.003   1.650   1.601
 5109SOL    HW216227   0.066   1.705   1.741
 5110SOL     OW16228   2.179   5.500   5.426
 5110SOL    HW116229   2.081   5.481   5.433
 5110SOL    HW216230   2.228   5.448   5.496
 5111SOL     OW16231   1.557   1.661   0.141
 5111SOL    HW116232   1.547   1.722   0.219
 5111SOL    HW216233   1.629   1.697   0.080
 5112SOL     OW16234   0.050   0.175   3.597
 5112SOL    HW116235   0.100   0.259   3.574
 5112SOL    HW216236   7.004   0.154   3.525
 5113SOL     OW16237   0.540   0.244   6.321
 5113SOL    HW116238   0.533   0.340   6.351
 5113SOL    HW216239   0.624   0.232   6.268
 5114SOL     OW16240   4.021   5.499   6.766
 5114SOL    HW116241   3.931   5.469   6.734
 5114SOL    HW216242   4.035   5.595   6.741
 5115SOL     OW16243   2.102   4.007   4.879
 5115SOL    HW116244   2.076   3.915   4.909
 5115SOL    HW216245   2.182   4.037   4.931
 5116SOL     OW16246   6.634   3.375   0.537
 5116SOL    HW116247   6.604   3.427   0.458
 5116SOL    HW216248   6.645   3.436   0.616
 5117SOL     OW16249   2.929   5.191   3.225
 5117SOL    HW116250   2.921   5.109   3.170
 5117SOL    HW216251   2.938   5.166   3.322
 5118SOL     OW16252   4.135   6.616   1.843
 5118SOL    HW116253   4.174   6.633   1.753
 5118SOL    HW216254   4.105   6.521   1.849
 5119SOL     OW16255   6.537   0.062   2.585
 5119SOL    HW116256   6.472   7.014   2.619
 5119SOL    HW216257   6.557   0.128   2.657
 5120SOL     OW16258   3.215   1.410   2.233
 5120SOL    HW116259   3.167   1.422   2.146
 5120SOL    HW216260   3.167   1.459   2.305
 5121SOL     OW16261   0.758   3.177   3.954
 5121SOL    HW116262   0.855   3.156   3.943
 5121SOL    HW216263   0.714   3.177   3.864
 5122SOL     OW16264   2.226   5.406   3.678
 5122SOL    HW116265   2.191   5.349   3.752
 5122SOL    HW216266   2.241   5.499   3.712
 5123SOL     OW16267   6.298   3.596   1.955
 5123SOL    HW116268   6.302   3.510   2.005
 5123SOL    HW216269   6.329   3.582   1.861
 5124SOL     OW16270   2.393   6.598   0.698
 5124SOL    HW116271   2.460   6.534   0.662
 5124SOL    HW216272   2.349   6.558   0.779
 5125SOL     OW16273   6.970   1.874   5.787
 5125SOL    HW116274   7.020   1.933   5.850
 5125SOL    HW216275   6.991   1.779   5.807
 5126SOL     OW16276   4.313   2.248   6.841
 5126SOL    HW116277   4.223   2.213   6.814
 5126SOL    HW216278   4.384   2.187   6.806
 5127SOL     OW16279   5.678   3.345   6.611
 5127SOL    HW116280   5.630   3.258   6.607
 5127SOL    HW216281   5.715   3.358   6.703
 5128SOL     OW16282   6.822   6.982   6.369
 5128SOL    HW116283   6.725   6.976   6.346
 5128SOL    HW216284   6.865   0.034   6.314
 5129SOL     OW16285   4.728   2.720   3.380
 5129SOL    HW116286   4.688   2.637   3.341
 5129SOL    HW216287   4.706   2.798   3.322
 5130SOL     OW16288   1.247   6.419   4.900
 5130SOL    HW116289   1.315   6.418   4.827
 5130SOL    HW216290   1.270   6.349   4.968
 5131SOL     OW16291   3.709   4.989   3.659
 5131SOL    HW116292   3.620   4.951   3.681
 5131SOL    HW216293   3.748   4.942   3.580
 5132SOL     OW16294   4.076   2.283   6.607
 5132SOL    HW116295   4.069   2.216   6.680
 5132SOL    HW216296   4.009   2.355   6.622
 5133SOL     OW16297   4.992   4.753   6.982
 5133SOL    HW116298   4.938   4.670   6.996
 5133SOL    HW216299   4.967   4.821   0.031
 5134SOL     OW16300   6.059   6.118   0.239
 5134SOL    HW116301   6.047   6.099   0.141
 5134SOL    HW216302   6.113   6.046   0.280
 5135SOL     OW16303   6.711   2.821   2.219
 5135SOL    HW116304   6.712   2.911   2.262
 5135SOL    HW216305   6.659   2.757   2.276
 5136SOL     OW16306   0.943   1.215   5.185
 5136SOL    HW116307   0.953   1.161   5.269
 5136SOL    HW216308   0.860   1.187   5.138
 5137SOL     OW16309   5.300   0.572   3.238
 5137SOL    HW116310   5.278   0.479   3.269
 5137SOL    HW216311   5.342   0.568   3.147
 5138SOL     OW16312   3.326   2.949   2.378
 5138SOL    HW116313   3.249   2.958   2.441
 5138SOL    HW216314   3.320   3.018   2.306
 5139SOL     OW16315   4.128   0.504   4.916
 5139SOL    HW116316   4.217   0.460   4.925
 5139SOL    HW216317   4.056   0.435   4.917
 5140SOL     OW16318   3.241   3.686   6.398
 5140SOL    HW116319   3.175   3.675   6.473
 5140SOL    HW216320   3.224   3.772   6.351
 5141SOL     OW16321   1.545   2.552   1.759
 5141SOL    HW116322   1.582   2.577   1.670
 5141SOL    HW216323   1.445   2.557   1.756
 5142SOL     OW16324   0.555   0.125   2.322
 5142SOL    HW116325   0.559   0.026   2.310
 5142SOL    HW216326   0.615   0.152   2.397
 5143SOL     OW16327   0.008   6.104   2.181
 5143SOL    HW116328   0.042   6.196   2.164
 5143SOL    HW216329   0.064   6.059   2.251
 5144SOL     OW16330   2.143   3.145   5.107
 5144SOL    HW116331   2.222   3.085   5.102
 5144SOL    HW216332   2.061   3.090   5.126
 5145SOL     OW16333   2.720   5.618   5.526
 5145SOL    HW116334   2.801   5.624   5.467
 5145SOL    HW216335   2.668   5.703   5.520
 5146SOL     OW16336   5.842   5.723   6.593
 5146SOL    HW116337   5.805   5.721   6.500
 5146SOL    HW216338   5.919   5.660   6.600
 5147SOL     OW16339   5.603   2.230   3.399
 5147SOL    HW116340   5.504   2.219   3.403
 5147SOL    HW216341   5.643   2.161   3.338
 5148SOL     OW16342   6.578   1.290   0.219
 5148SOL    HW116343   6.537   1.203   0.191
 5148SOL    HW216344   6.563   1.359   0.148
 5149SOL     OW16345   4.296   5.586   4.013
 5149SOL    HW116346   4.255   5.548   4.096
 5149SOL    HW216347   4.376   5.641   4.037
 5150SOL     OW16348   6.359   0.719   3.699
 5150SOL    HW116349   6.392   0.724   3.605
 5150SOL    HW216350   6.260   0.730   3.700
 5151SOL     OW16351   5.424   5.445   1.502
 5151SOL    HW116352   5.515   5.468   1.468
 5151SOL    HW216353   5.432   5.377   1.574
 5152SOL     OW16354   2.283   1.964   0.139
 5152SOL    HW116355   2.322   2.016   0.215
 5152SOL    HW216356   2.348   1.963   0.063
 5153SOL     OW16357   2.335   2.131   0.364
 5153SOL    HW116358   2.237   2.113   0.368
 5153SOL    HW216359   2.350   2.227   0.341
 5154SOL     OW16360   0.484   2.745   0.506
 5154SOL    HW116361   0.415   2.751   0.578
 5154SOL    HW216362   0.559   2.808   0.527
 5155SOL     OW16363   1.268   1.465   0.521
 5155SOL    HW116364   1.303   1.502   0.607
 5155SOL    HW216365   1.336   1.478   0.449
 5156SOL     OW16366   5.652   4.792   5.619
 5156SOL    HW116367   5.617   4.709   5.576
 5156SOL    HW216368   5.575   4.845   5.657
 5157SOL     OW16369   3.602   0.876   2.079
 5157SOL    HW116370   3.644   0.947   2.022
 5157SOL    HW216371   3.533   0.827   2.026
 5158SOL     OW16372   1.542   2.263   1.562
 5158SOL    HW116373   1.550   2.205   1.643
 5158SOL    HW216374   1.624   2.320   1.554
 5159SOL     OW16375   6.379   3.383   5.998
 5159SOL    HW116376   6.290   3.339   5.998
 5159SOL    HW216377   6.441   3.334   6.059
 5160SOL     OW16378   6.474   0.202   3.356
 5160SOL    HW116379   6.488   0.212   3.257
 5160SOL    HW216380   6.514   0.281   3.403
 5161SOL     OW16381   1.207   2.209   6.318
 5161SOL    HW116382   1.108   2.194   6.317
 5161SOL    HW216383   1.236   2.250   6.232
 5162SOL     OW16384   0.141   6.906   4.973
 5162SOL    HW116385   0.179   6.846   4.903
 5162SOL    HW216386   0.041   6.898   4.973
 5163SOL     OW16387   2.901   0.146   2.066
 5163SOL    HW116388   2.837   0.096   2.123
 5163SOL    HW216389   2.906   0.242   2.096
 5164SOL     OW16390   2.988   3.725   0.107
 5164SOL    HW116391   2.951   3.778   0.183
 5164SOL    HW216392   2.916   3.711   0.039
 5165SOL     OW16393   1.738   5.099   6.491
 5165SOL    HW116394   1.798   5.179   6.493
 5165SOL    HW216395   1.648   5.123   6.528
 5166SOL     OW16396   0.283   4.963   6.544
 5166SOL    HW116397   0.295   4.902   6.466
 5166SOL    HW216398   0.310   4.916   6.628
 5167SOL     OW16399   5.733   3.675   5.820
 5167SOL    HW116400   5.647   3.723   5.837
 5167SOL    HW216401   5.757   3.618   5.899
 5168SOL     OW16402   4.425   1.887   3.177
 5168SOL    HW116403   4.374   1.862   3.094
 5168SOL    HW216404   4.523   1.877   3.160
 5169SOL     OW16405   5.515   5.782   4.336
 5169SOL    HW116406   5.464   5.697   4.349
 5169SOL    HW216407   5.593   5.765   4.276
 5170SOL     OW16408   2.424   4.192   5.899
 5170SOL    HW116409   2.375   4.148   5.824
 5170SOL    HW216410   2.522   4.193   5.879
 5171SOL     OW16411   2.202   6.830   5.975
 5171SOL    HW116412   2.245   6.912   6.013
 5171SOL    HW216413   2.178   6.767   6.050
 5172SOL     OW16414   5.724   5.703   6.292
 5172SOL    HW116415   5.770   5.615   6.284
 5172SOL    HW216416   5.757   5.764   6.219
 5173SOL     OW16417   4.345   5.728   4.636
 5173SOL    HW116418   4.290   5.717   4.553
 5173SOL    HW216419   4.432   5.771   4.612
 5174SOL     OW16420   1.263   6.621   3.019
 5174SOL    HW116421   1.304   6.534   3.045
 5174SOL    HW216422   1.305   6.696   3.070
 5175SOL     OW16423   2.787   2.733   6.462
 5175SOL    HW116424   2.737   2.818   6.476
 5175SOL    HW216425   2.737   2.675   6.397
 5176SOL     OW16426   6.197   6.026   6.421
 5176SOL    HW116427   6.215   5.953   6.487
 5176SOL    HW216428   6.241   6.110   6.451
 5177SOL     OW16429   5.524   6.320   0.615
 5177SOL    HW116430   5.538   6.355   0.708
 5177SOL    HW216431   5.576   6.376   0.550
 5178SOL     OW16432   0.582   4.176   1.329
 5178SOL    HW116433   0.670   4.189   1.283
 5178SOL    HW216434   0.590   4.102   1.396
 5179SOL     OW16435   5.000   5.680   3.479
 5179SOL    HW116436   5.086   5.701   3.433
 5179SOL    HW216437   4.995   5.582   3.496
 5180SOL     OW16438   1.682   4.313   2.047
 5180SOL    HW116439   1.606   4.377   2.038
 5180SOL    HW216440   1.730   4.306   1.960
 5181SOL     OW16441   0.157   1.252   6.033
 5181SOL    HW116442   0.208   1.338   6.030
 5181SOL    HW216443   0.106   1.240   5.948
 5182SOL     OW16444   2.616   6.232   2.485
 5182SOL    HW116445   2.654   6.193   2.569
 5182SOL    HW216446   2.516   6.227   2.489
 5183SOL     OW16447   4.559   2.532   3.238
 5183SOL    HW116448   4.605   2.444   3.224
 5183SOL    HW216449   4.474   2.518   3.289
 5184SOL     OW16450   2.406   1.687   3.045
 5184SOL    HW116451   2.308   1.700   3.031
 5184SOL    HW216452   2.425   1.675   3.142
 5185SOL     OW16453   6.739   0.078   2.118
 5185SOL    HW116454   6.654   0.044   2.158
 5185SOL    HW216455   6.799   0.110   2.191
 5186SOL     OW16456   6.122   2.683   6.694
 5186SOL    HW116457   6.164   2.659   6.781
 5186SOL    HW216458   6.178   2.649   6.619
 5187SOL     OW16459   1.481   4.526   5.301
 5187SOL    HW116460   1.492   4.593   5.228
 5187SOL    HW216461   1.384   4.506   5.314
 5188SOL     OW16462   6.983   0.948   1.718
 5188SOL    HW116463   0.002   0.975   1.806
 5188SOL    HW216464   6.883   0.954   1.722
 5189SOL     OW16465   4.756   6.102   0.172
 5189SOL    HW116466   4.835   6.138   0.122
 5189SOL    HW216467   4.743   6.005   0.150
 5190SOL     OW16468   1.535   4.799   0.877
 5190SOL    HW116469   1.592   4.881   0.875
 5190SOL    HW216470   1.516   4.770   0.783
 5191SOL     OW16471   2.597   4.447   1.721
 5191SOL    HW116472   2.680   4.487   1.760
 5191SOL    HW216473   2.601   4.347   1.728
 5192SOL     OW16474   0.765   4.791   2.530
 5192SOL    HW116475   0.773   4.877   2.479
 5192SOL    HW216476   0.684   4.741   2.498
 5193SOL     OW16477   4.654   0.953   5.485
 5193SOL    HW116478   4.650   0.956   5.386
 5193SOL    HW216479   4.606   1.032   5.523
 5194SOL     OW16480   4.506   1.529   5.104
 5194SOL    HW116481   4.588   1.585   5.090
 5194SOL    HW216482   4.528   1.434   5.085
 5195SOL     OW16483   1.416   0.636   5.101
 5195SOL    HW116484   1.476   0.615   5.178
 5195SOL    HW216485   1.323   0.649   5.134
 5196SOL     OW16486   5.463   6.512   2.829
 5196SOL    HW116487   5.383   6.503   2.889
 5196SOL    HW216488   5.545   6.485   2.878
 5197SOL     OW16489   1.046   3.215   4.513
 5197SOL    HW116490   1.019   3.131   4.561
 5197SOL    HW216491   1.068   3.285   4.580
 5198SOL     OW16492   5.951   4.680   3.152
 5198SOL    HW116493   5.907   4.597   3.118
 5198SOL    HW216494   6.039   4.693   3.106
 5199SOL     OW16495   0.154   4.493   0.890
 5199SOL    HW116496   0.215   4.549   0.835
 5199SOL    HW216497   0.073   4.546   0.914
 5200SOL     OW16498   6.271   3.578   5.214
 5200SOL    HW116499   6.204   3.518   5.257
 5200SOL    HW216500   6.242   3.673   5.223
 5201SOL     OW16501   0.818   6.015   4.651
 5201SOL    HW116502   0.866   6.085   4.597
 5201SOL    HW216503   0.748   5.971   4.594
 5202SOL     OW16504   0.755   4.490   2.185
 5202SOL    HW116505   0.819   4.566   2.192
 5202SOL    HW216506   0.708   4.494   2.097
 5203SOL     OW16507   6.371   3.041   0.221
 5203SOL    HW116508   6.444   3.109   0.224
 5203SOL    HW216509   6.284   3.083   0.249
 5204SOL     OW16510   5.224   5.478   6.461
 5204SOL    HW116511   5.156   5.410   6.488
 5204SOL    HW216512   5.302   5.431   6.417
 5205SOL     OW16513   2.546   6.896   6.958
 5205SOL    HW116514   2.467   6.837   6.976
 5205SOL    HW216515   2.519   6.991   6.969
 5206SOL     OW16516   0.423   3.947   4.535
 5206SOL    HW116517   0.434   3.907   4.444
 5206SOL    HW216518   0.326   3.949   4.559
 5207SOL     OW16519   1.973   4.565   3.636
 5207SOL    HW116520   2.000   4.567   3.732
 5207SOL    HW216521   2.031   4.628   3.584
 5208SOL     OW16522   5.224   0.964   6.851
 5208SOL    HW116523   5.183   1.018   6.926
 5208SOL    HW216524   5.198   0.868   6.861
 5209SOL     OW16525   5.636   5.391   3.309
 5209SOL    HW116526   5.620   5.299   3.273
 5209SOL    HW216527   5.710   5.434   3.258
 5210SOL     OW16528   5.023   4.442   2.916
 5210SOL    HW116529   4.966   4.518   2.947
 5210SOL    HW216530   4.972   4.357   2.924
 5211SOL     OW16531   3.213   3.591   2.070
 5211SOL    HW116532   3.235   3.619   2.163
 5211SOL    HW216533   3.298   3.576   2.019
 5212SOL     OW16534   0.662   0.594   6.636
 5212SOL    HW116535   0.598   0.596   6.559
 5212SOL    HW216536   0.697   0.686   6.655
 5213SOL     OW16537   4.306   2.221   6.268
 5213SOL    HW116538   4.297   2.258   6.176
 5213SOL    HW216539   4.383   2.158   6.271
 5214SOL     OW16540   5.090   1.789   0.165
 5214SOL    HW116541   5.184   1.819   0.145
 5214SOL    HW216542   5.027   1.866   0.154
 5215SOL     OW16543   5.443   4.751   3.448
 5215SOL    HW116544   5.414   4.782   3.538
 5215SOL    HW216545   5.519   4.686   3.458
 5216SOL     OW16546   4.321   5.514   1.679
 5216SOL    HW116547   4.227   5.533   1.705
 5216SOL    HW216548   4.322   5.469   1.590
 5217SOL     OW16549   3.069   4.912   3.363
 5217SOL    HW116550   3.044   4.994   3.415
 5217SOL    HW216551   2.996   4.845   3.370
 5218SOL     OW16552   2.127   6.969   4.250
 5218SOL    HW116553   2.130   6.911   4.331
 5218SOL    HW216554   2.140   0.045   4.277
 5219SOL     OW16555   2.188   6.949   1.098
 5219SOL    HW116556   2.270   6.947   1.042
 5219SOL    HW216557   2.164   6.855   1.126
 5220SOL     OW16558   1.130   6.502   1.694
 5220SOL    HW116559   1.204   6.439   1.718
 5220SOL    HW216560   1.054   6.451   1.653
 5221SOL     OW16561   4.400   1.189   6.344
 5221SOL    HW116562   4.315   1.160   6.299
 5221SOL    HW216563   4.451   1.108   6.373
 5222SOL     OW16564   0.569   6.820   2.531
 5222SOL    HW116565   0.591   6.756   2.458
 5222SOL    HW216566   0.470   6.829   2.540
 5223SOL     OW16567   4.735   6.728   0.856
 5223SOL    HW116568   4.671   6.701   0.785
 5223SOL    HW216569   4.715   6.821   0.886
 5224SOL     OW16570   5.390   1.553   3.216
 5224SOL    HW116571   5.409   1.610   3.136
 5224SOL    HW216572   5.347   1.609   3.287
 5225SOL     OW16573   6.985   6.761   5.781
 5225SOL    HW116574   7.015   6.678   5.827
 5225SOL    HW216575   6.938   6.820   5.847
 5226SOL     OW16576   3.060   6.221   4.435
 5226SOL    HW116577   3.141   6.279   4.442
 5226SOL    HW216578   3.037   6.207   4.339
 5227SOL     OW16579   4.924   3.632   3.731
 5227SOL    HW116580   4.833   3.671   3.744
 5227SOL    HW216581   4.918   3.532   3.731
 5228SOL     OW16582   5.309   0.921   1.373
 5228SOL    HW116583   5.408   0.910   1.362
 5228SOL    HW216584   5.265   0.832   1.371
 5229SOL     OW16585   1.171   3.870   3.737
 5229SOL    HW116586   1.186   3.832   3.646
 5229SOL    HW216587   1.098   3.819   3.783
 5230SOL     OW16588   1.151   6.568   6.105
 5230SOL    HW116589   1.236   6.595   6.060
 5230SOL    HW216590   1.142   6.469   6.102
 5231SOL     OW16591   3.460   3.184   3.040
 5231SOL    HW116592   3.436   3.088   3.058
 5231SOL    HW216593   3.384   3.228   2.992
 5232SOL     OW16594   5.089   3.184   4.954
 5232SOL    HW116595   5.144   3.113   4.910
 5232SOL    HW216596   5.083   3.263   4.893
 5233SOL     OW16597   0.535   0.111   3.015
 5233SOL    HW116598   0.466   0.171   2.975
 5233SOL    HW216599   0.622   0.125   2.969
 5234SOL     OW16600   4.019   5.305   1.184
 5234SOL    HW116601   3.962   5.381   1.216
 5234SOL    HW216602   4.027   5.237   1.256
 5235SOL     OW16603   0.648   3.484   1.473
 5235SOL    HW116604   0.620   3.432   1.554
 5235SOL    HW216605   0.701   3.425   1.413
 5236SOL     OW16606   5.753   3.582   1.253
 5236SOL    HW116607   5.661   3.561   1.287
 5236SOL    HW216608   5.746   3.650   1.179
 5237SOL     OW16609   1.825   1.849   3.820
 5237SOL    HW116610   1.923   1.829   3.815
 5237SOL    HW216611   1.808   1.940   3.784
 5238SOL     OW16612   2.015   3.786   1.207
 5238SOL    HW116613   2.030   3.825   1.298
 5238SOL    HW216614   1.957   3.706   1.214
 5239SOL     OW16615   3.103   3.472   4.732
 5239SOL    HW116616   3.082   3.442   4.639
 5239SOL    HW216617   3.155   3.557   4.729
 5240SOL     OW16618   3.555   1.525   4.760
 5240SOL    HW116619   3.543   1.523   4.661
 5240SOL    HW216620   3.467   1.504   4.804
 5241SOL     OW16621   3.282   5.752   5.625
 5241SOL    HW116622   3.221   5.673   5.620
 5241SOL    HW216623   3.374   5.721   5.651
 5242SOL     OW16624   4.352   0.805   5.040
 5242SOL    HW116625   4.258   0.817   5.008
 5242SOL    HW216626   4.357   0.726   5.101
 5243SOL     OW16627   0.571   4.266   0.151
 5243SOL    HW116628   0.509   4.194   0.182
 5243SOL    HW216629   0.622   4.234   0.071
 5244SOL     OW16630   6.196   3.285   0.045
 5244SOL    HW116631   6.125   3.353   0.064
 5244SOL    HW216632   6.153   3.203   0.006
 5245SOL     OW16633   4.604   4.695   6.646
 5245SOL    HW116634   4.701   4.715   6.661
 5245SOL    HW216635   4.557   4.691   6.734
 5246SOL     OW16636   1.170   2.965   3.154
 5246SOL    HW116637   1.115   2.962   3.237
 5246SOL    HW216638   1.119   2.922   3.079
 5247SOL     OW16639   0.034   4.736   0.529
 5247SOL    HW116640   0.086   4.651   0.521
 5247SOL    HW216641   7.002   4.736   0.614
 5248SOL     OW16642   4.950   0.047   0.352
 5248SOL    HW116643   4.993   0.002   0.431
 5248SOL    HW216644   5.009   0.037   0.272
 5249SOL     OW16645   1.409   5.745   6.056
 5249SOL    HW116646   1.331   5.712   6.109
 5249SOL    HW216647   1.493   5.706   6.094
 5250SOL     OW16648   1.200   1.640   5.473
 5250SOL    HW116649   1.288   1.645   5.521
 5250SOL    HW216650   1.176   1.544   5.456
 5251SOL     OW16651   1.032   3.209   0.958
 5251SOL    HW116652   0.960   3.190   0.893
 5251SOL    HW216653   1.112   3.152   0.938
 5252SOL     OW16654   4.597   6.493   1.215
 5252SOL    HW116655   4.560   6.427   1.279
 5252SOL    HW216656   4.522   6.545   1.173
 5253SOL     OW16657   6.040   2.375   3.262
 5253SOL    HW116658   6.050   2.423   3.349
 5253SOL    HW216659   6.117   2.398   3.203
 5254SOL     OW16660   4.985   0.416   4.210
 5254SOL    HW116661   5.009   0.319   4.213
 5254SOL    HW216662   4.886   0.426   4.222
 5255SOL     OW16663   3.375   6.211   4.860
 5255SOL    HW116664   3.387   6.112   4.856
 5255SOL    HW216665   3.460   6.253   4.891
 5256SOL     OW16666   5.106   6.476   2.288
 5256SOL    HW116667   5.092   6.571   2.314
 5256SOL    HW216668   5.143   6.425   2.366
 5257SOL     OW16669   3.405   1.210   3.274
 5257SOL    HW116670   3.463   1.291   3.279
 5257SOL    HW216671   3.419   1.154   3.357
 5258SOL     OW16672   5.710   2.080   1.905
 5258SOL    HW116673   5.775   2.051   1.976
 5258SOL    HW216674   5.755   2.079   1.816
 5259SOL     OW16675   5.464   4.601   1.444
 5259SOL    HW116676   5.390   4.552   1.399
 5259SOL    HW216677   5.489   4.682   1.390
 5260SOL     OW16678   4.948   3.002   1.917
 5260SOL    HW116679   4.868   2.968   1.967
 5260SOL    HW216680   4.919   3.054   1.837
 5261SOL     OW16681   2.510   2.421   4.544
 5261SOL    HW116682   2.560   2.395   4.627
 5261SOL    HW216683   2.575   2.439   4.470
 5262SOL     OW16684   1.887   0.102   1.881
 5262SOL    HW116685   1.915   0.108   1.976
 5262SOL    HW216686   1.792   0.072   1.876
 5263SOL     OW16687   0.533   6.305   6.951
 5263SOL    HW116688   0.452   6.254   6.981
 5263SOL    HW216689   0.505   6.390   6.907
 5264SOL     OW16690   0.842   1.819   1.149
 5264SOL    HW116691   0.761   1.823   1.207
 5264SOL    HW216692   0.840   1.894   1.083
 5265SOL     OW16693   5.610   5.144   3.214
 5265SOL    HW116694   5.703   5.109   3.205
 5265SOL    HW216695   5.552   5.075   3.256
 5266SOL     OW16696   1.026   6.734   1.340
 5266SOL    HW116697   1.091   6.809   1.341
 5266SOL    HW216698   0.936   6.767   1.369
 5267SOL     OW16699   4.536   3.600   5.355
 5267SOL    HW116700   4.541   3.700   5.364
 5267SOL    HW216701   4.600   3.570   5.284
 5268SOL     OW16702   5.919   5.261   5.483
 5268SOL    HW116703   5.895   5.294   5.392
 5268SOL    HW216704   5.988   5.189   5.476
 5269SOL     OW16705   1.948   4.709   6.018
 5269SOL    HW116706   2.025   4.699   5.955
 5269SOL    HW216707   1.969   4.780   6.085
 5270SOL     OW16708   6.456   2.747   2.840
 5270SOL    HW116709   6.486   2.723   2.748
 5270SOL    HW216710   6.536   2.762   2.899
 5271SOL     OW16711   5.552   4.176   5.649
 5271SOL    HW116712   5.512   4.264   5.674
 5271SOL    HW216713   5.642   4.166   5.692
 5272SOL     OW16714   1.661   1.067   3.949
 5272SOL    HW116715   1.592   1.053   4.019
 5272SOL    HW216716   1.705   1.156   3.963
 5273SOL     OW16717   0.303   0.266   4.833
 5273SOL    HW116718   0.279   0.217   4.917
 5273SOL    HW216719   0.290   0.207   4.754
 5274SOL     OW16720   0.439   5.916   4.348
 5274SOL    HW116721   0.417   6.000   4.300
 5274SOL    HW216722   0.389   5.840   4.307
 5275SOL     OW16723   1.717   6.803   0.018
 5275SOL    HW116724   1.701   6.884   0.075
 5275SOL    HW216725   1.639   6.788   6.978
 5276SOL     OW16726   6.983   0.292   0.621
 5276SOL    HW116727   6.960   0.286   0.718
 5276SOL    HW216728   0.045   0.349   0.609
 5277SOL     OW16729   0.971   1.386   2.318
 5277SOL    HW116730   1.057   1.436   2.308
 5277SOL    HW216731   0.988   1.300   2.366
 5278SOL     OW16732   0.536   3.768   6.180
 5278SOL    HW116733   0.614   3.722   6.138
 5278SOL    HW216734   0.463   3.780   6.112
 5279SOL     OW16735   2.294   6.334   6.672
 5279SOL    HW116736   2.276   6.256   6.612
 5279SOL    HW216737   2.253   6.317   6.762
 5280SOL     OW16738   4.890   6.420   5.098
 5280SOL    HW116739   4.988   6.418   5.080
 5280SOL    HW216740   4.866   6.507   5.143
 5281SOL     OW16741   2.492   6.810   5.272
 5281SOL    HW116742   2.468   6.721   5.310
 5281SOL    HW216743   2.517   6.800   5.176
 5282SOL     OW16744   0.776   6.934   0.571
 5282SOL    HW116745   0.843   6.976   0.510
 5282SOL    HW216746   0.693   6.990   0.572
 5283SOL     OW16747   1.014   0.978   3.682
 5283SOL    HW116748   0.988   0.901   3.624
 5283SOL    HW216749   0.965   0.973   3.768
 5284SOL     OW16750   4.635   3.000   1.592
 5284SOL    HW116751   4.669   3.031   1.681
 5284SOL    HW216752   4.542   2.965   1.603
 5285SOL     OW16753   1.390   1.704   4.070
 5285SOL    HW116754   1.415   1.799   4.047
 5285SOL    HW216755   1.455   1.642   4.028
 5286SOL     OW16756   6.235   3.033   1.439
 5286SOL    HW116757   6.213   2.935   1.446
 5286SOL    HW216758   6.156   3.082   1.402
 5287SOL     OW16759   1.613   5.428   1.105
 5287SOL    HW116760   1.557   5.451   1.025
 5287SOL    HW216761   1.622   5.328   1.112
 5288SOL     OW16762   4.053   0.595   1.481
 5288SOL    HW116763   4.083   0.632   1.569
 5288SOL    HW216764   4.081   0.499   1.473
 5289SOL     OW16765   2.159   4.616   5.847
 5289SOL    HW116766   2.176   4.531   5.897
 5289SOL    HW216767   2.220   4.687   5.881
 5290SOL     OW16768   2.103   3.332   4.796
 5290SOL    HW116769   2.003   3.342   4.792
 5290SOL    HW216770   2.135   3.360   4.886
 5291SOL     OW16771   3.429   4.954   4.303
 5291SOL    HW116772   3.455   4.978   4.209
 5291SOL    HW216773   3.332   4.929   4.306
 5292SOL     OW16774   0.319   3.532   5.205
 5292SOL    HW116775   0.356   3.518   5.297
 5292SOL    HW216776   0.303   3.629   5.189
 5293SOL     OW16777   2.193   6.864   4.737
 5293SOL    HW116778   2.232   6.776   4.711
 5293SOL    HW216779   2.147   6.856   4.826
 5294SOL     OW16780   5.018   6.982   5.147
 5294SOL    HW116781   5.045   0.058   5.138
 5294SOL    HW216782   5.080   6.936   5.211
 5295SOL     OW16783   2.041   0.897   2.840
 5295SOL    HW116784   2.084   0.932   2.756
 5295SOL    HW216785   2.108   0.845   2.893
 5296SOL     OW16786   4.503   4.424   1.425
 5296SOL    HW116787   4.507   4.364   1.345
 5296SOL    HW216788   4.587   4.414   1.479
 5297SOL     OW16789   2.905   5.560   5.745
 5297SOL    HW116790   2.826   5.600   5.700
 5297SOL    HW216791   2.897   5.461   5.745
 5298SOL     OW16792   2.150   1.147   0.560
 5298SOL    HW116793   2.225   1.183   0.504
 5298SOL    HW216794   2.064   1.153   0.509
 5299SOL     OW16795   2.353   1.266   1.498
 5299SOL    HW116796   2.390   1.288   1.588
 5299SOL    HW216797   2.316   1.349   1.456
 5300SOL     OW16798   2.747   4.933   6.788
 5300SOL    HW116799   2.809   4.863   6.752
 5300SOL    HW216800   2.754   5.016   6.731
 5301SOL     OW16801   6.076   0.278   6.102
 5301SOL    HW116802   6.102   0.184   6.125
 5301SOL    HW216803   5.976   0.285   6.098
 5302SOL     OW16804   5.697   5.972   2.632
 5302SOL    HW116805   5.643   6.033   2.691
 5302SOL    HW216806   5.783   5.948   2.678
 5303SOL     OW16807   0.951   5.181   5.673
 5303SOL    HW116808   1.040   5.222   5.690
 5303SOL    HW216809   0.894   5.191   5.755
 5304SOL     OW16810   0.258   0.378   3.030
 5304SOL    HW116811   0.219   0.301   2.980
 5304SOL    HW216812   0.266   0.355   3.127
 5305SOL     OW16813   0.256   4.986   3.761
 5305SOL    HW116814   0.312   4.999   3.680
 5305SOL    HW216815   0.302   4.924   3.824
 5306SOL     OW16816   0.539   2.679   6.005
 5306SOL    HW116817   0.507   2.727   5.923
 5306SOL    HW216818   0.461   2.646   6.057
 5307SOL     OW16819   6.582   1.837   1.689
 5307SOL    HW116820   6.644   1.906   1.654
 5307SOL    HW216821   6.633   1.769   1.742
 5308SOL     OW16822   1.563   3.911   3.224
 5308SOL    HW116823   1.553   4.003   3.261
 5308SOL    HW216824   1.658   3.881   3.235
 5309SOL     OW16825   6.304   5.239   3.407
 5309SOL    HW116826   6.372   5.193   3.464
 5309SOL    HW216827   6.242   5.172   3.368
 5310SOL     OW16828   5.813   2.450   2.580
 5310SOL    HW116829   5.787   2.513   2.507
 5310SOL    HW216830   5.832   2.360   2.541
 5311SOL     OW16831   5.802   0.086   0.639
 5311SOL    HW116832   5.820   7.009   0.661
 5311SOL    HW216833   5.827   0.103   0.544
 5312SOL     OW16834   6.354   6.810   0.409
 5312SOL    HW116835   6.405   6.895   0.419
 5312SOL    HW216836   6.384   6.745   0.479
 5313SOL     OW16837   1.025   6.258   5.454
 5313SOL    HW116838   0.976   6.260   5.541
 5313SOL    HW216839   1.115   6.299   5.466
 5314SOL     OW16840   5.903   0.825   1.634
 5314SOL    HW116841   5.817   0.863   1.602
 5314SOL    HW216842   5.914   0.842   1.732
 5315SOL     OW16843   4.468   1.647   3.941
 5315SOL    HW116844   4.443   1.583   3.868
 5315SOL    HW216845   4.540   1.708   3.909
 5316SOL     OW16846   0.875   2.421   4.621
 5316SOL    HW116847   0.775   2.427   4.613
 5316SOL    HW216848   0.900   2.403   4.716
 5317SOL     OW16849   6.043   2.858   0.050
 5317SOL    HW116850   6.120   2.819   0.099
 5317SOL    HW216851   5.958   2.833   0.096
 5318SOL     OW16852   0.337   4.207   6.870
 5318SOL    HW116853   0.363   4.112   6.854
 5318SOL    HW216854   0.404   4.268   6.828
 5319SOL     OW16855   4.244   6.779   2.355
 5319SOL    HW116856   4.229   6.747   2.262
 5319SOL    HW216857   4.338   6.812   2.364
 5320SOL     OW16858   4.001   5.485   0.889
 5320SOL    HW116859   4.007   5.431   0.973
 5320SOL    HW216860   3.997   5.583   0.913
 5321SOL     OW16861   1.935   4.528   5.380
 5321SOL    HW116862   1.852   4.487   5.341
 5321SOL    HW216863   1.980   4.462   5.440
 5322SOL     OW16864   4.770   6.663   2.136
 5322SOL    HW116865   4.793   6.567   2.148
 5322SOL    HW216866   4.672   6.672   2.117
 5323SOL     OW16867   4.622   0.581   5.770
 5323SOL    HW116868   4.529   0.543   5.772
 5323SOL    HW216869   4.673   0.540   5.695
 5324SOL     OW16870   2.090   1.879   1.021
 5324SOL    HW116871   2.164   1.910   1.081
 5324SOL    HW216872   2.081   1.780   1.028
 5325SOL     OW16873   2.291   2.033   4.913
 5325SOL    HW116874   2.280   2.086   4.829
 5325SOL    HW216875   2.201   2.017   4.954
 5326SOL     OW16876   6.327   6.539   2.172
 5326SOL    HW116877   6.357   6.456   2.125
 5326SOL    HW216878   6.386   6.615   2.144
 5327SOL     OW16879   0.082   3.237   5.768
 5327SOL    HW116880   0.096   3.203   5.675
 5327SOL    HW216881   0.016   3.312   5.768
 5328SOL     OW16882   4.670   5.457   0.218
 5328SOL    HW116883   4.671   5.395   0.140
 5328SOL    HW216884   4.644   5.408   0.300
 5329SOL     OW16885   1.223   6.812   6.438
 5329SOL    HW116886   1.309   6.852   6.407
 5329SOL    HW216887   1.158   6.885   6.457
 5330SOL     OW16888   2.095   4.796   1.464
 5330SOL    HW116889   2.120   4.849   1.545
 5330SOL    HW216890   2.041   4.852   1.403
 5331SOL     OW16891   6.309   0.897   6.314
 5331SOL    HW116892   6.262   0.939   6.391
 5331SOL    HW216893   6.294   0.798   6.314
 5332SOL     OW16894   0.280   4.512   1.619
 5332SOL    HW116895   0.365   4.464   1.597
 5332SOL    HW216896   0.202   4.463   1.580
 5333SOL     OW16897   1.425   6.162   4.710
 5333SOL    HW116898   1.357   6.113   4.764
 5333SOL    HW216899   1.434   6.120   4.620
 5334SOL     OW16900   3.530   0.269   4.334
 5334SOL    HW116901   3.626   0.294   4.322
 5334SOL    HW216902   3.522   0.200   4.406
 5335SOL     OW16903   6.800   5.680   7.017
 5335SOL    HW116904   6.798   5.780   0.003
 5335SOL    HW216905   6.891   5.647   0.022
 5336SOL     OW16906   0.877   3.638   1.992
 5336SOL    HW116907   0.786   3.679   1.997
 5336SOL    HW216908   0.945   3.710   1.976
 5337SOL     OW16909   5.377   4.063   1.505
 5337SOL    HW116910   5.460   4.048   1.559
 5337SOL    HW216911   5.321   3.980   1.507
 5338SOL     OW16912   6.162   1.332   6.735
 5338SOL    HW116913   6.086   1.356   6.675
 5338SOL    HW216914   6.228   1.277   6.685
 5339SOL     OW16915   6.423   0.509   2.547
 5339SOL    HW116916   6.516   0.474   2.535
 5339SOL    HW216917   6.415   0.597   2.499
 5340SOL     OW16918   5.382   2.392   5.920
 5340SOL    HW116919   5.480   2.382   5.939
 5340SOL    HW216920   5.331   2.325   5.974
 5341SOL     OW16921   4.157   0.325   0.354
 5341SOL    HW116922   4.095   0.252   0.329
 5341SOL    HW216923   4.105   0.406   0.380
 5342SOL     OW16924   2.662   0.668   6.180
 5342SOL    HW116925   2.625   0.610   6.108
 5342SOL    HW216926   2.665   0.763   6.149
 5343SOL     OW16927   3.398   3.865   2.150
 5343SOL    HW116928   3.471   3.934   2.142
 5343SOL    HW216929   3.311   3.905   2.121
 5344SOL     OW16930   2.347   2.363   3.248
 5344SOL    HW116931   2.248   2.347   3.246
 5344SOL    HW216932   2.389   2.322   3.168
 5345SOL     OW16933   4.671   6.951   2.093
 5345SOL    HW116934   4.761   6.912   2.111
 5345SOL    HW216935   4.674   0.030   2.106
 5346SOL     OW16936   2.205   6.647   3.386
 5346SOL    HW116937   2.266   6.687   3.318
 5346SOL    HW216938   2.203   6.547   3.376
 5347SOL     OW16939   0.010   2.011   2.256
 5347SOL    HW116940   7.019   1.983   2.161
 5347SOL    HW216941   6.956   2.074   2.281
 5348SOL     OW16942   7.012   0.575   0.259
 5348SOL    HW116943   6.977   0.495   0.307
 5348SOL    HW216944   6.979   0.658   0.304
 5349SOL     OW16945   6.629   0.394   1.628
 5349SOL    HW116946   6.530   0.395   1.643
 5349SOL    HW216947   6.664   0.488   1.633
 5350SOL     OW16948   2.504   0.813   6.755
 5350SOL    HW116949   2.469   0.800   6.662
 5350SOL    HW216950   2.599   0.842   6.751
 5351SOL     OW16951   4.423   0.665   1.979
 5351SOL    HW116952   4.375   0.590   2.025
 5351SOL    HW216953   4.401   0.751   2.025
 5352SOL     OW16954   3.112   6.296   3.631
 5352SOL    HW116955   3.109   6.387   3.590
 5352SOL    HW216956   3.106   6.227   3.559
 5353SOL     OW16957   5.828   0.460   5.425
 5353SOL    HW116958   5.818   0.366   5.392
 5353SOL    HW216959   5.847   0.458   5.524
 5354SOL     OW16960   1.219   3.700   1.162
 5354SOL    HW116961   1.207   3.798   1.173
 5354SOL    HW216962   1.131   3.654   1.171
 5355SOL     OW16963   4.285   1.990   4.787
 5355SOL    HW116964   4.378   1.952   4.793
 5355SOL    HW216965   4.275   2.063   4.855
 5356SOL     OW16966   5.734   3.730   1.015
 5356SOL    HW116967   5.744   3.797   0.941
 5356SOL    HW216968   5.815   3.671   1.018
 5357SOL     OW16969   3.413   0.063   0.421
 5357SOL    HW116970   3.370   0.035   0.335
 5357SOL    HW216971   3.511   0.049   0.414
 5358SOL     OW16972   4.633   3.077   1.256
 5358SOL    HW116973   4.647   2.984   1.291
 5358SOL    HW216974   4.620   3.073   1.157
 5359SOL     OW16975   2.599   0.128   6.837
 5359SOL    HW116976   2.687   0.099   6.876
 5359SOL    HW216977   2.556   0.195   6.898
 5360SOL     OW16978   4.165   0.126   6.654
 5360SOL    HW116979   4.100   0.056   6.684
 5360SOL    HW216980   4.121   0.185   6.587
 5361SOL     OW16981   2.047   0.534   6.067
 5361SOL    HW116982   2.033   0.464   6.137
 5361SOL    HW216983   2.109   0.604   6.102
 5362SOL     OW16984   4.217   5.848   3.907
 5362SOL    HW116985   4.261   5.875   3.821
 5362SOL    HW216986   4.232   5.751   3.923
 5363SOL     OW16987   0.668   5.169   5.583
 5363SOL    HW116988   0.619   5.122   5.656
 5363SOL    HW216989   0.764   5.180   5.609
 5364SOL     OW16990   0.411   6.351   6.625
 5364SOL    HW116991   0.476   6.406   6.676
 5364SOL    HW216992   0.459   6.293   6.559
 5365SOL     OW16993   3.781   1.902   6.238
 5365SOL    HW116994   3.742   1.811   6.252
 5365SOL    HW216995   3.728   1.951   6.170
 5366SOL     OW16996   3.697   4.115   6.871
 5366SOL    HW116997   3.721   4.052   6.945
 5366SOL    HW216998   3.604   4.147   6.884
 5367SOL     OW16999   0.295   4.261   0.938
 5367SOL    HW117000   0.240   4.342   0.919
 5367SOL    HW217001   0.354   4.242   0.860
 5368SOL     OW17002   6.079   0.803   3.780
 5368SOL    HW117003   6.109   0.852   3.862
 5368SOL    HW217004   6.060   0.707   3.804
 5369SOL     OW17005   1.614   4.060   2.547
 5369SOL    HW117006   1.515   4.049   2.550
 5369SOL    HW217007   1.658   3.970   2.550
 5370SOL     OW17008   3.849   2.966   1.530
 5370SOL    HW117009   3.909   2.980   1.451
 5370SOL    HW217010   3.894   2.999   1.612
 5371SOL     OW17011   1.481   4.228   5.232
 5371SOL    HW117012   1.404   4.270   5.183
 5371SOL    HW217013   1.553   4.204   5.167
 5372SOL     OW17014   3.023   5.619   3.054
 5372SOL    HW117015   2.958   5.666   2.994
 5372SOL    HW217016   3.001   5.521   3.056
 5373SOL     OW17017   1.953   4.913   4.243
 5373SOL    HW117018   1.912   4.924   4.333
 5373SOL    HW217019   1.983   5.002   4.209
 5374SOL     OW17020   3.188   2.329   0.536
 5374SOL    HW117021   3.280   2.341   0.499
 5374SOL    HW217022   3.191   2.263   0.612
 5375SOL     OW17023   1.792   4.354   4.326
 5375SOL    HW117024   1.782   4.378   4.229
 5375SOL    HW217025   1.702   4.352   4.369
 5376SOL     OW17026   2.984   4.245   0.099
 5376SOL    HW117027   2.960   4.341   0.118
 5376SOL    HW217028   3.047   4.212   0.169
 5377SOL     OW17029   0.784   1.461   1.462
 5377SOL    HW117030   0.848   1.527   1.503
 5377SOL    HW217031   0.733   1.415   1.534
 5378SOL     OW17032   4.444   6.814   0.130
 5378SOL    HW117033   4.535   6.854   0.126
 5378SOL    HW217034   4.436   6.759   0.214
 5379SOL     OW17035   6.712   6.526   1.450
 5379SOL    HW117036   6.757   6.606   1.412
 5379SOL    HW217037   6.614   6.543   1.459
 5380SOL     OW17038   2.365   0.369   4.353
 5380SOL    HW117039   2.349   0.404   4.445
 5380SOL    HW217040   2.349   0.443   4.286
 5381SOL     OW17041   5.454   3.675   1.578
 5381SOL    HW117042   5.504   3.625   1.507
 5381SOL    HW217043   5.458   3.625   1.664
 5382SOL     OW17044   1.743   0.490   1.703
 5382SOL    HW117045   1.671   0.443   1.756
 5382SOL    HW217046   1.832   0.457   1.732
 5383SOL     OW17047   1.845   2.103   4.821
 5383SOL    HW117048   1.918   2.171   4.814
 5383SOL    HW217049   1.776   2.121   4.751
 5384SOL     OW17050   5.862   0.097   4.206
 5384SOL    HW117051   5.849   0.158   4.128
 5384SOL    HW217052   5.817   0.010   4.187
 5385SOL     OW17053   3.151   3.799   2.629
 5385SOL    HW117054   3.173   3.877   2.571
 5385SOL    HW217055   3.167   3.714   2.578
 5386SOL     OW17056   5.485   0.023   5.752
 5386SOL    HW117057   5.462   0.069   5.837
 5386SOL    HW217058   5.526   0.089   5.689
 5387SOL     OW17059   3.194   5.353   1.115
 5387SOL    HW117060   3.246   5.411   1.053
 5387SOL    HW217061   3.193   5.259   1.081
 5388SOL     OW17062   6.191   6.593   2.461
 5388SOL    HW117063   6.223   6.589   2.366
 5388SOL    HW217064   6.270   6.588   2.522
 5389SOL     OW17065   4.838   2.070   1.153
 5389SOL    HW117066   4.837   2.096   1.057
 5389SOL    HW217067   4.775   1.994   1.168
 5390SOL     OW17068   6.369   4.767   5.971
 5390SOL    HW117069   6.335   4.860   5.955
 5390SOL    HW217070   6.336   4.707   5.898
 5391SOL     OW17071   2.706   3.867   0.161
 5391SOL    HW117072   2.743   3.958   0.140
 5391SOL    HW217073   2.729   3.804   0.087
 5392SOL     OW17074   6.095   2.519   2.315
 5392SOL    HW117075   6.186   2.493   2.347
 5392SOL    HW217076   6.027   2.456   2.354
 5393SOL     OW17077   6.042   6.896   6.254
 5393SOL    HW117078   5.974   6.910   6.182
 5393SOL    HW217079   6.073   6.984   6.288
 5394SOL     OW17080   1.613   4.119   5.909
 5394SOL    HW117081   1.701   4.100   5.952
 5394SOL    HW217082   1.620   4.200   5.851
 5395SOL     OW17083   4.584   0.751   0.125
 5395SOL    HW117084   4.662   0.689   0.125
 5395SOL    HW217085   4.560   0.775   0.219
 5396SOL     OW17086   5.003   2.735   2.257
 5396SOL    HW117087   5.062   2.699   2.184
 5396SOL    HW217088   5.034   2.699   2.345
 5397SOL     OW17089   0.430   2.970   1.446
 5397SOL    HW117090   0.476   2.888   1.480
 5397SOL    HW217091   0.495   3.045   1.437
 5398SOL     OW17092   3.530   3.294   1.930
 5398SOL    HW117093   3.574   3.216   1.884
 5398SOL    HW217094   3.566   3.379   1.891
 5399SOL     OW17095   1.145   6.189   0.308
 5399SOL    HW117096   1.156   6.248   0.228
 5399SOL    HW217097   1.048   6.170   0.323
 5400SOL     OW17098   2.320   4.368   6.722
 5400SOL    HW117099   2.313   4.268   6.728
 5400SOL    HW217100   2.416   4.393   6.706
 5401SOL     OW17101   6.263   2.050   1.763
 5401SOL    HW117102   6.229   2.069   1.671
 5401SOL    HW217103   6.353   2.092   1.775
 5402SOL     OW17104   1.848   6.187   2.548
 5402SOL    HW117105   1.905   6.109   2.572
 5402SOL    HW217106   1.866   6.262   2.613
 5403SOL     OW17107   6.167   3.417   6.812
 5403SOL    HW117108   6.148   3.350   6.740
 5403SOL    HW217109   6.217   3.373   6.886
 5404SOL     OW17110   1.599   2.905   2.753
 5404SOL    HW117111   1.666   2.979   2.761
 5404SOL    HW217112   1.520   2.926   2.811
 5405SOL     OW17113   6.847   4.108   5.892
 5405SOL    HW117114   6.911   4.041   5.854
 5405SOL    HW217115   6.850   4.103   5.992
 5406SOL     OW17116   2.079   6.805   4.489
 5406SOL    HW117117   2.012   6.732   4.501
 5406SOL    HW217118   2.101   6.846   4.578
 5407SOL     OW17119   4.196   3.124   6.986
 5407SOL    HW117120   4.248   3.045   0.000
 5407SOL    HW217121   4.207   3.130   6.886
 5408SOL     OW17122   3.148   1.403   0.243
 5408SOL    HW117123   3.198   1.490   0.240
 5408SOL    HW217124   3.145   1.369   0.337
 5409SOL     OW17125   3.969   0.792   2.710
 5409SOL    HW117126   3.883   0.774   2.663
 5409SOL    HW217127   4.042   0.737   2.669
 5410SOL     OW17128   1.469   2.518   2.498
 5410SOL    HW117129   1.495   2.443   2.437
 5410SOL    HW217130   1.542   2.534   2.565
 5411SOL     OW17131   1.226   5.134   4.514
 5411SOL    HW117132   1.269   5.223   4.496
 5411SOL    HW217133   1.220   5.082   4.429
 5412SOL     OW17134   5.938   2.678   1.597
 5412SOL    HW117135   5.873   2.695   1.523
 5412SOL    HW217136   5.889   2.664   1.683
 5413SOL     OW17137   2.678   0.476   2.074
 5413SOL    HW117138   2.773   0.473   2.105
 5413SOL    HW217139   2.623   0.414   2.129
 5414SOL     OW17140   4.586   0.850   5.718
 5414SOL    HW117141   4.601   0.751   5.726
 5414SOL    HW217142   4.604   0.879   5.625
 5415SOL     OW17143   5.931   4.036   2.040
 5415SOL    HW117144   6.003   4.028   1.971
 5415SOL    HW217145   5.972   4.029   2.132
 5416SOL     OW17146   4.380   5.287   3.999
 5416SOL    HW117147   4.461   5.267   3.942
 5416SOL    HW217148   4.409   5.305   4.093
 5417SOL     OW17149   3.752   6.859   5.112
 5417SOL    HW117150   3.735   6.794   5.186
 5417SOL    HW217151   3.780   6.947   5.151
 5418SOL     OW17152   3.386   0.413   2.955
 5418SOL    HW117153   3.477   0.450   2.971
 5418SOL    HW217154   3.361   0.350   3.029
 5419SOL     OW17155   3.453   4.232   6.866
 5419SOL    HW117156   3.405   4.216   6.953
 5419SOL    HW217157   3.431   4.324   6.833
 5420SOL     OW17158   1.442   2.093   2.641
 5420SOL    HW117159   1.395   2.178   2.614
 5420SOL    HW217160   1.386   2.044   2.708
 5421SOL     OW17161   1.667   3.083   1.756
 5421SOL    HW117162   1.701   3.108   1.665
 5421SOL    HW217163   1.589   3.141   1.779
 5422SOL     OW17164   1.892   3.927   0.603
 5422SOL    HW117165   1.836   4.000   0.642
 5422SOL    HW217166   1.899   3.940   0.504
 5423SOL     OW17167   5.853   3.769   6.341
 5423SOL    HW117168   5.882   3.729   6.429
 5423SOL    HW217169   5.852   3.868   6.349
 5424SOL     OW17170   5.433   3.466   5.411
 5424SOL    HW117171   5.388   3.499   5.329
 5424SOL    HW217172   5.434   3.539   5.480
 5425SOL     OW17173   5.335   0.975   4.860
 5425SOL    HW117174   5.349   0.877   4.848
 5425SOL    HW217175   5.237   0.996   4.853
 5426SOL     OW17176   6.850   6.945   5.119
 5426SOL    HW117177   6.751   6.936   5.105
 5426SOL    HW217178   6.880   6.880   5.188
 5427SOL     OW17179   3.901   6.137   6.983
 5427SOL    HW117180   3.889   6.227   6.941
 5427SOL    HW217181   3.974   6.087   6.937
 5428SOL     OW17182   1.630   0.555   6.350
 5428SOL    HW117183   1.553   0.548   6.414
 5428SOL    HW217184   1.716   0.544   6.400
 5429SOL     OW17185   1.486   2.681   6.681
 5429SOL    HW117186   1.455   2.604   6.736
 5429SOL    HW217187   1.583   2.670   6.659
 5430SOL     OW17188   2.017   1.978   4.994
 5430SOL    HW117189   1.971   2.047   4.938
 5430SOL    HW217190   1.984   1.984   5.088
 5431SOL     OW17191   3.655   5.977   4.663
 5431SOL    HW117192   3.680   6.059   4.714
 5431SOL    HW217193   3.617   6.002   4.574
 5432SOL     OW17194   6.051   6.427   1.282
 5432SOL    HW117195   6.052   6.489   1.204
 5432SOL    HW217196   6.045   6.479   1.367
 5433SOL     OW17197   0.008   1.964   4.426
 5433SOL    HW117198   0.084   1.953   4.362
 5433SOL    HW217199   7.001   2.060   4.430
 5434SOL     OW17200   2.774   6.886   5.652
 5434SOL    HW117201   2.711   6.875   5.575
 5434SOL    HW217202   2.839   6.959   5.632
 5435SOL     OW17203   4.582   1.204   1.567
 5435SOL    HW117204   4.499   1.256   1.546
 5435SOL    HW217205   4.625   1.174   1.482
 5436SOL     OW17206   5.189   3.787   2.587
 5436SOL    HW117207   5.191   3.690   2.565
 5436SOL    HW217208   5.101   3.826   2.558
 5437SOL     OW17209   3.392   4.046   6.435
 5437SOL    HW117210   3.420   3.950   6.425
 5437SOL    HW217211   3.409   4.076   6.529
 5438SOL     OW17212   6.664   1.331   1.829
 5438SOL    HW117213   6.631   1.270   1.901
 5438SOL    HW217214   6.603   1.325   1.750
 5439SOL     OW17215   1.705   2.486   1.141
 5439SOL    HW117216   1.644   2.419   1.182
 5439SOL    HW217217   1.788   2.494   1.196
 5440SOL     OW17218   1.409   2.020   0.770
 5440SOL    HW117219   1.417   2.052   0.865
 5440SOL    HW217220   1.499   2.023   0.727
 5441SOL     OW17221   4.263   1.851   3.972
 5441SOL    HW117222   4.178   1.799   3.979
 5441SOL    HW217223   4.340   1.787   3.965
 5442SOL     OW17224   3.431   0.305   2.691
 5442SOL    HW117225   3.443   0.344   2.782
 5442SOL    HW217226   3.380   0.368   2.633
 5443SOL     OW17227   3.195   6.826   5.882
 5443SOL    HW117228   3.214   6.903   5.821
 5443SOL    HW217229   3.098   6.804   5.878
 5444SOL     OW17230   0.209   6.976   3.646
 5444SOL    HW117231   0.214   0.020   3.723
 5444SOL    HW217232   0.148   7.012   3.576
 5445SOL     OW17233   5.692   3.482   1.786
 5445SOL    HW117234   5.760   3.495   1.857
 5445SOL    HW217235   5.705   3.393   1.742
 5446SOL     OW17236   6.754   5.856   5.806
 5446SOL    HW117237   6.686   5.904   5.750
 5446SOL    HW217238   6.710   5.820   5.888
 5447SOL     OW17239   3.103   2.102   1.177
 5447SOL    HW117240   3.098   2.202   1.185
 5447SOL    HW217241   3.025   2.069   1.124
 5448SOL     OW17242   5.501   2.216   6.194
 5448SOL    HW117243   5.480   2.203   6.291
 5448SOL    HW217244   5.526   2.312   6.178
 5449SOL     OW17245   0.305   3.541   6.799
 5449SOL    HW117246   0.272   3.614   6.859
 5449SOL    HW217247   0.248   3.536   6.717
 5450SOL     OW17248   2.202   6.795   0.577
 5450SOL    HW117249   2.268   6.749   0.637
 5450SOL    HW217250   2.112   6.794   0.619
 5451SOL     OW17251   1.563   0.085   2.521
 5451SOL    HW117252   1.574   0.098   2.620
 5451SOL    HW217253   1.651   0.059   2.481
 5452SOL     OW17254   2.695   3.960   5.558
 5452SOL    HW117255   2.697   4.059   5.570
 5452SOL    HW217256   2.666   3.916   5.642
 5453SOL     OW17257   6.551   4.910   6.272
 5453SOL    HW117258   6.534   4.812   6.262
 5453SOL    HW217259   6.647   4.929   6.250
 5454SOL     OW17260   0.373   4.024   5.807
 5454SOL    HW117261   0.371   3.931   5.771
 5454SOL    HW217262   0.282   4.050   5.838
 5455SOL     OW17263   0.093   3.001   0.908
 5455SOL    HW117264   0.085   2.959   0.998
 5455SOL    HW217265   0.002   3.027   0.875
 5456SOL     OW17266   3.258   6.393   1.696
 5456SOL    HW117267   3.301   6.436   1.776
 5456SOL    HW217268   3.268   6.454   1.617
 5457SOL     OW17269   5.445   3.616   0.503
 5457SOL    HW117270   5.433   3.552   0.427
 5457SOL    HW217271   5.540   3.649   0.504
 5458SOL     OW17272   2.308   4.802   6.449
 5458SOL    HW117273   2.262   4.856   6.378
 5458SOL    HW217274   2.320   4.708   6.417
 5459SOL     OW17275   2.065   5.000   5.929
 5459SOL    HW117276   1.969   4.988   5.901
 5459SOL    HW217277   2.083   4.943   6.009
 5460SOL     OW17278   3.414   0.052   2.338
 5460SOL    HW117279   3.319   0.072   2.363
 5460SOL    HW217280   3.474   0.073   2.415
 5461SOL     OW17281   4.616   6.392   4.814
 5461SOL    HW117282   4.669   6.472   4.842
 5461SOL    HW217283   4.531   6.423   4.770
 5462SOL     OW17284   0.828   0.136   1.633
 5462SOL    HW117285   0.791   0.220   1.594
 5462SOL    HW217286   0.921   0.120   1.598
 5463SOL     OW17287   6.874   3.076   0.812
 5463SOL    HW117288   6.832   3.141   0.875
 5463SOL    HW217289   6.804   3.013   0.777
 5464SOL     OW17290   2.407   6.334   3.929
 5464SOL    HW117291   2.345   6.264   3.894
 5464SOL    HW217292   2.500   6.298   3.931
 5465SOL     OW17293   2.320   6.575   6.401
 5465SOL    HW117294   2.402   6.520   6.419
 5465SOL    HW217295   2.241   6.530   6.442
 5466SOL     OW17296   5.169   4.724   4.898
 5466SOL    HW117297   5.212   4.813   4.910
 5466SOL    HW217298   5.071   4.736   4.883
 5467SOL     OW17299   6.004   1.742   2.253
 5467SOL    HW117300   6.017   1.829   2.300
 5467SOL    HW217301   6.009   1.756   2.154
 5468SOL     OW17302   4.343   1.784   5.503
 5468SOL    HW117303   4.433   1.797   5.461
 5468SOL    HW217304   4.278   1.755   5.432
 5469SOL     OW17305   4.501   4.703   0.516
 5469SOL    HW117306   4.436   4.627   0.516
 5469SOL    HW217307   4.467   4.776   0.574
 5470SOL     OW17308   0.784   5.197   3.096
 5470SOL    HW117309   0.775   5.295   3.081
 5470SOL    HW217310   0.776   5.177   3.194
 5471SOL     OW17311   6.254   4.969   2.424
 5471SOL    HW117312   6.340   4.995   2.379
 5471SOL    HW217313   6.197   4.919   2.359
 5472SOL     OW17314   4.048   5.048   6.035
 5472SOL    HW117315   3.962   5.045   6.086
 5472SOL    HW217316   4.081   5.143   6.031
 5473SOL     OW17317   1.181   3.520   3.654
 5473SOL    HW117318   1.200   3.510   3.751
 5473SOL    HW217319   1.185   3.617   3.629
 5474SOL     OW17320   1.453   6.196   3.718
 5474SOL    HW117321   1.535   6.249   3.740
 5474SOL    HW217322   1.385   6.255   3.676
 5475SOL     OW17323   3.140   2.584   1.370
 5475SOL    HW117324   3.137   2.627   1.460
 5475SOL    HW217325   3.123   2.654   1.300
 5476SOL     OW17326   1.544   3.856   6.482
 5476SOL    HW117327   1.637   3.819   6.479
 5476SOL    HW217328   1.495   3.815   6.559
 5477SOL     OW17329   1.936   2.728   2.196
 5477SOL    HW117330   1.900   2.819   2.219
 5477SOL    HW217331   1.872   2.658   2.227
 5478SOL     OW17332   6.861   6.171   6.320
 5478SOL    HW117333   6.835   6.267   6.318
 5478SOL    HW217334   6.811   6.121   6.249
 5479SOL     OW17335   4.636   0.346   4.584
 5479SOL    HW117336   4.642   0.372   4.487
 5479SOL    HW217337   4.692   0.409   4.638
 5480SOL     OW17338   0.670   2.693   5.113
 5480SOL    HW117339   0.729   2.721   5.037
 5480SOL    HW217340   0.689   2.597   5.137
 5481SOL     OW17341   4.981   6.219   3.940
 5481SOL    HW117342   4.890   6.183   3.962
 5481SOL    HW217343   4.986   6.315   3.967
 5482SOL     OW17344   1.450   4.475   1.997
 5482SOL    HW117345   1.475   4.554   1.941
 5482SOL    HW217346   1.365   4.435   1.962
 5483SOL     OW17347   0.739   3.295   6.073
 5483SOL    HW117348   0.792   3.286   5.988
 5483SOL    HW217349   0.793   3.345   6.141
 5484SOL     OW17350   5.229   0.368   4.892
 5484SOL    HW117351   5.285   0.390   4.812
 5484SOL    HW217352   5.288   0.337   4.966
 5485SOL     OW17353   3.762   0.518   4.967
 5485SOL    HW117354   3.672   0.473   4.974
 5485SOL    HW217355   3.780   0.542   4.872
 5486SOL     OW17356   2.697   5.552   4.435
 5486SOL    HW117357   2.632   5.586   4.503
 5486SOL    HW217358   2.774   5.508   4.482
 5487SOL     OW17359   3.476   5.157   5.662
 5487SOL    HW117360   3.570   5.178   5.635
 5487SOL    HW217361   3.413   5.222   5.619
 5488SOL     OW17362   5.170   2.031   0.618
 5488SOL    HW117363   5.137   2.120   0.650
 5488SOL    HW217364   5.266   2.021   0.642
 5489SOL     OW17365   0.051   3.433   4.011
 5489SOL    HW117366   0.148   3.423   4.035
 5489SOL    HW217367   0.018   3.522   4.043
 5490SOL     OW17368   1.480   5.790   2.803
 5490SOL    HW117369   1.421   5.738   2.742
 5490SOL    HW217370   1.489   5.742   2.890
 5491SOL     OW17371   6.163   3.964   0.462
 5491SOL    HW117372   6.109   4.032   0.513
 5491SOL    HW217373   6.235   3.927   0.521
 5492SOL     OW17374   0.161   1.909   6.213
 5492SOL    HW117375   0.074   1.896   6.260
 5492SOL    HW217376   0.234   1.920   6.281
 5493SOL     OW17377   4.271   4.016   0.602
 5493SOL    HW117378   4.282   4.010   0.701
 5493SOL    HW217379   4.320   3.940   0.559
 5494SOL     OW17380   5.873   3.224   5.447
 5494SOL    HW117381   5.819   3.307   5.466
 5494SOL    HW217382   5.898   3.180   5.534
 5495SOL     OW17383   5.504   6.857   0.204
 5495SOL    HW117384   5.479   6.947   0.168
 5495SOL    HW217385   5.585   6.866   0.262
 5496SOL     OW17386   4.308   6.934   5.018
 5496SOL    HW117387   4.303   6.917   5.117
 5496SOL    HW217388   4.278   0.007   4.998
 5497SOL     OW17389   0.589   0.317   4.831
 5497SOL    HW117390   0.643   0.401   4.820
 5497SOL    HW217391   0.511   0.320   4.769
 5498SOL     OW17392   0.348   5.443   0.957
 5498SOL    HW117393   0.291   5.512   0.912
 5498SOL    HW217394   0.443   5.474   0.960
 5499SOL     OW17395   2.198   0.146   4.686
 5499SOL    HW117396   2.194   0.167   4.589
 5499SOL    HW217397   2.190   0.047   4.699
 5500SOL     OW17398   2.531   0.198   1.066
 5500SOL    HW117399   2.570   0.269   1.124
 5500SOL    HW217400   2.435   0.220   1.047
 5501SOL     OW17401   4.084   3.280   0.187
 5501SOL    HW117402   4.151   3.349   0.213
 5501SOL    HW217403   4.119   3.227   0.110
 5502SOL     OW17404   5.061   3.472   0.037
 5502SOL    HW117405   5.146   3.489   0.088
 5502SOL    HW217406   5.070   3.509   6.964
 5503SOL     OW17407   6.051   3.133   0.769
 5503SOL    HW117408   6.120   3.199   0.740
 5503SOL    HW217409   5.961   3.165   0.740
 5504SOL     OW17410   4.300   2.187   0.088
 5504SOL    HW117411   4.331   2.216   7.018
 5504SOL    HW217412   4.378   2.156   0.142
 5505SOL     OW17413   3.287   4.939   3.126
 5505SOL    HW117414   3.204   4.899   3.165
 5505SOL    HW217415   3.289   5.037   3.146
 5506SOL     OW17416   6.334   2.726   6.237
 5506SOL    HW117417   6.379   2.689   6.156
 5506SOL    HW217418   6.245   2.764   6.211
 5507SOL     OW17419   3.733   0.185   0.135
 5507SOL    HW117420   3.751   0.165   0.231
 5507SOL    HW217421   3.820   0.203   0.088
 5508SOL     OW17422   0.505   0.968   6.363
 5508SOL    HW117423   0.424   1.027   6.372
 5508SOL    HW217424   0.500   0.919   6.276
 5509SOL     OW17425   6.486   4.756   0.447
 5509SOL    HW117426   6.424   4.756   0.369
 5509SOL    HW217427   6.441   4.798   0.525
 5510SOL     OW17428   5.066   5.278   6.513
 5510SOL    HW117429   5.115   5.230   6.440
 5510SOL    HW217430   4.969   5.284   6.490
 5511SOL     OW17431   1.009   2.800   6.335
 5511SOL    HW117432   0.947   2.810   6.413
 5511SOL    HW217433   0.990   2.872   6.268
 5512SOL     OW17434   1.862   0.169   2.335
 5512SOL    HW117435   1.868   0.205   2.428
 5512SOL    HW217436   1.817   0.236   2.276
 5513SOL     OW17437   3.670   4.597   6.933
 5513SOL    HW117438   3.700   4.542   6.855
 5513SOL    HW217439   3.715   4.565   7.016
 5514SOL     OW17440   3.669   1.129   0.019
 5514SOL    HW117441   3.586   1.144   6.985
 5514SOL    HW217442   3.693   1.032   0.017
 5515SOL     OW17443   3.216   5.133   2.151
 5515SOL    HW117444   3.179   5.040   2.161
 5515SOL    HW217445   3.255   5.143   2.060
 5516SOL     OW17446   2.105   2.125   5.301
 5516SOL    HW117447   2.198   2.093   5.319
 5516SOL    HW217448   2.041   2.078   5.362
 5517SOL     OW17449   1.499   2.480   3.497
 5517SOL    HW117450   1.578   2.538   3.515
 5517SOL    HW217451   1.487   2.470   3.398
 5518SOL     OW17452   4.743   4.945   6.938
 5518SOL    HW117453   4.739   4.957   0.017
 5518SOL    HW217454   4.709   4.854   6.914
 5519SOL     OW17455   5.075   2.772   5.022
 5519SOL    HW117456   5.127   2.830   4.960
 5519SOL    HW217457   5.109   2.784   5.115
 5520SOL     OW17458   4.901   0.249   1.517
 5520SOL    HW117459   4.839   0.190   1.465
 5520SOL    HW217460   4.847   0.310   1.575
 5521SOL     OW17461   4.649   6.423   2.360
 5521SOL    HW117462   4.618   6.329   2.375
 5521SOL    HW217463   4.693   6.430   2.270
 5522SOL     OW17464   6.090   6.358   0.534
 5522SOL    HW117465   6.099   6.383   0.438
 5522SOL    HW217466   6.126   6.431   0.591
 5523SOL     OW17467   5.157   1.554   0.795
 5523SOL    HW117468   5.172   1.635   0.852
 5523SOL    HW217469   5.059   1.531   0.795
 5524SOL     OW17470   2.482   1.312   3.395
 5524SOL    HW117471   2.418   1.310   3.318
 5524SOL    HW217472   2.465   1.233   3.455
 5525SOL     OW17473   6.132   1.197   1.158
 5525SOL    HW117474   6.066   1.134   1.198
 5525SOL    HW217475   6.182   1.245   1.230
 5526SOL     OW17476   5.610   4.566   3.773
 5526SOL    HW117477   5.630   4.636   3.704
 5526SOL    HW217478   5.680   4.569   3.845
 5527SOL     OW17479   6.545   0.212   2.800
 5527SOL    HW117480   6.472   0.227   2.866
 5527SOL    HW217481   6.612   0.149   2.837
 5528SOL     OW17482   1.261   1.963   6.950
 5528SOL    HW117483   1.246   2.040   6.889
 5528SOL    HW217484   1.232   1.879   6.906
 5529SOL     OW17485   3.367   0.588   2.613
 5529SOL    HW117486   3.465   0.605   2.623
 5529SOL    HW217487   3.315   0.658   2.662
 5530SOL     OW17488   6.898   1.718   0.916
 5530SOL    HW117489   6.869   1.665   0.996
 5530SOL    HW217490   6.996   1.739   0.925
 5531SOL     OW17491   1.846   4.291   1.817
 5531SOL    HW117492   1.875   4.384   1.796
 5531SOL    HW217493   1.793   4.254   1.741
 5532SOL     OW17494   0.667   3.303   6.784
 5532SOL    HW117495   0.741   3.306   6.716
 5532SOL    HW217496   0.708   3.300   6.875
 5533SOL     OW17497   3.931   1.256   2.704
 5533SOL    HW117498   3.849   1.265   2.761
 5533SOL    HW217499   3.986   1.180   2.738
 5534SOL     OW17500   1.339   0.271   4.513
 5534SOL    HW117501   1.347   0.220   4.599
 5534SOL    HW217502   1.361   0.210   4.437
 5535SOL     OW17503   6.931   2.144   2.999
 5535SOL    HW117504   7.007   2.110   2.944
 5535SOL    HW217505   6.872   2.068   3.026
 5536SOL     OW17506   5.081   6.282   4.447
 5536SOL    HW117507   5.082   6.373   4.406
 5536SOL    HW217508   4.992   6.264   4.488
 5537SOL     OW17509   2.712   2.294   3.484
 5537SOL    HW117510   2.658   2.283   3.568
 5537SOL    HW217511   2.668   2.360   3.424
 5538SOL     OW17512   4.800   5.214   4.256
 5538SOL    HW117513   4.765   5.222   4.350
 5538SOL    HW217514   4.890   5.171   4.258
 5539SOL     OW17515   2.042   4.634   6.686
 5539SOL    HW117516   2.010   4.709   6.627
 5539SOL    HW217517   1.963   4.580   6.716
 5540SOL     OW17518   3.904   5.243   1.807
 5540SOL    HW117519   3.892   5.248   1.708
 5540SOL    HW217520   3.971   5.312   1.836
 5541SOL     OW17521   4.556   1.176   5.575
 5541SOL    HW117522   4.532   1.193   5.479
 5541SOL    HW217523   4.600   1.257   5.613
 5542SOL     OW17524   5.465   4.634   6.536
 5542SOL    HW117525   5.561   4.625   6.560
 5542SOL    HW217526   5.434   4.727   6.556
 5543SOL     OW17527   0.448   1.892   5.067
 5543SOL    HW117528   0.512   1.962   5.036
 5543SOL    HW217529   0.369   1.935   5.110
 5544SOL     OW17530   5.635   0.605   6.517
 5544SOL    HW117531   5.685   0.519   6.524
 5544SOL    HW217532   5.601   0.632   6.607
 5545SOL     OW17533   2.369   2.534   1.930
 5545SOL    HW117534   2.394   2.599   1.858
 5545SOL    HW217535   2.438   2.462   1.935
 5546SOL     OW17536   4.206   4.643   5.997
 5546SOL    HW117537   4.273   4.714   6.018
 5546SOL    HW217538   4.119   4.686   5.971
 5547SOL     OW17539   3.431   5.720   4.482
 5547SOL    HW117540   3.396   5.692   4.393
 5547SOL    HW217541   3.505   5.786   4.470
 5548SOL     OW17542   0.855   2.084   4.696
 5548SOL    HW117543   0.840   1.994   4.654
 5548SOL    HW217544   0.784   2.148   4.663
 5549SOL     OW17545   3.149   5.091   0.056
 5549SOL    HW117546   3.188   5.092   6.983
 5549SOL    HW217547   3.194   5.021   0.110
 5550SOL     OW17548   2.613   5.802   2.255
 5550SOL    HW117549   2.704   5.762   2.246
 5550SOL    HW217550   2.620   5.902   2.252
 5551SOL     OW17551   0.529   1.215   2.942
 5551SOL    HW117552   0.571   1.281   2.879
 5551SOL    HW217553   0.602   1.169   2.994
 5552SOL     OW17554   1.092   2.579   2.413
 5552SOL    HW117555   1.045   2.498   2.448
 5552SOL    HW217556   1.184   2.555   2.383
 5553SOL     OW17557   4.359   5.974   6.289
 5553SOL    HW117558   4.432   5.924   6.336
 5553SOL    HW217559   4.359   6.069   6.318
 5554SOL     OW17560   3.344   1.292   4.523
 5554SOL    HW117561   3.426   1.292   4.466
 5554SOL    HW217562   3.262   1.293   4.466
 5555SOL     OW17563   1.263   6.223   1.487
 5555SOL    HW117564   1.295   6.153   1.423
 5555SOL    HW217565   1.268   6.312   1.442
 5556SOL     OW17566   0.088   0.817   4.553
 5556SOL    HW117567   7.014   0.799   4.581
 5556SOL    HW217568   0.151   0.785   4.624
 5557SOL     OW17569   2.617   0.555   2.681
 5557SOL    HW117570   2.555   0.519   2.752
 5557SOL    HW217571   2.708   0.566   2.720
 5558SOL     OW17572   5.108   1.992   5.433
 5558SOL    HW117573   5.096   1.916   5.498
 5558SOL    HW217574   5.192   1.978   5.381
 5559SOL     OW17575   1.907   1.104   1.160
 5559SOL    HW117576   1.992   1.055   1.175
 5559SOL    HW217577   1.837   1.071   1.223
 5560SOL     OW17578   0.178   1.138   4.647
 5560SOL    HW117579   0.168   1.047   4.688
 5560SOL    HW217580   0.257   1.183   4.687
 5561SOL     OW17581   1.352   4.094   2.575
 5561SOL    HW117582   1.275   4.046   2.533
 5561SOL    HW217583   1.367   4.058   2.667
 5562SOL     OW17584   3.402   2.249   7.016
 5562SOL    HW117585   3.409   2.237   6.917
 5562SOL    HW217586   3.419   2.161   0.041
 5563SOL     OW17587   4.096   4.137   1.638
 5563SOL    HW117588   4.102   4.236   1.641
 5563SOL    HW217589   4.002   4.110   1.615
 5564SOL     OW17590   5.198   2.368   1.228
 5564SOL    HW117591   5.154   2.286   1.191
 5564SOL    HW217592   5.145   2.400   1.307
 5565SOL     OW17593   2.559   2.437   4.844
 5565SOL    HW117594   2.581   2.446   4.941
 5565SOL    HW217595   2.558   2.528   4.802
 5566SOL     OW17596   2.381   3.972   0.438
 5566SOL    HW117597   2.413   3.907   0.368
 5566SOL    HW217598   2.288   3.949   0.464
 5567SOL     OW17599   1.334   5.178   3.035
 5567SOL    HW117600   1.308   5.272   3.013
 5567SOL    HW217601   1.408   5.179   3.103
 5568SOL     OW17602   3.845   2.568   0.114
 5568SOL    HW117603   3.930   2.567   0.062
 5568SOL    HW217604   3.787   2.643   0.081
 5569SOL     OW17605   4.770   1.753   6.687
 5569SOL    HW117606   4.819   1.824   6.737
 5569SOL    HW217607   4.791   1.664   6.726
 5570SOL     OW17608   0.965   2.811   5.433
 5570SOL    HW117609   0.987   2.845   5.524
 5570SOL    HW217610   1.010   2.868   5.364
 5571SOL     OW17611   6.661   4.310   6.508
 5571SOL    HW117612   6.589   4.367   6.548
 5571SOL    HW217613   6.642   4.214   6.529
 5572SOL     OW17614   0.679   3.322   5.419
 5572SOL    HW117615   0.592   3.278   5.399
 5572SOL    HW217616   0.679   3.414   5.379
 5573SOL     OW17617   6.857   3.973   0.104
 5573SOL    HW117618   6.762   4.002   0.109
 5573SOL    HW217619   6.871   3.918   0.021
 5574SOL     OW17620   1.611   6.882   3.934
 5574SOL    HW117621   1.702   6.902   3.971
 5574SOL    HW217622   1.621   6.821   3.855
 5575SOL     OW17623   1.194   1.412   2.568
 5575SOL    HW117624   1.101   1.400   2.602
 5575SOL    HW217625   1.229   1.325   2.533
 5576SOL     OW17626   5.410   6.678   5.731
 5576SOL    HW117627   5.477   6.749   5.754
 5576SOL    HW217628   5.386   6.626   5.813
 5577SOL     OW17629   2.350   4.399   4.547
 5577SOL    HW117630   2.324   4.308   4.514
 5577SOL    HW217631   2.370   4.394   4.645
 5578SOL     OW17632   3.323   2.380   6.150
 5578SOL    HW117633   3.253   2.380   6.078
 5578SOL    HW217634   3.404   2.429   6.117
 5579SOL     OW17635   5.337   4.922   1.957
 5579SOL    HW117636   5.368   4.944   1.865
 5579SOL    HW217637   5.247   4.962   1.972
 5580SOL     OW17638   5.086   1.525   1.406
 5580SOL    HW117639   5.153   1.587   1.448
 5580SOL    HW217640   5.112   1.509   1.310
 5581SOL     OW17641   2.964   2.718   0.574
 5581SOL    HW117642   3.026   2.713   0.653
 5581SOL    HW217643   2.946   2.626   0.541
 5582SOL     OW17644   3.583   2.894   3.165
 5582SOL    HW117645   3.636   2.933   3.089
 5582SOL    HW217646   3.492   2.869   3.133
 5583SOL     OW17647   4.111   0.758   0.328
 5583SOL    HW117648   4.179   0.686   0.339
 5583SOL    HW217649   4.019   0.721   0.346
 5584SOL     OW17650   4.985   3.383   3.467
 5584SOL    HW117651   5.061   3.351   3.523
 5584SOL    HW217652   4.921   3.308   3.451
 5585SOL     OW17653   0.733   6.970   3.604
 5585SOL    HW117654   0.633   6.962   3.611
 5585SOL    HW217655   0.756   0.037   3.559
 5586SOL     OW17656   2.263   0.791   6.856
 5586SOL    HW117657   2.359   0.797   6.829
 5586SOL    HW217658   2.205   0.812   6.777
 5587SOL     OW17659   3.556   6.378   3.540
 5587SOL    HW117660   3.600   6.292   3.565
 5587SOL    HW217661   3.485   6.361   3.472
 5588SOL     OW17662   5.208   6.510   6.628
 5588SOL    HW117663   5.142   6.576   6.665
 5588SOL    HW217664   5.301   6.539   6.653
 5589SOL     OW17665   2.152   3.825   0.622
 5589SOL    HW117666   2.165   3.748   0.685
 5589SOL    HW217667   2.065   3.869   0.642
 5590SOL     OW17668   6.903   0.418   3.582
 5590SOL    HW117669   6.918   0.323   3.610
 5590SOL    HW217670   6.865   0.470   3.659
 5591SOL     OW17671   5.472   6.996   0.521
 5591SOL    HW117672   5.538   0.038   0.563
 5591SOL    HW217673   5.439   6.931   0.590
 5592SOL     OW17674   1.188   2.859   2.444
 5592SOL    HW117675   1.113   2.792   2.448
 5592SOL    HW217676   1.271   2.814   2.413
 5593SOL     OW17677   2.339   4.376   4.828
 5593SOL    HW117678   2.269   4.348   4.894
 5593SOL    HW217679   2.419   4.316   4.837
 5594SOL     OW17680   2.545   1.713   6.351
 5594SOL    HW117681   2.620   1.673   6.299
 5594SOL    HW217682   2.551   1.812   6.346
 5595SOL     OW17683   0.913   3.287   6.623
 5595SOL    HW117684   0.849   3.360   6.600
 5595SOL    HW217685   0.963   3.259   6.541
 5596SOL     OW17686   4.920   3.482   4.502
 5596SOL    HW117687   4.901   3.385   4.483
 5596SOL    HW217688   4.899   3.501   4.598
 5597SOL     OW17689   6.530   1.827   6.789
 5597SOL    HW117690   6.490   1.841   6.880
 5597SOL    HW217691   6.627   1.806   6.798
 5598SOL     OW17692   6.360   1.150   3.870
 5598SOL    HW117693   6.454   1.155   3.901
 5598SOL    HW217694   6.308   1.227   3.908
 5599SOL     OW17695   5.565   2.978   3.176
 5599SOL    HW117696   5.652   2.976   3.225
 5599SOL    HW217697   5.514   3.060   3.202
 5600SOL     OW17698   1.976   2.699   1.933
 5600SOL    HW117699   2.009   2.706   2.027
 5600SOL    HW217700   1.878   2.679   1.934
 5601SOL     OW17701   5.867   2.889   6.198
 5601SOL    HW117702   5.807   2.968   6.212
 5601SOL    HW217703   5.833   2.811   6.250
 5602SOL     OW17704   6.210   1.938   3.022
 5602SOL    HW117705   6.184   2.033   3.004
 5602SOL    HW217706   6.170   1.879   2.952
 5603SOL     OW17707   3.404   2.134   6.261
 5603SOL    HW117708   3.391   2.213   6.201
 5603SOL    HW217709   3.324   2.125   6.321
 5604SOL     OW17710   1.170   5.649   3.178
 5604SOL    HW117711   1.181   5.746   3.154
 5604SOL    HW217712   1.203   5.592   3.103
 5605SOL     OW17713   4.316   6.986   4.103
 5605SOL    HW117714   4.338   0.029   4.177
 5605SOL    HW217715   4.222   7.000   4.073
 5606SOL     OW17716   4.515   3.275   0.986
 5606SOL    HW117717   4.585   3.216   0.947
 5606SOL    HW217718   4.557   3.361   1.016
 5607SOL     OW17719   0.197   2.498   3.107
 5607SOL    HW117720   0.267   2.433   3.137
 5607SOL    HW217721   0.179   2.564   3.180
 5608SOL     OW17722   6.044   0.395   4.102
 5608SOL    HW117723   6.022   0.454   4.180
 5608SOL    HW217724   5.964   0.341   4.076
 5609SOL     OW17725   6.470   0.710   0.202
 5609SOL    HW117726   6.567   0.723   0.181
 5609SOL    HW217727   6.415   0.753   0.131
 5610SOL     OW17728   5.843   6.150   5.671
 5610SOL    HW117729   5.753   6.108   5.657
 5610SOL    HW217730   5.836   6.221   5.741
 5611SOL     OW17731   6.651   3.579   1.592
 5611SOL    HW117732   6.646   3.630   1.678
 5611SOL    HW217733   6.639   3.641   1.515
 5612SOL     OW17734   4.075   1.998   1.360
 5612SOL    HW117735   4.029   1.967   1.276
 5612SOL    HW217736   4.007   2.009   1.433
 5613SOL     OW17737   6.493   5.053   5.585
 5613SOL    HW117738   6.439   5.049   5.669
 5613SOL    HW217739   6.516   5.148   5.564
 5614SOL     OW17740   5.021   2.007   4.822
 5614SOL    HW117741   4.928   2.028   4.852
 5614SOL    HW217742   5.085   2.068   4.868
 5615SOL     OW17743   0.402   3.032   3.060
 5615SOL    HW117744   0.483   3.055   3.113
 5615SOL    HW217745   0.429   2.985   2.976
 5616SOL     OW17746   1.572   3.610   1.591
 5616SOL    HW117747   1.647   3.547   1.613
 5616SOL    HW217748   1.536   3.650   1.675
 5617SOL     OW17749   1.085   4.881   5.987
 5617SOL    HW117750   1.102   4.838   6.076
 5617SOL    HW217751   0.989   4.908   5.981
 5618SOL     OW17752   4.834   0.121   2.955
 5618SOL    HW117753   4.824   0.148   2.860
 5618SOL    HW217754   4.854   0.023   2.960
 5619SOL     OW17755   3.165   3.123   3.453
 5619SOL    HW117756   3.216   3.209   3.463
 5619SOL    HW217757   3.101   3.114   3.529
 5620SOL     OW17758   5.167   4.770   5.246
 5620SOL    HW117759   5.252   4.813   5.217
 5620SOL    HW217760   5.138   4.810   5.333
 5621SOL     OW17761   1.241   3.026   6.486
 5621SOL    HW117762   1.286   2.949   6.440
 5621SOL    HW217763   1.190   2.992   6.565
 5622SOL     OW17764   5.339   5.686   3.778
 5622SOL    HW117765   5.249   5.721   3.750
 5622SOL    HW217766   5.372   5.621   3.709
 5623SOL     OW17767   4.563   4.611   3.905
 5623SOL    HW117768   4.489   4.621   3.839
 5623SOL    HW217769   4.528   4.568   3.988
 5624SOL     OW17770   4.747   4.143   3.844
 5624SOL    HW117771   4.699   4.058   3.824
 5624SOL    HW217772   4.756   4.154   3.942
 5625SOL     OW17773   2.771   6.478   6.231
 5625SOL    HW117774   2.694   6.541   6.221
 5625SOL    HW217775   2.805   6.452   6.141
 5626SOL     OW17776   1.506   5.584   6.511
 5626SOL    HW117777   1.439   5.658   6.501
 5626SOL    HW217778   1.459   5.499   6.536
 5627SOL     OW17779   1.304   5.713   0.616
 5627SOL    HW117780   1.235   5.648   0.649
 5627SOL    HW217781   1.262   5.775   0.550
 5628SOL     OW17782   1.842   3.145   0.126
 5628SOL    HW117783   1.809   3.056   0.157
 5628SOL    HW217784   1.841   3.209   0.203
 5629SOL     OW17785   6.849   3.485   4.624
 5629SOL    HW117786   6.757   3.524   4.638
 5629SOL    HW217787   6.899   3.488   4.710
 5630SOL     OW17788   1.930   4.550   0.597
 5630SOL    HW117789   1.945   4.611   0.676
 5630SOL    HW217790   1.977   4.463   0.613
 5631SOL     OW17791   4.191   0.405   2.367
 5631SOL    HW117792   4.168   0.479   2.430
 5631SOL    HW217793   4.121   0.333   2.374
 5632SOL     OW17794   3.898   6.326   6.755
 5632SOL    HW117795   3.822   6.342   6.691
 5632SOL    HW217796   3.981   6.307   6.704
 5633SOL     OW17797   1.421   5.432   5.325
 5633SOL    HW117798   1.475   5.462   5.403
 5633SOL    HW217799   1.482   5.413   5.248
 5634SOL     OW17800   2.524   0.578   1.710
 5634SOL    HW117801   2.517   0.645   1.784
 5634SOL    HW217802   2.526   0.625   1.622
 5635SOL     OW17803   3.898   0.603   2.434
 5635SOL    HW117804   3.856   0.694   2.431
 5635SOL    HW217805   3.853   0.543   2.368
 5636SOL     OW17806   5.065   0.539   5.051
 5636SOL    HW117807   5.090   0.631   5.021
 5636SOL    HW217808   5.107   0.471   4.991
 5637SOL     OW17809   5.229   6.692   5.082
 5637SOL    HW117810   5.312   6.636   5.081
 5637SOL    HW217811   5.254   6.788   5.070
 5638SOL     OW17812   0.129   5.600   0.272
 5638SOL    HW117813   0.152   5.697   0.263
 5638SOL    HW217814   0.086   5.568   0.188
 5639SOL     OW17815   3.428   0.030   2.066
 5639SOL    HW117816   3.444   0.024   2.164
 5639SOL    HW217817   3.344   0.082   2.049
 5640SOL     OW17818   3.455   0.073   3.614
 5640SOL    HW117819   3.493   7.010   3.655
 5640SOL    HW217820   3.370   0.098   3.662
 5641SOL     OW17821   6.994   4.598   3.901
 5641SOL    HW117822   0.028   4.605   3.817
 5641SOL    HW217823   6.897   4.604   3.880
 5642SOL     OW17824   2.001   3.324   6.563
 5642SOL    HW117825   2.029   3.276   6.480
 5642SOL    HW217826   1.917   3.283   6.598
 5643SOL     OW17827   6.179   3.023   4.284
 5643SOL    HW117828   6.249   3.093   4.270
 5643SOL    HW217829   6.179   2.960   4.206
 5644SOL     OW17830   3.465   0.497   5.864
 5644SOL    HW117831   3.529   0.523   5.936
 5644SOL    HW217832   3.391   0.442   5.903
 5645SOL     OW17833   5.949   6.448   2.632
 5645SOL    HW117834   6.029   6.481   2.681
 5645SOL    HW217835   5.866   6.470   2.683
 5646SOL     OW17836   6.292   0.400   3.643
 5646SOL    HW117837   6.250   0.420   3.555
 5646SOL    HW217838   6.267   0.471   3.709
 5647SOL     OW17839   6.382   3.855   6.671
 5647SOL    HW117840   6.306   3.793   6.689
 5647SOL    HW217841   6.466   3.816   6.709
 5648SOL     OW17842   2.439   1.869   3.765
 5648SOL    HW117843   2.493   1.916   3.695
 5648SOL    HW217844   2.493   1.857   3.848
 5649SOL     OW17845   0.899   0.507   5.547
 5649SOL    HW117846   0.939   0.418   5.571
 5649SOL    HW217847   0.911   0.523   5.449
 5650SOL     OW17848   6.942   5.221   5.125
 5650SOL    HW117849   6.844   5.204   5.125
 5650SOL    HW217850   6.990   5.142   5.163
 5651SOL     OW17851   6.074   0.918   2.509
 5651SOL    HW117852   6.063   0.835   2.564
 5651SOL    HW217853   5.989   0.936   2.459
 5652SOL     OW17854   5.405   4.474   0.099
 5652SOL    HW117855   5.397   4.437   0.007
 5652SOL    HW217856   5.497   4.460   0.134
 5653SOL     OW17857   1.865   6.105   0.063
 5653SOL    HW117858   1.906   6.195   0.045
 5653SOL    HW217859   1.935   6.034   0.055
 5654SOL     OW17860   1.459   0.143   0.279
 5654SOL    HW117861   1.501   0.114   0.365
 5654SOL    HW217862   1.412   0.230   0.292
 5655SOL     OW17863   6.351   5.096   3.043
 5655SOL    HW117864   6.426   5.138   3.094
 5655SOL    HW217865   6.271   5.088   3.102
 5656SOL     OW17866   3.754   5.506   6.638
 5656SOL    HW117867   3.777   5.602   6.652
 5656SOL    HW217868   3.702   5.495   6.554
 5657SOL     OW17869   4.605   5.205   1.962
 5657SOL    HW117870   4.679   5.252   2.011
 5657SOL    HW217871   4.641   5.160   1.880
 5658SOL     OW17872   5.058   6.719   5.956
 5658SOL    HW117873   5.131   6.762   6.010
 5658SOL    HW217874   5.098   6.669   5.879
 5659SOL     OW17875   3.184   4.018   3.611
 5659SOL    HW117876   3.195   4.057   3.519
 5659SOL    HW217877   3.222   3.925   3.611
 5660SOL     OW17878   6.964   5.754   1.462
 5660SOL    HW117879   6.881   5.734   1.513
 5660SOL    HW217880   0.005   5.811   1.518
 5661SOL     OW17881   6.149   6.292   4.518
 5661SOL    HW117882   6.135   6.267   4.422
 5661SOL    HW217883   6.232   6.247   4.552
 5662SOL     OW17884   1.958   5.147   4.772
 5662SOL    HW117885   1.865   5.143   4.737
 5662SOL    HW217886   2.022   5.167   4.698
 5663SOL     OW17887   2.439   4.019   1.442
 5663SOL    HW117888   2.353   4.057   1.408
 5663SOL    HW217889   2.511   4.087   1.434
 5664SOL     OW17890   6.585   6.051   1.847
 5664SOL    HW117891   6.516   6.106   1.800
 5664SOL    HW217892   6.581   6.067   1.945
 5665SOL     OW17893   1.473   1.004   6.092
 5665SOL    HW117894   1.489   0.964   6.182
 5665SOL    HW217895   1.417   1.086   6.101
 5666SOL     OW17896   5.709   5.456   6.849
 5666SOL    HW117897   5.806   5.433   6.859
 5666SOL    HW217898   5.659   5.377   6.815
 5667SOL     OW17899   5.842   4.551   2.366
 5667SOL    HW117900   5.815   4.455   2.354
 5667SOL    HW217901   5.888   4.562   2.454
 5668SOL     OW17902   6.303   2.533   6.469
 5668SOL    HW117903   6.303   2.590   6.387
 5668SOL    HW217904   6.394   2.537   6.512
 5669SOL     OW17905   0.568   3.089   4.785
 5669SOL    HW117906   0.552   2.990   4.787
 5669SOL    HW217907   0.594   3.120   4.876
 5670SOL     OW17908   1.687   3.762   2.570
 5670SOL    HW117909   1.631   3.679   2.573
 5670SOL    HW217910   1.715   3.779   2.475
 5671SOL     OW17911   0.983   0.559   4.994
 5671SOL    HW117912   1.015   0.481   4.940
 5671SOL    HW217913   1.050   0.633   4.990
 5672SOL     OW17914   5.017   4.076   6.061
 5672SOL    HW117915   4.932   4.031   6.089
 5672SOL    HW217916   5.075   4.090   6.141
 5673SOL     OW17917   1.592   6.907   0.656
 5673SOL    HW117918   1.506   6.927   0.703
 5673SOL    HW217919   1.646   6.844   0.712
 5674SOL     OW17920   6.979   2.945   1.384
 5674SOL    HW117921   0.049   2.960   1.427
 5674SOL    HW217922   6.935   3.033   1.368
 5675SOL     OW17923   3.863   1.112   5.580
 5675SOL    HW117924   3.806   1.175   5.526
 5675SOL    HW217925   3.950   1.156   5.601
 5676SOL     OW17926   2.633   6.791   2.125
 5676SOL    HW117927   2.733   6.795   2.131
 5676SOL    HW217928   2.602   6.840   2.043
 5677SOL     OW17929   6.726   0.072   2.937
 5677SOL    HW117930   6.787   0.119   3.001
 5677SOL    HW217931   6.667   0.009   2.987
 5678SOL     OW17932   1.303   5.456   2.945
 5678SOL    HW117933   1.270   5.488   2.856
 5678SOL    HW217934   1.382   5.510   2.973
 5679SOL     OW17935   3.752   5.613   5.513
 5679SOL    HW117936   3.674   5.635   5.453
 5679SOL    HW217937   3.723   5.546   5.581
 5680SOL     OW17938   1.808   6.788   6.773
 5680SOL    HW117939   1.798   6.772   6.872
 5680SOL    HW217940   1.904   6.806   6.752
 5681SOL     OW17941   2.609   4.331   6.720
 5681SOL    HW117942   2.620   4.293   6.627
 5681SOL    HW217943   2.686   4.391   6.741
 5682SOL     OW17944   1.877   3.324   4.500
 5682SOL    HW117945   1.953   3.261   4.515
 5682SOL    HW217946   1.904   3.395   4.436
 5683SOL     OW17947   4.086   3.426   4.791
 5683SOL    HW117948   4.106   3.464   4.881
 5683SOL    HW217949   4.112   3.492   4.721
 5684SOL     OW17950   2.959   3.288   3.069
 5684SOL    HW117951   2.965   3.363   3.135
 5684SOL    HW217952   2.930   3.325   2.981
 5685SOL     OW17953   0.222   5.723   1.563
 5685SOL    HW117954   0.254   5.798   1.504
 5685SOL    HW217955   0.202   5.759   1.654
 5686SOL     OW17956   3.423   4.549   6.982
 5686SOL    HW117957   3.516   4.575   6.961
 5686SOL    HW217958   3.379   4.512   6.900
 5687SOL     OW17959   4.485   5.551   6.384
 5687SOL    HW117960   4.509   5.592   6.297
 5687SOL    HW217961   4.521   5.608   6.459
 5688SOL     OW17962   5.482   1.652   1.952
 5688SOL    HW117963   5.462   1.661   1.855
 5688SOL    HW217964   5.437   1.571   1.989
 5689SOL     OW17965   4.373   3.452   5.867
 5689SOL    HW117966   4.345   3.536   5.915
 5689SOL    HW217967   4.416   3.476   5.780
 5690SOL     OW17968   4.255   6.708   3.039
 5690SOL    HW117969   4.175   6.759   3.007
 5690SOL    HW217970   4.285   6.644   2.968
 5691SOL     OW17971   3.416   0.195   4.096
 5691SOL    HW117972   3.476   0.145   4.033
 5691SOL    HW217973   3.465   0.210   4.183
 5692SOL     OW17974   5.640   2.706   6.561
 5692SOL    HW117975   5.714   2.645   6.533
 5692SOL    HW217976   5.592   2.739   6.481
 5693SOL     OW17977   4.879   2.414   2.621
 5693SOL    HW117978   4.854   2.458   2.535
 5693SOL    HW217979   4.803   2.356   2.652
 5694SOL     OW17980   1.815   1.688   4.196
 5694SOL    HW117981   1.819   1.588   4.192
 5694SOL    HW217982   1.735   1.716   4.249
 5695SOL     OW17983   2.237   3.904   3.490
 5695SOL    HW117984   2.263   3.983   3.436
 5695SOL    HW217985   2.250   3.923   3.587
 5696SOL     OW17986   3.054   0.526   5.836
 5696SOL    HW117987   3.067   0.433   5.872
 5696SOL    HW217988   3.083   0.529   5.740
 5697SOL     OW17989   6.296   3.741   7.016
 5697SOL    HW117990   6.329   3.822   0.045
 5697SOL    HW217991   6.199   3.729   0.014
 5698SOL     OW17992   1.435   4.504   3.498
 5698SOL    HW117993   1.487   4.535   3.418
 5698SOL    HW217994   1.390   4.583   3.542
 5699SOL     OW17995   6.963   2.500   5.212
 5699SOL    HW117996   0.021   2.563   5.213
 5699SOL    HW217997   6.996   2.406   5.220
 5700SOL     OW17998   0.998   5.328   3.532
 5700SOL    HW117999   0.919   5.370   3.487
 5700SOL    HW218000   1.079   5.384   3.514
 5701SOL     OW18001   5.121   4.291   2.467
 5701SOL    HW118002   5.131   4.255   2.560
 5701SOL    HW218003   5.034   4.339   2.458
 5702SOL     OW18004   3.359   0.226   6.767
 5702SOL    HW118005   3.267   0.246   6.800
 5702SOL    HW218006   3.418   0.305   6.782
 5703SOL     OW18007   4.733   4.406   1.849
 5703SOL    HW118008   4.668   4.357   1.908
 5703SOL    HW218009   4.682   4.471   1.792
 5704SOL     OW18010   5.044   4.054   3.486
 5704SOL    HW118011   5.117   4.057   3.417
 5704SOL    HW218012   5.021   3.959   3.507
 5705SOL     OW18013   6.363   1.731   3.534
 5705SOL    HW118014   6.419   1.792   3.478
 5705SOL    HW218015   6.421   1.660   3.573
 5706SOL     OW18016   1.917   1.382   6.450
 5706SOL    HW118017   1.855   1.309   6.422
 5706SOL    HW218018   1.864   1.456   6.491
 5707SOL     OW18019   3.258   1.644   0.221
 5707SOL    HW118020   3.298   1.640   0.129
 5707SOL    HW218021   3.202   1.727   0.229
 5708SOL     OW18022   6.865   0.062   0.842
 5708SOL    HW118023   6.926   0.129   0.883
 5708SOL    HW218024   6.885   6.991   0.879
 5709SOL     OW18025   1.537   2.293   1.281
 5709SOL    HW118026   1.531   2.206   1.232
 5709SOL    HW218027   1.523   2.277   1.379
 5710SOL     OW18028   3.325   4.442   6.757
 5710SOL    HW118029   3.394   4.489   6.701
 5710SOL    HW218030   3.236   4.448   6.712
 5711SOL     OW18031   5.272   1.450   5.060
 5711SOL    HW118032   5.364   1.487   5.046
 5711SOL    HW218033   5.207   1.496   4.999
 5712SOL     OW18034   6.482   6.590   6.807
 5712SOL    HW118035   6.462   6.687   6.792
 5712SOL    HW218036   6.486   6.571   6.905
 5713SOL     OW18037   0.126   2.778   2.746
 5713SOL    HW118038   0.032   2.811   2.749
 5713SOL    HW218039   0.127   2.679   2.760
 5714SOL     OW18040   2.249   0.661   6.458
 5714SOL    HW118041   2.252   0.744   6.513
 5714SOL    HW218042   2.338   0.614   6.465
 5715SOL     OW18043   1.736   0.231   3.336
 5715SOL    HW118044   1.832   0.241   3.309
 5715SOL    HW218045   1.681   0.301   3.290
 5716SOL     OW18046   1.653   2.144   5.134
 5716SOL    HW118047   1.667   2.242   5.139
 5716SOL    HW218048   1.609   2.120   5.048
 5717SOL     OW18049   0.448   3.676   6.431
 5717SOL    HW118050   0.467   3.579   6.447
 5717SOL    HW218051   0.450   3.695   6.333
 5718SOL     OW18052   2.349   5.116   5.805
 5718SOL    HW118053   2.276   5.184   5.804
 5718SOL    HW218054   2.320   5.035   5.754
 5719SOL     OW18055   2.143   0.856   0.854
 5719SOL    HW118056   2.180   0.938   0.810
 5719SOL    HW218057   2.049   0.842   0.822
 5720SOL     OW18058   1.322   5.933   4.193
 5720SOL    HW118059   1.344   5.972   4.103
 5720SOL    HW218060   1.321   5.833   4.186
 5721SOL     OW18061   6.601   4.503   0.460
 5721SOL    HW118062   6.555   4.592   0.453
 5721SOL    HW218063   6.674   4.508   0.528
 5722SOL     OW18064   5.643   1.383   3.930
 5722SOL    HW118065   5.649   1.480   3.907
 5722SOL    HW218066   5.718   1.334   3.886
 5723SOL     OW18067   0.997   4.486   1.193
 5723SOL    HW118068   0.974   4.456   1.285
 5723SOL    HW218069   0.921   4.466   1.131
 5724SOL     OW18070   4.942   2.841   5.461
 5724SOL    HW118071   4.872   2.820   5.529
 5724SOL    HW218072   4.988   2.757   5.432
 5725SOL     OW18073   5.211   6.344   5.544
 5725SOL    HW118074   5.175   6.389   5.626
 5725SOL    HW218075   5.140   6.341   5.474
 5726SOL     OW18076   4.441   4.110   6.050
 5726SOL    HW118077   4.516   4.123   5.985
 5726SOL    HW218078   4.451   4.022   6.095
 5727SOL     OW18079   5.351   2.383   4.237
 5727SOL    HW118080   5.255   2.378   4.261
 5727SOL    HW218081   5.383   2.477   4.242
 5728SOL     OW18082   4.730   0.485   5.522
 5728SOL    HW118083   4.748   0.564   5.462
 5728SOL    HW218084   4.681   0.415   5.471
 5729SOL     OW18085   1.319   2.808   4.360
 5729SOL    HW118086   1.419   2.815   4.362
 5729SOL    HW218087   1.282   2.872   4.293
 5730SOL     OW18088   3.614   4.845   0.380
 5730SOL    HW118089   3.531   4.898   0.367
 5730SOL    HW218090   3.685   4.904   0.419
 5731SOL     OW18091   4.368   1.454   4.811
 5731SOL    HW118092   4.452   1.504   4.830
 5731SOL    HW218093   4.290   1.508   4.843
 5732SOL     OW18094   5.588   4.376   4.099
 5732SOL    HW118095   5.513   4.442   4.095
 5732SOL    HW218096   5.664   4.415   4.152
 5733SOL     OW18097   2.622   0.197   1.808
 5733SOL    HW118098   2.599   0.278   1.862
 5733SOL    HW218099   2.712   0.163   1.836
 5734SOL     OW18100   1.469   6.879   6.317
 5734SOL    HW118101   1.533   6.871   6.394
 5734SOL    HW218102   1.495   6.956   6.260
 5735SOL     OW18103   5.344   0.929   1.737
 5735SOL    HW118104   5.262   0.955   1.790
 5735SOL    HW218105   5.355   0.993   1.661
 5736SOL     OW18106   5.729   3.910   6.693
 5736SOL    HW118107   5.752   3.816   6.669
 5736SOL    HW218108   5.636   3.913   6.730
 5737SOL     OW18109   5.624   5.737   2.174
 5737SOL    HW118110   5.600   5.796   2.251
 5737SOL    HW218111   5.724   5.734   2.165
 5738SOL     OW18112   2.598   0.841   1.057
 5738SOL    HW118113   2.504   0.852   1.023
 5738SOL    HW218114   2.649   0.926   1.044
 5739SOL     OW18115   2.555   0.806   5.670
 5739SOL    HW118116   2.510   0.800   5.581
 5739SOL    HW218117   2.499   0.759   5.738
 5740SOL     OW18118   4.892   3.773   2.560
 5740SOL    HW118119   4.888   3.826   2.475
 5740SOL    HW218120   4.866   3.678   2.541
 5741SOL     OW18121   1.352   3.422   4.420
 5741SOL    HW118122   1.324   3.452   4.511
 5741SOL    HW218123   1.452   3.416   4.416
 5742SOL     OW18124   6.433   6.153   2.659
 5742SOL    HW118125   6.365   6.125   2.727
 5742SOL    HW218126   6.455   6.075   2.601
 5743SOL     OW18127   3.560   5.895   0.276
 5743SOL    HW118128   3.585   5.820   0.215
 5743SOL    HW218129   3.461   5.909   0.273
 5744SOL     OW18130   5.346   6.101   3.625
 5744SOL    HW118131   5.364   6.026   3.560
 5744SOL    HW218132   5.371   6.071   3.717
 5745SOL     OW18133   1.175   3.125   2.517
 5745SOL    HW118134   1.132   3.146   2.605
 5745SOL    HW218135   1.180   3.026   2.506
 5746SOL     OW18136   5.308   0.537   2.964
 5746SOL    HW118137   5.315   0.563   2.867
 5746SOL    HW218138   5.218   0.496   2.981
 5747SOL     OW18139   1.637   0.010   1.447
 5747SOL    HW118140   1.550   0.058   1.456
 5747SOL    HW218141   1.709   0.074   1.423
 5748SOL     OW18142   5.979   6.752   0.050
 5748SOL    HW118143   5.946   6.707   0.132
 5748SOL    HW218144   5.995   6.684   6.998
 5749SOL     OW18145   1.863   6.104   6.317
 5749SOL    HW118146   1.881   6.016   6.274
 5749SOL    HW218147   1.937   6.168   6.294
 5750SOL     OW18148   6.709   2.497   4.078
 5750SOL    HW118149   6.779   2.474   4.146
 5750SOL    HW218150   6.735   2.580   4.030
 5751SOL     OW18151   0.502   3.541   4.541
 5751SOL    HW118152   0.545   3.477   4.605
 5751SOL    HW218153   0.558   3.548   4.459
 5752SOL     OW18154   5.144   0.534   0.145
 5752SOL    HW118155   5.204   0.516   0.223
 5752SOL    HW218156   5.050   0.547   0.177
 5753SOL     OW18157   3.953   4.069   4.758
 5753SOL    HW118158   4.034   4.103   4.806
 5753SOL    HW218159   3.872   4.119   4.790
 5754SOL     OW18160   6.706   6.028   0.983
 5754SOL    HW118161   6.668   6.091   1.050
 5754SOL    HW218162   6.660   6.040   0.895
 5755SOL     OW18163   1.323   3.079   6.860
 5755SOL    HW118164   1.228   3.107   6.846
 5755SOL    HW218165   1.380   3.161   6.869
 5756SOL     OW18166   6.404   6.297   2.026
 5756SOL    HW118167   6.388   6.280   1.929
 5756SOL    HW218168   6.433   6.211   2.070
 5757SOL     OW18169   6.829   1.439   3.811
 5757SOL    HW118170   6.928   1.442   3.798
 5757SOL    HW218171   6.807   1.460   3.906
 5758SOL     OW18172   6.120   6.590   2.849
 5758SOL    HW118173   6.197   6.533   2.821
 5758SOL    HW218174   6.078   6.550   2.931
 5759SOL     OW18175   2.524   6.898   2.578
 5759SOL    HW118176   2.480   6.894   2.488
 5759SOL    HW218177   2.562   6.989   2.592
 5760SOL     OW18178   1.181   2.173   6.800
 5760SOL    HW118179   1.187   2.260   6.751
 5760SOL    HW218180   1.167   2.098   6.734
 5761SOL     OW18181   6.508   6.659   4.491
 5761SOL    HW118182   6.482   6.754   4.473
 5761SOL    HW218183   6.431   6.611   4.533
 5762SOL     OW18184   0.775   5.579   5.779
 5762SOL    HW118185   0.752   5.664   5.733
 5762SOL    HW218186   0.875   5.570   5.784
 5763SOL     OW18187   5.585   0.267   0.623
 5763SOL    HW118188   5.585   0.356   0.669
 5763SOL    HW218189   5.673   0.222   0.636
 5764SOL     OW18190   4.826   6.413   4.147
 5764SOL    HW118191   4.799   6.453   4.235
 5764SOL    HW218192   4.788   6.321   4.138
 5765SOL     OW18193   6.890   4.776   2.229
 5765SOL    HW118194   6.799   4.766   2.188
 5765SOL    HW218195   6.883   4.778   2.328
 5766SOL     OW18196   0.555   1.355   3.987
 5766SOL    HW118197   0.490   1.430   3.985
 5766SOL    HW218198   0.631   1.375   3.926
 5767SOL     OW18199   4.092   7.004   0.132
 5767SOL    HW118200   4.035   0.057   0.094
 5767SOL    HW218201   4.086   6.924   0.072
 5768SOL     OW18202   1.176   0.713   5.233
 5768SOL    HW118203   1.101   0.654   5.261
 5768SOL    HW218204   1.143   0.806   5.221
 5769SOL     OW18205   0.963   3.021   6.126
 5769SOL    HW118206   0.892   3.064   6.182
 5769SOL    HW218207   1.026   3.092   6.093
 5770SOL     OW18208   2.130   4.467   1.923
 5770SOL    HW118209   2.220   4.428   1.939
 5770SOL    HW218210   2.080   4.472   2.009
 5771SOL     OW18211   2.671   5.014   3.778
 5771SOL    HW118212   2.618   4.930   3.766
 5771SOL    HW218213   2.638   5.063   3.859
 5772SOL     OW18214   3.343   6.861   2.896
 5772SOL    HW118215   3.305   6.880   2.986
 5772SOL    HW218216   3.269   6.845   2.831
 5773SOL     OW18217   5.873   1.138   2.671
 5773SOL    HW118218   5.949   1.203   2.684
 5773SOL    HW218219   5.842   1.105   2.760
 5774SOL     OW18220   0.906   6.672   3.064
 5774SOL    HW118221   0.922   6.768   3.044
 5774SOL    HW218222   0.939   6.616   2.988
 5775SOL     OW18223   6.070   4.864   2.245
 5775SOL    HW118224   6.070   4.768   2.216
 5775SOL    HW218225   6.022   4.918   2.176
 5776SOL     OW18226   2.612   1.205   4.251
 5776SOL    HW118227   2.551   1.283   4.265
 5776SOL    HW218228   2.673   1.223   4.174
 5777SOL     OW18229   1.679   6.968   1.995
 5777SOL    HW118230   1.655   6.885   2.046
 5777SOL    HW218231   1.600   0.008   1.988
 5778SOL     OW18232   6.851   0.823   1.233
 5778SOL    HW118233   6.840   0.741   1.176
 5778SOL    HW218234   6.822   0.803   1.326
 5779SOL     OW18235   5.602   1.198   6.810
 5779SOL    HW118236   5.552   1.129   6.862
 5779SOL    HW218237   5.546   1.230   6.734
 5780SOL     OW18238   4.934   4.889   4.149
 5780SOL    HW118239   5.001   4.943   4.097
 5780SOL    HW218240   4.843   4.905   4.111
 5781SOL     OW18241   1.501   5.592   5.846
 5781SOL    HW118242   1.429   5.644   5.892
 5781SOL    HW218243   1.590   5.620   5.881
 5782SOL     OW18244   0.303   1.005   6.880
 5782SOL    HW118245   0.324   0.942   6.806
 5782SOL    HW218246   0.251   0.958   6.951
 5783SOL     OW18247   2.576   2.652   0.203
 5783SOL    HW118248   2.576   2.623   0.107
 5783SOL    HW218249   2.667   2.637   0.242
 5784SOL     OW18250   6.834   6.124   6.825
 5784SOL    HW118251   6.832   6.031   6.861
 5784SOL    HW218252   6.865   6.187   6.896
 5785SOL     OW18253   1.014   1.400   0.443
 5785SOL    HW118254   1.095   1.433   0.490
 5785SOL    HW218255   0.967   1.477   0.399
 5786SOL     OW18256   6.205   5.352   1.291
 5786SOL    HW118257   6.129   5.398   1.335
 5786SOL    HW218258   6.286   5.356   1.350
 5787SOL     OW18259   2.362   3.311   6.165
 5787SOL    HW118260   2.413   3.396   6.151
 5787SOL    HW218261   2.339   3.272   6.076
 5788SOL     OW18262   3.400   0.748   3.529
 5788SOL    HW118263   3.474   0.683   3.514
 5788SOL    HW218264   3.390   0.765   3.628
 5789SOL     OW18265   3.668   4.825   6.565
 5789SOL    HW118266   3.654   4.915   6.607
 5789SOL    HW218267   3.702   4.837   6.471
 5790SOL     OW18268   0.920   3.514   3.760
 5790SOL    HW118269   0.869   3.472   3.685
 5790SOL    HW218270   1.017   3.520   3.736
 5791SOL     OW18271   2.311   0.478   3.065
 5791SOL    HW118272   2.303   0.465   3.164
 5791SOL    HW218273   2.273   0.399   3.017
 5792SOL     OW18274   0.078   2.520   2.872
 5792SOL    HW118275   7.000   2.502   2.887
 5792SOL    HW218276   0.126   2.518   2.960
 5793SOL     OW18277   6.889   0.842   4.211
 5793SOL    HW118278   6.828   0.820   4.135
 5793SOL    HW218279   6.841   0.900   4.277
 5794SOL     OW18280   6.147   4.714   6.128
 5794SOL    HW118281   6.113   4.763   6.209
 5794SOL    HW218282   6.239   4.746   6.107
 5795SOL     OW18283   5.676   4.211   6.722
 5795SOL    HW118284   5.588   4.184   6.761
 5795SOL    HW218285   5.667   4.220   6.623
 5796SOL     OW18286   2.950   2.458   0.527
 5796SOL    HW118287   3.043   2.420   0.532
 5796SOL    HW218288   2.886   2.393   0.567
 5797SOL     OW18289   2.841   2.725   6.085
 5797SOL    HW118290   2.800   2.801   6.034
 5797SOL    HW218291   2.853   2.752   6.181
 5798SOL     OW18292   6.700   5.358   4.467
 5798SOL    HW118293   6.696   5.260   4.488
 5798SOL    HW218294   6.784   5.377   4.415
 5799SOL     OW18295   5.127   0.986   3.608
 5799SOL    HW118296   5.137   1.071   3.661
 5799SOL    HW218297   5.035   0.950   3.622
 5800SOL     OW18298   6.010   5.528   6.646
 5800SOL    HW118299   6.088   5.486   6.600
 5800SOL    HW218300   5.982   5.470   6.723
 5801SOL     OW18301   1.795   0.993   2.873
 5801SOL    HW118302   1.893   0.975   2.879
 5801SOL    HW218303   1.780   1.091   2.859
 5802SOL     OW18304   0.595   2.513   4.664
 5802SOL    HW118305   0.573   2.534   4.760
 5802SOL    HW218306   0.516   2.535   4.607
 5803SOL     OW18307   1.402   4.949   1.089
 5803SOL    HW118308   1.415   4.896   1.173
 5803SOL    HW218309   1.416   4.890   1.010
 5804SOL     OW18310   6.739   3.087   5.905
 5804SOL    HW118311   6.683   3.100   5.823
 5804SOL    HW218312   6.825   3.044   5.880
 5805SOL     OW18313   6.140   3.048   6.925
 5805SOL    HW118314   6.116   2.958   6.962
 5805SOL    HW218315   6.088   3.064   6.842
 5806SOL     OW18316   0.152   6.794   6.610
 5806SOL    HW118317   0.249   6.789   6.588
 5806SOL    HW218318   0.104   6.846   6.540
 5807SOL     OW18319   2.160   3.784   1.956
 5807SOL    HW118320   2.186   3.838   2.036
 5807SOL    HW218321   2.180   3.687   1.974
 5808SOL     OW18322   6.538   2.210   3.576
 5808SOL    HW118323   6.497   2.264   3.650
 5808SOL    HW218324   6.488   2.228   3.491
 5809SOL     OW18325   6.809   3.008   4.398
 5809SOL    HW118326   6.818   2.960   4.311
 5809SOL    HW218327   6.853   3.098   4.391
 5810SOL     OW18328   2.575   2.137   2.642
 5810SOL    HW118329   2.627   2.173   2.720
 5810SOL    HW218330   2.527   2.053   2.670
 5811SOL     OW18331   3.012   1.040   2.276
 5811SOL    HW118332   2.988   0.962   2.217
 5811SOL    HW218333   3.005   1.012   2.372
 5812SOL     OW18334   4.577   0.715   4.712
 5812SOL    HW118335   4.560   0.805   4.752
 5812SOL    HW218336   4.645   0.724   4.639
 5813SOL     OW18337   1.650   1.178   5.352
 5813SOL    HW118338   1.592   1.099   5.330
 5813SOL    HW218339   1.593   1.250   5.393
 5814SOL     OW18340   0.160   5.012   0.795
 5814SOL    HW118341   0.127   5.093   0.747
 5814SOL    HW218342   0.094   4.986   0.865
 5815SOL     OW18343   3.447   1.668   3.175
 5815SOL    HW118344   3.375   1.715   3.124
 5815SOL    HW218345   3.415   1.646   3.267
 5816SOL     OW18346   4.955   6.696   1.357
 5816SOL    HW118347   5.001   6.719   1.271
 5816SOL    HW218348   5.024   6.686   1.429
 5817SOL     OW18349   5.764   2.048   5.757
 5817SOL    HW118350   5.795   2.121   5.818
 5817SOL    HW218351   5.843   2.000   5.719
 5818SOL     OW18352   6.118   6.606   5.460
 5818SOL    HW118353   6.215   6.613   5.483
 5818SOL    HW218354   6.086   6.513   5.479
 5819SOL     OW18355   5.348   0.410   0.905
 5819SOL    HW118356   5.302   0.488   0.948
 5819SOL    HW218357   5.281   0.357   0.853
 5820SOL     OW18358   5.992   5.412   2.845
 5820SOL    HW118359   6.007   5.367   2.757
 5820SOL    HW218360   6.018   5.350   2.919
 5821SOL     OW18361   3.376   6.777   2.245
 5821SOL    HW118362   3.342   6.775   2.151
 5821SOL    HW218363   3.401   6.870   2.269
 5822SOL     OW18364   0.961   1.110   2.367
 5822SOL    HW118365   0.893   1.086   2.298
 5822SOL    HW218366   1.008   1.027   2.398
 5823SOL     OW18367   2.191   3.034   4.293
 5823SOL    HW118368   2.252   2.957   4.308
 5823SOL    HW218369   2.175   3.081   4.379
 5824SOL     OW18370   4.212   0.568   3.787
 5824SOL    HW118371   4.234   0.555   3.690
 5824SOL    HW218372   4.297   0.583   3.838
 5825SOL     OW18373   2.686   1.052   0.740
 5825SOL    HW118374   2.701   1.100   0.827
 5825SOL    HW218375   2.607   0.991   0.748
 5826SOL     OW18376   6.526   0.452   4.432
 5826SOL    HW118377   6.622   0.451   4.460
 5826SOL    HW218378   6.482   0.368   4.463
 5827SOL     OW18379   1.424   5.047   5.393
 5827SOL    HW118380   1.331   5.081   5.377
 5827SOL    HW218381   1.485   5.081   5.321
 5828SOL     OW18382   6.556   2.705   1.595
 5828SOL    HW118383   6.546   2.613   1.634
 5828SOL    HW218384   6.599   2.697   1.504
 5829SOL     OW18385   1.340   1.691   1.861
 5829SOL    HW118386   1.296   1.601   1.871
 5829SOL    HW218387   1.319   1.747   1.941
 5830SOL     OW18388   2.539   1.028   5.445
 5830SOL    HW118389   2.501   0.935   5.443
 5830SOL    HW218390   2.468   1.093   5.421
 5831SOL     OW18391   5.815   6.262   2.906
 5831SOL    HW118392   5.874   6.193   2.865
 5831SOL    HW218393   5.869   6.317   2.970
 5832SOL     OW18394   3.544   3.557   4.777
 5832SOL    HW118395   3.559   3.491   4.850
 5832SOL    HW218396   3.631   3.602   4.755
 5833SOL     OW18397   3.676   3.319   5.222
 5833SOL    HW118398   3.600   3.337   5.160
 5833SOL    HW218399   3.684   3.220   5.237
 5834SOL     OW18400   6.278   0.692   0.656
 5834SOL    HW118401   6.313   0.774   0.610
 5834SOL    HW218402   6.296   0.612   0.598
 5835SOL     OW18403   5.344   2.782   4.057
 5835SOL    HW118404   5.284   2.854   4.092
 5835SOL    HW218405   5.384   2.811   3.970
 5836SOL     OW18406   3.588   6.503   2.598
 5836SOL    HW118407   3.600   6.404   2.601
 5836SOL    HW218408   3.497   6.525   2.565
 5837SOL     OW18409   5.019   4.877   6.265
 5837SOL    HW118410   5.013   4.864   6.166
 5837SOL    HW218411   5.060   4.796   6.307
 5838SOL     OW18412   0.108   1.792   5.548
 5838SOL    HW118413   0.187   1.742   5.584
 5838SOL    HW218414   0.027   1.769   5.602
 5839SOL     OW18415   0.151   2.988   2.549
 5839SOL    HW118416   0.128   2.893   2.530
 5839SOL    HW218417   0.093   3.023   2.623
 5840SOL     OW18418   2.248   5.517   0.173
 5840SOL    HW118419   2.245   5.495   0.270
 5840SOL    HW218420   2.162   5.491   0.130
 5841SOL     OW18421   6.450   2.109   2.833
 5841SOL    HW118422   6.504   2.185   2.869
 5841SOL    HW218423   6.504   2.025   2.837
 5842SOL     OW18424   3.746   2.965   0.219
 5842SOL    HW118425   3.661   2.943   0.266
 5842SOL    HW218426   3.741   3.058   0.181
 5843SOL     OW18427   1.502   2.959   1.424
 5843SOL    HW118428   1.531   2.916   1.509
 5843SOL    HW218429   1.503   2.891   1.350
 5844SOL     OW18430   1.083   6.090   6.753
 5844SOL    HW118431   1.006   6.092   6.689
 5844SOL    HW218432   1.118   5.997   6.759
 5845SOL     OW18433   1.330   2.221   4.723
 5845SOL    HW118434   1.427   2.240   4.709
 5845SOL    HW218435   1.277   2.304   4.707
 5846SOL     OW18436   0.455   3.395   6.438
 5846SOL    HW118437   0.468   3.327   6.365
 5846SOL    HW218438   0.381   3.366   6.498
 5847SOL     OW18439   1.465   2.402   3.765
 5847SOL    HW118440   1.491   2.402   3.669
 5847SOL    HW218441   1.536   2.446   3.819
 5848SOL     OW18442   1.228   5.120   3.886
 5848SOL    HW118443   1.262   5.211   3.912
 5848SOL    HW218444   1.201   5.121   3.790
 5849SOL     OW18445   3.292   6.639   5.474
 5849SOL    HW118446   3.371   6.579   5.492
 5849SOL    HW218447   3.208   6.588   5.491
 5850SOL     OW18448   0.882   4.385   3.361
 5850SOL    HW118449   0.954   4.453   3.370
 5850SOL    HW218450   0.915   4.307   3.308
 5851SOL     OW18451   5.502   3.097   2.134
 5851SOL    HW118452   5.411   3.068   2.103
 5851SOL    HW218453   5.572   3.043   2.085
 5852SOL     OW18454   4.174   5.904   2.763
 5852SOL    HW118455   4.178   5.833   2.833
 5852SOL    HW218456   4.197   5.992   2.805
 5853SOL     OW18457   4.296   4.183   5.564
 5853SOL    HW118458   4.291   4.154   5.659
 5853SOL    HW218459   4.323   4.106   5.506
 5854SOL     OW18460   0.665   1.202   6.679
 5854SOL    HW118461   0.735   1.260   6.722
 5854SOL    HW218462   0.694   1.178   6.586
 5855SOL     OW18463   1.841   1.028   4.944
 5855SOL    HW118464   1.818   0.988   4.855
 5855SOL    HW218465   1.796   1.117   4.952
 5856SOL     OW18466   2.324   5.124   3.301
 5856SOL    HW118467   2.412   5.146   3.343
 5856SOL    HW218468   2.321   5.160   3.208
 5857SOL     OW18469   0.215   2.301   5.984
 5857SOL    HW118470   0.179   2.329   6.073
 5857SOL    HW218471   0.261   2.378   5.941
 5858SOL     OW18472   3.878   6.621   3.559
 5858SOL    HW118473   3.779   6.627   3.572
 5858SOL    HW218474   3.910   6.531   3.588
 5859SOL     OW18475   6.680   5.733   1.580
 5859SOL    HW118476   6.609   5.776   1.523
 5859SOL    HW218477   6.654   5.739   1.676
 5860SOL     OW18478   0.857   3.315   1.384
 5860SOL    HW118479   0.918   3.289   1.309
 5860SOL    HW218480   0.899   3.290   1.471
 5861SOL     OW18481   5.841   2.324   4.028
 5861SOL    HW118482   5.853   2.396   3.960
 5861SOL    HW218483   5.743   2.308   4.043
 5862SOL     OW18484   4.849   4.175   3.347
 5862SOL    HW118485   4.803   4.249   3.396
 5862SOL    HW218486   4.921   4.137   3.405
 5863SOL     OW18487   1.850   1.580   1.168
 5863SOL    HW118488   1.777   1.637   1.129
 5863SOL    HW218489   1.930   1.585   1.109
 5864SOL     OW18490   4.458   5.522   0.609
 5864SOL    HW118491   4.554   5.549   0.612
 5864SOL    HW218492   4.403   5.589   0.659
 5865SOL     OW18493   4.532   1.057   3.439
 5865SOL    HW118494   4.575   1.007   3.364
 5865SOL    HW218495   4.443   1.091   3.410
 5866SOL     OW18496   3.309   1.392   6.762
 5866SOL    HW118497   3.326   1.329   6.686
 5866SOL    HW218498   3.294   1.340   6.846
 5867SOL     OW18499   0.359   2.775   1.190
 5867SOL    HW118500   0.307   2.826   1.258
 5867SOL    HW218501   0.456   2.799   1.197
 5868SOL     OW18502   1.642   6.840   4.544
 5868SOL    HW118503   1.641   6.925   4.596
 5868SOL    HW218504   1.636   6.861   4.446
 5869SOL     OW18505   2.913   5.034   3.907
 5869SOL    HW118506   2.825   5.012   3.866
 5869SOL    HW218507   2.985   5.030   3.837
 5870SOL     OW18508   5.338   5.020   4.278
 5870SOL    HW118509   5.349   5.060   4.369
 5870SOL    HW218510   5.423   5.031   4.226
 5871SOL     OW18511   2.671   3.337   0.426
 5871SOL    HW118512   2.637   3.286   0.506
 5871SOL    HW218513   2.618   3.421   0.416
 5872SOL     OW18514   3.923   5.946   4.232
 5872SOL    HW118515   3.930   5.888   4.151
 5872SOL    HW218516   3.901   6.040   4.204
 5873SOL     OW18517   2.113   3.736   0.178
 5873SOL    HW118518   2.202   3.719   0.137
 5873SOL    HW218519   2.095   3.668   0.249
 5874SOL     OW18520   1.039   4.345   6.962
 5874SOL    HW118521   1.003   4.392   0.023
 5874SOL    HW218522   1.039   4.246   6.979
 5875SOL     OW18523   4.552   1.895   0.067
 5875SOL    HW118524   4.543   1.968   0.135
 5875SOL    HW218525   4.493   1.914   7.009
 5876SOL     OW18526   3.762   4.073   6.392
 5876SOL    HW118527   3.774   4.172   6.389
 5876SOL    HW218528   3.790   4.039   6.481
 5877SOL     OW18529   6.375   0.424   2.118
 5877SOL    HW118530   6.290   0.448   2.165
 5877SOL    HW218531   6.453   0.438   2.180
 5878SOL     OW18532   5.234   4.600   2.077
 5878SOL    HW118533   5.217   4.694   2.105
 5878SOL    HW218534   5.305   4.561   2.135
 5879SOL     OW18535   3.340   3.432   5.593
 5879SOL    HW118536   3.334   3.504   5.663
 5879SOL    HW218537   3.431   3.431   5.554
 5880SOL     OW18538   6.394   2.837   6.479
 5880SOL    HW118539   6.382   2.815   6.382
 5880SOL    HW218540   6.415   2.934   6.489
 5881SOL     OW18541   1.620   6.501   2.576
 5881SOL    HW118542   1.567   6.440   2.517
 5881SOL    HW218543   1.708   6.458   2.598
 5882SOL     OW18544   1.306   4.708   5.867
 5882SOL    HW118545   1.249   4.789   5.854
 5882SOL    HW218546   1.339   4.676   5.778
 5883SOL     OW18547   6.389   5.096   0.170
 5883SOL    HW118548   6.399   5.114   0.268
 5883SOL    HW218549   6.330   5.165   0.129
 5884SOL     OW18550   0.010   0.994   2.491
 5884SOL    HW118551   0.035   1.038   2.578
 5884SOL    HW218552   6.974   0.913   2.510
 5885SOL     OW18553   0.218   5.413   0.688
 5885SOL    HW118554   0.246   5.409   0.592
 5885SOL    HW218555   0.226   5.507   0.721
 5886SOL     OW18556   1.744   4.752   3.585
 5886SOL    HW118557   1.808   4.829   3.589
 5886SOL    HW218558   1.792   4.668   3.609
 5887SOL     OW18559   2.628   2.907   0.352
 5887SOL    HW118560   2.610   2.996   0.310
 5887SOL    HW218561   2.590   2.835   0.295
 5888SOL     OW18562   2.722   6.318   1.370
 5888SOL    HW118563   2.626   6.326   1.345
 5888SOL    HW218564   2.758   6.231   1.335
 5889SOL     OW18565   5.867   0.909   1.969
 5889SOL    HW118566   5.804   0.923   2.045
 5889SOL    HW218567   5.952   0.957   1.986
 5890SOL     OW18568   2.596   5.189   3.977
 5890SOL    HW118569   2.638   5.280   3.976
 5890SOL    HW218570   2.497   5.198   3.980
 5891SOL     OW18571   2.477   3.929   6.611
 5891SOL    HW118572   2.570   3.925   6.576
 5891SOL    HW218573   2.413   3.944   6.535
 5892SOL     OW18574   1.007   3.198   0.495
 5892SOL    HW118575   1.061   3.205   0.411
 5892SOL    HW218576   0.919   3.244   0.483
 5893SOL     OW18577   0.673   6.632   0.980
 5893SOL    HW118578   0.720   6.585   1.055
 5893SOL    HW218579   0.620   6.708   1.016
 5894SOL     OW18580   1.841   5.923   6.605
 5894SOL    HW118581   1.902   5.985   6.655
 5894SOL    HW218582   1.816   5.964   6.518
 5895SOL     OW18583   5.616   4.510   3.377
 5895SOL    HW118584   5.640   4.443   3.307
 5895SOL    HW218585   5.619   4.466   3.467
 5896SOL     OW18586   5.589   2.070   2.326
 5896SOL    HW118587   5.521   2.004   2.359
 5896SOL    HW218588   5.550   2.122   2.250
 5897SOL     OW18589   3.447   2.389   0.470
 5897SOL    HW118590   3.529   2.392   0.527
 5897SOL    HW218591   3.437   2.475   0.421
 5898SOL     OW18592   2.183   0.901   6.566
 5898SOL    HW118593   2.146   0.964   6.635
 5898SOL    HW218594   2.185   0.946   6.477
 5899SOL     OW18595   0.549   6.559   6.799
 5899SOL    HW118596   0.516   6.611   6.878
 5899SOL    HW218597   0.635   6.599   6.767
 5900SOL     OW18598   6.158   6.179   2.416
 5900SOL    HW118599   6.255   6.196   2.436
 5900SOL    HW218600   6.147   6.159   2.319
 5901SOL     OW18601   2.783   0.639   4.936
 5901SOL    HW118602   2.771   0.734   4.966
 5901SOL    HW218603   2.839   0.590   5.003
 5902SOL     OW18604   4.163   3.793   5.757
 5902SOL    HW118605   4.127   3.789   5.664
 5902SOL    HW218606   4.108   3.857   5.812
 5903SOL     OW18607   6.602   1.959   5.555
 5903SOL    HW118608   6.573   1.894   5.484
 5903SOL    HW218609   6.686   2.005   5.526
 5904SOL     OW18610   0.516   4.752   1.420
 5904SOL    HW118611   0.433   4.733   1.369
 5904SOL    HW218612   0.557   4.837   1.387
 5905SOL     OW18613   5.914   2.164   4.830
 5905SOL    HW118614   5.962   2.165   4.918
 5905SOL    HW218615   5.828   2.215   4.839
 5906SOL     OW18616   4.039   1.426   5.901
 5906SOL    HW118617   4.113   1.374   5.857
 5906SOL    HW218618   4.079   1.496   5.961
 5907SOL     OW18619   1.156   3.192   6.120
 5907SOL    HW118620   1.149   3.289   6.142
 5907SOL    HW218621   1.253   3.166   6.115
 5908SOL     OW18622   4.713   3.932   6.514
 5908SOL    HW118623   4.652   3.853   6.509
 5908SOL    HW218624   4.686   4.000   6.445
 5909SOL     OW18625   6.368   4.922   3.798
 5909SOL    HW118626   6.465   4.898   3.794
 5909SOL    HW218627   6.351   4.976   3.880
 5910SOL     OW18628   3.143   4.472   0.733
 5910SOL    HW118629   3.111   4.491   0.826
 5910SOL    HW218630   3.131   4.554   0.677
 5911SOL     OW18631   6.434   0.118   6.916
 5911SOL    HW118632   6.479   0.138   6.829
 5911SOL    HW218633   6.502   0.116   6.989
 5912SOL     OW18634   0.855   3.296   5.104
 5912SOL    HW118635   0.884   3.392   5.095
 5912SOL    HW218636   0.894   3.257   5.187
 5913SOL     OW18637   1.575   2.298   4.673
 5913SOL    HW118638   1.550   2.324   4.580
 5913SOL    HW218639   1.652   2.355   4.704
 5914SOL     OW18640   1.725   6.138   0.684
 5914SOL    HW118641   1.692   6.196   0.609
 5914SOL    HW218642   1.660   6.140   0.759
 5915SOL     OW18643   5.530   3.457   4.334
 5915SOL    HW118644   5.579   3.531   4.288
 5915SOL    HW218645   5.579   3.432   4.418
 5916SOL     OW18646   3.286   0.303   6.087
 5916SOL    HW118647   3.338   0.326   6.170
 5916SOL    HW218648   3.190   0.292   6.110
 5917SOL     OW18649   3.706   4.063   2.772
 5917SOL    HW118650   3.791   4.036   2.818
 5917SOL    HW218651   3.723   4.071   2.674
 5918SOL     OW18652   2.543   2.205   4.201
 5918SOL    HW118653   2.614   2.261   4.243
 5918SOL    HW218654   2.510   2.250   4.118
 5919SOL     OW18655   1.347   2.472   6.780
 5919SOL    HW118656   1.350   2.408   6.857
 5919SOL    HW218657   1.327   2.422   6.696
 5920SOL     OW18658   2.120   5.148   0.355
 5920SOL    HW118659   2.165   5.229   0.394
 5920SOL    HW218660   2.109   5.162   0.256
 5921SOL     OW18661   4.093   5.307   6.094
 5921SOL    HW118662   4.056   5.336   6.182
 5921SOL    HW218663   4.133   5.387   6.047
 5922SOL     OW18664   5.889   4.564   1.210
 5922SOL    HW118665   5.815   4.523   1.262
 5922SOL    HW218666   5.947   4.492   1.172
 5923SOL     OW18667   0.275   0.757   3.636
 5923SOL    HW118668   0.235   0.743   3.545
 5923SOL    HW218669   0.224   0.702   3.703
 5924SOL     OW18670   5.942   1.973   5.098
 5924SOL    HW118671   5.895   1.943   5.015
 5924SOL    HW218672   5.977   1.894   5.147
 5925SOL     OW18673   6.244   5.993   0.404
 5925SOL    HW118674   6.179   6.023   0.474
 5925SOL    HW218675   6.310   5.930   0.445
 5926SOL     OW18676   3.272   5.110   2.703
 5926SOL    HW118677   3.234   5.164   2.778
 5926SOL    HW218678   3.229   5.138   2.617
 5927SOL     OW18679   2.560   5.461   1.969
 5927SOL    HW118680   2.609   5.452   2.056
 5927SOL    HW218681   2.508   5.546   1.969
 5928SOL     OW18682   0.586   6.004   1.069
 5928SOL    HW118683   0.586   5.982   0.972
 5928SOL    HW218684   0.500   6.049   1.094
 5929SOL     OW18685   0.877   6.907   5.281
 5929SOL    HW118686   0.842   6.897   5.188
 5929SOL    HW218687   0.805   6.883   5.347
 5930SOL     OW18688   6.413   1.377   5.159
 5930SOL    HW118689   6.362   1.292   5.144
 5930SOL    HW218690   6.499   1.356   5.205
 5931SOL     OW18691   5.688   4.898   1.030
 5931SOL    HW118692   5.764   4.922   1.090
 5931SOL    HW218693   5.683   4.964   0.954
 5932SOL     OW18694   2.310   0.257   0.302
 5932SOL    HW118695   2.359   0.190   0.246
 5932SOL    HW218696   2.324   0.236   0.398
 5933SOL     OW18697   6.052   3.626   2.557
 5933SOL    HW118698   6.029   3.688   2.632
 5933SOL    HW218699   6.151   3.617   2.550
 5934SOL     OW18700   3.809   4.028   2.350
 5934SOL    HW118701   3.741   3.990   2.412
 5934SOL    HW218702   3.869   3.956   2.316
 5935SOL     OW18703   4.088   3.347   3.044
 5935SOL    HW118704   4.019   3.287   3.004
 5935SOL    HW218705   4.080   3.346   3.143
 5936SOL     OW18706   6.033   6.305   6.615
 5936SOL    HW118707   6.042   6.240   6.540
 5936SOL    HW218708   6.008   6.257   6.698
 5937SOL     OW18709   1.502   4.538   0.445
 5937SOL    HW118710   1.432   4.471   0.471
 5937SOL    HW218711   1.592   4.494   0.446
 5938SOL     OW18712   2.197   4.406   1.224
 5938SOL    HW118713   2.250   4.338   1.276
 5938SOL    HW218714   2.215   4.497   1.260
 5939SOL     OW18715   1.966   1.181   2.515
 5939SOL    HW118716   1.968   1.086   2.547
 5939SOL    HW218717   1.892   1.192   2.450
 5940SOL     OW18718   4.177   5.203   3.251
 5940SOL    HW118719   4.081   5.182   3.236
 5940SOL    HW218720   4.218   5.130   3.307
 5941SOL     OW18721   6.514   3.290   2.913
 5941SOL    HW118722   6.554   3.210   2.868
 5941SOL    HW218723   6.453   3.260   2.986
 5942SOL     OW18724   6.773   1.974   4.826
 5942SOL    HW118725   6.729   1.965   4.915
 5942SOL    HW218726   6.831   2.056   4.825
 5943SOL     OW18727   0.901   5.147   0.511
 5943SOL    HW118728   0.812   5.124   0.550
 5943SOL    HW218729   0.970   5.085   0.547
 5944SOL     OW18730   5.052   2.102   3.356
 5944SOL    HW118731   5.045   2.195   3.319
 5944SOL    HW218732   5.108   2.047   3.295
 5945SOL     OW18733   6.809   4.894   5.955
 5945SOL    HW118734   6.821   4.840   6.038
 5945SOL    HW218735   6.720   4.939   5.957
 5946SOL     OW18736   3.934   2.911   5.393
 5946SOL    HW118737   3.996   2.967   5.339
 5946SOL    HW218738   3.841   2.946   5.383
 5947SOL     OW18739   4.506   4.031   1.650
 5947SOL    HW118740   4.474   4.093   1.721
 5947SOL    HW218741   4.430   4.008   1.589
 5948SOL     OW18742   3.439   5.148   3.481
 5948SOL    HW118743   3.495   5.150   3.398
 5948SOL    HW218744   3.382   5.066   3.480
 5949SOL     OW18745   4.770   4.193   2.597
 5949SOL    HW118746   4.680   4.215   2.558
 5949SOL    HW218747   4.817   4.277   2.622
 5950SOL     OW18748   6.078   2.782   4.072
 5950SOL    HW118749   6.034   2.727   4.143
 5950SOL    HW218750   6.012   2.848   4.035
 5951SOL     OW18751   2.061   6.711   3.932
 5951SOL    HW118752   2.136   6.648   3.954
 5951SOL    HW218753   2.096   6.785   3.874
 5952SOL     OW18754   6.910   5.939   5.160
 5952SOL    HW118755   6.989   5.998   5.147
 5952SOL    HW218756   6.860   5.930   5.074
 5953SOL     OW18757   0.879   3.412   6.271
 5953SOL    HW118758   0.883   3.507   6.238
 5953SOL    HW218759   0.971   3.383   6.298
 5954SOL     OW18760   0.936   5.026   6.778
 5954SOL    HW118761   1.022   5.077   6.788
 5954SOL    HW218762   0.916   4.978   6.863
 5955SOL     OW18763   4.555   5.264   2.838
 5955SOL    HW118764   4.643   5.220   2.856
 5955SOL    HW218765   4.569   5.343   2.778
 5956SOL     OW18766   6.818   2.112   7.012
 5956SOL    HW118767   6.723   2.111   6.982
 5956SOL    HW218768   6.825   2.069   0.083
 5957SOL     OW18769   4.818   6.668   5.166
 5957SOL    HW118770   4.881   6.741   5.193
 5957SOL    HW218771   4.778   6.690   5.077
 5958SOL     OW18772   1.476   5.197   2.622
 5958SOL    HW118773   1.534   5.156   2.552
 5958SOL    HW218774   1.442   5.126   2.684
 5959SOL     OW18775   1.698   0.835   6.722
 5959SOL    HW118776   1.658   0.769   6.659
 5959SOL    HW218777   1.740   0.786   6.799
 5960SOL     OW18778   3.576   6.424   4.871
 5960SOL    HW118779   3.562   6.511   4.917
 5960SOL    HW218780   3.638   6.367   4.926
 5961SOL     OW18781   2.329   1.215   5.673
 5961SOL    HW118782   2.413   1.216   5.728
 5961SOL    HW218783   2.287   1.125   5.679
 5962SOL     OW18784   5.273   4.488   2.838
 5962SOL    HW118785   5.272   4.544   2.756
 5962SOL    HW218786   5.180   4.474   2.871
 5963SOL     OW18787   4.006   3.850   1.938
 5963SOL    HW118788   4.069   3.913   1.892
 5963SOL    HW218789   4.045   3.758   1.937
 5964SOL     OW18790   1.591   3.690   5.604
 5964SOL    HW118791   1.583   3.789   5.616
 5964SOL    HW218792   1.670   3.669   5.547
 5965SOL     OW18793   2.262   1.421   3.762
 5965SOL    HW118794   2.202   1.447   3.687
 5965SOL    HW218795   2.225   1.340   3.808
 5966SOL     OW18796   1.765   6.283   4.055
 5966SOL    HW118797   1.805   6.239   4.136
 5966SOL    HW218798   1.838   6.322   3.999
 5967SOL     OW18799   4.548   6.159   2.191
 5967SOL    HW118800   4.489   6.238   2.175
 5967SOL    HW218801   4.614   6.151   2.116
 5968SOL     OW18802   0.204   1.925   4.621
 5968SOL    HW118803   0.116   1.933   4.573
 5968SOL    HW218804   0.260   1.856   4.575
 5969SOL     OW18805   5.625   2.759   2.844
 5969SOL    HW118806   5.619   2.851   2.881
 5969SOL    HW218807   5.714   2.719   2.867
 5970SOL     OW18808   1.870   3.256   3.376
 5970SOL    HW118809   1.842   3.352   3.383
 5970SOL    HW218810   1.850   3.209   3.461
 5971SOL     OW18811   2.730   6.468   2.778
 5971SOL    HW118812   2.712   6.408   2.700
 5971SOL    HW218813   2.664   6.449   2.851
 5972SOL     OW18814   4.944   6.990   1.908
 5972SOL    HW118815   4.917   6.931   1.832
 5972SOL    HW218816   4.954   6.935   1.991
 5973SOL     OW18817   1.204   3.830   2.810
 5973SOL    HW118818   1.152   3.761   2.861
 5973SOL    HW218819   1.207   3.804   2.713
 5974SOL     OW18820   1.045   3.732   6.397
 5974SOL    HW118821   1.141   3.743   6.370
 5974SOL    HW218822   0.990   3.707   6.317
 5975SOL     OW18823   2.363   3.401   0.282
 5975SOL    HW118824   2.396   3.367   0.194
 5975SOL    HW218825   2.264   3.411   0.280
 5976SOL     OW18826   3.587   3.173   4.878
 5976SOL    HW118827   3.595   3.075   4.896
 5976SOL    HW218828   3.638   3.195   4.795
 5977SOL     OW18829   0.894   3.604   3.293
 5977SOL    HW118830   0.806   3.589   3.249
 5977SOL    HW218831   0.968   3.578   3.231
 5978SOL     OW18832   5.168   5.312   3.172
 5978SOL    HW118833   5.191   5.242   3.105
 5978SOL    HW218834   5.068   5.317   3.182
 5979SOL     OW18835   1.041   1.130   1.951
 5979SOL    HW118836   0.973   1.200   1.973
 5979SOL    HW218837   1.093   1.159   1.870
 5980SOL     OW18838   6.279   3.910   6.216
 5980SOL    HW118839   6.357   3.892   6.275
 5980SOL    HW218840   6.251   3.825   6.170
 5981SOL     OW18841   3.998   2.204   1.097
 5981SOL    HW118842   3.940   2.222   1.176
 5981SOL    HW218843   4.094   2.207   1.125
 5982SOL     OW18844   5.875   2.501   6.985
 5982SOL    HW118845   5.885   2.407   6.954
 5982SOL    HW218846   5.809   2.549   6.927
 5983SOL     OW18847   0.570   0.763   4.839
 5983SOL    HW118848   0.531   0.786   4.750
 5983SOL    HW218849   0.646   0.825   4.859
 5984SOL     OW18850   0.502   0.035   5.891
 5984SOL    HW118851   0.421   7.009   5.856
 5984SOL    HW218852   0.582   6.996   5.877
 5985SOL     OW18853   5.154   2.953   4.114
 5985SOL    HW118854   5.184   3.044   4.083
 5985SOL    HW218855   5.058   2.958   4.142
 5986SOL     OW18856   3.530   2.878   2.556
 5986SOL    HW118857   3.512   2.784   2.530
 5986SOL    HW218858   3.492   2.940   2.486
 5987SOL     OW18859   4.859   6.773   5.442
 5987SOL    HW118860   4.869   6.841   5.514
 5987SOL    HW218861   4.940   6.716   5.438
 5988SOL     OW18862   3.682   6.907   4.850
 5988SOL    HW118863   3.686   6.885   4.948
 5988SOL    HW218864   3.703   6.825   4.797
 5989SOL     OW18865   2.770   1.628   6.760
 5989SOL    HW118866   2.685   1.677   6.738
 5989SOL    HW218867   2.847   1.674   6.717
 5990SOL     OW18868   3.416   4.954   2.458
 5990SOL    HW118869   3.339   5.017   2.455
 5990SOL    HW218870   3.436   4.922   2.365
 5991SOL     OW18871   3.001   5.365   3.820
 5991SOL    HW118872   2.924   5.313   3.857
 5991SOL    HW218873   3.035   5.428   3.889
 5992SOL     OW18874   4.498   2.447   4.405
 5992SOL    HW118875   4.411   2.438   4.356
 5992SOL    HW218876   4.518   2.362   4.454
 5993SOL     OW18877   3.525   5.935   4.125
 5993SOL    HW118878   3.444   5.963   4.175
 5993SOL    HW218879   3.498   5.893   4.038
 5994SOL     OW18880   6.152   2.766   1.446
 5994SOL    HW118881   6.090   2.745   1.522
 5994SOL    HW218882   6.100   2.772   1.361
 5995SOL     OW18883   0.977   4.339   1.500
 5995SOL    HW118884   0.922   4.310   1.578
 5995SOL    HW218885   1.031   4.420   1.525
 5996SOL     OW18886   0.515   5.707   5.676
 5996SOL    HW118887   0.570   5.644   5.621
 5996SOL    HW218888   0.420   5.677   5.677
 5997SOL     OW18889   0.440   0.398   1.328
 5997SOL    HW118890   0.444   0.490   1.290
 5997SOL    HW218891   0.345   0.371   1.342
 5998SOL     OW18892   4.350   2.045   3.370
 5998SOL    HW118893   4.362   2.012   3.463
 5998SOL    HW218894   4.404   1.990   3.307
 5999SOL     OW18895   2.137   2.845   3.330
 5999SOL    HW118896   2.156   2.768   3.392
 5999SOL    HW218897   2.123   2.928   3.384
 6000SOL     OW18898   4.985   0.222   3.268
 6000SOL    HW118899   4.922   0.167   3.323
 6000SOL    HW218900   4.942   0.247   3.182
 6001SOL     OW18901   5.734   1.464   0.147
 6001SOL    HW118902   5.833   1.475   0.144
 6001SOL    HW218903   5.691   1.549   0.176
 6002SOL     OW18904   1.599   0.767   1.735
 6002SOL    HW118905   1.645   0.678   1.740
 6002SOL    HW218906   1.663   0.837   1.704
 6003SOL     OW18907   5.263   4.105   3.827
 6003SOL    HW118908   5.225   4.187   3.870
 6003SOL    HW218909   5.257   4.029   3.891
 6004SOL     OW18910   6.770   3.252   1.735
 6004SOL    HW118911   6.852   3.289   1.779
 6004SOL    HW218912   6.689   3.278   1.788
 6005SOL     OW18913   2.081   5.820   2.426
 6005SOL    HW118914   2.118   5.737   2.385
 6005SOL    HW218915   2.034   5.874   2.357
 6006SOL     OW18916   1.880   5.763   6.934
 6006SOL    HW118917   1.809   5.813   6.985
 6006SOL    HW218918   1.846   5.740   6.843
 6007SOL     OW18919   5.182   2.995   4.590
 6007SOL    HW118920   5.094   2.968   4.629
 6007SOL    HW218921   5.202   2.938   4.510
 6008SOL     OW18922   4.691   4.282   1.174
 6008SOL    HW118923   4.723   4.226   1.250
 6008SOL    HW218924   4.702   4.379   1.196
 6009SOL     OW18925   3.574   1.875   4.393
 6009SOL    HW118926   3.518   1.793   4.394
 6009SOL    HW218927   3.517   1.954   4.370
 6010SOL     OW18928   1.196   3.341   3.404
 6010SOL    HW118929   1.211   3.389   3.490
 6010SOL    HW218930   1.166   3.406   3.334
 6011SOL     OW18931   6.551   2.923   1.748
 6011SOL    HW118932   6.623   2.928   1.817
 6011SOL    HW218933   6.565   2.842   1.691
 6012SOL     OW18934   0.195   3.077   1.510
 6012SOL    HW118935   0.289   3.046   1.500
 6012SOL    HW218936   0.188   3.172   1.481
 6013SOL     OW18937   6.020   0.691   1.997
 6013SOL    HW118938   6.064   0.694   2.086
 6013SOL    HW218939   5.962   0.772   1.985
 6014SOL     OW18940   5.636   0.403   0.920
 6014SOL    HW118941   5.536   0.400   0.912
 6014SOL    HW218942   5.663   0.487   0.967
 6015SOL     OW18943   5.407   1.435   4.775
 6015SOL    HW118944   5.429   1.510   4.837
 6015SOL    HW218945   5.403   1.350   4.827
 6016SOL     OW18946   1.685   6.790   5.136
 6016SOL    HW118947   1.724   6.801   5.044
 6016SOL    HW218948   1.746   6.732   5.191
 6017SOL     OW18949   6.984   3.768   2.449
 6017SOL    HW118950   6.907   3.831   2.456
 6017SOL    HW218951   7.012   3.739   2.541
 6018SOL     OW18952   2.468   5.379   1.345
 6018SOL    HW118953   2.529   5.389   1.267
 6018SOL    HW218954   2.519   5.345   1.424
 6019SOL     OW18955   5.601   6.532   3.070
 6019SOL    HW118956   5.700   6.540   3.080
 6019SOL    HW218957   5.568   6.455   3.124
 6020SOL     OW18958   2.841   0.001   2.848
 6020SOL    HW118959   2.809   0.095   2.862
 6020SOL    HW218960   2.778   6.957   2.894
 6021SOL     OW18961   4.386   0.939   3.806
 6021SOL    HW118962   4.422   0.874   3.739
 6021SOL    HW218963   4.441   1.023   3.805
 6022SOL     OW18964   4.668   1.150   6.136
 6022SOL    HW118965   4.763   1.176   6.121
 6022SOL    HW218966   4.649   1.065   6.089
 6023SOL     OW18967   0.508   1.947   2.590
 6023SOL    HW118968   0.478   1.889   2.515
 6023SOL    HW218969   0.583   1.902   2.639
 6024SOL     OW18970   7.006   5.702   2.486
 6024SOL    HW118971   6.959   5.624   2.527
 6024SOL    HW218972   6.972   5.716   2.393
 6025SOL     OW18973   3.968   1.542   2.004
 6025SOL    HW118974   4.016   1.628   1.989
 6025SOL    HW218975   3.870   1.556   1.995
 6026SOL     OW18976   0.617   4.427   5.922
 6026SOL    HW118977   0.558   4.504   5.903
 6026SOL    HW218978   0.595   4.351   5.861
 6027SOL     OW18979   3.146   3.201   0.121
 6027SOL    HW118980   3.179   3.123   0.176
 6027SOL    HW218981   3.089   3.167   0.047
 6028SOL     OW18982   0.829   4.610   6.827
 6028SOL    HW118983   0.872   4.529   6.787
 6028SOL    HW218984   0.894   4.686   6.827
 6029SOL     OW18985   0.972   5.049   1.940
 6029SOL    HW118986   0.988   5.080   2.034
 6029SOL    HW218987   0.975   5.127   1.878
 6030SOL     OW18988   1.840   0.151   1.335
 6030SOL    HW118989   1.887   0.122   1.252
 6030SOL    HW218990   1.886   0.231   1.373
 6031SOL     OW18991   5.444   0.995   4.179
 6031SOL    HW118992   5.410   0.901   4.175
 6031SOL    HW218993   5.381   1.056   4.131
 6032SOL     OW18994   0.161   3.537   2.670
 6032SOL    HW118995   0.097   3.584   2.731
 6032SOL    HW218996   0.114   3.465   2.620
 6033SOL     OW18997   0.153   6.857   4.604
 6033SOL    HW118998   0.156   6.767   4.648
 6033SOL    HW218999   0.230   6.866   4.540
 6034SOL     OW19000   2.214   4.296   5.097
 6034SOL    HW119001   2.234   4.198   5.096
 6034SOL    HW219002   2.274   4.341   5.163
 6035SOL     OW19003   5.526   0.222   3.786
 6035SOL    HW119004   5.518   0.282   3.866
 6035SOL    HW219005   5.586   0.146   3.808
 6036SOL     OW19006   0.664   1.097   4.129
 6036SOL    HW119007   0.708   1.187   4.130
 6036SOL    HW219008   0.670   1.056   4.220
 6037SOL     OW19009   6.995   5.882   4.788
 6037SOL    HW119010   7.001   5.973   4.747
 6037SOL    HW219011   0.064   5.838   4.786
 6038SOL     OW19012   5.422   4.232   6.273
 6038SOL    HW119013   5.498   4.183   6.315
 6038SOL    HW219014   5.440   4.245   6.175
 6039SOL     OW19015   3.753   3.121   4.312
 6039SOL    HW119016   3.775   3.133   4.408
 6039SOL    HW219017   3.737   3.024   4.293
 6040SOL     OW19018   1.276   1.099   0.148
 6040SOL    HW119019   1.229   1.075   0.064
 6040SOL    HW219020   1.273   1.198   0.162
 6041SOL     OW19021   0.853   2.590   0.555
 6041SOL    HW119022   0.919   2.520   0.528
 6041SOL    HW219023   0.866   2.614   0.651
 6042SOL     OW19024   5.526   5.799   4.652
 6042SOL    HW119025   5.573   5.711   4.656
 6042SOL    HW219026   5.503   5.820   4.556
 6043SOL     OW19027   0.403   4.447   4.150
 6043SOL    HW119028   0.345   4.515   4.196
 6043SOL    HW219029   0.405   4.363   4.205
 6044SOL     OW19030   0.814   0.639   1.574
 6044SOL    HW119031   0.750   0.566   1.599
 6044SOL    HW219032   0.899   0.598   1.540
 6045SOL     OW19033   6.867   4.170   1.042
 6045SOL    HW119034   6.940   4.168   1.110
 6045SOL    HW219035   6.864   4.082   0.994
 6046SOL     OW19036   2.291   3.245   0.789
 6046SOL    HW119037   2.238   3.194   0.856
 6046SOL    HW219038   2.302   3.190   0.706
 6047SOL     OW19039   0.370   5.850   4.874
 6047SOL    HW119040   0.407   5.772   4.924
 6047SOL    HW219041   0.336   5.819   4.785
 6048SOL     OW19042   4.717   5.478   4.940
 6048SOL    HW119043   4.795   5.416   4.951
 6048SOL    HW219044   4.743   5.553   4.879
 6049SOL     OW19045   6.479   5.492   0.663
 6049SOL    HW119046   6.418   5.563   0.630
 6049SOL    HW219047   6.572   5.510   0.632
 6050SOL     OW19048   5.796   4.354   5.475
 6050SOL    HW119049   5.785   4.275   5.415
 6050SOL    HW219050   5.888   4.391   5.464
 6051SOL     OW19051   2.470   1.971   2.808
 6051SOL    HW119052   2.528   1.925   2.875
 6051SOL    HW219053   2.393   2.014   2.855
 6052SOL     OW19054   6.399   1.084   0.304
 6052SOL    HW119055   6.468   1.063   0.374
 6052SOL    HW219056   6.345   1.163   0.333
 6053SOL     OW19057   1.811   0.021   6.090
 6053SOL    HW119058   1.717   0.052   6.105
 6053SOL    HW219059   1.830   0.019   5.992
 6054SOL     OW19060   2.214   4.295   6.459
 6054SOL    HW119061   2.158   4.348   6.396
 6054SOL    HW219062   2.211   4.338   6.550
 6055SOL     OW19063   4.822   0.682   3.807
 6055SOL    HW119064   4.872   0.602   3.839
 6055SOL    HW219065   4.757   0.655   3.735
 6056SOL     OW19066   5.160   3.875   6.451
 6056SOL    HW119067   5.255   3.864   6.483
 6056SOL    HW219068   5.157   3.945   6.380
 6057SOL     OW19069   3.592   0.573   6.311
 6057SOL    HW119070   3.501   0.532   6.304
 6057SOL    HW219071   3.639   0.535   6.391
 6058SOL     OW19072   5.220   1.711   4.153
 6058SOL    HW119073   5.166   1.773   4.096
 6058SOL    HW219074   5.310   1.751   4.170
 6059SOL     OW19075   6.440   6.639   6.025
 6059SOL    HW119076   6.344   6.652   6.051
 6059SOL    HW219077   6.498   6.654   6.105
 6060SOL     OW19078   3.242   6.460   6.586
 6060SOL    HW119079   3.158   6.436   6.536
 6060SOL    HW219080   3.226   6.542   6.641
 6061SOL     OW19081   1.605   1.919   6.649
 6061SOL    HW119082   1.571   1.870   6.730
 6061SOL    HW219083   1.702   1.939   6.661
 6062SOL     OW19084   1.412   0.040   4.021
 6062SOL    HW119085   1.469   6.983   3.990
 6062SOL    HW219086   1.459   0.126   4.003
 6063SOL     OW19087   5.391   5.998   0.015
 6063SOL    HW119088   5.369   5.909   0.056
 6063SOL    HW219089   5.314   6.060   0.029
 6064SOL     OW19090   0.802   5.486   3.354
 6064SOL    HW119091   0.784   5.584   3.352
 6064SOL    HW219092   0.832   5.456   3.263
 6065SOL     OW19093   6.023   6.601   1.466
 6065SOL    HW119094   5.970   6.684   1.448
 6065SOL    HW219095   6.065   6.608   1.557
 6066SOL     OW19096   4.743   2.159   6.195
 6066SOL    HW119097   4.842   2.157   6.205
 6066SOL    HW219098   4.709   2.251   6.215
 6067SOL     OW19099   5.266   1.950   6.498
 6067SOL    HW119100   5.168   1.936   6.505
 6067SOL    HW219101   5.290   1.966   6.402
 6068SOL     OW19102   5.090   1.757   5.583
 6068SOL    HW119103   5.106   1.696   5.661
 6068SOL    HW219104   5.000   1.739   5.545
 6069SOL     OW19105   6.033   4.159   4.451
 6069SOL    HW119106   6.005   4.064   4.461
 6069SOL    HW219107   6.132   4.167   4.464
 6070SOL     OW19108   3.864   2.792   6.635
 6070SOL    HW119109   3.819   2.875   6.667
 6070SOL    HW219110   3.837   2.773   6.541
 6071SOL     OW19111   4.700   6.266   5.220
 6071SOL    HW119112   4.756   6.322   5.159
 6071SOL    HW219113   4.613   6.245   5.176
 6072SOL     OW19114   6.947   1.423   0.888
 6072SOL    HW119115   0.027   1.416   0.885
 6072SOL    HW219116   6.918   1.504   0.836
 6073SOL     OW19117   6.347   1.690   1.236
 6073SOL    HW119118   6.276   1.724   1.298
 6073SOL    HW219119   6.423   1.756   1.234
 6074SOL     OW19120   0.709   0.117   5.246
 6074SOL    HW119121   0.795   0.069   5.227
 6074SOL    HW219122   0.652   0.116   5.163
 6075SOL     OW19123   5.151   4.620   6.283
 6075SOL    HW119124   5.209   4.552   6.328
 6075SOL    HW219125   5.161   4.612   6.184
 6076SOL     OW19126   2.692   6.957   4.413
 6076SOL    HW119127   2.746   6.951   4.328
 6076SOL    HW219128   2.636   0.020   4.410
 6077SOL     OW19129   5.519   5.300   2.817
 6077SOL    HW119130   5.596   5.363   2.804
 6077SOL    HW219131   5.522   5.229   2.746
 6078SOL     OW19132   2.193   4.665   3.522
 6078SOL    HW119133   2.243   4.750   3.535
 6078SOL    HW219134   2.255   4.588   3.539
 6079SOL     OW19135   2.457   1.784   1.028
 6079SOL    HW119136   2.379   1.738   0.985
 6079SOL    HW219137   2.539   1.729   1.014
 6080SOL     OW19138   5.609   2.400   2.762
 6080SOL    HW119139   5.631   2.347   2.844
 6080SOL    HW219140   5.691   2.408   2.705
 6081SOL     OW19141   0.804   3.622   2.791
 6081SOL    HW119142   0.882   3.563   2.812
 6081SOL    HW219143   0.760   3.590   2.707
 6082SOL     OW19144   3.452   2.122   4.374
 6082SOL    HW119145   3.446   2.174   4.460
 6082SOL    HW219146   3.414   2.177   4.300
 6083SOL     OW19147   1.854   0.160   0.523
 6083SOL    HW119148   1.758   0.176   0.543
 6083SOL    HW219149   1.895   0.243   0.485
 6084SOL     OW19150   0.554   4.897   5.770
 6084SOL    HW119151   0.473   4.941   5.730
 6084SOL    HW219152   0.561   4.921   5.867
 6085SOL     OW19153   5.071   5.239   1.642
 6085SOL    HW119154   5.112   5.295   1.714
 6085SOL    HW219155   5.039   5.153   1.681
 6086SOL     OW19156   2.921   1.699   2.760
 6086SOL    HW119157   2.876   1.646   2.832
 6086SOL    HW219158   2.851   1.738   2.699
 6087SOL     OW19159   3.608   0.223   0.889
 6087SOL    HW119160   3.534   0.222   0.821
 6087SOL    HW219161   3.570   0.238   0.980
 6088SOL     OW19162   6.948   6.890   6.044
 6088SOL    HW119163   6.935   6.805   6.095
 6088SOL    HW219164   0.010   6.937   6.078
 6089SOL     OW19165   6.200   3.335   0.497
 6089SOL    HW119166   6.287   3.287   0.502
 6089SOL    HW219167   6.154   3.311   0.411
 6090SOL     OW19168   0.384   5.655   3.764
 6090SOL    HW119169   0.421   5.564   3.746
 6090SOL    HW219170   0.286   5.656   3.749
 6091SOL     OW19171   6.047   2.080   1.329
 6091SOL    HW119172   5.988   2.022   1.386
 6091SOL    HW219173   6.018   2.072   1.234
 6092SOL     OW19174   1.839   2.938   0.955
 6092SOL    HW119175   1.930   2.964   0.923
 6092SOL    HW219176   1.828   2.839   0.948
 6093SOL     OW19177   1.170   3.917   0.726
 6093SOL    HW119178   1.209   3.858   0.796
 6093SOL    HW219179   1.242   3.949   0.664
 6094SOL     OW19180   0.780   1.008   0.802
 6094SOL    HW119181   0.873   1.024   0.769
 6094SOL    HW219182   0.728   1.093   0.797
 6095SOL     OW19183   6.455   3.802   5.416
 6095SOL    HW119184   6.474   3.709   5.383
 6095SOL    HW219185   6.384   3.798   5.487
 6096SOL     OW19186   4.274   1.601   2.533
 6096SOL    HW119187   4.244   1.529   2.596
 6096SOL    HW219188   4.336   1.663   2.581
 6097SOL     OW19189   2.812   1.848   2.235
 6097SOL    HW119190   2.795   1.783   2.161
 6097SOL    HW219191   2.836   1.937   2.196
 6098SOL     OW19192   1.526   1.160   6.487
 6098SOL    HW119193   1.558   1.067   6.471
 6098SOL    HW219194   1.542   1.185   6.582
 6099SOL     OW19195   5.739   4.662   4.920
 6099SOL    HW119196   5.825   4.713   4.921
 6099SOL    HW219197   5.662   4.727   4.916
 6100SOL     OW19198   6.780   2.065   0.259
 6100SOL    HW119199   6.773   2.024   0.350
 6100SOL    HW219200   6.763   2.164   0.266
 6101SOL     OW19201   5.799   0.605   3.737
 6101SOL    HW119202   5.838   0.693   3.709
 6101SOL    HW219203   5.713   0.622   3.785
 6102SOL     OW19204   2.927   0.168   5.385
 6102SOL    HW119205   2.832   0.183   5.357
 6102SOL    HW219206   2.956   0.077   5.354
 6103SOL     OW19207   6.141   1.047   5.456
 6103SOL    HW119208   6.167   0.953   5.433
 6103SOL    HW219209   6.129   1.055   5.555
 6104SOL     OW19210   1.431   3.501   1.188
 6104SOL    HW119211   1.340   3.543   1.176
 6104SOL    HW219212   1.490   3.563   1.239
 6105SOL     OW19213   3.582   4.994   4.509
 6105SOL    HW119214   3.536   4.960   4.427
 6105SOL    HW219215   3.605   5.090   4.498
 6106SOL     OW19216   3.289   4.888   3.951
 6106SOL    HW119217   3.310   4.841   3.865
 6106SOL    HW219218   3.373   4.928   3.988
 6107SOL     OW19219   2.211   4.923   5.675
 6107SOL    HW119220   2.164   4.962   5.754
 6107SOL    HW219221   2.149   4.862   5.626
 6108SOL     OW19222   5.937   1.713   4.688
 6108SOL    HW119223   5.928   1.790   4.625
 6108SOL    HW219224   6.027   1.670   4.675
 6109SOL     OW19225   6.565   4.372   1.753
 6109SOL    HW119226   6.476   4.418   1.751
 6109SOL    HW219227   6.627   4.421   1.815
 6110SOL     OW19228   3.319   2.132   3.683
 6110SOL    HW119229   3.398   2.113   3.742
 6110SOL    HW219230   3.352   2.162   3.594
 6111SOL     OW19231   0.379   4.598   3.092
 6111SOL    HW119232   0.347   4.549   3.011
 6111SOL    HW219233   0.465   4.558   3.124
 6112SOL     OW19234   1.157   2.181   1.389
 6112SOL    HW119235   1.191   2.260   1.337
 6112SOL    HW219236   1.169   2.198   1.487
 6113SOL     OW19237   1.948   5.383   5.464
 6113SOL    HW119238   1.946   5.333   5.377
 6113SOL    HW219239   1.982   5.322   5.536
 6114SOL     OW19240   5.611   5.673   1.208
 6114SOL    HW119241   5.547   5.717   1.146
 6114SOL    HW219242   5.601   5.574   1.202
 6115SOL     OW19243   6.560   4.382   2.255
 6115SOL    HW119244   6.497   4.424   2.321
 6115SOL    HW219245   6.509   4.352   2.175
 6116SOL     OW19246   3.299   2.046   1.361
 6116SOL    HW119247   3.336   1.965   1.316
 6116SOL    HW219248   3.212   2.071   1.317
 6117SOL     OW19249   5.833   6.725   3.612
 6117SOL    HW119250   5.846   6.756   3.518
 6117SOL    HW219251   5.894   6.776   3.673
 6118SOL     OW19252   6.385   0.478   3.025
 6118SOL    HW119253   6.288   0.458   3.011
 6118SOL    HW219254   6.399   0.577   3.024
 6119SOL     OW19255   6.002   5.761   3.931
 6119SOL    HW119256   6.027   5.670   3.898
 6119SOL    HW219257   6.055   5.782   4.014
 6120SOL     OW19258   2.980   1.398   3.434
 6120SOL    HW119259   2.902   1.354   3.478
 6120SOL    HW219260   3.001   1.351   3.348
 6121SOL     OW19261   6.404   1.799   4.436
 6121SOL    HW119262   6.357   1.806   4.523
 6121SOL    HW219263   6.377   1.714   4.390
 6122SOL     OW19264   4.525   6.010   4.155
 6122SOL    HW119265   4.604   5.969   4.109
 6122SOL    HW219266   4.545   6.105   4.178
 6123SOL     OW19267   6.638   1.631   2.547
 6123SOL    HW119268   6.688   1.549   2.520
 6123SOL    HW219269   6.687   1.712   2.516
 6124SOL     OW19270   2.639   0.243   5.312
 6124SOL    HW119271   2.626   0.306   5.235
 6124SOL    HW219272   2.583   0.273   5.389
 6125SOL     OW19273   1.159   5.229   2.236
 6125SOL    HW119274   1.199   5.138   2.224
 6125SOL    HW219275   1.219   5.283   2.296
 6126SOL     OW19276   3.981   5.686   1.989
 6126SOL    HW119277   3.915   5.732   1.930
 6126SOL    HW219278   3.956   5.700   2.084
 6127SOL     OW19279   2.069   4.716   2.111
 6127SOL    HW119280   2.121   4.757   2.187
 6127SOL    HW219281   2.117   4.732   2.025
 6128SOL     OW19282   5.048   3.171   1.148
 6128SOL    HW119283   5.072   3.193   1.054
 6128SOL    HW219284   4.949   3.157   1.155
 6129SOL     OW19285   6.027   3.890   3.407
 6129SOL    HW119286   6.068   3.947   3.335
 6129SOL    HW219287   6.031   3.939   3.494
 6130SOL     OW19288   5.438   4.516   2.256
 6130SOL    HW119289   5.464   4.546   2.348
 6130SOL    HW219290   5.500   4.557   2.188
 6131SOL     OW19291   6.667   1.279   5.349
 6131SOL    HW119292   6.609   1.207   5.387
 6131SOL    HW219293   6.720   1.321   5.423
 6132SOL     OW19294   6.736   2.584   0.452
 6132SOL    HW119295   6.642   2.619   0.447
 6132SOL    HW219296   6.797   2.657   0.482
 6133SOL     OW19297   1.159   4.595   0.709
 6133SOL    HW119298   1.143   4.651   0.628
 6133SOL    HW219299   1.219   4.644   0.772
 6134SOL     OW19300   4.304   3.452   0.202
 6134SOL    HW119301   4.377   3.401   0.156
 6134SOL    HW219302   4.337   3.486   0.290
 6135SOL     OW19303   5.622   0.498   2.827
 6135SOL    HW119304   5.591   0.409   2.860
 6135SOL    HW219305   5.673   0.544   2.900
 6136SOL     OW19306   0.274   1.577   2.464
 6136SOL    HW119307   0.341   1.643   2.431
 6136SOL    HW219308   0.235   1.610   2.550
 6137SOL     OW19309   3.151   6.386   6.135
 6137SOL    HW119310   3.182   6.300   6.094
 6137SOL    HW219311   3.186   6.462   6.081
 6138SOL     OW19312   5.066   0.405   2.948
 6138SOL    HW119313   5.005   0.418   3.026
 6138SOL    HW219314   5.077   0.307   2.930
 6139SOL     OW19315   2.345   5.667   3.517
 6139SOL    HW119316   2.265   5.621   3.479
 6139SOL    HW219317   2.342   5.660   3.617
 6140SOL     OW19318   1.181   5.595   1.160
 6140SOL    HW119319   1.118   5.524   1.128
 6140SOL    HW219320   1.169   5.677   1.105
 6141SOL     OW19321   6.584   5.795   6.012
 6141SOL    HW119322   6.595   5.859   6.087
 6141SOL    HW219323   6.488   5.767   6.004
 6142SOL     OW19324   0.924   4.168   3.184
 6142SOL    HW119325   0.956   4.077   3.159
 6142SOL    HW219326   0.923   4.226   3.102
 6143SOL     OW19327   6.865   4.059   6.657
 6143SOL    HW119328   6.960   4.042   6.681
 6143SOL    HW219329   6.807   4.051   6.739
 6144SOL     OW19330   6.972   4.793   4.581
 6144SOL    HW119331   0.050   4.784   4.597
 6144SOL    HW219332   6.937   4.709   4.539
 6145SOL     OW19333   5.683   5.538   3.555
 6145SOL    HW119334   5.733   5.624   3.556
 6145SOL    HW219335   5.631   5.531   3.470
 6146SOL     OW19336   5.617   2.531   3.281
 6146SOL    HW119337   5.667   2.462   3.333
 6146SOL    HW219338   5.533   2.490   3.245
 6147SOL     OW19339   0.815   3.906   2.831
 6147SOL    HW119340   0.858   3.923   2.920
 6147SOL    HW219341   0.832   3.812   2.803
 6148SOL     OW19342   6.378   5.416   3.217
 6148SOL    HW119343   6.381   5.361   3.300
 6148SOL    HW219344   6.316   5.493   3.230
 6149SOL     OW19345   1.926   6.209   4.711
 6149SOL    HW119346   1.945   6.263   4.629
 6149SOL    HW219347   1.830   6.219   4.735
 6150SOL     OW19348   4.253   5.564   6.264
 6150SOL    HW119349   4.268   5.547   6.167
 6150SOL    HW219350   4.340   5.556   6.313
 6151SOL     OW19351   4.649   0.199   5.554
 6151SOL    HW119352   4.727   0.180   5.494
 6151SOL    HW219353   4.638   0.124   5.619
 6152SOL     OW19354   6.909   4.578   5.123
 6152SOL    HW119355   6.996   4.615   5.156
 6152SOL    HW219356   6.927   4.508   5.053
 6153SOL     OW19357   4.823   4.516   0.013
 6153SOL    HW119358   4.909   4.472   7.006
 6153SOL    HW219359   4.756   4.503   6.960
 6154SOL     OW19360   5.119   2.970   3.354
 6154SOL    HW119361   5.180   2.954   3.277
 6154SOL    HW219362   5.155   3.046   3.409
 6155SOL     OW19363   2.158   4.496   4.295
 6155SOL    HW119364   2.228   4.458   4.354
 6155SOL    HW219365   2.134   4.430   4.224
 6156SOL     OW19366   6.134   0.601   4.511
 6156SOL    HW119367   6.078   0.622   4.592
 6156SOL    HW219368   6.217   0.657   4.513
 6157SOL     OW19369   1.124   1.269   3.634
 6157SOL    HW119370   1.041   1.226   3.670
 6157SOL    HW219371   1.162   1.331   3.703
 6158SOL     OW19372   5.120   6.990   0.534
 6158SOL    HW119373   5.218   6.985   0.519
 6158SOL    HW219374   5.101   6.999   0.632
 6159SOL     OW19375   5.716   3.301   6.895
 6159SOL    HW119376   5.633   3.327   6.944
 6159SOL    HW219377   5.707   3.208   6.860
 6160SOL     OW19378   6.457   4.754   0.969
 6160SOL    HW119379   6.533   4.734   0.907
 6160SOL    HW219380   6.419   4.844   0.947
 6161SOL     OW19381   5.760   0.336   6.553
 6161SOL    HW119382   5.762   0.240   6.583
 6161SOL    HW219383   5.815   0.391   6.615
 6162SOL     OW19384   5.941   5.359   4.254
 6162SOL    HW119385   6.034   5.325   4.241
 6162SOL    HW219386   5.944   5.456   4.279
 6163SOL     OW19387   6.684   4.042   2.060
 6163SOL    HW119388   6.627   4.083   1.990
 6163SOL    HW219389   6.682   3.943   2.053
 6164SOL     OW19390   4.428   2.594   0.819
 6164SOL    HW119391   4.435   2.494   0.825
 6164SOL    HW219392   4.336   2.619   0.792
 6165SOL     OW19393   4.157   6.970   1.193
 6165SOL    HW119394   4.086   6.909   1.229
 6165SOL    HW219395   4.128   7.008   1.105
 6166SOL     OW19396   3.852   1.595   0.176
 6166SOL    HW119397   3.775   1.659   0.177
 6166SOL    HW219398   3.926   1.633   0.120
 6167SOL     OW19399   0.114   5.269   3.545
 6167SOL    HW119400   0.201   5.273   3.496
 6167SOL    HW219401   0.078   5.175   3.544
 6168SOL     OW19402   0.706   2.794   0.932
 6168SOL    HW119403   0.639   2.809   1.005
 6168SOL    HW219404   0.791   2.760   0.972
 6169SOL     OW19405   1.895   4.556   1.836
 6169SOL    HW119406   1.859   4.608   1.914
 6169SOL    HW219407   1.992   4.536   1.851
 6170SOL     OW19408   6.877   1.791   3.803
 6170SOL    HW119409   6.810   1.844   3.750
 6170SOL    HW219410   6.863   1.809   3.901
 6171SOL     OW19411   5.950   0.818   6.133
 6171SOL    HW119412   5.905   0.854   6.051
 6171SOL    HW219413   5.961   0.892   6.200
 6172SOL     OW19414   1.090   4.326   4.089
 6172SOL    HW119415   1.020   4.267   4.049
 6172SOL    HW219416   1.047   4.406   4.129
 6173SOL     OW19417   5.639   5.907   3.054
 6173SOL    HW119418   5.623   5.817   3.015
 6173SOL    HW219419   5.636   5.976   2.982
 6174SOL     OW19420   6.396   2.662   2.555
 6174SOL    HW119421   6.320   2.726   2.550
 6174SOL    HW219422   6.363   2.569   2.539
 6175SOL     OW19423   3.946   1.629   6.753
 6175SOL    HW119424   3.959   1.531   6.767
 6175SOL    HW219425   4.007   1.661   6.681
 6176SOL     OW19426   3.141   3.594   6.163
 6176SOL    HW119427   3.189   3.601   6.250
 6176SOL    HW219428   3.184   3.523   6.107
 6177SOL     OW19429   5.935   5.731   1.567
 6177SOL    HW119430   5.868   5.801   1.540
 6177SOL    HW219431   6.018   5.776   1.599
 6178SOL     OW19432   4.285   4.720   1.735
 6178SOL    HW119433   4.355   4.744   1.667
 6178SOL    HW219434   4.283   4.621   1.749
 6179SOL     OW19435   5.681   4.984   5.044
 6179SOL    HW119436   5.642   5.073   5.069
 6179SOL    HW219437   5.719   4.989   4.951
 6180SOL     OW19438   2.651   4.247   6.460
 6180SOL    HW119439   2.579   4.278   6.398
 6180SOL    HW219440   2.720   4.196   6.409
 6181SOL     OW19441   5.990   6.577   6.883
 6181SOL    HW119442   5.900   6.532   6.884
 6181SOL    HW219443   6.013   6.603   6.790
 6182SOL     OW19444   3.053   2.750   6.529
 6182SOL    HW119445   3.079   2.846   6.532
 6182SOL    HW219446   2.954   2.742   6.517
 6183SOL     OW19447   6.778   0.644   1.018
 6183SOL    HW119448   6.767   0.723   0.958
 6183SOL    HW219449   6.724   0.568   0.984
 6184SOL     OW19450   3.386   6.226   5.224
 6184SOL    HW119451   3.466   6.169   5.205
 6184SOL    HW219452   3.415   6.311   5.268
 6185SOL     OW19453   4.088   3.270   5.488
 6185SOL    HW119454   4.173   3.321   5.497
 6185SOL    HW219455   4.057   3.240   5.578
 6186SOL     OW19456   1.082   1.835   2.735
 6186SOL    HW119457   1.172   1.873   2.756
 6186SOL    HW219458   1.038   1.891   2.664
 6187SOL     OW19459   2.725   2.028   6.143
 6187SOL    HW119460   2.800   2.089   6.167
 6187SOL    HW219461   2.661   2.022   6.219
 6188SOL     OW19462   2.277   1.349   5.461
 6188SOL    HW119463   2.311   1.288   5.533
 6188SOL    HW219464   2.227   1.296   5.393
 6189SOL     OW19465   0.026   5.222   0.678
 6189SOL    HW119466   6.959   5.271   0.666
 6189SOL    HW219467   0.101   5.288   0.685
 6190SOL     OW19468   0.250   3.233   3.688
 6190SOL    HW119469   0.180   3.161   3.694
 6190SOL    HW219470   0.282   3.256   3.780
 6191SOL     OW19471   2.231   4.072   0.768
 6191SOL    HW119472   2.219   3.980   0.729
 6191SOL    HW219473   2.289   4.067   0.849
 6192SOL     OW19474   2.756   1.396   1.287
 6192SOL    HW119475   2.831   1.333   1.264
 6192SOL    HW219476   2.728   1.381   1.381
 6193SOL     OW19477   4.135   5.746   0.373
 6193SOL    HW119478   4.159   5.649   0.372
 6193SOL    HW219479   4.055   5.762   0.315
 6194SOL     OW19480   5.611   6.672   6.403
 6194SOL    HW119481   5.553   6.733   6.457
 6194SOL    HW219482   5.685   6.636   6.460
 6195SOL     OW19483   5.144   6.340   5.941
 6195SOL    HW119484   5.111   6.297   6.025
 6195SOL    HW219485   5.125   6.279   5.863
 6196SOL     OW19486   6.118   3.282   3.196
 6196SOL    HW119487   6.039   3.227   3.170
 6196SOL    HW219488   6.153   3.331   3.116
 6197SOL     OW19489   0.855   5.652   1.007
 6197SOL    HW119490   0.916   5.731   1.002
 6197SOL    HW219491   0.908   5.571   1.030
 6198SOL     OW19492   5.607   1.413   6.314
 6198SOL    HW119493   5.674   1.468   6.266
 6198SOL    HW219494   5.578   1.336   6.257
 6199SOL     OW19495   2.133   6.652   6.172
 6199SOL    HW119496   2.193   6.661   6.252
 6199SOL    HW219497   2.040   6.682   6.197
 6200SOL     OW19498   1.453   0.819   0.646
 6200SOL    HW119499   1.548   0.802   0.675
 6200SOL    HW219500   1.394   0.748   0.684
 6201SOL     OW19501   0.593   4.725   3.492
 6201SOL    HW119502   0.557   4.634   3.510
 6201SOL    HW219503   0.597   4.740   3.393
 6202SOL     OW19504   6.112   0.582   2.300
 6202SOL    HW119505   6.059   0.665   2.283
 6202SOL    HW219506   6.051   0.506   2.319
 6203SOL     OW19507   6.077   0.161   1.897
 6203SOL    HW119508   6.010   0.194   1.832
 6203SOL    HW219509   6.052   0.191   1.989
 6204SOL     OW19510   1.160   5.595   5.093
 6204SOL    HW119511   1.106   5.650   5.156
 6204SOL    HW219512   1.157   5.499   5.122
 6205SOL     OW19513   6.102   4.797   3.419
 6205SOL    HW119514   6.019   4.741   3.417
 6205SOL    HW219515   6.124   4.822   3.513
 6206SOL     OW19516   5.672   1.888   3.651
 6206SOL    HW119517   5.700   1.960   3.715
 6206SOL    HW219518   5.573   1.888   3.641
 6207SOL     OW19519   1.448   5.622   3.745
 6207SOL    HW119520   1.490   5.624   3.836
 6207SOL    HW219521   1.361   5.670   3.747
 6208SOL     OW19522   4.358   4.224   6.275
 6208SOL    HW119523   4.295   4.295   6.244
 6208SOL    HW219524   4.404   4.184   6.196
 6209SOL     OW19525   3.733   1.741   1.449
 6209SOL    HW119526   3.677   1.778   1.524
 6209SOL    HW219527   3.681   1.670   1.401
 6210SOL     OW19528   5.791   1.305   4.422
 6210SOL    HW119529   5.786   1.334   4.517
 6210SOL    HW219530   5.699   1.285   4.388
 6211SOL     OW19531   5.541   3.630   4.861
 6211SOL    HW119532   5.613   3.571   4.826
 6211SOL    HW219533   5.522   3.702   4.794
 6212SOL     OW19534   5.377   4.124   4.970
 6212SOL    HW119535   5.411   4.170   4.889
 6212SOL    HW219536   5.397   4.026   4.964
 6213SOL     OW19537   4.451   6.074   0.313
 6213SOL    HW119538   4.386   6.086   0.238
 6213SOL    HW219539   4.518   6.148   0.311
 6214SOL     OW19540   6.166   0.079   6.830
 6214SOL    HW119541   6.110   0.122   6.900
 6214SOL    HW219542   6.263   0.088   6.854
 6215SOL     OW19543   6.085   2.217   5.432
 6215SOL    HW119544   6.157   2.172   5.379
 6215SOL    HW219545   6.022   2.148   5.468
 6216SOL     OW19546   4.720   1.701   4.968
 6216SOL    HW119547   4.812   1.713   4.929
 6216SOL    HW219548   4.704   1.773   5.036
 6217SOL     OW19549   0.664   4.224   2.290
 6217SOL    HW119550   0.573   4.242   2.328
 6217SOL    HW219551   0.694   4.304   2.238
 6218SOL     OW19552   4.515   6.277   0.752
 6218SOL    HW119553   4.589   6.323   0.702
 6218SOL    HW219554   4.517   6.306   0.848
 6219SOL     OW19555   2.091   0.680   0.014
 6219SOL    HW119556   2.112   0.593   6.990
 6219SOL    HW219557   2.156   0.750   7.002
 6220SOL     OW19558   3.517   6.405   1.125
 6220SOL    HW119559   3.426   6.391   1.165
 6220SOL    HW219560   3.534   6.503   1.114
 6221SOL     OW19561   4.711   5.329   6.040
 6221SOL    HW119562   4.805   5.360   6.054
 6221SOL    HW219563   4.652   5.408   6.023
 6222SOL     OW19564   6.772   1.421   2.482
 6222SOL    HW119565   6.835   1.392   2.554
 6222SOL    HW219566   6.819   1.416   2.394
 6223SOL     OW19567   6.686   4.660   4.453
 6223SOL    HW119568   6.664   4.752   4.486
 6223SOL    HW219569   6.660   4.652   4.357
 6224SOL     OW19570   3.166   6.677   6.748
 6224SOL    HW119571   3.132   6.618   6.821
 6224SOL    HW219572   3.209   6.758   6.788
 6225SOL     OW19573   4.505   6.246   6.287
 6225SOL    HW119574   4.538   6.247   6.192
 6225SOL    HW219575   4.447   6.326   6.302
 6226SOL     OW19576   0.740   1.048   3.831
 6226SOL    HW119577   0.656   1.003   3.800
 6226SOL    HW219578   0.735   1.061   3.930
 6227SOL     OW19579   3.081   4.809   5.653
 6227SOL    HW119580   3.099   4.771   5.744
 6227SOL    HW219581   3.139   4.763   5.586
 6228SOL     OW19582   1.068   3.064   3.418
 6228SOL    HW119583   0.976   3.061   3.458
 6228SOL    HW219584   1.111   3.151   3.440
 6229SOL     OW19585   0.460   4.072   4.058
 6229SOL    HW119586   0.542   4.056   4.002
 6229SOL    HW219587   0.396   3.996   4.045
 6230SOL     OW19588   0.524   0.932   1.583
 6230SOL    HW119589   0.554   1.003   1.519
 6230SOL    HW219590   0.601   0.907   1.642
 6231SOL     OW19591   2.441   5.563   5.725
 6231SOL    HW119592   2.414   5.496   5.655
 6231SOL    HW219593   2.499   5.633   5.684
 6232SOL     OW19594   4.363   0.257   6.440
 6232SOL    HW119595   4.362   0.267   6.340
 6232SOL    HW219596   4.291   0.314   6.479
 6233SOL     OW19597   0.016   3.492   0.872
 6233SOL    HW119598   0.089   3.448   0.925
 6233SOL    HW219599   0.021   3.462   0.777
 6234SOL     OW19600   5.082   5.133   4.364
 6234SOL    HW119601   5.178   5.124   4.340
 6234SOL    HW219602   5.071   5.117   4.462
 6235SOL     OW19603   0.736   1.044   2.228
 6235SOL    HW119604   0.759   0.974   2.160
 6235SOL    HW219605   0.712   1.129   2.181
 6236SOL     OW19606   6.618   5.995   1.362
 6236SOL    HW119607   6.681   6.031   1.430
 6236SOL    HW219608   6.599   6.065   1.293
 6237SOL     OW19609   3.305   1.100   2.249
 6237SOL    HW119610   3.348   1.065   2.332
 6237SOL    HW219611   3.214   1.136   2.271
 6238SOL     OW19612   2.410   1.074   3.537
 6238SOL    HW119613   2.351   1.008   3.490
 6238SOL    HW219614   2.443   1.033   3.622
 6239SOL     OW19615   4.561   1.695   4.348
 6239SOL    HW119616   4.520   1.723   4.435
 6239SOL    HW219617   4.499   1.633   4.301
 6240SOL     OW19618   4.093   3.503   3.941
 6240SOL    HW119619   4.132   3.525   3.851
 6240SOL    HW219620   4.096   3.404   3.955
 6241SOL     OW19621   3.803   0.005   3.396
 6241SOL    HW119622   3.834   0.025   3.489
 6241SOL    HW219623   3.780   0.090   3.350
 6242SOL     OW19624   3.203   2.196   4.252
 6242SOL    HW119625   3.213   2.200   4.152
 6242SOL    HW219626   3.105   2.192   4.275
 6243SOL     OW19627   4.231   1.439   6.893
 6243SOL    HW119628   4.131   1.431   6.901
 6243SOL    HW219629   4.273   1.412   6.979
 6244SOL     OW19630   4.272   2.453   1.843
 6244SOL    HW119631   4.357   2.483   1.801
 6244SOL    HW219632   4.210   2.532   1.852
 6245SOL     OW19633   0.136   4.874   2.256
 6245SOL    HW119634   0.050   4.832   2.226
 6245SOL    HW219635   0.189   4.902   2.176
 6246SOL     OW19636   0.560   6.401   4.933
 6246SOL    HW119637   0.536   6.371   4.841
 6246SOL    HW219638   0.482   6.388   4.994
 6247SOL     OW19639   5.848   5.516   3.166
 6247SOL    HW119640   5.922   5.537   3.230
 6247SOL    HW219641   5.880   5.449   3.100
 6248SOL     OW19642   4.180   3.014   5.701
 6248SOL    HW119643   4.235   3.072   5.761
 6248SOL    HW219644   4.218   3.016   5.608
 6249SOL     OW19645   5.830   3.506   3.206
 6249SOL    HW119646   5.860   3.565   3.131
 6249SOL    HW219647   5.761   3.442   3.173
 6250SOL     OW19648   5.722   0.020   6.323
 6250SOL    HW119649   5.781   6.961   6.307
 6250SOL    HW219650   5.747   0.093   6.259
 6251SOL     OW19651   2.993   0.729   4.348
 6251SOL    HW119652   2.963   0.814   4.305
 6251SOL    HW219653   3.075   0.746   4.402
 6252SOL     OW19654   2.597   5.248   0.132
 6252SOL    HW119655   2.545   5.281   0.211
 6252SOL    HW219656   2.663   5.179   0.161
 6253SOL     OW19657   5.217   6.222   4.111
 6253SOL    HW119658   5.215   6.162   4.192
 6253SOL    HW219659   5.138   6.201   4.054
 6254SOL     OW19660   0.384   0.151   1.531
 6254SOL    HW119661   0.366   0.234   1.584
 6254SOL    HW219662   0.348   0.162   1.439
 6255SOL     OW19663   1.534   1.660   0.753
 6255SOL    HW119664   1.609   1.649   0.687
 6255SOL    HW219665   1.460   1.711   0.710
 6256SOL     OW19666   6.392   5.371   2.103
 6256SOL    HW119667   6.309   5.415   2.135
 6256SOL    HW219668   6.433   5.424   2.029
 6257SOL     OW19669   3.467   3.859   1.054
 6257SOL    HW119670   3.454   3.837   1.151
 6257SOL    HW219671   3.565   3.863   1.034
 6258SOL     OW19672   4.111   5.311   4.784
 6258SOL    HW119673   4.198   5.310   4.831
 6258SOL    HW219674   4.046   5.250   4.831
 6259SOL     OW19675   3.998   0.720   4.827
 6259SOL    HW119676   3.927   0.692   4.763
 6259SOL    HW219677   4.041   0.639   4.867
 6260SOL     OW19678   2.664   1.906   1.196
 6260SOL    HW119679   2.716   1.828   1.228
 6260SOL    HW219680   2.605   1.878   1.120
 6261SOL     OW19681   3.479   6.667   1.140
 6261SOL    HW119682   3.381   6.682   1.155
 6261SOL    HW219683   3.527   6.754   1.144
 6262SOL     OW19684   6.204   1.115   2.206
 6262SOL    HW119685   6.146   1.192   2.232
 6262SOL    HW219686   6.196   1.043   2.274
 6263SOL     OW19687   6.059   5.980   6.183
 6263SOL    HW119688   6.080   6.029   6.267
 6263SOL    HW219689   6.119   5.900   6.176
 6264SOL     OW19690   1.551   5.931   0.372
 6264SOL    HW119691   1.642   5.972   0.379
 6264SOL    HW219692   1.559   5.832   0.366
 6265SOL     OW19693   3.674   6.735   6.518
 6265SOL    HW119694   3.632   6.753   6.429
 6265SOL    HW219695   3.675   6.819   6.572
 6266SOL     OW19696   3.553   5.247   3.200
 6266SOL    HW119697   3.474   5.289   3.245
 6266SOL    HW219698   3.636   5.294   3.230
 6267SOL     OW19699   0.777   6.215   4.189
 6267SOL    HW119700   0.872   6.238   4.213
 6267SOL    HW219701   0.722   6.209   4.272
 6268SOL     OW19702   3.206   1.537   1.098
 6268SOL    HW119703   3.271   1.501   1.031
 6268SOL    HW219704   3.257   1.574   1.176
 6269SOL     OW19705   6.594   5.914   6.660
 6269SOL    HW119706   6.666   5.849   6.634
 6269SOL    HW219707   6.594   5.991   6.597
 6270SOL     OW19708   1.406   6.369   0.985
 6270SOL    HW119709   1.460   6.316   1.050
 6270SOL    HW219710   1.457   6.381   0.900
 6271SOL     OW19711   0.005   2.800   6.557
 6271SOL    HW119712   0.024   2.870   6.626
 6271SOL    HW219713   0.051   2.825   6.471
 6272SOL     OW19714   0.380   1.606   6.904
 6272SOL    HW119715   0.310   1.656   6.853
 6272SOL    HW219716   0.338   1.532   6.956
 6273SOL     OW19717   0.257   6.369   3.147
 6273SOL    HW119718   0.332   6.387   3.084
 6273SOL    HW219719   0.187   6.314   3.102
 6274SOL     OW19720   2.656   5.606   3.693
 6274SOL    HW119721   2.664   5.575   3.598
 6274SOL    HW219722   2.595   5.545   3.743
 6275SOL     OW19723   2.485   5.941   0.138
 6275SOL    HW119724   2.502   6.033   0.103
 6275SOL    HW219725   2.515   5.874   0.070
 6276SOL     OW19726   2.222   5.557   2.657
 6276SOL    HW119727   2.314   5.535   2.690
 6276SOL    HW219728   2.221   5.555   2.557
 6277SOL     OW19729   4.768   2.320   1.256
 6277SOL    HW119730   4.804   2.227   1.256
 6277SOL    HW219731   4.836   2.383   1.291
 6278SOL     OW19732   4.282   2.252   0.422
 6278SOL    HW119733   4.275   2.270   0.521
 6278SOL    HW219734   4.192   2.264   0.380
 6279SOL     OW19735   2.449   6.546   2.132
 6279SOL    HW119736   2.475   6.449   2.137
 6279SOL    HW219737   2.531   6.603   2.132
 6280SOL     OW19738   4.984   1.743   6.235
 6280SOL    HW119739   4.997   1.771   6.140
 6280SOL    HW219740   5.062   1.690   6.265
 6281SOL     OW19741   5.255   4.452   6.077
 6281SOL    HW119742   5.338   4.491   6.116
 6281SOL    HW219743   5.280   4.378   6.015
 6282SOL     OW19744   0.618   3.564   5.633
 6282SOL    HW119745   0.668   3.523   5.557
 6282SOL    HW219746   0.676   3.630   5.680
 6283SOL     OW19747   2.760   6.925   4.685
 6283SOL    HW119748   2.690   6.857   4.705
 6283SOL    HW219749   2.773   6.931   4.586
 6284SOL     OW19750   1.718   2.681   5.685
 6284SOL    HW119751   1.689   2.586   5.697
 6284SOL    HW219752   1.719   2.703   5.587
 6285SOL     OW19753   1.477   3.394   2.902
 6285SOL    HW119754   1.565   3.354   2.927
 6285SOL    HW219755   1.477   3.492   2.923
 6286SOL     OW19756   0.783   2.552   6.777
 6286SOL    HW119757   0.755   2.457   6.789
 6286SOL    HW219758   0.872   2.567   6.821
 6287SOL     OW19759   4.513   4.682   4.571
 6287SOL    HW119760   4.476   4.704   4.661
 6287SOL    HW219761   4.578   4.753   4.543
 6288SOL     OW19762   2.875   3.552   6.224
 6288SOL    HW119763   2.831   3.641   6.232
 6288SOL    HW219764   2.965   3.563   6.181
 6289SOL     OW19765   2.290   4.839   4.506
 6289SOL    HW119766   2.243   4.776   4.445
 6289SOL    HW219767   2.366   4.882   4.458
 6290SOL     OW19768   5.986   6.985   3.651
 6290SOL    HW119769   6.036   0.048   3.679
 6290SOL    HW219770   5.907   7.011   3.596
 6291SOL     OW19771   3.683   3.472   1.805
 6291SOL    HW119772   3.723   3.475   1.713
 6291SOL    HW219773   3.757   3.468   1.873
 6292SOL     OW19774   1.527   4.658   4.892
 6292SOL    HW119775   1.597   4.596   4.855
 6292SOL    HW219776   1.438   4.635   4.853
 6293SOL     OW19777   2.918   1.367   5.899
 6293SOL    HW119778   2.952   1.461   5.897
 6293SOL    HW219779   2.833   1.360   5.847
 6294SOL     OW19780   1.888   1.238   2.252
 6294SOL    HW119781   1.860   1.163   2.193
 6294SOL    HW219782   1.978   1.272   2.223
 6295SOL     OW19783   4.509   3.740   6.444
 6295SOL    HW119784   4.520   3.641   6.445
 6295SOL    HW219785   4.416   3.763   6.417
 6296SOL     OW19786   0.612   2.751   6.942
 6296SOL    HW119787   0.694   2.720   6.893
 6296SOL    HW219788   0.572   2.829   6.894
 6297SOL     OW19789   6.604   1.228   4.001
 6297SOL    HW119790   6.580   1.219   4.097
 6297SOL    HW219791   6.703   1.215   3.989
 6298SOL     OW19792   0.318   6.896   0.504
 6298SOL    HW119793   0.324   6.932   0.411
 6298SOL    HW219794   0.329   6.796   0.502
 6299SOL     OW19795   3.900   2.130   4.070
 6299SOL    HW119796   3.870   2.159   3.979
 6299SOL    HW219797   3.992   2.165   4.088
 6300SOL     OW19798   2.870   2.004   1.037
 6300SOL    HW119799   2.810   2.002   1.117
 6300SOL    HW219800   2.820   1.971   0.957
 6301SOL     OW19801   3.208   6.480   0.120
 6301SOL    HW119802   3.293   6.473   0.068
 6301SOL    HW219803   3.225   6.459   0.216
 6302SOL     OW19804   1.323   3.505   0.408
 6302SOL    HW119805   1.345   3.557   0.490
 6302SOL    HW219806   1.388   3.429   0.398
 6303SOL     OW19807   6.639   4.597   4.176
 6303SOL    HW119808   6.579   4.610   4.097
 6303SOL    HW219809   6.700   4.676   4.185
 6304SOL     OW19810   2.846   0.915   3.998
 6304SOL    HW119811   2.902   0.919   4.080
 6304SOL    HW219812   2.807   0.824   3.988
 6305SOL     OW19813   0.716   5.928   5.693
 6305SOL    HW119814   0.700   5.974   5.606
 6305SOL    HW219815   0.642   5.864   5.711
 6306SOL     OW19816   0.460   4.239   4.635
 6306SOL    HW119817   0.447   4.145   4.665
 6306SOL    HW219818   0.532   4.243   4.565
 6307SOL     OW19819   3.280   2.876   2.780
 6307SOL    HW119820   3.359   2.906   2.725
 6307SOL    HW219821   3.209   2.841   2.719
 6308SOL     OW19822   1.120   1.998   0.993
 6308SOL    HW119823   1.169   2.084   0.982
 6308SOL    HW219824   1.027   2.008   0.956
 6309SOL     OW19825   1.770   6.010   4.550
 6309SOL    HW119826   1.797   6.040   4.641
 6309SOL    HW219827   1.743   5.914   4.554
 6310SOL     OW19828   0.527   6.738   3.692
 6310SOL    HW119829   0.478   6.737   3.779
 6310SOL    HW219830   0.492   6.812   3.635
 6311SOL     OW19831   6.378   1.161   6.421
 6311SOL    HW119832   6.464   1.202   6.391
 6311SOL    HW219833   6.308   1.232   6.431
 6312SOL     OW19834   3.068   5.431   0.584
 6312SOL    HW119835   3.133   5.483   0.639
 6312SOL    HW219836   3.048   5.481   0.500
 6313SOL     OW19837   5.724   5.053   3.707
 6313SOL    HW119838   5.701   5.149   3.697
 6313SOL    HW219839   5.812   5.045   3.753
 6314SOL     OW19840   1.942   6.447   3.140
 6314SOL    HW119841   2.006   6.506   3.190
 6314SOL    HW219842   1.919   6.490   3.053
 6315SOL     OW19843   2.323   2.155   3.521
 6315SOL    HW119844   2.394   2.120   3.582
 6315SOL    HW219845   2.364   2.179   3.433
 6316SOL     OW19846   4.604   0.496   5.266
 6316SOL    HW119847   4.618   0.417   5.206
 6316SOL    HW219848   4.689   0.548   5.273
 6317SOL     OW19849   4.570   4.712   2.849
 6317SOL    HW119850   4.559   4.617   2.823
 6317SOL    HW219851   4.577   4.769   2.767
 6318SOL     OW19852   6.774   0.052   0.327
 6318SOL    HW119853   6.757   0.100   0.413
 6318SOL    HW219854   6.817   6.984   0.346
 6319SOL     OW19855   4.810   2.595   4.717
 6319SOL    HW119856   4.850   2.675   4.761
 6319SOL    HW219857   4.719   2.618   4.683
 6320SOL     OW19858   6.493   1.667   6.099
 6320SOL    HW119859   6.453   1.758   6.108
 6320SOL    HW219860   6.476   1.632   6.007
 6321SOL     OW19861   0.599   3.023   0.541
 6321SOL    HW119862   0.571   3.014   0.637
 6321SOL    HW219863   0.519   3.046   0.485
 6322SOL     OW19864   1.810   1.755   3.128
 6322SOL    HW119865   1.848   1.771   3.037
 6322SOL    HW219866   1.781   1.660   3.136
 6323SOL     OW19867   2.083   5.346   1.182
 6323SOL    HW119868   2.101   5.444   1.187
 6323SOL    HW219869   2.140   5.299   1.249
 6324SOL     OW19870   4.631   3.020   0.899
 6324SOL    HW119871   4.729   3.041   0.900
 6324SOL    HW219872   4.618   2.927   0.864
 6325SOL     OW19873   1.347   3.154   3.247
 6325SOL    HW119874   1.303   3.227   3.298
 6325SOL    HW219875   1.279   3.107   3.191
 6326SOL     OW19876   5.212   5.046   5.032
 6326SOL    HW119877   5.115   5.045   5.057
 6326SOL    HW219878   5.264   4.992   5.098
 6327SOL     OW19879   0.571   1.008   3.513
 6327SOL    HW119880   0.654   0.982   3.464
 6327SOL    HW219881   0.554   0.943   3.587
 6328SOL     OW19882   3.971   3.647   5.317
 6328SOL    HW119883   3.931   3.594   5.242
 6328SOL    HW219884   4.067   3.621   5.328
 6329SOL     OW19885   0.406   2.803   5.802
 6329SOL    HW119886   0.329   2.834   5.747
 6329SOL    HW219887   0.474   2.760   5.743
 6330SOL     OW19888   4.405   1.921   3.675
 6330SOL    HW119889   4.431   1.854   3.605
 6330SOL    HW219890   4.306   1.920   3.687
 6331SOL     OW19891   1.481   3.546   3.940
 6331SOL    HW119892   1.536   3.627   3.959
 6331SOL    HW219893   1.384   3.570   3.942
 6332SOL     OW19894   4.103   1.701   0.068
 6332SOL    HW119895   4.113   1.799   0.089
 6332SOL    HW219896   4.189   1.654   0.088
 6333SOL     OW19897   5.471   0.679   0.480
 6333SOL    HW119898   5.498   0.772   0.455
 6333SOL    HW219899   5.543   0.637   0.535
 6334SOL     OW19900   1.977   0.893   1.932
 6334SOL    HW119901   2.055   0.907   1.871
 6334SOL    HW219902   2.006   0.841   2.012
 6335SOL     OW19903   6.735   3.552   6.171
 6335SOL    HW119904   6.770   3.528   6.262
 6335SOL    HW219905   6.780   3.496   6.102
 6336SOL     OW19906   0.871   4.369   5.479
 6336SOL    HW119907   0.816   4.309   5.537
 6336SOL    HW219908   0.821   4.455   5.464
 6337SOL     OW19909   6.183   6.921   4.694
 6337SOL    HW119910   6.277   6.892   4.712
 6337SOL    HW219911   6.172   7.017   4.721
 6338SOL     OW19912   0.811   0.884   3.233
 6338SOL    HW119913   0.773   0.791   3.237
 6338SOL    HW219914   0.792   0.924   3.144
 6339SOL     OW19915   0.013   3.463   3.264
 6339SOL    HW119916   6.933   3.451   3.266
 6339SOL    HW219917   0.035   3.555   3.233
 6340SOL     OW19918   2.557   4.939   6.977
 6340SOL    HW119919   2.581   4.966   0.050
 6340SOL    HW219920   2.634   4.956   6.916
 6341SOL     OW19921   0.358   4.699   2.400
 6341SOL    HW119922   0.293   4.715   2.474
 6341SOL    HW219923   0.404   4.785   2.378
 6342SOL     OW19924   2.187   0.915   1.770
 6342SOL    HW119925   2.194   0.961   1.682
 6342SOL    HW219926   2.185   0.816   1.757
 6343SOL     OW19927   1.186   5.851   6.793
 6343SOL    HW119928   1.163   5.793   6.871
 6343SOL    HW219929   1.284   5.872   6.795
 6344SOL     OW19930   1.289   1.144   4.762
 6344SOL    HW119931   1.387   1.131   4.780
 6344SOL    HW219932   1.270   1.123   4.666
 6345SOL     OW19933   6.188   2.852   2.514
 6345SOL    HW119934   6.214   2.948   2.519
 6345SOL    HW219935   6.191   2.822   2.418
 6346SOL     OW19936   0.475   4.379   4.882
 6346SOL    HW119937   0.551   4.433   4.920
 6346SOL    HW219938   0.501   4.344   4.793
 6347SOL     OW19939   2.273   2.409   3.627
 6347SOL    HW119940   2.186   2.392   3.673
 6347SOL    HW219941   2.288   2.339   3.557
 6348SOL     OW19942   1.041   2.549   6.899
 6348SOL    HW119943   1.090   2.589   6.822
 6348SOL    HW219944   1.107   2.512   6.965
 6349SOL     OW19945   5.524   0.787   0.927
 6349SOL    HW119946   5.431   0.774   0.894
 6349SOL    HW219947   5.524   0.788   1.027
 6350SOL     OW19948   0.323   6.421   1.035
 6350SOL    HW119949   0.377   6.486   0.981
 6350SOL    HW219950   0.264   6.472   1.098
 6351SOL     OW19951   5.994   3.134   1.653
 6351SOL    HW119952   6.023   3.060   1.713
 6351SOL    HW219953   6.023   3.115   1.559
 6352SOL     OW19954   4.049   0.332   4.320
 6352SOL    HW119955   4.082   0.296   4.407
 6352SOL    HW219956   4.095   0.419   4.300
 6353SOL     OW19957   3.483   6.462   5.510
 6353SOL    HW119958   3.467   6.374   5.555
 6353SOL    HW219959   3.562   6.454   5.449
 6354SOL     OW19960   5.196   4.829   2.469
 6354SOL    HW119961   5.132   4.899   2.501
 6354SOL    HW219962   5.192   4.750   2.530
 6355SOL     OW19963   3.918   6.047   0.498
 6355SOL    HW119964   3.986   5.991   0.545
 6355SOL    HW219965   3.963   6.102   0.427
 6356SOL     OW19966   6.740   6.590   6.139
 6356SOL    HW119967   6.794   6.644   6.204
 6356SOL    HW219968   6.798   6.561   6.063
 6357SOL     OW19969   4.901   1.782   2.869
 6357SOL    HW119970   4.934   1.689   2.850
 6357SOL    HW219971   4.804   1.788   2.845
 6358SOL     OW19972   1.385   2.027   4.277
 6358SOL    HW119973   1.342   2.118   4.281
 6358SOL    HW219974   1.367   1.978   4.362
 6359SOL     OW19975   5.838   5.226   1.049
 6359SOL    HW119976   5.910   5.179   1.100
 6359SOL    HW219977   5.750   5.207   1.091
 6360SOL     OW19978   2.081   2.736   0.994
 6360SOL    HW119979   2.181   2.732   1.003
 6360SOL    HW219980   2.039   2.746   1.084
 6361SOL     OW19981   0.467   1.985   2.005
 6361SOL    HW119982   0.441   2.034   1.922
 6361SOL    HW219983   0.394   1.992   2.073
 6362SOL     OW19984   1.620   5.308   0.289
 6362SOL    HW119985   1.523   5.316   0.263
 6362SOL    HW219986   1.633   5.224   0.342
 6363SOL     OW19987   0.963   3.042   1.956
 6363SOL    HW119988   0.990   2.984   1.879
 6363SOL    HW219989   1.035   3.044   2.024
 6364SOL     OW19990   3.052   1.243   3.737
 6364SOL    HW119991   3.072   1.331   3.693
 6364SOL    HW219992   3.069   1.250   3.835
 6365SOL     OW19993   6.143   6.842   2.923
 6365SOL    HW119994   6.081   6.870   2.997
 6365SOL    HW219995   6.127   6.746   2.901
 6366SOL     OW19996   6.145   1.466   5.314
 6366SOL    HW119997   6.088   1.523   5.255
 6366SOL    HW219998   6.145   1.372   5.280
 6367SOL     OW19999   1.221   2.392   4.110
 6367SOL    HW120000   1.303   2.350   4.071
 6367SOL    HW220001   1.141   2.367   4.056
 6368SOL     OW20002   4.932   3.496   4.774
 6368SOL    HW120003   5.006   3.429   4.779
 6368SOL    HW220004   4.920   3.540   4.863
 6369SOL     OW20005   3.868   4.267   0.803
 6369SOL    HW120006   3.773   4.256   0.773
 6369SOL    HW220007   3.929   4.247   0.727
 6370SOL     OW20008   5.591   3.943   4.918
 6370SOL    HW120009   5.508   3.911   4.873
 6370SOL    HW220010   5.641   4.004   4.856
 6371SOL     OW20011   5.581   4.380   0.758
 6371SOL    HW120012   5.604   4.415   0.668
 6371SOL    HW220013   5.500   4.427   0.793
 6372SOL     OW20014   6.604   1.312   1.168
 6372SOL    HW120015   6.591   1.296   1.266
 6372SOL    HW220016   6.525   1.361   1.132
 6373SOL     OW20017   5.227   2.993   1.994
 6373SOL    HW120018   5.130   2.990   1.973
 6373SOL    HW220019   5.253   2.911   2.045
 6374SOL     OW20020   4.772   3.666   6.180
 6374SOL    HW120021   4.752   3.593   6.114
 6374SOL    HW220022   4.799   3.625   6.267
 6375SOL     OW20023   4.823   0.918   1.488
 6375SOL    HW120024   4.797   0.978   1.412
 6375SOL    HW220025   4.921   0.925   1.504
 6376SOL     OW20026   2.798   0.450   0.357
 6376SOL    HW120027   2.706   0.477   0.385
 6376SOL    HW220028   2.863   0.476   0.428
 6377SOL     OW20029   0.226   0.475   6.793
 6377SOL    HW120030   0.152   0.429   6.844
 6377SOL    HW220031   0.186   0.540   6.729
 6378SOL     OW20032   5.758   3.857   2.308
 6378SOL    HW120033   5.843   3.830   2.263
 6378SOL    HW220034   5.681   3.812   2.262
 6379SOL     OW20035   2.144   5.774   6.738
 6379SOL    HW120036   2.181   5.695   6.785
 6379SOL    HW220037   2.145   5.758   6.639
 6380SOL     OW20038   1.865   2.448   5.387
 6380SOL    HW120039   1.918   2.526   5.420
 6380SOL    HW220040   1.773   2.478   5.361
 6381SOL     OW20041   3.731   3.960   0.694
 6381SOL    HW120042   3.670   4.036   0.714
 6381SOL    HW220043   3.701   3.915   0.609
 6382SOL     OW20044   0.915   1.586   0.830
 6382SOL    HW120045   0.952   1.644   0.903
 6382SOL    HW220046   0.948   1.493   0.843
 6383SOL     OW20047   2.451   2.480   2.412
 6383SOL    HW120048   2.385   2.441   2.475
 6383SOL    HW220049   2.543   2.449   2.436
 6384SOL     OW20050   6.375   2.116   2.027
 6384SOL    HW120051   6.337   2.122   1.935
 6384SOL    HW220052   6.473   2.138   2.023
 6385SOL     OW20053   6.649   3.555   0.754
 6385SOL    HW120054   6.698   3.562   0.840
 6385SOL    HW220055   6.659   3.640   0.703
 6386SOL     OW20056   3.771   3.668   0.090
 6386SOL    HW120057   3.797   3.580   0.130
 6386SOL    HW220058   3.796   3.669   7.013
 6387SOL     OW20059   6.367   0.314   6.635
 6387SOL    HW120060   6.311   0.386   6.595
 6387SOL    HW220061   6.414   0.350   6.716
 6388SOL     OW20062   5.783   5.185   1.686
 6388SOL    HW120063   5.839   5.115   1.642
 6388SOL    HW220064   5.764   5.258   1.620
 6389SOL     OW20065   6.870   6.927   0.586
 6389SOL    HW120066   6.857   6.962   0.679
 6389SOL    HW220067   6.958   6.959   0.551
 6390SOL     OW20068   5.427   6.836   6.506
 6390SOL    HW120069   5.357   6.772   6.474
 6390SOL    HW220070   5.399   6.929   6.482
 6391SOL     OW20071   1.690   2.017   4.595
 6391SOL    HW120072   1.714   2.015   4.498
 6391SOL    HW220073   1.644   2.104   4.615
 6392SOL     OW20074   4.743   0.042   4.242
 6392SOL    HW120075   4.810   7.009   4.189
 6392SOL    HW220076   4.673   7.000   4.277
 6393SOL     OW20077   1.854   4.941   0.634
 6393SOL    HW120078   1.758   4.933   0.661
 6393SOL    HW220079   1.911   4.951   0.716
 6394SOL     OW20080   1.968   5.085   2.094
 6394SOL    HW120081   1.931   4.997   2.123
 6394SOL    HW220082   2.067   5.088   2.112
 6395SOL     OW20083   1.529   4.297   4.784
 6395SOL    HW120084   1.608   4.321   4.841
 6395SOL    HW220085   1.561   4.248   4.703
 6396SOL     OW20086   1.928   2.980   5.118
 6396SOL    HW120087   1.916   3.028   5.205
 6396SOL    HW220088   1.953   2.885   5.136
 6397SOL     OW20089   6.524   3.226   5.058
 6397SOL    HW120090   6.434   3.205   5.096
 6397SOL    HW220091   6.594   3.217   5.130
 6398SOL     OW20092   1.808   0.327   2.562
 6398SOL    HW120093   1.861   0.331   2.646
 6398SOL    HW220094   1.712   0.350   2.581
 6399SOL     OW20095   2.511   0.282   0.025
 6399SOL    HW120096   2.579   0.344   0.064
 6399SOL    HW220097   2.432   0.334   7.014
 6400SOL     OW20098   0.614   6.573   2.697
 6400SOL    HW120099   0.645   6.538   2.609
 6400SOL    HW220100   0.605   6.672   2.694
 6401SOL     OW20101   3.783   5.100   2.141
 6401SOL    HW120102   3.817   5.013   2.105
 6401SOL    HW220103   3.712   5.082   2.209
 6402SOL     OW20104   3.821   4.329   6.289
 6402SOL    HW120105   3.878   4.412   6.290
 6402SOL    HW220106   3.765   4.329   6.206
 6403SOL     OW20107   4.726   5.520   5.641
 6403SOL    HW120108   4.786   5.598   5.625
 6403SOL    HW220109   4.728   5.460   5.561
 6404SOL     OW20110   4.505   5.653   6.867
 6404SOL    HW120111   4.591   5.650   6.918
 6404SOL    HW220112   4.452   5.733   6.895
 6405SOL     OW20113   5.024   0.773   2.515
 6405SOL    HW120114   5.081   0.794   2.594
 6405SOL    HW220115   5.059   0.691   2.469
 6406SOL     OW20116   0.329   3.096   2.774
 6406SOL    HW120117   0.296   3.003   2.760
 6406SOL    HW220118   0.252   3.157   2.791
 6407SOL     OW20119   0.268   0.172   2.361
 6407SOL    HW120120   0.365   0.155   2.378
 6407SOL    HW220121   0.257   0.220   2.274
 6408SOL     OW20122   0.326   1.522   1.676
 6408SOL    HW120123   0.345   1.444   1.617
 6408SOL    HW220124   0.229   1.544   1.673
 6409SOL     OW20125   6.048   4.277   3.376
 6409SOL    HW120126   5.968   4.283   3.437
 6409SOL    HW220127   6.084   4.184   3.377
 6410SOL     OW20128   2.018   0.891   0.485
 6410SOL    HW120129   2.020   0.991   0.488
 6410SOL    HW220130   2.022   0.861   0.389
 6411SOL     OW20131   0.632   2.531   3.107
 6411SOL    HW120132   0.693   2.565   3.178
 6411SOL    HW220133   0.556   2.481   3.150
 6412SOL     OW20134   3.730   0.489   6.563
 6412SOL    HW120135   3.785   0.409   6.586
 6412SOL    HW220136   3.752   0.564   6.625
 6413SOL     OW20137   4.814   6.235   3.108
 6413SOL    HW120138   4.893   6.175   3.122
 6413SOL    HW220139   4.740   6.207   3.169
 6414SOL     OW20140   2.740   0.476   0.083
 6414SOL    HW120141   2.800   0.489   0.162
 6414SOL    HW220142   2.694   0.562   0.061
 6415SOL     OW20143   0.850   1.454   3.875
 6415SOL    HW120144   0.923   1.493   3.931
 6415SOL    HW220145   0.869   1.358   3.856
 6416SOL     OW20146   2.784   4.974   0.208
 6416SOL    HW120147   2.806   4.898   0.147
 6416SOL    HW220148   2.826   5.058   0.173
 6417SOL     OW20149   4.429   3.337   6.767
 6417SOL    HW120150   4.410   3.386   6.682
 6417SOL    HW220151   4.391   3.245   6.761
 6418SOL     OW20152   5.101   5.443   0.476
 6418SOL    HW120153   5.190   5.400   0.493
 6418SOL    HW220154   5.037   5.375   0.441
 6419SOL     OW20155   0.777   6.834   6.705
 6419SOL    HW120156   0.728   6.915   6.735
 6419SOL    HW220157   0.868   6.860   6.670
 6420SOL     OW20158   2.437   4.473   3.834
 6420SOL    HW120159   2.384   4.425   3.904
 6420SOL    HW220160   2.516   4.517   3.877
 6421SOL     OW20161   5.325   6.796   2.079
 6421SOL    HW120162   5.388   6.871   2.062
 6421SOL    HW220163   5.271   6.815   2.161
 6422SOL     OW20164   0.514   2.472   4.968
 6422SOL    HW120165   0.509   2.501   5.063
 6422SOL    HW220166   0.439   2.409   4.948
 6423SOL     OW20167   1.136   4.294   4.712
 6423SOL    HW120168   1.187   4.215   4.675
 6423SOL    HW220169   1.200   4.367   4.733
 6424SOL     OW20170   6.662   4.448   6.071
 6424SOL    HW120171   6.722   4.416   6.144
 6424SOL    HW220172   6.677   4.392   5.989
 6425SOL     OW20173   0.555   6.125   4.732
 6425SOL    HW120174   0.542   6.217   4.696
 6425SOL    HW220175   0.633   6.082   4.688
 6426SOL     OW20176   4.693   5.547   3.933
 6426SOL    HW120177   4.782   5.588   3.913
 6426SOL    HW220178   4.680   5.541   4.032
 6427SOL     OW20179   4.028   3.219   3.950
 6427SOL    HW120180   4.101   3.164   3.992
 6427SOL    HW220181   3.970   3.160   3.895
 6428SOL     OW20182   5.960   2.928   0.454
 6428SOL    HW120183   5.887   2.901   0.392
 6428SOL    HW220184   6.025   2.852   0.465
 6429SOL     OW20185   2.448   1.256   5.143
 6429SOL    HW120186   2.524   1.303   5.188
 6429SOL    HW220187   2.371   1.319   5.133
 6430SOL     OW20188   5.541   1.558   5.015
 6430SOL    HW120189   5.627   1.509   4.998
 6430SOL    HW220190   5.561   1.655   5.031
 6431SOL     OW20191   3.542   5.247   2.453
 6431SOL    HW120192   3.522   5.224   2.358
 6431SOL    HW220193   3.508   5.174   2.513
 6432SOL     OW20194   4.710   3.095   5.978
 6432SOL    HW120195   4.713   3.127   5.883
 6432SOL    HW220196   4.689   2.997   5.979
 6433SOL     OW20197   3.645   5.200   6.278
 6433SOL    HW120198   3.563   5.147   6.298
 6433SOL    HW220199   3.658   5.271   6.348
 6434SOL     OW20200   5.740   5.273   5.902
 6434SOL    HW120201   5.783   5.343   5.846
 6434SOL    HW220202   5.757   5.183   5.863
 6435SOL     OW20203   4.365   1.081   1.085
 6435SOL    HW120204   4.457   1.042   1.079
 6435SOL    HW220205   4.343   1.127   0.999
 6436SOL     OW20206   0.434   3.520   3.734
 6436SOL    HW120207   0.390   3.494   3.647
 6436SOL    HW220208   0.479   3.440   3.773
 6437SOL     OW20209   1.683   2.938   5.786
 6437SOL    HW120210   1.694   2.840   5.770
 6437SOL    HW220211   1.588   2.957   5.809
 6438SOL     OW20212   0.423   5.222   0.738
 6438SOL    HW120213   0.404   5.185   0.647
 6438SOL    HW220214   0.339   5.258   0.778
 6439SOL     OW20215   5.232   6.969   2.591
 6439SOL    HW120216   5.246   6.937   2.497
 6439SOL    HW220217   5.317   6.958   2.643
 6440SOL     OW20218   2.374   1.975   6.154
 6440SOL    HW120219   2.316   2.023   6.089
 6440SOL    HW220220   2.398   1.885   6.117
 6441SOL     OW20221   0.359   2.744   1.978
 6441SOL    HW120222   0.412   2.660   1.962
 6441SOL    HW220223   0.318   2.774   1.891
 6442SOL     OW20224   2.374   2.087   4.376
 6442SOL    HW120225   2.385   2.148   4.455
 6442SOL    HW220226   2.437   2.115   4.304
 6443SOL     OW20227   3.418   3.236   6.153
 6443SOL    HW120228   3.345   3.168   6.145
 6443SOL    HW220229   3.381   3.321   6.191
 6444SOL     OW20230   6.952   3.657   5.279
 6444SOL    HW120231   6.870   3.601   5.292
 6444SOL    HW220232   6.951   3.697   5.187
 6445SOL     OW20233   3.479   2.874   3.847
 6445SOL    HW120234   3.431   2.946   3.897
 6445SOL    HW220235   3.469   2.787   3.896
 6446SOL     OW20236   1.052   1.342   0.861
 6446SOL    HW120237   1.098   1.283   0.928
 6446SOL    HW220238   1.120   1.386   0.803
 6447SOL     OW20239   6.046   3.763   1.280
 6447SOL    HW120240   6.067   3.701   1.356
 6447SOL    HW220241   5.986   3.717   1.215
 6448SOL     OW20242   4.159   4.666   1.056
 6448SOL    HW120243   4.136   4.637   0.963
 6448SOL    HW220244   4.254   4.696   1.059
 6449SOL     OW20245   3.516   5.167   0.205
 6449SOL    HW120246   3.470   5.081   0.231
 6449SOL    HW220247   3.579   5.150   0.130
 6450SOL     OW20248   5.600   3.696   7.000
 6450SOL    HW120249   5.579   3.601   6.978
 6450SOL    HW220250   5.615   3.705   0.079
 6451SOL     OW20251   4.116   2.673   1.728
 6451SOL    HW120252   4.085   2.620   1.649
 6451SOL    HW220253   4.168   2.753   1.695
 6452SOL     OW20254   4.042   1.888   4.787
 6452SOL    HW120255   4.139   1.909   4.776
 6452SOL    HW220256   3.988   1.965   4.753
 6453SOL     OW20257   2.524   0.412   2.899
 6453SOL    HW120258   2.517   0.462   2.986
 6453SOL    HW220259   2.441   0.357   2.886
 6454SOL     OW20260   5.163   3.278   4.465
 6454SOL    HW120261   5.204   3.190   4.486
 6454SOL    HW220262   5.064   3.271   4.472
 6455SOL     OW20263   0.510   2.796   4.306
 6455SOL    HW120264   0.554   2.858   4.241
 6455SOL    HW220265   0.481   2.713   4.258
 6456SOL     OW20266   6.766   1.957   2.626
 6456SOL    HW120267   6.726   1.888   2.685
 6456SOL    HW220268   6.856   1.925   2.594
 6457SOL     OW20269   2.359   6.224   2.511
 6457SOL    HW120270   2.333   6.319   2.523
 6457SOL    HW220271   2.286   6.175   2.462
 6458SOL     OW20272   0.474   7.008   4.329
 6458SOL    HW120273   0.568   7.007   4.295
 6458SOL    HW220274   0.420   6.939   4.280
 6459SOL     OW20275   0.179   3.261   3.216
 6459SOL    HW120276   0.124   3.338   3.248
 6459SOL    HW220277   0.214   3.210   3.295
 6460SOL     OW20278   1.375   5.412   6.334
 6460SOL    HW120279   1.383   5.505   6.299
 6460SOL    HW220280   1.278   5.387   6.341
 6461SOL     OW20281   0.364   6.298   0.638
 6461SOL    HW120282   0.317   6.223   0.591
 6461SOL    HW220283   0.463   6.282   0.634
 6462SOL     OW20284   1.883   3.952   5.117
 6462SOL    HW120285   1.847   3.870   5.161
 6462SOL    HW220286   1.968   3.979   5.161
 6463SOL     OW20287   4.333   2.725   1.275
 6463SOL    HW120288   4.393   2.727   1.195
 6463SOL    HW220289   4.248   2.774   1.254
 6464SOL     OW20290   0.671   3.536   3.141
 6464SOL    HW120291   0.577   3.527   3.174
 6464SOL    HW220292   0.671   3.579   3.050
 6465SOL     OW20293   3.188   0.699   3.881
 6465SOL    HW120294   3.252   0.622   3.884
 6465SOL    HW220295   3.095   0.664   3.868
 6466SOL     OW20296   6.736   5.244   6.225
 6466SOL    HW120297   6.642   5.218   6.245
 6466SOL    HW220298   6.788   5.163   6.199
 6467SOL     OW20299   2.342   2.878   5.999
 6467SOL    HW120300   2.313   2.783   6.011
 6467SOL    HW220301   2.266   2.932   5.963
 6468SOL     OW20302   1.270   0.892   1.344
 6468SOL    HW120303   1.323   0.820   1.301
 6468SOL    HW220304   1.175   0.886   1.313
 6469SOL     OW20305   1.795   1.280   1.513
 6469SOL    HW120306   1.891   1.297   1.538
 6469SOL    HW220307   1.757   1.363   1.471
 6470SOL     OW20308   6.132   1.719   6.678
 6470SOL    HW120309   6.147   1.784   6.753
 6470SOL    HW220310   6.182   1.634   6.697
 6471SOL     OW20311   0.188   6.303   6.000
 6471SOL    HW120312   0.194   6.328   5.904
 6471SOL    HW220313   0.278   6.273   6.032
 6472SOL     OW20314   0.275   6.049   1.796
 6472SOL    HW120315   0.210   5.982   1.761
 6472SOL    HW220316   0.322   6.093   1.720
 6473SOL     OW20317   3.238   1.435   3.197
 6473SOL    HW120318   3.231   1.465   3.292
 6473SOL    HW220319   3.315   1.372   3.187
 6474SOL     OW20320   3.763   6.513   4.069
 6474SOL    HW120321   3.715   6.441   4.020
 6474SOL    HW220322   3.862   6.501   4.058
 6475SOL     OW20323   5.236   5.936   2.878
 6475SOL    HW120324   5.216   5.996   2.956
 6475SOL    HW220325   5.308   5.977   2.823
 6476SOL     OW20326   4.933   3.649   6.670
 6476SOL    HW120327   4.980   3.734   6.647
 6476SOL    HW220328   4.873   3.664   6.748
 6477SOL     OW20329   0.770   6.394   0.866
 6477SOL    HW120330   0.709   6.456   0.916
 6477SOL    HW220331   0.860   6.436   0.857
 6478SOL     OW20332   1.554   6.398   0.769
 6478SOL    HW120333   1.520   6.492   0.758
 6478SOL    HW220334   1.521   6.342   0.693
 6479SOL     OW20335   4.728   5.694   3.405
 6479SOL    HW120336   4.700   5.632   3.479
 6479SOL    HW220337   4.812   5.741   3.431
 6480SOL     OW20338   3.404   1.336   5.400
 6480SOL    HW120339   3.399   1.400   5.323
 6480SOL    HW220340   3.373   1.382   5.484
 6481SOL     OW20341   4.190   3.281   1.916
 6481SOL    HW120342   4.146   3.206   1.966
 6481SOL    HW220343   4.254   3.244   1.849
 6482SOL     OW20344   4.857   3.309   5.200
 6482SOL    HW120345   4.817   3.396   5.173
 6482SOL    HW220346   4.910   3.322   5.284
 6483SOL     OW20347   2.097   5.722   5.276
 6483SOL    HW120348   2.142   5.647   5.325
 6483SOL    HW220349   2.015   5.749   5.327
 6484SOL     OW20350   4.119   1.607   3.089
 6484SOL    HW120351   4.180   1.535   3.121
 6484SOL    HW220352   4.165   1.661   3.019
 6485SOL     OW20353   2.104   4.928   5.278
 6485SOL    HW120354   2.169   4.925   5.202
 6485SOL    HW220355   2.030   4.863   5.261
 6486SOL     OW20356   6.821   3.973   2.493
 6486SOL    HW120357   6.753   4.014   2.432
 6486SOL    HW220358   6.900   4.033   2.501
 6487SOL     OW20359   6.326   5.181   4.433
 6487SOL    HW120360   6.397   5.160   4.366
 6487SOL    HW220361   6.326   5.279   4.454
 6488SOL     OW20362   3.842   5.237   3.979
 6488SOL    HW120363   3.850   5.332   4.007
 6488SOL    HW220364   3.837   5.232   3.879
 6489SOL     OW20365   6.281   3.169   5.164
 6489SOL    HW120366   6.208   3.235   5.179
 6489SOL    HW220367   6.245   3.076   5.180
 6490SOL     OW20368   1.934   2.334   0.163
 6490SOL    HW120369   1.983   2.377   0.238
 6490SOL    HW220370   1.969   2.242   0.147
 6491SOL     OW20371   1.170   0.353   1.539
 6491SOL    HW120372   1.224   0.432   1.512
 6491SOL    HW220373   1.172   0.344   1.639
 6492SOL     OW20374   4.093   3.727   4.093
 6492SOL    HW120375   4.054   3.802   4.040
 6492SOL    HW220376   4.103   3.647   4.034
 6493SOL     OW20377   1.154   4.895   3.962
 6493SOL    HW120378   1.233   4.835   3.946
 6493SOL    HW220379   1.180   4.990   3.946
 6494SOL     OW20380   6.420   0.698   1.328
 6494SOL    HW120381   6.421   0.602   1.355
 6494SOL    HW220382   6.486   0.713   1.255
 6495SOL     OW20383   6.693   0.039   3.437
 6495SOL    HW120384   6.621   0.083   3.384
 6495SOL    HW220385   6.764   0.106   3.459
 6496SOL     OW20386   3.108   2.194   1.784
 6496SOL    HW120387   3.067   2.262   1.845
 6496SOL    HW220388   3.205   2.216   1.770
 6497SOL     OW20389   0.648   1.900   0.491
 6497SOL    HW120390   0.732   1.938   0.528
 6497SOL    HW220391   0.569   1.944   0.535
 6498SOL     OW20392   1.862   4.936   4.498
 6498SOL    HW120393   1.800   4.960   4.573
 6498SOL    HW220394   1.930   5.009   4.488
 6499SOL     OW20395   4.980   2.414   3.314
 6499SOL    HW120396   5.030   2.493   3.347
 6499SOL    HW220397   4.899   2.399   3.371
 6500SOL     OW20398   1.352   3.758   3.119
 6500SOL    HW120399   1.383   3.734   3.027
 6500SOL    HW220400   1.410   3.832   3.155
 6501SOL     OW20401   6.669   0.816   2.851
 6501SOL    HW120402   6.690   0.771   2.938
 6501SOL    HW220403   6.607   0.758   2.798
 6502SOL     OW20404   0.875   2.756   1.603
 6502SOL    HW120405   0.958   2.795   1.564
 6502SOL    HW220406   0.897   2.709   1.688
 6503SOL     OW20407   0.030   2.882   6.011
 6503SOL    HW120408   7.019   2.942   6.085
 6503SOL    HW220409   0.012   2.926   5.923
 6504SOL     OW20410   3.833   0.013   6.204
 6504SOL    HW120411   3.736   0.031   6.184
 6504SOL    HW220412   3.879   7.003   6.120
 6505SOL     OW20413   0.373   6.884   0.807
 6505SOL    HW120414   0.379   6.799   0.859
 6505SOL    HW220415   0.350   6.864   0.712
 6506SOL     OW20416   6.906   3.796   1.757
 6506SOL    HW120417   6.808   3.805   1.772
 6506SOL    HW220418   6.954   3.804   1.844
 6507SOL     OW20419   3.630   5.629   1.129
 6507SOL    HW120420   3.679   5.716   1.128
 6507SOL    HW220421   3.636   5.585   1.040
 6508SOL     OW20422   6.654   0.306   3.930
 6508SOL    HW120423   6.597   0.303   4.012
 6508SOL    HW220424   6.750   0.311   3.957
 6509SOL     OW20425   2.351   1.828   6.852
 6509SOL    HW120426   2.402   1.870   6.776
 6509SOL    HW220427   2.259   1.805   6.821
 6510SOL     OW20428   3.487   5.063   4.052
 6510SOL    HW120429   3.581   5.048   4.022
 6510SOL    HW220430   3.455   5.151   4.017
 6511SOL     OW20431   3.630   2.372   0.076
 6511SOL    HW120432   3.543   2.363   0.027
 6511SOL    HW220433   3.654   2.469   0.083
 6512SOL     OW20434   4.568   0.579   0.715
 6512SOL    HW120435   4.496   0.554   0.650
 6512SOL    HW220436   4.607   0.496   0.755
 6513SOL     OW20437   3.464   4.901   2.911
 6513SOL    HW120438   3.505   4.992   2.919
 6513SOL    HW220439   3.392   4.891   2.980
 6514SOL     OW20440   5.371   6.167   5.399
 6514SOL    HW120441   5.325   6.220   5.471
 6514SOL    HW220442   5.303   6.136   5.332
 6515SOL     OW20443   0.469   4.941   2.361
 6515SOL    HW120444   0.560   4.933   2.321
 6515SOL    HW220445   0.434   5.034   2.346
 6516SOL     OW20446   6.222   1.980   3.285
 6516SOL    HW120447   6.220   1.952   3.189
 6516SOL    HW220448   6.129   1.986   3.320
 6517SOL     OW20449   6.657   3.781   0.609
 6517SOL    HW120450   6.696   3.872   0.618
 6517SOL    HW220451   6.674   3.747   0.516
 6518SOL     OW20452   0.697   1.518   2.348
 6518SOL    HW120453   0.783   1.470   2.362
 6518SOL    HW220454   0.714   1.608   2.308
 6519SOL     OW20455   1.338   1.154   3.442
 6519SOL    HW120456   1.307   1.221   3.509
 6519SOL    HW220457   1.260   1.115   3.394
 6520SOL     OW20458   6.086   5.299   0.195
 6520SOL    HW120459   6.163   5.339   0.146
 6520SOL    HW220460   6.108   5.204   0.220
 6521SOL     OW20461   1.964   4.709   4.711
 6521SOL    HW120462   1.990   4.717   4.614
 6521SOL    HW220463   1.901   4.632   4.722
 6522SOL     OW20464   2.211   2.886   5.253
 6522SOL    HW120465   2.242   2.805   5.302
 6522SOL    HW220466   2.282   2.917   5.190
 6523SOL     OW20467   5.840   6.820   0.635
 6523SOL    HW120468   5.778   6.743   0.622
 6523SOL    HW220469   5.916   6.812   0.570
 6524SOL     OW20470   3.267   2.914   1.208
 6524SOL    HW120471   3.225   2.913   1.299
 6524SOL    HW220472   3.201   2.882   1.140
 6525SOL     OW20473   1.587   5.066   3.691
 6525SOL    HW120474   1.537   5.048   3.607
 6525SOL    HW220475   1.679   5.099   3.669
 6526SOL     OW20476   6.472   0.037   0.473
 6526SOL    HW120477   6.428   0.103   0.534
 6526SOL    HW220478   6.487   0.080   0.384
 6527SOL     OW20479   5.558   1.303   0.618
 6527SOL    HW120480   5.513   1.392   0.629
 6527SOL    HW220481   5.498   1.230   0.650
 6528SOL     OW20482   3.949   6.796   7.018
 6528SOL    HW120483   3.911   6.774   6.928
 6528SOL    HW220484   4.016   6.726   0.024
 6529SOL     OW20485   4.439   0.207   1.916
 6529SOL    HW120486   4.381   0.281   1.883
 6529SOL    HW220487   4.493   0.171   1.839
 6530SOL     OW20488   6.569   3.075   3.767
 6530SOL    HW120489   6.528   3.007   3.829
 6530SOL    HW220490   6.573   3.038   3.675
 6531SOL     OW20491   3.807   3.597   3.782
 6531SOL    HW120492   3.848   3.558   3.864
 6531SOL    HW220493   3.773   3.689   3.802
 6532SOL     OW20494   0.606   6.097   0.378
 6532SOL    HW120495   0.615   5.998   0.382
 6532SOL    HW220496   0.624   6.136   0.468
 6533SOL     OW20497   4.940   4.993   1.623
 6533SOL    HW120498   4.971   5.022   1.532
 6533SOL    HW220499   4.980   4.905   1.646
 6534SOL     OW20500   0.099   3.960   4.066
 6534SOL    HW120501   0.121   4.033   4.001
 6534SOL    HW220502   0.009   3.923   4.046
 6535SOL     OW20503   5.456   3.880   5.822
 6535SOL    HW120504   5.370   3.912   5.862
 6535SOL    HW220505   5.466   3.919   5.730
 6536SOL     OW20506   0.754   4.761   5.628
 6536SOL    HW120507   0.749   4.677   5.682
 6536SOL    HW220508   0.688   4.827   5.663
 6537SOL     OW20509   6.930   5.467   3.973
 6537SOL    HW120510   6.886   5.464   4.063
 6537SOL    HW220511   7.014   5.521   3.978
 6538SOL     OW20512   1.361   3.036   3.539
 6538SOL    HW120513   1.410   2.962   3.493
 6538SOL    HW220514   1.332   3.104   3.471
 6539SOL     OW20515   4.385   6.812   6.864
 6539SOL    HW120516   4.405   6.834   6.959
 6539SOL    HW220517   4.411   6.890   6.806
 6540SOL     OW20518   0.464   2.758   5.441
 6540SOL    HW120519   0.455   2.666   5.403
 6540SOL    HW220520   0.557   2.771   5.475
 6541SOL     OW20521   4.129   1.655   5.381
 6541SOL    HW120522   4.085   1.735   5.338
 6541SOL    HW220523   4.169   1.597   5.310
 6542SOL     OW20524   1.606   4.315   2.386
 6542SOL    HW120525   1.621   4.241   2.452
 6542SOL    HW220526   1.612   4.277   2.293
 6543SOL     OW20527   4.224   1.326   4.152
 6543SOL    HW120528   4.179   1.241   4.179
 6543SOL    HW220529   4.184   1.402   4.203
 6544SOL     OW20530   0.455   0.345   0.517
 6544SOL    HW120531   0.537   0.378   0.470
 6544SOL    HW220532   0.473   0.340   0.616
 6545SOL     OW20533   4.953   6.376   0.846
 6545SOL    HW120534   4.891   6.388   0.924
 6545SOL    HW220535   4.904   6.335   0.770
 6546SOL     OW20536   4.543   4.976   5.709
 6546SOL    HW120537   4.494   5.056   5.745
 6546SOL    HW220538   4.507   4.952   5.619
 6547SOL     OW20539   0.941   6.332   5.180
 6547SOL    HW120540   1.011   6.321   5.250
 6547SOL    HW220541   0.921   6.429   5.167
 6548SOL     OW20542   1.340   1.821   6.259
 6548SOL    HW120543   1.303   1.852   6.172
 6548SOL    HW220544   1.437   1.845   6.265
 6549SOL     OW20545   3.449   1.388   2.392
 6549SOL    HW120546   3.536   1.368   2.346
 6549SOL    HW220547   3.378   1.403   2.323
 6550SOL     OW20548   6.077   6.472   2.022
 6550SOL    HW120549   6.165   6.506   2.053
 6550SOL    HW220550   6.064   6.378   2.055
 6551SOL     OW20551   2.491   5.060   0.905
 6551SOL    HW120552   2.482   4.970   0.946
 6551SOL    HW220553   2.408   5.113   0.923
 6552SOL     OW20554   2.207   4.428   0.004
 6552SOL    HW120555   2.296   4.426   0.049
 6552SOL    HW220556   2.140   4.378   0.059
 6553SOL     OW20557   0.201   1.905   4.217
 6553SOL    HW120558   0.200   1.805   4.223
 6553SOL    HW220559   0.136   1.935   4.147
 6554SOL     OW20560   1.338   2.177   3.938
 6554SOL    HW120561   1.402   2.208   3.868
 6554SOL    HW220562   1.378   2.100   3.988
 6555SOL     OW20563   1.581   3.326   4.084
 6555SOL    HW120564   1.680   3.338   4.082
 6555SOL    HW220565   1.539   3.390   4.020
 6556SOL     OW20566   5.187   3.380   2.975
 6556SOL    HW120567   5.175   3.288   3.011
 6556SOL    HW220568   5.114   3.400   2.909
 6557SOL     OW20569   2.227   0.560   2.562
 6557SOL    HW120570   2.138   0.603   2.574
 6557SOL    HW220571   2.295   0.607   2.618
 6558SOL     OW20572   5.703   6.196   1.135
 6558SOL    HW120573   5.614   6.241   1.137
 6558SOL    HW220574   5.758   6.227   1.212
 6559SOL     OW20575   0.215   2.304   6.261
 6559SOL    HW120576   0.251   2.231   6.319
 6559SOL    HW220577   0.211   2.389   6.314
 6560SOL     OW20578   6.817   4.487   6.678
 6560SOL    HW120579   6.806   4.398   6.635
 6560SOL    HW220580   6.738   4.507   6.735
 6561SOL     OW20581   2.307   5.195   0.706
 6561SOL    HW120582   2.383   5.131   0.695
 6561SOL    HW220583   2.230   5.147   0.748
 6562SOL     OW20584   4.935   2.361   1.881
 6562SOL    HW120585   4.856   2.397   1.931
 6562SOL    HW220586   4.908   2.277   1.834
 6563SOL     OW20587   6.673   4.912   5.370
 6563SOL    HW120588   6.598   4.953   5.422
 6563SOL    HW220589   6.641   4.830   5.323
 6564SOL     OW20590   5.439   3.171   2.395
 6564SOL    HW120591   5.495   3.244   2.434
 6564SOL    HW220592   5.487   3.131   2.317
 6565SOL     OW20593   5.331   6.091   2.428
 6565SOL    HW120594   5.334   6.103   2.527
 6565SOL    HW220595   5.343   6.180   2.384
 6566SOL     OW20596   5.396   5.257   3.816
 6566SOL    HW120597   5.381   5.305   3.903
 6566SOL    HW220598   5.343   5.302   3.744
 6567SOL     OW20599   3.233   0.791   2.718
 6567SOL    HW120600   3.246   0.891   2.722
 6567SOL    HW220601   3.204   0.758   2.808
 6568SOL     OW20602   4.690   1.069   0.868
 6568SOL    HW120603   4.769   1.131   0.859
 6568SOL    HW220604   4.717   0.977   0.841
 6569SOL     OW20605   1.327   4.708   3.634
 6569SOL    HW120606   1.296   4.765   3.559
 6569SOL    HW220607   1.395   4.757   3.688
 6570SOL     OW20608   4.277   0.201   2.506
 6570SOL    HW120609   4.263   0.277   2.443
 6570SOL    HW220610   4.273   0.115   2.455
 6571SOL     OW20611   2.745   6.580   3.253
 6571SOL    HW120612   2.809   6.640   3.204
 6571SOL    HW220613   2.791   6.496   3.280
 6572SOL     OW20614   2.060   5.901   3.879
 6572SOL    HW120615   1.968   5.878   3.847
 6572SOL    HW220616   2.120   5.913   3.800
 6573SOL     OW20617   0.163   2.294   3.430
 6573SOL    HW120618   0.224   2.241   3.371
 6573SOL    HW220619   0.092   2.338   3.374
 6574SOL     OW20620   0.642   5.047   2.105
 6574SOL    HW120621   0.576   5.122   2.113
 6574SOL    HW220622   0.729   5.082   2.072
 6575SOL     OW20623   0.078   1.575   3.900
 6575SOL    HW120624   0.007   1.629   3.855
 6575SOL    HW220625   0.167   1.595   3.858
 6576SOL     OW20626   3.915   6.863   1.561
 6576SOL    HW120627   3.938   6.796   1.631
 6576SOL    HW220628   3.817   6.861   1.544
 6577SOL     OW20629   3.444   0.687   4.718
 6577SOL    HW120630   3.463   0.768   4.774
 6577SOL    HW220631   3.410   0.613   4.776
 6578SOL     OW20632   1.317   5.035   0.754
 6578SOL    HW120633   1.300   4.989   0.841
 6578SOL    HW220634   1.257   4.997   0.683
 6579SOL     OW20635   1.541   1.755   3.608
 6579SOL    HW120636   1.548   1.719   3.701
 6579SOL    HW220637   1.484   1.838   3.608
 6580SOL     OW20638   3.249   2.106   0.272
 6580SOL    HW120639   3.312   2.123   0.348
 6580SOL    HW220640   3.295   2.051   0.202
 6581SOL     OW20641   0.433   2.466   2.016
 6581SOL    HW120642   0.353   2.471   2.076
 6581SOL    HW220643   0.486   2.384   2.037
 6582SOL     OW20644   5.030   0.855   2.954
 6582SOL    HW120645   5.015   0.806   3.040
 6582SOL    HW220646   4.996   0.949   2.962
 6583SOL     OW20647   2.565   4.408   0.906
 6583SOL    HW120648   2.613   4.396   0.993
 6583SOL    HW220649   2.579   4.327   0.849
 6584SOL     OW20650   4.460   2.760   6.270
 6584SOL    HW120651   4.461   2.839   6.330
 6584SOL    HW220652   4.526   2.773   6.196
 6585SOL     OW20653   5.140   6.656   1.934
 6585SOL    HW120654   5.201   6.718   1.983
 6585SOL    HW220655   5.045   6.673   1.962
 6586SOL     OW20656   6.639   1.240   6.374
 6586SOL    HW120657   6.635   1.142   6.355
 6586SOL    HW220658   6.644   1.254   6.473
 6587SOL     OW20659   3.562   4.952   5.073
 6587SOL    HW120660   3.483   4.928   5.129
 6587SOL    HW220661   3.534   4.964   4.978
 6588SOL     OW20662   0.978   1.426   0.033
 6588SOL    HW120663   0.915   1.502   0.048
 6588SOL    HW220664   1.072   1.461   0.027
 6589SOL     OW20665   6.294   6.661   1.602
 6589SOL    HW120666   6.247   6.604   1.669
 6589SOL    HW220667   6.346   6.732   1.649
 6590SOL     OW20668   1.079   5.904   4.674
 6590SOL    HW120669   0.996   5.953   4.702
 6590SOL    HW220670   1.065   5.806   4.685
 6591SOL     OW20671   6.248   3.065   3.812
 6591SOL    HW120672   6.247   3.136   3.883
 6591SOL    HW220673   6.308   2.990   3.841
 6592SOL     OW20674   6.874   0.521   4.114
 6592SOL    HW120675   6.856   0.554   4.207
 6592SOL    HW220676   6.914   0.430   4.119
 6593SOL     OW20677   1.797   0.738   2.749
 6593SOL    HW120678   1.798   0.811   2.817
 6593SOL    HW220679   1.716   0.746   2.692
 6594SOL     OW20680   5.089   0.141   0.013
 6594SOL    HW120681   5.169   0.116   6.979
 6594SOL    HW220682   5.086   0.085   0.096
 6595SOL     OW20683   0.820   1.648   5.005
 6595SOL    HW120684   0.801   1.741   4.974
 6595SOL    HW220685   0.913   1.621   4.976
 6596SOL     OW20686   5.781   1.125   2.416
 6596SOL    HW120687   5.697   1.175   2.439
 6596SOL    HW220688   5.826   1.095   2.500
 6597SOL     OW20689   0.949   4.924   0.881
 6597SOL    HW120690   0.989   4.890   0.966
 6597SOL    HW220691   0.850   4.911   0.884
 6598SOL     OW20692   1.009   5.282   2.774
 6598SOL    HW120693   0.966   5.360   2.819
 6598SOL    HW220694   1.087   5.313   2.720
 6599SOL     OW20695   0.735   5.556   6.189
 6599SOL    HW120696   0.758   5.648   6.156
 6599SOL    HW220697   0.657   5.521   6.139
 6600SOL     OW20698   4.839   6.295   4.578
 6600SOL    HW120699   4.752   6.247   4.578
 6600SOL    HW220700   4.851   6.341   4.666
 6601SOL     OW20701   1.302   2.810   1.738
 6601SOL    HW120702   1.226   2.809   1.673
 6601SOL    HW220703   1.282   2.747   1.814
 6602SOL     OW20704   6.871   5.399   1.018
 6602SOL    HW120705   6.783   5.417   1.062
 6602SOL    HW220706   6.880   5.301   0.999
 6603SOL     OW20707   7.005   4.183   2.497
 6603SOL    HW120708   0.070   4.139   2.527
 6603SOL    HW220709   0.006   4.260   2.438
 6604SOL     OW20710   1.580   5.431   2.699
 6604SOL    HW120711   1.550   5.338   2.676
 6604SOL    HW220712   1.500   5.488   2.717
 6605SOL     OW20713   0.066   5.227   1.257
 6605SOL    HW120714   0.049   5.317   1.295
 6605SOL    HW220715   0.082   5.235   1.159
 6606SOL     OW20716   1.878   4.051   2.900
 6606SOL    HW120717   1.973   4.023   2.910
 6606SOL    HW220718   1.865   4.093   2.810
 6607SOL     OW20719   5.960   3.258   3.876
 6607SOL    HW120720   5.860   3.254   3.887
 6607SOL    HW220721   6.003   3.207   3.950
 6608SOL     OW20722   1.148   0.438   5.782
 6608SOL    HW120723   1.064   0.409   5.829
 6608SOL    HW220724   1.138   0.532   5.752
 6609SOL     OW20725   3.151   2.394   6.938
 6609SOL    HW120726   3.239   2.355   6.965
 6609SOL    HW220727   3.136   2.479   6.988
 6610SOL     OW20728   2.960   6.655   1.249
 6610SOL    HW120729   2.878   6.707   1.227
 6610SOL    HW220730   2.955   6.622   1.343
 6611SOL     OW20731   3.258   1.366   4.778
 6611SOL    HW120732   3.283   1.458   4.807
 6611SOL    HW220733   3.268   1.358   4.679
 6612SOL     OW20734   0.621   0.224   6.999
 6612SOL    HW120735   0.640   0.287   6.924
 6612SOL    HW220736   0.633   0.129   6.968
 6613SOL     OW20737   4.333   6.494   1.036
 6613SOL    HW120738   4.298   6.484   0.943
 6613SOL    HW220739   4.274   6.556   1.087
 6614SOL     OW20740   3.675   4.743   0.930
 6614SOL    HW120741   3.740   4.668   0.943
 6614SOL    HW220742   3.588   4.706   0.897
 6615SOL     OW20743   3.290   5.407   6.286
 6615SOL    HW120744   3.351   5.345   6.336
 6615SOL    HW220745   3.278   5.491   6.337
 6616SOL     OW20746   4.313   1.289   0.327
 6616SOL    HW120747   4.360   1.276   0.240
 6616SOL    HW220748   4.248   1.214   0.341
 6617SOL     OW20749   3.539   1.114   3.721
 6617SOL    HW120750   3.494   1.195   3.760
 6617SOL    HW220751   3.634   1.136   3.698
 6618SOL     OW20752   5.952   2.685   4.313
 6618SOL    HW120753   5.915   2.600   4.352
 6618SOL    HW220754   6.014   2.728   4.378
 6619SOL     OW20755   4.705   4.852   3.968
 6619SOL    HW120756   4.649   4.775   3.937
 6619SOL    HW220757   4.679   4.877   4.062
 6620SOL     OW20758   1.107   2.478   3.511
 6620SOL    HW120759   1.135   2.403   3.571
 6620SOL    HW220760   1.107   2.447   3.416
 6621SOL     OW20761   3.212   3.486   3.805
 6621SOL    HW120762   3.177   3.550   3.874
 6621SOL    HW220763   3.312   3.492   3.802
 6622SOL     OW20764   0.212   4.935   1.308
 6622SOL    HW120765   0.166   4.853   1.274
 6622SOL    HW220766   0.144   4.997   1.348
 6623SOL     OW20767   3.431   4.086   3.687
 6623SOL    HW120768   3.441   3.991   3.716
 6623SOL    HW220769   3.336   4.104   3.664
 6624SOL     OW20770   2.569   2.514   3.216
 6624SOL    HW120771   2.565   2.548   3.122
 6624SOL    HW220772   2.478   2.483   3.243
 6625SOL     OW20773   6.706   3.826   5.498
 6625SOL    HW120774   6.731   3.739   5.455
 6625SOL    HW220775   6.609   3.845   5.482
 6626SOL     OW20776   3.244   5.544   5.159
 6626SOL    HW120777   3.295   5.621   5.197
 6626SOL    HW220778   3.303   5.494   5.095
 6627SOL     OW20779   2.667   6.110   4.185
 6627SOL    HW120780   2.682   6.165   4.102
 6627SOL    HW220781   2.756   6.090   4.227
 6628SOL     OW20782   3.986   0.468   3.068
 6628SOL    HW120783   3.982   0.567   3.085
 6628SOL    HW220784   4.024   0.452   2.977
 6629SOL     OW20785   4.372   5.518   4.793
 6629SOL    HW120786   4.334   5.599   4.748
 6629SOL    HW220787   4.466   5.503   4.761
 6630SOL     OW20788   1.657   0.501   0.066
 6630SOL    HW120789   1.690   0.435   0.133
 6630SOL    HW220790   1.683   0.472   6.994
 6631SOL     OW20791   1.848   3.077   5.959
 6631SOL    HW120792   1.801   3.013   5.898
 6631SOL    HW220793   1.797   3.163   5.962
 6632SOL     OW20794   1.161   0.601   7.015
 6632SOL    HW120795   1.175   0.635   6.922
 6632SOL    HW220796   1.064   0.607   0.019
 6633SOL     OW20797   3.919   5.924   6.252
 6633SOL    HW120798   3.927   5.953   6.347
 6633SOL    HW220799   4.007   5.890   6.219
 6634SOL     OW20800   2.951   2.116   3.429
 6634SOL    HW120801   2.892   2.168   3.491
 6634SOL    HW220802   3.016   2.062   3.482
 6635SOL     OW20803   5.520   5.456   5.609
 6635SOL    HW120804   5.572   5.540   5.626
 6635SOL    HW220805   5.491   5.453   5.514
 6636SOL     OW20806   3.966   1.433   0.684
 6636SOL    HW120807   3.936   1.444   0.589
 6636SOL    HW220808   4.055   1.477   0.696
 6637SOL     OW20809   0.103   1.803   0.011
 6637SOL    HW120810   0.136   1.867   6.962
 6637SOL    HW220811   0.054   1.728   6.986
 6638SOL     OW20812   3.474   3.468   3.822
 6638SOL    HW120813   3.512   3.384   3.859
 6638SOL    HW220814   3.498   3.545   3.881
 6639SOL     OW20815   4.559   2.350   1.605
 6639SOL    HW120816   4.510   2.429   1.640
 6639SOL    HW220817   4.534   2.336   1.509
 6640SOL     OW20818   1.711   4.159   5.067
 6640SOL    HW120819   1.739   4.137   4.974
 6640SOL    HW220820   1.753   4.094   5.131
 6641SOL     OW20821   6.285   2.776   0.176
 6641SOL    HW120822   6.369   2.722   0.173
 6641SOL    HW220823   6.307   2.872   0.193
 6642SOL     OW20824   1.008   5.499   6.075
 6642SOL    HW120825   0.948   5.508   6.155
 6642SOL    HW220826   1.050   5.408   6.075
 6643SOL     OW20827   3.767   5.547   5.947
 6643SOL    HW120828   3.800   5.539   6.041
 6643SOL    HW220829   3.752   5.456   5.909
 6644SOL     OW20830   2.324   0.169   3.857
 6644SOL    HW120831   2.362   0.187   3.948
 6644SOL    HW220832   2.392   0.190   3.788
 6645SOL     OW20833   4.665   2.445   6.137
 6645SOL    HW120834   4.738   2.410   6.079
 6645SOL    HW220835   4.587   2.472   6.080
 6646SOL     OW20836   4.470   0.131   5.333
 6646SOL    HW120837   4.523   0.185   5.398
 6646SOL    HW220838   4.532   0.082   5.271
 6647SOL     OW20839   4.163   4.363   0.961
 6647SOL    HW120840   4.104   4.371   0.881
 6647SOL    HW220841   4.144   4.276   1.008
 6648SOL     OW20842   3.352   5.380   5.571
 6648SOL    HW120843   3.412   5.393   5.492
 6648SOL    HW220844   3.260   5.414   5.550
 6649SOL     OW20845   4.861   2.728   5.880
 6649SOL    HW120846   4.804   2.753   5.802
 6649SOL    HW220847   4.870   2.629   5.885
 6650SOL     OW20848   2.549   1.509   5.285
 6650SOL    HW120849   2.641   1.540   5.262
 6650SOL    HW220850   2.528   1.535   5.379
 6651SOL     OW20851   0.023   1.616   5.249
 6651SOL    HW120852   0.117   1.586   5.261
 6651SOL    HW220853   7.012   1.594   5.157
 6652SOL     OW20854   6.958   4.256   7.008
 6652SOL    HW120855   6.948   4.355   0.001
 6652SOL    HW220856   6.873   4.210   0.013
 6653SOL     OW20857   5.615   4.473   6.929
 6653SOL    HW120858   5.540   4.518   6.880
 6653SOL    HW220859   5.674   4.424   6.865
 6654SOL     OW20860   6.532   2.558   3.126
 6654SOL    HW120861   6.561   2.555   3.222
 6654SOL    HW220862   6.590   2.624   3.077
 6655SOL     OW20863   0.022   5.862   1.204
 6655SOL    HW120864   6.995   5.811   1.276
 6655SOL    HW220865   0.102   5.810   1.173
 6656SOL     OW20866   4.573   1.057   2.831
 6656SOL    HW120867   4.561   1.105   2.918
 6656SOL    HW220868   4.658   1.003   2.835
 6657SOL     OW20869   4.637   1.340   4.558
 6657SOL    HW120870   4.676   1.376   4.642
 6657SOL    HW220871   4.588   1.255   4.577
 6658SOL     OW20872   6.734   5.826   4.910
 6658SOL    HW120873   6.678   5.791   4.835
 6658SOL    HW220874   6.829   5.833   4.880
 6659SOL     OW20875   0.587   5.560   0.937
 6659SOL    HW120876   0.532   5.637   0.904
 6659SOL    HW220877   0.669   5.595   0.982
 6660SOL     OW20878   0.439   0.406   4.573
 6660SOL    HW120879   0.342   0.385   4.578
 6660SOL    HW220880   0.483   0.345   4.507
 6661SOL     OW20881   4.230   6.036   4.087
 6661SOL    HW120882   4.231   5.954   4.030
 6661SOL    HW220883   4.321   6.055   4.122
 6662SOL     OW20884   3.102   6.743   2.348
 6662SOL    HW120885   3.014   6.777   2.379
 6662SOL    HW220886   3.135   6.800   2.272
 6663SOL     OW20887   1.587   4.390   5.828
 6663SOL    HW120888   1.603   4.443   5.911
 6663SOL    HW220889   1.636   4.433   5.752
 6664SOL     OW20890   3.280   6.764   1.489
 6664SOL    HW120891   3.195   6.815   1.484
 6664SOL    HW220892   3.306   6.752   1.585
 6665SOL     OW20893   2.908   0.794   6.981
 6665SOL    HW120894   3.003   0.767   6.994
 6665SOL    HW220895   2.901   0.893   6.978
 6666SOL     OW20896   3.395   6.218   5.613
 6666SOL    HW120897   3.434   6.130   5.586
 6666SOL    HW220898   3.295   6.210   5.617
 6667SOL     OW20899   1.478   5.950   6.372
 6667SOL    HW120900   1.534   5.913   6.298
 6667SOL    HW220901   1.423   5.876   6.412
 6668SOL     OW20902   6.624   4.060   0.111
 6668SOL    HW120903   6.604   4.069   0.013
 6668SOL    HW220904   6.575   4.131   0.161
 6669SOL     OW20905   1.293   2.679   3.550
 6669SOL    HW120906   1.359   2.679   3.475
 6669SOL    HW220907   1.229   2.603   3.538
 6670SOL     OW20908   3.289   3.329   0.489
 6670SOL    HW120909   3.351   3.281   0.427
 6670SOL    HW220910   3.331   3.336   0.579
 6671SOL     OW20911   4.622   4.884   0.360
 6671SOL    HW120912   4.662   4.816   0.297
 6671SOL    HW220913   4.581   4.837   0.438
 6672SOL     OW20914   1.576   2.751   1.233
 6672SOL    HW120915   1.640   2.696   1.179
 6672SOL    HW220916   1.482   2.729   1.205
 6673SOL     OW20917   5.888   2.969   4.007
 6673SOL    HW120918   5.908   3.030   4.084
 6673SOL    HW220919   5.790   2.968   3.988
 6674SOL     OW20920   6.408   0.564   0.451
 6674SOL    HW120921   6.470   0.579   0.528
 6674SOL    HW220922   6.450   0.599   0.367
 6675SOL     OW20923   4.798   0.588   0.214
 6675SOL    HW120924   4.789   0.497   0.254
 6675SOL    HW220925   4.799   0.657   0.286
 6676SOL     OW20926   0.641   3.866   5.090
 6676SOL    HW120927   0.556   3.896   5.047
 6676SOL    HW220928   0.667   3.777   5.054
 6677SOL     OW20929   0.464   1.774   6.587
 6677SOL    HW120930   0.521   1.847   6.625
 6677SOL    HW220931   0.492   1.686   6.626
 6678SOL     OW20932   3.137   4.050   6.656
 6678SOL    HW120933   3.102   4.115   6.724
 6678SOL    HW220934   3.234   4.032   6.673
 6679SOL     OW20935   1.181   0.535   3.975
 6679SOL    HW120936   1.108   0.505   3.914
 6679SOL    HW220937   1.260   0.563   3.922
 6680SOL     OW20938   6.267   5.008   1.660
 6680SOL    HW120939   6.272   4.910   1.643
 6680SOL    HW220940   6.359   5.044   1.674
 6681SOL     OW20941   2.511   5.880   1.271
 6681SOL    HW120942   2.449   5.870   1.194
 6681SOL    HW220943   2.579   5.806   1.269
 6682SOL     OW20944   2.868   5.414   6.182
 6682SOL    HW120945   2.883   5.499   6.132
 6682SOL    HW220946   2.797   5.360   6.136
 6683SOL     OW20947   6.814   5.178   5.714
 6683SOL    HW120948   6.903   5.206   5.750
 6683SOL    HW220949   6.762   5.132   5.786
 6684SOL     OW20950   2.724   5.653   6.459
 6684SOL    HW120951   2.811   5.676   6.504
 6684SOL    HW220952   2.694   5.730   6.404
 6685SOL     OW20953   4.479   2.743   1.028
 6685SOL    HW120954   4.464   2.839   1.005
 6685SOL    HW220955   4.479   2.688   0.943
 6686SOL     OW20956   5.016   4.534   5.442
 6686SOL    HW120957   4.951   4.606   5.468
 6686SOL    HW220958   5.030   4.472   5.519
 6687SOL     OW20959   0.497   1.655   1.310
 6687SOL    HW120960   0.403   1.650   1.345
 6687SOL    HW220961   0.509   1.742   1.261
 6688SOL     OW20962   4.514   5.821   0.438
 6688SOL    HW120963   4.488   5.767   0.358
 6688SOL    HW220964   4.496   5.918   0.421
 6689SOL     OW20965   3.401   4.591   5.732
 6689SOL    HW120966   3.331   4.526   5.704
 6689SOL    HW220967   3.437   4.639   5.652
 6690SOL     OW20968   0.389   1.002   0.169
 6690SOL    HW120969   0.442   0.932   0.217
 6690SOL    HW220970   0.448   1.081   0.151
 6691SOL     OW20971   2.424   1.301   2.067
 6691SOL    HW120972   2.466   1.362   2.000
 6691SOL    HW220973   2.476   1.217   2.073
 6692SOL     OW20974   4.373   6.016   2.587
 6692SOL    HW120975   4.297   5.958   2.619
 6692SOL    HW220976   4.398   6.080   2.660
 6693SOL     OW20977   3.395   1.069   5.485
 6693SOL    HW120978   3.394   1.157   5.436
 6693SOL    HW220979   3.308   1.022   5.471
 6694SOL     OW20980   4.278   3.996   1.471
 6694SOL    HW120981   4.203   4.053   1.504
 6694SOL    HW220982   4.256   3.899   1.484
 6695SOL     OW20983   2.811   2.581   0.297
 6695SOL    HW120984   2.891   2.610   0.244
 6695SOL    HW220985   2.838   2.510   0.361
 6696SOL     OW20986   4.036   3.234   4.998
 6696SOL    HW120987   4.059   3.304   5.066
 6696SOL    HW220988   4.050   3.270   4.906
 6697SOL     OW20989   3.982   1.953   1.921
 6697SOL    HW120990   4.041   2.030   1.900
 6697SOL    HW220991   3.995   1.925   2.016
 6698SOL     OW20992   3.299   3.919   1.297
 6698SOL    HW120993   3.274   3.886   1.388
 6698SOL    HW220994   3.219   3.919   1.238
 6699SOL     OW20995   1.325   3.530   5.512
 6699SOL    HW120996   1.408   3.587   5.507
 6699SOL    HW220997   1.341   3.445   5.462
 6700SOL     OW20998   5.683   0.092   1.272
 6700SOL    HW120999   5.743   0.032   1.323
 6700SOL    HW221000   5.588   0.075   1.298
 6701SOL     OW21001   5.824   6.891   1.719
 6701SOL    HW121002   5.816   6.868   1.622
 6701SOL    HW221003   5.919   6.879   1.748
 6702SOL     OW21004   3.609   3.313   0.388
 6702SOL    HW121005   3.652   3.367   0.461
 6702SOL    HW221006   3.651   3.337   0.301
 6703SOL     OW21007   0.172   1.230   0.703
 6703SOL    HW121008   0.230   1.191   0.633
 6703SOL    HW221009   0.226   1.290   0.762
 6704SOL     OW21010   3.464   0.001   5.333
 6704SOL    HW121011   3.392   0.030   5.270
 6704SOL    HW221012   3.533   0.073   5.340
 6705SOL     OW21013   6.848   4.395   2.242
 6705SOL    HW121014   6.749   4.381   2.245
 6705SOL    HW221015   6.881   4.382   2.149
 6706SOL     OW21016   0.132   0.012   0.646
 6706SOL    HW121017   0.115   0.102   0.606
 6706SOL    HW221018   0.192   6.979   0.586
 6707SOL     OW21019   4.767   0.835   2.781
 6707SOL    HW121020   4.843   0.897   2.759
 6707SOL    HW221021   4.778   0.750   2.729
 6708SOL     OW21022   0.464   3.041   0.302
 6708SOL    HW121023   0.463   3.083   0.211
 6708SOL    HW221024   0.558   3.016   0.326
 6709SOL     OW21025   2.414   4.432   1.967
 6709SOL    HW121026   2.462   4.459   1.883
 6709SOL    HW221027   2.408   4.332   1.971
 6710SOL     OW21028   4.538   1.521   0.643
 6710SOL    HW121029   4.445   1.555   0.658
 6710SOL    HW221030   4.574   1.561   0.558
 6711SOL     OW21031   3.530   5.904   6.147
 6711SOL    HW121032   3.590   5.893   6.227
 6711SOL    HW221033   3.470   5.982   6.161
 6712SOL     OW21034   4.763   4.451   1.490
 6712SOL    HW121035   4.844   4.393   1.484
 6712SOL    HW221036   4.787   4.545   1.464
 6713SOL     OW21037   1.635   4.777   4.431
 6713SOL    HW121038   1.568   4.764   4.504
 6713SOL    HW221039   1.705   4.842   4.461
 6714SOL     OW21040   5.434   1.619   1.687
 6714SOL    HW121041   5.348   1.643   1.642
 6714SOL    HW221042   5.503   1.598   1.617
 6715SOL     OW21043   1.230   0.380   6.154
 6715SOL    HW121044   1.148   0.435   6.174
 6715SOL    HW221045   1.280   0.363   6.238
 6716SOL     OW21046   1.005   5.786   2.080
 6716SOL    HW121047   0.957   5.810   1.995
 6716SOL    HW221048   1.062   5.706   2.064
 6717SOL     OW21049   6.235   1.928   5.583
 6717SOL    HW121050   6.140   1.907   5.564
 6717SOL    HW221051   6.278   1.969   5.503
 6718SOL     OW21052   4.877   1.530   0.748
 6718SOL    HW121053   4.869   1.431   0.735
 6718SOL    HW221054   4.913   1.572   0.665
 6719SOL     OW21055   1.491   1.457   0.378
 6719SOL    HW121056   1.556   1.515   0.329
 6719SOL    HW221057   1.448   1.393   0.313
 6720SOL     OW21058   1.870   0.685   5.886
 6720SOL    HW121059   1.947   0.634   5.925
 6720SOL    HW221060   1.791   0.680   5.948
 6721SOL     OW21061   6.237   6.826   0.848
 6721SOL    HW121062   6.227   6.871   0.936
 6721SOL    HW221063   6.313   6.761   0.852
 6722SOL     OW21064   5.384   4.252   0.549
 6722SOL    HW121065   5.381   4.259   0.648
 6722SOL    HW221066   5.365   4.157   0.522
 6723SOL     OW21067   1.521   3.235   4.896
 6723SOL    HW121068   1.475   3.171   4.958
 6723SOL    HW221069   1.499   3.329   4.923
 6724SOL     OW21070   2.171   3.897   4.389
 6724SOL    HW121071   2.102   3.968   4.371
 6724SOL    HW221072   2.159   3.822   4.325
 6725SOL     OW21073   4.914   3.373   3.745
 6725SOL    HW121074   4.865   3.315   3.679
 6725SOL    HW221075   4.882   3.353   3.837
 6726SOL     OW21076   0.479   1.249   6.270
 6726SOL    HW121077   0.564   1.244   6.321
 6726SOL    HW221078   0.494   1.218   6.176
 6727SOL     OW21079   1.196   4.944   5.749
 6727SOL    HW121080   1.136   4.955   5.669
 6727SOL    HW221081   1.140   4.929   5.831
 6728SOL     OW21082   3.616   1.568   4.004
 6728SOL    HW121083   3.645   1.563   3.908
 6728SOL    HW221084   3.581   1.659   4.024
 6729SOL     OW21085   3.671   1.122   1.893
 6729SOL    HW121086   3.688   1.141   1.797
 6729SOL    HW221087   3.674   1.207   1.945
 6730SOL     OW21088   6.836   1.894   0.589
 6730SOL    HW121089   6.771   1.971   0.592
 6730SOL    HW221090   6.791   1.814   0.550
 6731SOL     OW21091   4.395   0.182   5.921
 6731SOL    HW121092   4.451   0.116   5.871
 6731SOL    HW221093   4.345   0.240   5.857
 6732SOL     OW21094   0.132   4.635   5.337
 6732SOL    HW121095   0.045   4.674   5.369
 6732SOL    HW221096   0.207   4.695   5.363
 6733SOL     OW21097   4.833   4.947   5.124
 6733SOL    HW121098   4.860   4.867   5.070
 6733SOL    HW221099   4.909   4.976   5.182
 6734SOL     OW21100   5.966   2.389   5.040
 6734SOL    HW121101   6.063   2.398   5.063
 6734SOL    HW221102   5.948   2.437   4.954
 6735SOL     OW21103   5.866   2.486   3.774
 6735SOL    HW121104   5.839   2.482   3.677
 6735SOL    HW221105   5.953   2.534   3.782
 6736SOL     OW21106   3.292   3.689   0.491
 6736SOL    HW121107   3.201   3.654   0.511
 6736SOL    HW221108   3.312   3.676   0.394
 6737SOL     OW21109   6.400   3.412   0.874
 6737SOL    HW121110   6.491   3.449   0.888
 6737SOL    HW221111   6.342   3.481   0.830
 6738SOL     OW21112   2.112   6.287   4.231
 6738SOL    HW121113   2.101   6.191   4.256
 6738SOL    HW221114   2.076   6.302   4.138
 6739SOL     OW21115   6.916   6.905   5.518
 6739SOL    HW121116   6.899   6.846   5.439
 6739SOL    HW221117   6.951   6.849   5.593
 6740SOL     OW21118   0.149   6.962   2.397
 6740SOL    HW121119   0.180   0.036   2.385
 6740SOL    HW221120   0.186   6.905   2.324
 6741SOL     OW21121   3.319   1.956   0.616
 6741SOL    HW121122   3.331   1.872   0.562
 6741SOL    HW221123   3.225   1.988   0.606
 6742SOL     OW21124   6.305   4.446   2.949
 6742SOL    HW121125   6.239   4.413   3.017
 6742SOL    HW221126   6.305   4.385   2.870
 6743SOL     OW21127   4.226   3.416   6.942
 6743SOL    HW121128   4.271   3.338   6.897
 6743SOL    HW221129   4.230   3.403   0.021
 6744SOL     OW21130   6.095   6.854   5.326
 6744SOL    HW121131   6.098   6.771   5.382
 6744SOL    HW221132   6.181   6.862   5.275
 6745SOL     OW21133   6.869   4.009   5.330
 6745SOL    HW121134   6.804   3.953   5.382
 6745SOL    HW221135   6.868   4.102   5.365
 6746SOL     OW21136   1.241   1.964   3.101
 6746SOL    HW121137   1.238   1.874   3.144
 6746SOL    HW221138   1.151   2.007   3.106
 6747SOL     OW21139   0.737   6.287   5.416
 6747SOL    HW121140   0.755   6.345   5.495
 6747SOL    HW221141   0.816   6.288   5.355
 6748SOL     OW21142   2.241   0.685   4.766
 6748SOL    HW121143   2.341   0.683   4.772
 6748SOL    HW221144   2.203   0.709   4.856
 6749SOL     OW21145   4.220   4.893   2.036
 6749SOL    HW121146   4.304   4.948   2.038
 6749SOL    HW221147   4.168   4.909   2.120
 6750SOL     OW21148   3.391   0.623   5.636
 6750SOL    HW121149   3.411   0.595   5.730
 6750SOL    HW221150   3.459   0.689   5.605
 6751SOL     OW21151   4.390   0.384   4.962
 6751SOL    HW121152   4.361   0.393   5.058
 6751SOL    HW221153   4.475   0.434   4.948
 6752SOL     OW21154   2.149   4.648   2.728
 6752SOL    HW121155   2.202   4.565   2.714
 6752SOL    HW221156   2.208   4.728   2.717
 6753SOL     OW21157   3.728   3.407   6.632
 6753SOL    HW121158   3.696   3.426   6.539
 6753SOL    HW221159   3.774   3.488   6.668
 6754SOL     OW21160   6.219   1.283   0.322
 6754SOL    HW121161   6.127   1.259   0.355
 6754SOL    HW221162   6.231   1.382   0.325
 6755SOL     OW21163   3.046   6.026   5.912
 6755SOL    HW121164   3.145   6.035   5.904
 6755SOL    HW221165   3.014   5.955   5.849
 6756SOL     OW21166   3.654   3.471   6.369
 6756SOL    HW121167   3.618   3.557   6.406
 6756SOL    HW221168   3.682   3.484   6.274
 6757SOL     OW21169   4.075   0.054   1.630
 6757SOL    HW121170   4.132   7.003   1.671
 6757SOL    HW221171   3.991   0.014   1.595
 6758SOL     OW21172   5.149   3.128   3.101
 6758SOL    HW121173   5.185   3.041   3.065
 6758SOL    HW221174   5.224   3.180   3.143
 6759SOL     OW21175   0.845   1.613   2.671
 6759SOL    HW121176   0.849   1.514   2.688
 6759SOL    HW221177   0.936   1.652   2.681
 6760SOL     OW21178   5.199   2.486   4.910
 6760SOL    HW121179   5.299   2.492   4.917
 6760SOL    HW221180   5.160   2.578   4.918
 6761SOL     OW21181   3.640   1.654   4.971
 6761SOL    HW121182   3.623   1.612   4.882
 6761SOL    HW221183   3.585   1.737   4.980
 6762SOL     OW21184   6.224   5.059   4.673
 6762SOL    HW121185   6.244   4.969   4.712
 6762SOL    HW221186   6.281   5.073   4.592
 6763SOL     OW21187   5.635   6.979   3.867
 6763SOL    HW121188   5.552   6.963   3.921
 6763SOL    HW221189   5.715   6.953   3.921
 6764SOL     OW21190   0.494   5.166   1.723
 6764SOL    HW121191   0.439   5.083   1.729
 6764SOL    HW221192   0.434   5.246   1.716
 6765SOL     OW21193   0.116   3.411   2.317
 6765SOL    HW121194   0.076   3.489   2.269
 6765SOL    HW221195   0.182   3.365   2.257
 6766SOL     OW21196   6.158   0.242   1.587
 6766SOL    HW121197   6.085   0.253   1.654
 6766SOL    HW221198   6.129   0.179   1.515
 6767SOL     OW21199   3.255   0.067   1.403
 6767SOL    HW121200   3.176   0.091   1.459
 6767SOL    HW221201   3.226   0.054   1.308
 6768SOL     OW21202   1.847   0.057   6.662
 6768SOL    HW121203   1.925   7.016   6.679
 6768SOL    HW221204   1.839   0.122   6.738
 6769SOL     OW21205   4.374   2.722   1.537
 6769SOL    HW121206   4.341   2.811   1.566
 6769SOL    HW221207   4.352   2.708   1.441
 6770SOL     OW21208   0.370   1.309   1.472
 6770SOL    HW121209   0.280   1.280   1.439
 6770SOL    HW221210   0.423   1.348   1.397
 6771SOL     OW21211   4.680   1.908   3.123
 6771SOL    HW121212   4.754   1.872   3.179
 6771SOL    HW221213   4.716   1.938   3.035
 6772SOL     OW21214   3.857   1.791   3.903
 6772SOL    HW121215   3.781   1.792   3.968
 6772SOL    HW221216   3.883   1.885   3.879
 6773SOL     OW21217   0.440   3.647   1.079
 6773SOL    HW121218   0.435   3.688   1.170
 6773SOL    HW221219   0.505   3.698   1.023
 6774SOL     OW21220   0.822   2.866   6.539
 6774SOL    HW121221   0.777   2.800   6.600
 6774SOL    HW221222   0.764   2.881   6.459
 6775SOL     OW21223   1.447   4.664   0.008
 6775SOL    HW121224   1.501   4.663   6.943
 6775SOL    HW221225   1.430   4.759   0.035
 6776SOL     OW21226   6.237   5.355   6.504
 6776SOL    HW121227   6.318   5.408   6.529
 6776SOL    HW221228   6.241   5.331   6.407
 6777SOL     OW21229   4.734   5.842   0.064
 6777SOL    HW121230   4.768   5.771   0.126
 6777SOL    HW221231   4.637   5.825   0.044
 6778SOL     OW21232   6.924   5.465   3.460
 6778SOL    HW121233   6.956   5.521   3.383
 6778SOL    HW221234   6.992   5.396   3.482
 6779SOL     OW21235   6.461   3.854   6.404
 6779SOL    HW121236   6.407   3.863   6.488
 6779SOL    HW221237   6.481   3.757   6.389
 6780SOL     OW21238   0.748   2.454   2.176
 6780SOL    HW121239   0.802   2.539   2.170
 6780SOL    HW221240   0.773   2.405   2.260
 6781SOL     OW21241   6.086   5.054   5.496
 6781SOL    HW121242   6.158   5.000   5.452
 6781SOL    HW221243   6.006   4.996   5.512
 6782SOL     OW21244   6.101   1.331   2.649
 6782SOL    HW121245   6.196   1.363   2.654
 6782SOL    HW221246   6.047   1.397   2.598
 6783SOL     OW21247   0.343   6.408   6.264
 6783SOL    HW121248   0.260   6.352   6.264
 6783SOL    HW221249   0.418   6.357   6.306
 6784SOL     OW21250   3.484   2.973   0.058
 6784SOL    HW121251   3.542   3.054   0.066
 6784SOL    HW221252   3.402   2.985   0.115
 6785SOL     OW21253   5.851   5.669   1.903
 6785SOL    HW121254   5.760   5.631   1.921
 6785SOL    HW221255   5.899   5.611   1.837
 6786SOL     OW21256   1.550   3.650   5.871
 6786SOL    HW121257   1.569   3.651   5.773
 6786SOL    HW221258   1.625   3.694   5.920
 6787SOL     OW21259   1.003   3.273   1.643
 6787SOL    HW121260   0.995   3.300   1.738
 6787SOL    HW221261   0.979   3.177   1.633
 6788SOL     OW21262   2.707   5.060   1.111
 6788SOL    HW121263   2.807   5.055   1.119
 6788SOL    HW221264   2.679   5.025   1.021
 6789SOL     OW21265   0.535   5.508   3.420
 6789SOL    HW121266   0.633   5.488   3.410
 6789SOL    HW221267   0.512   5.516   3.517
 6790SOL     OW21268   1.263   2.774   0.606
 6790SOL    HW121269   1.325   2.846   0.637
 6790SOL    HW221270   1.190   2.814   0.551
 6791SOL     OW21271   3.746   3.741   6.466
 6791SOL    HW121272   3.757   3.820   6.526
 6791SOL    HW221273   3.678   3.762   6.396
 6792SOL     OW21274   0.757   4.887   0.276
 6792SOL    HW121275   0.710   4.805   0.310
 6792SOL    HW221276   0.712   4.969   0.312
 6793SOL     OW21277   5.736   1.416   1.175
 6793SOL    HW121278   5.797   1.469   1.235
 6793SOL    HW221279   5.783   1.395   1.090
 6794SOL     OW21280   4.336   1.445   4.476
 6794SOL    HW121281   4.403   1.469   4.547
 6794SOL    HW221282   4.335   1.345   4.464
 6795SOL     OW21283   2.850   5.971   6.978
 6795SOL    HW121284   2.830   6.050   0.016
 6795SOL    HW221285   2.853   6.000   6.882
 6796SOL     OW21286   4.153   2.219   2.651
 6796SOL    HW121287   4.206   2.172   2.722
 6796SOL    HW221288   4.058   2.230   2.682
 6797SOL     OW21289   6.882   2.600   1.877
 6797SOL    HW121290   6.927   2.524   1.924
 6797SOL    HW221291   6.872   2.578   1.780
 6798SOL     OW21292   6.369   0.164   1.965
 6798SOL    HW121293   6.276   0.154   1.932
 6798SOL    HW221294   6.373   0.243   2.028
 6799SOL     OW21295   5.597   5.836   1.615
 6799SOL    HW121296   5.575   5.739   1.625
 6799SOL    HW221297   5.579   5.883   1.702
 6800SOL     OW21298   3.292   4.011   0.240
 6800SOL    HW121299   3.342   3.948   0.181
 6800SOL    HW221300   3.200   3.975   0.257
 6801SOL     OW21301   1.288   1.548   3.019
 6801SOL    HW121302   1.347   1.571   2.942
 6801SOL    HW221303   1.192   1.562   2.992
 6802SOL     OW21304   2.677   5.000   2.843
 6802SOL    HW121305   2.686   4.909   2.883
 6802SOL    HW221306   2.634   5.062   2.909
 6803SOL     OW21307   5.017   2.122   0.237
 6803SOL    HW121308   4.991   2.212   0.272
 6803SOL    HW221309   5.101   2.131   0.183
 6804SOL     OW21310   1.095   0.131   4.008
 6804SOL    HW121311   1.078   0.213   3.953
 6804SOL    HW221312   1.189   0.101   3.995
 6805SOL     OW21313   5.055   0.992   4.848
 6805SOL    HW121314   4.990   0.973   4.775
 6805SOL    HW221315   5.035   1.081   4.889
 6806SOL     OW21316   5.385   6.729   5.462
 6806SOL    HW121317   5.408   6.822   5.436
 6806SOL    HW221318   5.409   6.713   5.557
 6807SOL     OW21319   3.619   3.208   0.077
 6807SOL    HW121320   3.638   3.216   6.999
 6807SOL    HW221321   3.530   3.250   0.097
 6808SOL     OW21322   1.581   2.842   4.354
 6808SOL    HW121323   1.650   2.787   4.306
 6808SOL    HW221324   1.626   2.918   4.400
 6809SOL     OW21325   2.327   4.079   6.853
 6809SOL    HW121326   2.380   4.100   6.935
 6809SOL    HW221327   2.382   4.024   6.790
 6810SOL     OW21328   5.370   1.723   2.768
 6810SOL    HW121329   5.344   1.689   2.678
 6810SOL    HW221330   5.445   1.789   2.758
 6811SOL     OW21331   5.106   5.678   1.779
 6811SOL    HW121332   5.008   5.661   1.793
 6811SOL    HW221333   5.135   5.755   1.836
 6812SOL     OW21334   3.792   2.927   2.435
 6812SOL    HW121335   3.769   2.930   2.337
 6812SOL    HW221336   3.717   2.883   2.485
 6813SOL     OW21337   4.699   3.778   1.362
 6813SOL    HW121338   4.629   3.733   1.307
 6813SOL    HW221339   4.742   3.711   1.422
 6814SOL     OW21340   2.624   3.145   0.227
 6814SOL    HW121341   2.651   3.225   0.281
 6814SOL    HW221342   2.635   3.165   0.130
 6815SOL     OW21343   1.964   6.855   1.780
 6815SOL    HW121344   1.978   6.763   1.816
 6815SOL    HW221345   1.950   6.919   1.856
 6816SOL     OW21346   6.477   4.068   1.440
 6816SOL    HW121347   6.568   4.079   1.480
 6816SOL    HW221348   6.483   4.078   1.341
 6817SOL     OW21349   0.506   2.204   6.063
 6817SOL    HW121350   0.555   2.288   6.086
 6817SOL    HW221351   0.409   2.224   6.050
 6818SOL     OW21352   3.264   5.818   2.054
 6818SOL    HW121353   3.258   5.895   2.116
 6818SOL    HW221354   3.308   5.741   2.100
 6819SOL     OW21355   3.082   0.859   3.499
 6819SOL    HW121356   3.049   0.878   3.592
 6819SOL    HW221357   3.159   0.796   3.504
 6820SOL     OW21358   1.536   4.812   3.797
 6820SOL    HW121359   1.546   4.911   3.795
 6820SOL    HW221360   1.608   4.770   3.742
 6821SOL     OW21361   2.541   2.477   4.138
 6821SOL    HW121362   2.593   2.478   4.053
 6821SOL    HW221363   2.605   2.481   4.216
 6822SOL     OW21364   5.119   2.259   5.568
 6822SOL    HW121365   5.031   2.293   5.538
 6822SOL    HW221366   5.152   2.189   5.504
 6823SOL     OW21367   3.617   3.945   2.497
 6823SOL    HW121368   3.537   4.004   2.503
 6823SOL    HW221369   3.618   3.882   2.575
 6824SOL     OW21370   1.431   4.898   6.285
 6824SOL    HW121371   1.400   4.987   6.318
 6824SOL    HW221372   1.351   4.844   6.257
 6825SOL     OW21373   5.302   0.216   4.139
 6825SOL    HW121374   5.353   0.293   4.101
 6825SOL    HW221375   5.204   0.230   4.124
 6826SOL     OW21376   0.875   2.409   2.669
 6826SOL    HW121377   0.961   2.414   2.720
 6826SOL    HW221378   0.835   2.500   2.663
 6827SOL     OW21379   5.995   6.407   4.941
 6827SOL    HW121380   6.000   6.411   5.041
 6827SOL    HW221381   5.914   6.456   4.909
 6828SOL     OW21382   1.879   1.816   1.388
 6828SOL    HW121383   1.916   1.741   1.333
 6828SOL    HW221384   1.943   1.837   1.462
 6829SOL     OW21385   5.489   5.016   3.831
 6829SOL    HW121386   5.585   5.032   3.810
 6829SOL    HW221387   5.437   5.100   3.816
 6830SOL     OW21388   5.105   2.161   4.433
 6830SOL    HW121389   5.035   2.096   4.460
 6830SOL    HW221390   5.184   2.113   4.394
 6831SOL     OW21391   0.176   0.974   5.788
 6831SOL    HW121392   0.172   0.926   5.875
 6831SOL    HW221393   0.224   0.917   5.721
 6832SOL     OW21394   2.964   4.948   1.878
 6832SOL    HW121395   2.940   4.880   1.809
 6832SOL    HW221396   3.056   4.931   1.912
 6833SOL     OW21397   3.995   5.470   0.372
 6833SOL    HW121398   3.958   5.380   0.351
 6833SOL    HW221399   3.921   5.537   0.375
 6834SOL     OW21400   3.893   5.687   2.313
 6834SOL    HW121401   3.969   5.747   2.337
 6834SOL    HW221402   3.923   5.592   2.316
 6835SOL     OW21403   3.726   6.647   4.764
 6835SOL    HW121404   3.811   6.596   4.772
 6835SOL    HW221405   3.648   6.587   4.780
 6836SOL     OW21406   3.074   5.852   6.411
 6836SOL    HW121407   3.157   5.869   6.464
 6836SOL    HW221408   3.085   5.888   6.318
 6837SOL     OW21409   0.513   2.881   2.610
 6837SOL    HW121410   0.559   2.944   2.547
 6837SOL    HW221411   0.415   2.900   2.611
 6838SOL     OW21412   2.982   1.766   0.568
 6838SOL    HW121413   3.035   1.820   0.503
 6838SOL    HW221414   2.886   1.766   0.541
 6839SOL     OW21415   4.800   0.657   1.354
 6839SOL    HW121416   4.790   0.752   1.386
 6839SOL    HW221417   4.719   0.631   1.301
 6840SOL     OW21418   0.800   1.226   6.309
 6840SOL    HW121419   0.772   1.135   6.339
 6840SOL    HW221420   0.797   1.231   6.209
 6841SOL     OW21421   0.045   3.319   6.327
 6841SOL    HW121422   0.015   3.409   6.359
 6841SOL    HW221423   0.034   3.314   6.227
 6842SOL     OW21424   2.337   4.458   3.073
 6842SOL    HW121425   2.359   4.363   3.052
 6842SOL    HW221426   2.396   4.518   3.019
 6843SOL     OW21427   3.904   6.620   0.293
 6843SOL    HW121428   3.900   6.556   0.370
 6843SOL    HW221429   3.823   6.608   0.236
 6844SOL     OW21430   5.016   0.640   6.228
 6844SOL    HW121431   4.920   0.666   6.236
 6844SOL    HW221432   5.070   0.718   6.196
 6845SOL     OW21433   4.667   2.245   2.610
 6845SOL    HW121434   4.608   2.209   2.538
 6845SOL    HW221435   4.620   2.239   2.698
 6846SOL     OW21436   2.457   3.794   0.234
 6846SOL    HW121437   2.401   3.793   0.152
 6846SOL    HW221438   2.549   3.827   0.212
 6847SOL     OW21439   0.151   2.906   4.423
 6847SOL    HW121440   0.158   2.907   4.523
 6847SOL    HW221441   0.104   2.822   4.394
 6848SOL     OW21442   0.122   4.864   3.139
 6848SOL    HW121443   0.122   4.927   3.062
 6848SOL    HW221444   0.055   4.792   3.123
 6849SOL     OW21445   2.925   3.776   5.869
 6849SOL    HW121446   2.951   3.688   5.829
 6849SOL    HW221447   2.856   3.820   5.811
 6850SOL     OW21448   4.702   0.484   4.300
 6850SOL    HW121449   4.783   0.530   4.336
 6850SOL    HW221450   4.648   0.550   4.247
 6851SOL     OW21451   2.133   3.345   3.748
 6851SOL    HW121452   2.088   3.325   3.835
 6851SOL    HW221453   2.149   3.260   3.698
 6852SOL     OW21454   3.805   4.613   0.135
 6852SOL    HW121455   3.842   4.543   0.197
 6852SOL    HW221456   3.724   4.654   0.176
 6853SOL     OW21457   4.889   4.332   6.587
 6853SOL    HW121458   4.816   4.358   6.523
 6853SOL    HW221459   4.888   4.233   6.600
 6854SOL     OW21460   5.094   6.180   6.166
 6854SOL    HW121461   5.097   6.092   6.119
 6854SOL    HW221462   5.162   6.180   6.240
 6855SOL     OW21463   4.396   5.039   3.176
 6855SOL    HW121464   4.321   5.097   3.143
 6855SOL    HW221465   4.478   5.095   3.189
 6856SOL     OW21466   0.435   2.273   6.482
 6856SOL    HW121467   0.400   2.180   6.466
 6856SOL    HW221468   0.532   2.276   6.461
 6857SOL     OW21469   0.778   4.086   5.701
 6857SOL    HW121470   0.683   4.118   5.712
 6857SOL    HW221471   0.783   4.025   5.622
 6858SOL     OW21472   1.923   4.121   2.235
 6858SOL    HW121473   1.914   4.146   2.139
 6858SOL    HW221474   1.915   4.022   2.245
 6859SOL     OW21475   1.808   1.522   2.037
 6859SOL    HW121476   1.800   1.589   2.110
 6859SOL    HW221477   1.728   1.529   1.977
 6860SOL     OW21478   0.528   6.858   1.026
 6860SOL    HW121479   0.445   6.913   1.022
 6860SOL    HW221480   0.590   6.883   0.952
 6861SOL     OW21481   6.346   3.350   6.372
 6861SOL    HW121482   6.336   3.265   6.320
 6861SOL    HW221483   6.432   3.394   6.347
 6862SOL     OW21484   0.668   4.282   4.445
 6862SOL    HW121485   0.694   4.318   4.356
 6862SOL    HW221486   0.747   4.238   4.488
 6863SOL     OW21487   5.407   1.258   5.262
 6863SOL    HW121488   5.386   1.302   5.350
 6863SOL    HW221489   5.365   1.312   5.188
 6864SOL     OW21490   1.364   3.668   6.277
 6864SOL    HW121491   1.379   3.730   6.200
 6864SOL    HW221492   1.451   3.653   6.325
 6865SOL     OW21493   2.640   0.368   3.922
 6865SOL    HW121494   2.732   0.331   3.934
 6865SOL    HW221495   2.598   0.327   3.841
 6866SOL     OW21496   1.232   5.082   0.224
 6866SOL    HW121497   1.326   5.048   0.226
 6866SOL    HW221498   1.170   5.007   0.203
 6867SOL     OW21499   1.807   3.809   6.490
 6867SOL    HW121500   1.838   3.900   6.464
 6867SOL    HW221501   1.855   3.780   6.573
 6868SOL     OW21502   3.129   5.149   3.742
 6868SOL    HW121503   3.229   5.147   3.742
 6868SOL    HW221504   3.097   5.236   3.779
 6869SOL     OW21505   3.131   0.914   5.909
 6869SOL    HW121506   3.210   0.859   5.937
 6869SOL    HW221507   3.133   1.002   5.956
 6870SOL     OW21508   5.860   2.058   0.323
 6870SOL    HW121509   5.949   2.075   0.366
 6870SOL    HW221510   5.815   1.981   0.369
 6871SOL     OW21511   6.765   3.481   2.542
 6871SOL    HW121512   6.776   3.551   2.612
 6871SOL    HW221513   6.745   3.525   2.454
 6872SOL     OW21514   1.737   4.297   1.077
 6872SOL    HW121515   1.791   4.364   1.127
 6872SOL    HW221516   1.748   4.311   0.979
 6873SOL     OW21517   0.672   4.448   2.938
 6873SOL    HW121518   0.718   4.444   3.027
 6873SOL    HW221519   0.601   4.378   2.934
 6874SOL     OW21520   5.047   6.184   2.761
 6874SOL    HW121521   5.004   6.104   2.802
 6874SOL    HW221522   5.014   6.195   2.667
 6875SOL     OW21523   2.309   1.191   0.303
 6875SOL    HW121524   2.262   1.185   0.215
 6875SOL    HW221525   2.395   1.140   0.299
 6876SOL     OW21526   5.284   5.406   3.624
 6876SOL    HW121527   5.357   5.399   3.555
 6876SOL    HW221528   5.203   5.448   3.582
 6877SOL     OW21529   0.576   3.516   1.791
 6877SOL    HW121530   0.587   3.417   1.799
 6877SOL    HW221531   0.659   3.555   1.752
 6878SOL     OW21532   2.159   0.892   4.594
 6878SOL    HW121533   2.092   0.855   4.530
 6878SOL    HW221534   2.203   0.817   4.643
 6879SOL     OW21535   1.285   1.283   1.258
 6879SOL    HW121536   1.207   1.321   1.308
 6879SOL    HW221537   1.252   1.229   1.181
 6880SOL     OW21538   1.475   5.636   0.399
 6880SOL    HW121539   1.403   5.651   0.332
 6880SOL    HW221540   1.445   5.670   0.488
 6881SOL     OW21541   0.042   2.885   0.288
 6881SOL    HW121542   0.030   2.875   0.189
 6881SOL    HW221543   0.086   2.802   0.324
 6882SOL     OW21544   2.700   6.277   6.916
 6882SOL    HW121545   2.608   6.241   6.931
 6882SOL    HW221546   2.722   6.344   6.987
 6883SOL     OW21547   5.069   0.352   1.337
 6883SOL    HW121548   5.028   0.399   1.258
 6883SOL    HW221549   4.996   0.311   1.392
 6884SOL     OW21550   1.662   4.170   3.364
 6884SOL    HW121551   1.697   4.233   3.434
 6884SOL    HW221552   1.697   4.198   3.275
 6885SOL     OW21553   6.126   4.581   4.972
 6885SOL    HW121554   6.082   4.619   4.891
 6885SOL    HW221555   6.070   4.508   5.010
 6886SOL     OW21556   5.136   2.778   0.400
 6886SOL    HW121557   5.056   2.733   0.439
 6886SOL    HW221558   5.131   2.774   0.300
 6887SOL     OW21559   5.550   5.882   5.788
 6887SOL    HW121560   5.569   5.813   5.858
 6887SOL    HW221561   5.504   5.960   5.829
 6888SOL     OW21562   6.124   3.986   6.731
 6888SOL    HW121563   6.111   3.932   6.814
 6888SOL    HW221564   6.220   3.983   6.703
 6889SOL     OW21565   0.073   2.041   5.974
 6889SOL    HW121566   0.132   2.034   6.054
 6889SOL    HW221567   0.102   2.119   5.918
 6890SOL     OW21568   4.706   4.375   3.466
 6890SOL    HW121569   4.636   4.378   3.395
 6890SOL    HW221570   4.667   4.336   3.550
 6891SOL     OW21571   1.435   1.514   1.324
 6891SOL    HW121572   1.431   1.575   1.245
 6891SOL    HW221573   1.416   1.420   1.294
 6892SOL     OW21574   2.974   1.109   4.929
 6892SOL    HW121575   2.949   1.190   4.982
 6892SOL    HW221576   3.062   1.124   4.885
 6893SOL     OW21577   5.958   3.372   0.661
 6893SOL    HW121578   6.010   3.385   0.577
 6893SOL    HW221579   5.977   3.447   0.724
 6894SOL     OW21580   6.092   5.021   0.411
 6894SOL    HW121581   6.041   5.042   0.495
 6894SOL    HW221582   6.187   5.051   0.422
 6895SOL     OW21583   1.139   6.318   2.839
 6895SOL    HW121584   1.068   6.266   2.886
 6895SOL    HW221585   1.110   6.413   2.827
 6896SOL     OW21586   4.616   1.256   5.049
 6896SOL    HW121587   4.611   1.159   5.022
 6896SOL    HW221588   4.694   1.299   5.004
 6897SOL     OW21589   4.475   2.563   5.200
 6897SOL    HW121590   4.403   2.502   5.167
 6897SOL    HW221591   4.543   2.577   5.129
 6898SOL     OW21592   1.522   6.649   1.119
 6898SOL    HW121593   1.477   6.562   1.099
 6898SOL    HW221594   1.518   6.666   1.218
 6899SOL     OW21595   6.111   5.881   2.529
 6899SOL    HW121596   6.203   5.909   2.502
 6899SOL    HW221597   6.044   5.934   2.478
 6900SOL     OW21598   6.532   3.516   5.180
 6900SOL    HW121599   6.514   3.419   5.163
 6900SOL    HW221600   6.446   3.566   5.188
 6901SOL     OW21601   5.565   5.073   6.263
 6901SOL    HW121602   5.480   5.025   6.283
 6901SOL    HW221603   5.641   5.027   6.308
 6902SOL     OW21604   0.323   5.663   5.888
 6902SOL    HW121605   0.324   5.594   5.816
 6902SOL    HW221606   0.238   5.657   5.940
 6903SOL     OW21607   1.179   6.036   4.411
 6903SOL    HW121608   1.250   6.001   4.350
 6903SOL    HW221609   1.175   5.980   4.494
 6904SOL     OW21610   0.053   0.237   5.823
 6904SOL    HW121611   0.093   0.229   5.915
 6904SOL    HW221612   0.099   0.174   5.761
 6905SOL     OW21613   5.162   6.117   5.718
 6905SOL    HW121614   5.196   6.176   5.645
 6905SOL    HW221615   5.102   6.046   5.680
 6906SOL     OW21616   3.010   0.908   3.774
 6906SOL    HW121617   3.101   0.888   3.811
 6906SOL    HW221618   2.946   0.923   3.850
 6907SOL     OW21619   6.182   1.842   0.603
 6907SOL    HW121620   6.100   1.899   0.597
 6907SOL    HW221621   6.156   1.748   0.627
 6908SOL     OW21622   3.171   5.174   0.616
 6908SOL    HW121623   3.266   5.208   0.617
 6908SOL    HW221624   3.109   5.251   0.610
 6909SOL     OW21625   5.616   4.920   2.390
 6909SOL    HW121626   5.714   4.936   2.404
 6909SOL    HW221627   5.600   4.892   2.295
 6910SOL     OW21628   0.786   2.115   2.822
 6910SOL    HW121629   0.744   2.026   2.805
 6910SOL    HW221630   0.731   2.187   2.779
 6911SOL     OW21631   1.972   6.074   5.646
 6911SOL    HW121632   1.958   6.083   5.547
 6911SOL    HW221633   2.055   6.122   5.672
 6912SOL     OW21634   2.758   4.099   0.034
 6912SOL    HW121635   2.720   4.096   6.962
 6912SOL    HW221636   2.827   4.172   0.039
 6913SOL     OW21637   4.449   5.770   5.792
 6913SOL    HW121638   4.446   5.837   5.718
 6913SOL    HW221639   4.465   5.816   5.879
 6914SOL     OW21640   5.610   2.348   1.892
 6914SOL    HW121641   5.633   2.375   1.985
 6914SOL    HW221642   5.642   2.255   1.875
 6915SOL     OW21643   0.018   3.454   3.743
 6915SOL    HW121644   0.065   3.422   3.825
 6915SOL    HW221645   0.016   3.554   3.741
 6916SOL     OW21646   4.681   6.319   6.096
 6916SOL    HW121647   4.726   6.258   6.032
 6916SOL    HW221648   4.685   6.413   6.062
 6917SOL     OW21649   3.585   6.595   2.098
 6917SOL    HW121650   3.617   6.522   2.157
 6917SOL    HW221651   3.537   6.663   2.153
 6918SOL     OW21652   2.137   3.567   0.389
 6918SOL    HW121653   2.196   3.629   0.441
 6918SOL    HW221654   2.105   3.493   0.448
 6919SOL     OW21655   6.211   6.227   3.631
 6919SOL    HW121656   6.247   6.224   3.724
 6919SOL    HW221657   6.260   6.296   3.578
 6920SOL     OW21658   6.065   1.515   5.879
 6920SOL    HW121659   6.115   1.601   5.887
 6920SOL    HW221660   6.119   1.449   5.828
 6921SOL     OW21661   4.313   0.295   4.543
 6921SOL    HW121662   4.337   0.391   4.526
 6921SOL    HW221663   4.378   0.256   4.608
 6922SOL     OW21664   1.973   5.239   6.698
 6922SOL    HW121665   1.958   5.150   6.740
 6922SOL    HW221666   2.066   5.271   6.719
 6923SOL     OW21667   5.508   0.137   2.705
 6923SOL    HW121668   5.596   0.136   2.752
 6923SOL    HW221669   5.518   0.099   2.613
 6924SOL     OW21670   3.281   5.629   1.774
 6924SOL    HW121671   3.250   5.709   1.826
 6924SOL    HW221672   3.254   5.639   1.679
 6925SOL     OW21673   5.881   6.738   4.895
 6925SOL    HW121674   5.809   6.779   4.951
 6925SOL    HW221675   5.854   6.645   4.869
 6926SOL     OW21676   3.188   2.398   0.217
 6926SOL    HW121677   3.138   2.391   0.304
 6926SOL    HW221678   3.205   2.307   0.180
 6927SOL     OW21679   4.325   0.179   0.524
 6927SOL    HW121680   4.283   0.257   0.477
 6927SOL    HW221681   4.294   0.094   0.480
 6928SOL     OW21682   3.480   5.293   6.916
 6928SOL    HW121683   3.553   5.259   6.857
 6928SOL    HW221684   3.511   5.377   6.962
 6929SOL     OW21685   4.991   5.154   2.474
 6929SOL    HW121686   5.000   5.112   2.564
 6929SOL    HW221687   4.906   5.207   2.471
 6930SOL     OW21688   0.991   6.909   1.867
 6930SOL    HW121689   1.051   6.947   1.938
 6930SOL    HW221690   0.986   6.810   1.877
 6931SOL     OW21691   3.225   3.356   1.046
 6931SOL    HW121692   3.207   3.454   1.034
 6931SOL    HW221693   3.141   3.310   1.075
 6932SOL     OW21694   3.603   0.165   6.120
 6932SOL    HW121695   3.652   0.186   6.035
 6932SOL    HW221696   3.626   0.233   6.189
 6933SOL     OW21697   3.090   5.239   6.166
 6933SOL    HW121698   3.162   5.287   6.216
 6933SOL    HW221699   3.018   5.304   6.142
 6934SOL     OW21700   4.825   5.356   6.869
 6934SOL    HW121701   4.849   5.280   6.809
 6934SOL    HW221702   4.739   5.335   6.916
 6935SOL     OW21703   4.239   6.094   2.040
 6935SOL    HW121704   4.177   6.023   2.072
 6935SOL    HW221705   4.222   6.112   1.943
 6936SOL     OW21706   0.775   1.738   5.817
 6936SOL    HW121707   0.854   1.734   5.756
 6936SOL    HW221708   0.799   1.697   5.905
 6937SOL     OW21709   5.891   5.594   0.274
 6937SOL    HW121710   5.881   5.694   0.271
 6937SOL    HW221711   5.985   5.571   0.300
 6938SOL     OW21712   2.719   1.413   4.913
 6938SOL    HW121713   2.672   1.326   4.897
 6938SOL    HW221714   2.714   1.468   4.829
 6939SOL     OW21715   5.483   3.522   3.944
 6939SOL    HW121716   5.462   3.446   4.006
 6939SOL    HW221717   5.500   3.487   3.852
 6940SOL     OW21718   2.862   6.409   0.889
 6940SOL    HW121719   2.776   6.359   0.899
 6940SOL    HW221720   2.937   6.344   0.880
 6941SOL     OW21721   3.763   3.639   2.637
 6941SOL    HW121722   3.842   3.686   2.675
 6941SOL    HW221723   3.679   3.688   2.661
 6942SOL     OW21724   6.057   5.236   2.644
 6942SOL    HW121725   6.140   5.225   2.699
 6942SOL    HW221726   5.994   5.160   2.662
 6943SOL     OW21727   4.871   4.757   6.718
 6943SOL    HW121728   4.918   4.785   6.802
 6943SOL    HW221729   4.909   4.806   6.640
 6944SOL     OW21730   1.178   4.469   5.280
 6944SOL    HW121731   1.153   4.566   5.274
 6944SOL    HW221732   1.126   4.425   5.352
 6945SOL     OW21733   5.579   1.630   0.930
 6945SOL    HW121734   5.528   1.711   0.904
 6945SOL    HW221735   5.560   1.608   1.026
 6946SOL     OW21736   5.314   6.152   2.712
 6946SOL    HW121737   5.371   6.214   2.767
 6946SOL    HW221738   5.218   6.164   2.737
 6947SOL     OW21739   6.509   4.185   5.305
 6947SOL    HW121740   6.418   4.201   5.266
 6947SOL    HW221741   6.577   4.184   5.232
 6948SOL     OW21742   0.064   4.465   6.783
 6948SOL    HW121743   0.110   4.434   6.699
 6948SOL    HW221744   6.985   4.465   6.769
 6949SOL     OW21745   2.586   1.384   2.908
 6949SOL    HW121746   2.490   1.410   2.901
 6949SOL    HW221747   2.599   1.328   2.990
 6950SOL     OW21748   0.874   0.834   4.240
 6950SOL    HW121749   0.885   0.868   4.333
 6950SOL    HW221750   0.941   0.762   4.223
 6951SOL     OW21751   1.141   3.937   6.757
 6951SOL    HW121752   1.146   4.019   6.700
 6951SOL    HW221753   1.054   3.891   6.742
 6952SOL     OW21754   5.244   5.770   4.093
 6952SOL    HW121755   5.332   5.730   4.068
 6952SOL    HW221756   5.256   5.868   4.113
 6953SOL     OW21757   6.272   1.368   1.307
 6953SOL    HW121758   6.343   1.322   1.360
 6953SOL    HW221759   6.308   1.453   1.269
 6954SOL     OW21760   0.058   4.604   6.499
 6954SOL    HW121761   0.097   4.512   6.503
 6954SOL    HW221762   0.047   4.640   6.591
 6955SOL     OW21763   4.886   5.943   2.830
 6955SOL    HW121764   4.929   5.886   2.901
 6955SOL    HW221765   4.793   5.967   2.857
 6956SOL     OW21766   5.344   5.002   2.317
 6956SOL    HW121767   5.429   4.963   2.279
 6956SOL    HW221768   5.299   4.934   2.374
 6957SOL     OW21769   6.198   5.190   5.061
 6957SOL    HW121770   6.172   5.252   5.135
 6957SOL    HW221771   6.282   5.143   5.084
 6958SOL     OW21772   3.578   3.259   2.798
 6958SOL    HW121773   3.507   3.260   2.728
 6958SOL    HW221774   3.559   3.186   2.864
 6959SOL     OW21775   1.661   3.851   2.932
 6959SOL    HW121776   1.715   3.935   2.930
 6959SOL    HW221777   1.714   3.778   2.975
 6960SOL     OW21778   4.332   4.685   0.274
 6960SOL    HW121779   4.282   4.700   0.360
 6960SOL    HW221780   4.395   4.608   0.285
 6961SOL     OW21781   4.720   2.581   5.417
 6961SOL    HW121782   4.739   2.674   5.386
 6961SOL    HW221783   4.636   2.548   5.374
 6962SOL     OW21784   2.661   6.291   0.277
 6962SOL    HW121785   2.663   6.219   0.347
 6962SOL    HW221786   2.578   6.345   0.287
 6963SOL     OW21787   6.644   6.156   6.546
 6963SOL    HW121788   6.702   6.125   6.622
 6963SOL    HW221789   6.648   6.256   6.540
 6964SOL     OW21790   2.073   1.178   5.346
 6964SOL    HW121791   2.124   1.093   5.336
 6964SOL    HW221792   2.026   1.199   5.260
 6965SOL     OW21793   1.524   1.360   6.860
 6965SOL    HW121794   1.517   1.436   6.795
 6965SOL    HW221795   1.432   1.326   6.881
 6966SOL     OW21796   0.819   6.520   1.169
 6966SOL    HW121797   0.812   6.537   1.267
 6966SOL    HW221798   0.894   6.456   1.152
 6967SOL     OW21799   4.241   1.046   6.701
 6967SOL    HW121800   4.331   1.078   6.731
 6967SOL    HW221801   4.189   1.122   6.663
 6968SOL     OW21802   3.701   0.434   2.856
 6968SOL    HW121803   3.714   0.493   2.936
 6968SOL    HW221804   3.756   0.351   2.866
 6969SOL     OW21805   2.130   2.427   1.961
 6969SOL    HW121806   2.218   2.474   1.948
 6969SOL    HW221807   2.055   2.493   1.948
 6970SOL     OW21808   3.740   5.186   5.561
 6970SOL    HW121809   3.815   5.125   5.585
 6970SOL    HW221810   3.774   5.259   5.501
 6971SOL     OW21811   6.218   4.418   0.175
 6971SOL    HW121812   6.192   4.407   0.271
 6971SOL    HW221813   6.168   4.352   0.119
 6972SOL     OW21814   5.632   4.124   1.678
 6972SOL    HW121815   5.623   4.042   1.735
 6972SOL    HW221816   5.610   4.205   1.732
 6973SOL     OW21817   1.338   1.613   2.468
 6973SOL    HW121818   1.425   1.573   2.441
 6973SOL    HW221819   1.275   1.540   2.496
 6974SOL     OW21820   4.086   3.417   3.382
 6974SOL    HW121821   4.087   3.477   3.462
 6974SOL    HW221822   4.072   3.323   3.411
 6975SOL     OW21823   3.094   5.699   4.457
 6975SOL    HW121824   3.159   5.624   4.449
 6975SOL    HW221825   3.140   5.779   4.495
 6976SOL     OW21826   4.593   4.441   5.796
 6976SOL    HW121827   4.689   4.469   5.797
 6976SOL    HW221828   4.563   4.431   5.701
 6977SOL     OW21829   4.987   4.761   1.947
 6977SOL    HW121830   4.915   4.704   1.984
 6977SOL    HW221831   5.061   4.770   2.014
 6978SOL     OW21832   0.282   3.593   0.662
 6978SOL    HW121833   0.355   3.543   0.709
 6978SOL    HW221834   0.208   3.531   0.639
 6979SOL     OW21835   1.090   3.536   2.871
 6979SOL    HW121836   1.157   3.496   2.809
 6979SOL    HW221837   1.030   3.463   2.906
 6980SOL     OW21838   2.695   4.986   3.522
 6980SOL    HW121839   2.719   5.011   3.616
 6980SOL    HW221840   2.673   4.888   3.518
 6981SOL     OW21841   4.690   3.081   6.727
 6981SOL    HW121842   4.768   3.080   6.789
 6981SOL    HW221843   4.637   3.165   6.741
 6982SOL     OW21844   0.490   1.040   2.060
 6982SOL    HW121845   0.488   1.087   1.972
 6982SOL    HW221846   0.487   1.108   2.133
 6983SOL     OW21847   6.368   0.406   4.691
 6983SOL    HW121848   6.313   0.482   4.727
 6983SOL    HW221849   6.460   0.409   4.730
 6984SOL     OW21850   1.411   3.015   2.956
 6984SOL    HW121851   1.374   2.974   3.040
 6984SOL    HW221852   1.496   3.063   2.978
 6985SOL     OW21853   5.187   2.942   6.717
 6985SOL    HW121854   5.257   2.871   6.706
 6985SOL    HW221855   5.191   3.004   6.638
 6986SOL     OW21856   4.728   4.889   5.407
 6986SOL    HW121857   4.790   4.849   5.474
 6986SOL    HW221858   4.780   4.943   5.341
 6987SOL     OW21859   7.020   1.200   6.533
 6987SOL    HW121860   6.946   1.160   6.589
 6987SOL    HW221861   0.050   1.267   6.587
 6988SOL     OW21862   2.398   1.455   6.432
 6988SOL    HW121863   2.386   1.394   6.354
 6988SOL    HW221864   2.416   1.548   6.400
 6989SOL     OW21865   0.990   3.558   2.563
 6989SOL    HW121866   1.085   3.583   2.544
 6989SOL    HW221867   0.929   3.612   2.505
 6990SOL     OW21868   4.278   3.674   6.882
 6990SOL    HW121869   4.266   3.667   6.783
 6990SOL    HW221870   4.270   3.583   6.923
 6991SOL     OW21871   5.734   3.420   2.870
 6991SOL    HW121872   5.686   3.491   2.819
 6991SOL    HW221873   5.691   3.331   2.852
 6992SOL     OW21874   0.781   5.347   0.117
 6992SOL    HW121875   0.727   5.264   0.115
 6992SOL    HW221876   0.857   5.336   0.181
 6993SOL     OW21877   3.534   2.237   1.653
 6993SOL    HW121878   3.572   2.283   1.734
 6993SOL    HW221879   3.469   2.298   1.608
 6994SOL     OW21880   2.938   1.126   3.206
 6994SOL    HW121881   2.853   1.164   3.242
 6994SOL    HW221882   2.991   1.198   3.162
 6995SOL     OW21883   0.196   3.974   0.866
 6995SOL    HW121884   0.147   3.926   0.939
 6995SOL    HW221885   0.280   4.015   0.903
 6996SOL     OW21886   1.494   0.755   6.543
 6996SOL    HW121887   1.467   0.722   6.633
 6996SOL    HW221888   1.421   0.736   6.477
 6997SOL     OW21889   6.516   6.198   6.259
 6997SOL    HW121890   6.587   6.263   6.284
 6997SOL    HW221891   6.448   6.193   6.332
 6998SOL     OW21892   0.282   0.510   0.197
 6998SOL    HW121893   0.184   0.520   0.215
 6998SOL    HW221894   0.314   0.424   0.235
 6999SOL     OW21895   7.018   2.589   6.966
 6999SOL    HW121896   0.002   2.495   6.998
 6999SOL    HW221897   6.990   2.591   6.870
 7000SOL     OW21898   0.114   5.474   3.715
 7000SOL    HW121899   0.109   5.407   3.641
 7000SOL    HW221900   0.104   5.566   3.677
 7001SOL     OW21901   6.684   1.708   4.815
 7001SOL    HW121902   6.605   1.720   4.755
 7001SOL    HW221903   6.716   1.797   4.846
 7002SOL     OW21904   1.219   5.322   2.605
 7002SOL    HW121905   1.231   5.362   2.514
 7002SOL    HW221906   1.308   5.289   2.639
 7003SOL     OW21907   0.485   4.751   0.207
 7003SOL    HW121908   0.486   4.670   0.264
 7003SOL    HW221909   0.517   4.728   0.115
 7004SOL     OW21910   1.700   7.001   0.202
 7004SOL    HW121911   1.609   0.015   0.226
 7004SOL    HW221912   1.739   6.952   0.280
 7005SOL     OW21913   1.303   5.974   0.265
 7005SOL    HW121914   1.398   5.969   0.296
 7005SOL    HW221915   1.272   6.069   0.270
 7006SOL     OW21916   0.515   0.089   4.019
 7006SOL    HW121917   0.551   0.011   4.069
 7006SOL    HW221918   0.572   0.107   3.938
 7007SOL     OW21919   2.333   0.335   6.104
 7007SOL    HW121920   2.305   0.240   6.095
 7007SOL    HW221921   2.365   0.352   6.197
 7008SOL     OW21922   5.526   3.392   3.690
 7008SOL    HW121923   5.435   3.410   3.655
 7008SOL    HW221924   5.581   3.349   3.618
 7009SOL     OW21925   5.153   5.607   2.471
 7009SOL    HW121926   5.184   5.665   2.547
 7009SOL    HW221927   5.203   5.632   2.388
 7010SOL     OW21928   4.924   2.962   2.560
 7010SOL    HW121929   4.917   3.020   2.479
 7010SOL    HW221930   5.007   2.907   2.555
 7011SOL     OW21931   2.556   6.587   5.969
 7011SOL    HW121932   2.544   6.626   6.061
 7011SOL    HW221933   2.573   6.660   5.903
 7012SOL     OW21934   6.891   2.838   0.478
 7012SOL    HW121935   6.826   2.906   0.511
 7012SOL    HW221936   6.934   2.872   0.394
 7013SOL     OW21937   3.207   2.818   0.447
 7013SOL    HW121938   3.119   2.787   0.483
 7013SOL    HW221939   3.244   2.890   0.505
 7014SOL     OW21940   5.473   3.261   0.747
 7014SOL    HW121941   5.532   3.339   0.724
 7014SOL    HW221942   5.521   3.201   0.811
 7015SOL     OW21943   5.706   6.508   1.752
 7015SOL    HW121944   5.799   6.475   1.773
 7015SOL    HW221945   5.652   6.511   1.836
 7016SOL     OW21946   3.114   4.669   0.946
 7016SOL    HW121947   3.192   4.656   1.007
 7016SOL    HW221948   3.145   4.707   0.859
 7017SOL     OW21949   6.242   4.608   5.787
 7017SOL    HW121950   6.159   4.556   5.808
 7017SOL    HW221951   6.277   4.579   5.698
 7018SOL     OW21952   5.056   3.593   5.140
 7018SOL    HW121953   5.007   3.584   5.226
 7018SOL    HW221954   4.993   3.628   5.070
 7019SOL     OW21955   4.049   5.186   2.118
 7019SOL    HW121956   3.953   5.160   2.123
 7019SOL    HW221957   4.068   5.225   2.028
 7020SOL     OW21958   1.061   2.099   6.002
 7020SOL    HW121959   0.975   2.127   6.045
 7020SOL    HW221960   1.134   2.162   6.029
 7021SOL     OW21961   1.017   2.124   4.928
 7021SOL    HW121962   1.050   2.212   4.961
 7021SOL    HW221963   0.966   2.137   4.843
 7022SOL     OW21964   2.514   3.372   0.937
 7022SOL    HW121965   2.491   3.325   0.851
 7022SOL    HW221966   2.563   3.456   0.916
 7023SOL     OW21967   0.604   1.557   0.974
 7023SOL    HW121968   0.663   1.524   1.047
 7023SOL    HW221969   0.566   1.646   0.998
 7024SOL     OW21970   3.376   4.001   4.528
 7024SOL    HW121971   3.381   3.910   4.488
 7024SOL    HW221972   3.283   4.019   4.559
 7025SOL     OW21973   2.953   0.581   1.142
 7025SOL    HW121974   2.871   0.608   1.091
 7025SOL    HW221975   3.022   0.653   1.134
 7026SOL     OW21976   3.243   2.382   0.928
 7026SOL    HW121977   3.323   2.442   0.930
 7026SOL    HW221978   3.196   2.386   1.017
 7027SOL     OW21979   3.220   4.856   1.961
 7027SOL    HW121980   3.208   4.844   2.059
 7027SOL    HW221981   3.271   4.780   1.923
 7028SOL     OW21982   3.459   0.267   3.428
 7028SOL    HW121983   3.547   0.298   3.391
 7028SOL    HW221984   3.476   0.207   3.506
 7029SOL     OW21985   3.559   3.689   3.548
 7029SOL    HW121986   3.503   3.695   3.465
 7029SOL    HW221987   3.575   3.592   3.569
 7030SOL     OW21988   6.473   0.170   4.540
 7030SOL    HW121989   6.434   0.220   4.617
 7030SOL    HW221990   6.413   0.094   4.516
 7031SOL     OW21991   4.825   6.050   0.463
 7031SOL    HW121992   4.860   5.958   0.475
 7031SOL    HW221993   4.795   6.062   0.368
 7032SOL     OW21994   4.641   4.980   4.202
 7032SOL    HW121995   4.674   5.067   4.240
 7032SOL    HW221996   4.541   4.977   4.211
 7033SOL     OW21997   1.413   1.249   5.655
 7033SOL    HW121998   1.468   1.184   5.706
 7033SOL    HW221999   1.472   1.311   5.604
 7034SOL     OW22000   6.117   1.000   1.976
 7034SOL    HW122001   6.192   0.950   1.933
 7034SOL    HW222002   6.154   1.062   2.046
 7035SOL     OW22003   2.847   0.915   1.366
 7035SOL    HW122004   2.796   0.829   1.361
 7035SOL    HW222005   2.895   0.920   1.454
 7036SOL     OW22006   6.441   1.247   1.684
 7036SOL    HW122007   6.398   1.160   1.704
 7036SOL    HW222008   6.378   1.322   1.706
 7037SOL     OW22009   1.712   0.750   6.134
 7037SOL    HW122010   1.649   0.696   6.079
 7037SOL    HW222011   1.723   0.707   6.224
 7038SOL     OW22012   0.953   4.310   0.440
 7038SOL    HW122013   0.934   4.215   0.413
 7038SOL    HW222014   0.976   4.312   0.538
 7039SOL     OW22015   0.072   7.005   1.876
 7039SOL    HW122016   0.153   0.041   1.890
 7039SOL    HW222017   7.010   0.042   1.880
 7040SOL     OW22018   5.627   2.042   4.650
 7040SOL    HW122019   5.628   2.109   4.723
 7040SOL    HW222020   5.618   1.950   4.688
 7041SOL     OW22021   1.084   0.271   4.261
 7041SOL    HW122022   1.153   0.243   4.327
 7041SOL    HW222023   1.084   0.207   4.183
 7042SOL     OW22024   5.775   6.136   5.374
 7042SOL    HW122025   5.870   6.109   5.360
 7042SOL    HW222026   5.734   6.080   5.446
 7043SOL     OW22027   1.573   6.102   0.908
 7043SOL    HW122028   1.644   6.032   0.915
 7043SOL    HW222029   1.518   6.103   0.992
 7044SOL     OW22030   4.897   5.970   4.942
 7044SOL    HW122031   4.864   6.061   4.916
 7044SOL    HW222032   4.828   5.924   4.999
 7045SOL     OW22033   6.305   5.927   1.724
 7045SOL    HW122034   6.270   5.835   1.740
 7045SOL    HW222035   6.317   5.941   1.626
 7046SOL     OW22036   2.146   1.860   3.798
 7046SOL    HW122037   2.245   1.874   3.799
 7046SOL    HW222038   2.123   1.779   3.851
 7047SOL     OW22039   0.863   6.692   0.529
 7047SOL    HW122040   0.838   6.788   0.546
 7047SOL    HW222041   0.952   6.674   0.572
 7048SOL     OW22042   0.801   6.056   3.496
 7048SOL    HW122043   0.808   6.117   3.575
 7048SOL    HW222044   0.729   6.089   3.435
 7049SOL     OW22045   3.770   1.753   4.150
 7049SOL    HW122046   3.844   1.808   4.187
 7049SOL    HW222047   3.741   1.685   4.217
 7050SOL     OW22048   4.072   4.246   0.633
 7050SOL    HW122049   4.053   4.266   0.537
 7050SOL    HW222050   4.164   4.208   0.642
 7051SOL     OW22051   1.172   2.211   1.686
 7051SOL    HW122052   1.111   2.133   1.699
 7051SOL    HW222053   1.226   2.224   1.770
 7052SOL     OW22054   4.522   1.863   2.451
 7052SOL    HW122055   4.504   1.949   2.403
 7052SOL    HW222056   4.578   1.882   2.532
 7053SOL     OW22057   1.251   3.759   3.504
 7053SOL    HW122058   1.343   3.730   3.480
 7053SOL    HW222059   1.199   3.777   3.420
 7054SOL     OW22060   4.919   6.898   6.937
 7054SOL    HW122061   4.900   6.958   6.859
 7054SOL    HW222062   5.005   6.925   6.980
 7055SOL     OW22063   2.545   0.556   0.434
 7055SOL    HW122064   2.496   0.531   0.351
 7055SOL    HW222065   2.479   0.583   0.505
 7056SOL     OW22066   0.034   4.980   1.068
 7056SOL    HW122067   0.064   4.908   1.129
 7056SOL    HW222068   0.100   5.055   1.069
 7057SOL     OW22069   3.417   5.519   4.659
 7057SOL    HW122070   3.411   5.424   4.631
 7057SOL    HW222071   3.417   5.579   4.579
 7058SOL     OW22072   6.438   2.185   6.252
 7058SOL    HW122073   6.389   2.185   6.339
 7058SOL    HW222074   6.471   2.277   6.232
 7059SOL     OW22075   1.770   0.026   5.271
 7059SOL    HW122076   1.679   0.066   5.262
 7059SOL    HW222077   1.761   6.949   5.298
 7060SOL     OW22078   3.448   2.521   1.518
 7060SOL    HW122079   3.366   2.574   1.495
 7060SOL    HW222080   3.501   2.571   1.586
 7061SOL     OW22081   1.422   1.094   1.437
 7061SOL    HW122082   1.382   1.013   1.392
 7061SOL    HW222083   1.387   1.177   1.393
 7062SOL     OW22084   3.362   0.488   4.390
 7062SOL    HW122085   3.422   0.414   4.360
 7062SOL    HW222086   3.283   0.494   4.328
 7063SOL     OW22087   0.138   1.510   1.366
 7063SOL    HW122088   0.044   1.529   1.337
 7063SOL    HW222089   0.140   1.426   1.420
 7064SOL     OW22090   3.113   1.648   5.323
 7064SOL    HW122091   3.079   1.587   5.394
 7064SOL    HW222092   3.176   1.715   5.363
 7065SOL     OW22093   3.939   5.561   5.103
 7065SOL    HW122094   3.986   5.554   5.191
 7065SOL    HW222095   3.979   5.636   5.050
 7066SOL     OW22096   3.526   6.965   1.407
 7066SOL    HW122097   3.443   6.917   1.377
 7066SOL    HW222098   3.512   0.044   1.398
 7067SOL     OW22099   2.255   3.756   6.026
 7067SOL    HW122100   2.289   3.848   6.045
 7067SOL    HW222101   2.173   3.762   5.968
 7068SOL     OW22102   5.130   4.530   4.549
 7068SOL    HW122103   5.055   4.464   4.558
 7068SOL    HW222104   5.143   4.551   4.452
 7069SOL     OW22105   5.027   0.975   6.188
 7069SOL    HW122106   5.033   0.959   6.287
 7069SOL    HW222107   5.100   0.925   6.142
 7070SOL     OW22108   0.634   0.657   5.628
 7070SOL    HW122109   0.647   0.580   5.566
 7070SOL    HW222110   0.695   0.646   5.707
 7071SOL     OW22111   4.474   6.400   6.663
 7071SOL    HW122112   4.459   6.467   6.590
 7071SOL    HW222113   4.502   6.313   6.624
 7072SOL     OW22114   0.839   3.682   6.227
 7072SOL    HW122115   0.818   3.669   6.130
 7072SOL    HW222116   0.768   3.738   6.270
 7073SOL     OW22117   4.960   1.239   3.370
 7073SOL    HW122118   4.938   1.141   3.369
 7073SOL    HW222119   5.051   1.252   3.410
 7074SOL     OW22120   5.443   4.141   2.607
 7074SOL    HW122121   5.472   4.149   2.512
 7074SOL    HW222122   5.349   4.173   2.616
 7075SOL     OW22123   2.527   5.152   3.012
 7075SOL    HW122124   2.429   5.167   3.008
 7075SOL    HW222125   2.572   5.237   3.041
 7076SOL     OW22126   5.498   1.907   0.947
 7076SOL    HW122127   5.405   1.943   0.935
 7076SOL    HW222128   5.521   1.907   1.044
 7077SOL     OW22129   3.870   6.105   1.502
 7077SOL    HW122130   3.936   6.179   1.515
 7077SOL    HW222131   3.853   6.061   1.590
 7078SOL     OW22132   6.389   1.156   6.701
 7078SOL    HW122133   6.397   1.071   6.648
 7078SOL    HW222134   6.465   1.217   6.676
 7079SOL     OW22135   1.946   5.494   4.813
 7079SOL    HW122136   2.018   5.446   4.864
 7079SOL    HW222137   1.862   5.495   4.868
 7080SOL     OW22138   3.991   1.764   6.081
 7080SOL    HW122139   4.042   1.850   6.076
 7080SOL    HW222140   3.931   1.757   6.001
 7081SOL     OW22141   2.182   6.747   0.320
 7081SOL    HW122142   2.126   6.824   0.292
 7081SOL    HW222143   2.188   6.745   0.420
 7082SOL     OW22144   0.763   3.667   2.427
 7082SOL    HW122145   0.706   3.669   2.345
 7082SOL    HW222146   0.708   3.641   2.506
 7083SOL     OW22147   5.077   2.666   3.340
 7083SOL    HW122148   5.016   2.646   3.263
 7083SOL    HW222149   5.079   2.765   3.355
 7084SOL     OW22150   1.050   4.940   0.632
 7084SOL    HW122151   1.026   4.850   0.595
 7084SOL    HW222152   1.022   4.944   0.729
 7085SOL     OW22153   0.354   4.225   2.403
 7085SOL    HW122154   0.336   4.137   2.446
 7085SOL    HW222155   0.286   4.242   2.332
 7086SOL     OW22156   5.151   0.691   3.584
 7086SOL    HW122157   5.234   0.635   3.585
 7086SOL    HW222158   5.176   0.787   3.572
 7087SOL     OW22159   4.937   2.306   3.660
 7087SOL    HW122160   4.910   2.323   3.565
 7087SOL    HW222161   4.949   2.394   3.707
 7088SOL     OW22162   6.488   2.674   5.074
 7088SOL    HW122163   6.579   2.716   5.075
 7088SOL    HW222164   6.471   2.627   5.160
 7089SOL     OW22165   2.597   5.428   0.863
 7089SOL    HW122166   2.584   5.382   0.951
 7089SOL    HW222167   2.675   5.388   0.816
 7090SOL     OW22168   4.396   2.973   0.716
 7090SOL    HW122169   4.394   3.003   0.811
 7090SOL    HW222170   4.303   2.949   0.687
 7091SOL     OW22171   6.586   6.667   0.118
 7091SOL    HW122172   6.614   6.694   0.210
 7091SOL    HW222173   6.584   6.748   0.059
 7092SOL     OW22174   4.465   0.014   6.735
 7092SOL    HW122175   4.404   6.992   6.668
 7092SOL    HW222176   4.515   0.090   6.692
 7093SOL     OW22177   3.430   3.509   0.268
 7093SOL    HW122178   3.397   3.464   0.186
 7093SOL    HW222179   3.469   3.441   0.331
 7094SOL     OW22180   4.255   0.741   5.451
 7094SOL    HW122181   4.238   0.710   5.545
 7094SOL    HW222182   4.207   0.826   5.434
 7095SOL     OW22183   2.467   5.226   4.368
 7095SOL    HW122184   2.522   5.155   4.324
 7095SOL    HW222185   2.511   5.253   4.454
 7096SOL     OW22186   6.447   6.659   0.826
 7096SOL    HW122187   6.508   6.621   0.895
 7096SOL    HW222188   6.496   6.728   0.773
 7097SOL     OW22189   4.658   1.341   2.339
 7097SOL    HW122190   4.679   1.269   2.272
 7097SOL    HW222191   4.676   1.430   2.298
 7098SOL     OW22192   0.951   1.347   3.205
 7098SOL    HW122193   0.859   1.383   3.190
 7098SOL    HW222194   0.985   1.379   3.293
 7099SOL     OW22195   3.437   2.122   4.665
 7099SOL    HW122196   3.536   2.118   4.678
 7099SOL    HW222197   3.392   2.077   4.742
 7100SOL     OW22198   0.248   3.824   1.419
 7100SOL    HW122199   0.343   3.796   1.403
 7100SOL    HW222200   0.247   3.918   1.455
 7101SOL     OW22201   2.609   5.960   4.706
 7101SOL    HW122202   2.536   5.905   4.747
 7101SOL    HW222203   2.696   5.912   4.713
 7102SOL     OW22204   5.798   1.372   3.125
 7102SOL    HW122205   5.885   1.338   3.159
 7102SOL    HW222206   5.804   1.471   3.111
 7103SOL     OW22207   5.011   3.739   4.001
 7103SOL    HW122208   5.103   3.715   4.033
 7103SOL    HW222209   4.987   3.680   3.923
 7104SOL     OW22210   5.542   3.009   4.740
 7104SOL    HW122211   5.583   3.003   4.831
 7104SOL    HW222212   5.580   2.937   4.681
 7105SOL     OW22213   3.442   4.132   2.802
 7105SOL    HW122214   3.444   4.165   2.896
 7105SOL    HW222215   3.535   4.110   2.772
 7106SOL     OW22216   2.699   1.485   2.474
 7106SOL    HW122217   2.675   1.569   2.523
 7106SOL    HW222218   2.618   1.451   2.425
 7107SOL     OW22219   3.632   1.406   6.493
 7107SOL    HW122220   3.682   1.351   6.426
 7107SOL    HW222221   3.653   1.375   6.585
 7108SOL     OW22222   3.898   6.959   2.006
 7108SOL    HW122223   3.881   6.915   2.095
 7108SOL    HW222224   3.898   6.889   1.934
 7109SOL     OW22225   3.156   5.529   6.059
 7109SOL    HW122226   3.178   5.465   5.986
 7109SOL    HW222227   3.183   5.489   6.147
 7110SOL     OW22228   2.590   6.209   4.909
 7110SOL    HW122229   2.538   6.186   4.827
 7110SOL    HW222230   2.667   6.146   4.918
 7111SOL     OW22231   6.649   0.925   5.265
 7111SOL    HW122232   6.679   0.848   5.322
 7111SOL    HW222233   6.720   0.994   5.262
 7112SOL     OW22234   0.603   4.807   5.173
 7112SOL    HW122235   0.694   4.777   5.205
 7112SOL    HW222236   0.602   4.906   5.164
 7113SOL     OW22237   3.228   6.417   4.544
 7113SOL    HW122238   3.175   6.446   4.624
 7113SOL    HW222239   3.311   6.371   4.575
 7114SOL     OW22240   5.982   4.170   1.331
 7114SOL    HW122241   5.951   4.222   1.410
 7114SOL    HW222242   6.066   4.212   1.295
 7115SOL     OW22243   5.230   3.069   5.988
 7115SOL    HW122244   5.251   2.980   6.028
 7115SOL    HW222245   5.137   3.069   5.953
 7116SOL     OW22246   6.747   4.029   5.087
 7116SOL    HW122247   6.796   3.982   5.014
 7116SOL    HW222248   6.796   4.017   5.173
 7117SOL     OW22249   5.183   6.560   2.923
 7117SOL    HW122250   5.098   6.561   2.976
 7117SOL    HW222251   5.219   6.653   2.917
 7118SOL     OW22252   4.557   4.585   6.088
 7118SOL    HW122253   4.533   4.678   6.115
 7118SOL    HW222254   4.580   4.582   5.991
 7119SOL     OW22255   2.962   6.949   5.210
 7119SOL    HW122256   2.918   6.930   5.122
 7119SOL    HW222257   3.045   6.894   5.218
 7120SOL     OW22258   4.053   1.637   1.267
 7120SOL    HW122259   4.003   1.602   1.346
 7120SOL    HW222260   4.112   1.565   1.230
 7121SOL     OW22261   1.200   6.224   2.378
 7121SOL    HW122262   1.152   6.138   2.361
 7121SOL    HW222263   1.137   6.301   2.369
 7122SOL     OW22264   4.084   2.119   6.848
 7122SOL    HW122265   4.106   2.024   6.869
 7122SOL    HW222266   4.033   2.159   6.923
 7123SOL     OW22267   5.485   4.950   5.746
 7123SOL    HW122268   5.532   5.036   5.728
 7123SOL    HW222269   5.409   4.966   5.809
 7124SOL     OW22270   2.379   2.862   0.655
 7124SOL    HW122271   2.461   2.893   0.607
 7124SOL    HW222272   2.404   2.793   0.723
 7125SOL     OW22273   0.717   6.469   2.447
 7125SOL    HW122274   0.676   6.532   2.382
 7125SOL    HW222275   0.814   6.457   2.425
 7126SOL     OW22276   3.896   4.797   1.146
 7126SOL    HW122277   3.957   4.754   1.213
 7126SOL    HW222278   3.835   4.727   1.107
 7127SOL     OW22279   2.541   6.136   5.951
 7127SOL    HW122280   2.456   6.090   5.928
 7127SOL    HW222281   2.562   6.121   6.047
 7128SOL     OW22282   3.319   4.237   0.082
 7128SOL    HW122283   3.355   4.313   0.136
 7128SOL    HW222284   3.301   4.159   0.142
 7129SOL     OW22285   0.186   7.019   6.969
 7129SOL    HW122286   0.142   0.069   0.004
 7129SOL    HW222287   0.117   6.958   6.930
 7130SOL     OW22288   3.147   0.233   4.170
 7130SOL    HW122289   3.105   0.161   4.225
 7130SOL    HW222290   3.237   0.202   4.137
 7131SOL     OW22291   2.256   1.329   1.802
 7131SOL    HW122292   2.319   1.399   1.836
 7131SOL    HW222293   2.165   1.369   1.792
 7132SOL     OW22294   4.990   4.399   1.795
 7132SOL    HW122295   4.896   4.386   1.828
 7132SOL    HW222296   5.054   4.390   1.871
 7133SOL     OW22297   4.841   5.765   2.574
 7133SOL    HW122298   4.861   5.811   2.661
 7133SOL    HW222299   4.916   5.782   2.510
 7134SOL     OW22300   4.972   5.243   0.359
 7134SOL    HW122301   4.919   5.242   0.274
 7134SOL    HW222302   5.067   5.263   0.338
 7135SOL     OW22303   2.157   4.072   1.470
 7135SOL    HW122304   2.077   4.112   1.426
 7135SOL    HW222305   2.179   4.124   1.552
 7136SOL     OW22306   1.229   2.568   1.860
 7136SOL    HW122307   1.190   2.606   1.944
 7136SOL    HW222308   1.271   2.479   1.880
 7137SOL     OW22309   2.810   0.860   2.473
 7137SOL    HW122310   2.851   0.947   2.503
 7137SOL    HW222311   2.880   0.790   2.470
 7138SOL     OW22312   0.192   3.607   0.257
 7138SOL    HW122313   0.199   3.510   0.281
 7138SOL    HW222314   0.249   3.660   0.320
 7139SOL     OW22315   5.864   6.212   0.913
 7139SOL    HW122316   5.802   6.192   0.988
 7139SOL    HW222317   5.914   6.129   0.888
 7140SOL     OW22318   6.715   5.007   6.969
 7140SOL    HW122319   6.772   4.945   6.915
 7140SOL    HW222320   6.620   4.977   6.966
 7141SOL     OW22321   3.113   0.952   0.968
 7141SOL    HW122322   3.104   1.017   0.892
 7141SOL    HW222323   3.027   0.946   1.018
 7142SOL     OW22324   4.997   0.285   5.181
 7142SOL    HW122325   5.037   0.375   5.194
 7142SOL    HW222326   4.927   0.288   5.111
 7143SOL     OW22327   2.980   3.060   6.197
 7143SOL    HW122328   2.981   3.154   6.229
 7143SOL    HW222329   3.063   3.013   6.227
 7144SOL     OW22330   0.103   0.828   6.019
 7144SOL    HW122331   0.105   0.729   6.033
 7144SOL    HW222332   0.015   0.864   6.048
 7145SOL     OW22333   5.917   2.362   5.967
 7145SOL    HW122334   5.962   2.286   5.921
 7145SOL    HW222335   5.926   2.351   6.066
 7146SOL     OW22336   0.727   2.413   5.387
 7146SOL    HW122337   0.789   2.481   5.427
 7146SOL    HW222338   0.780   2.336   5.351
 7147SOL     OW22339   6.645   6.605   1.758
 7147SOL    HW122340   6.664   6.515   1.796
 7147SOL    HW222341   6.553   6.633   1.784
 7148SOL     OW22342   6.300   0.003   1.060
 7148SOL    HW122343   6.351   0.076   1.014
 7148SOL    HW222344   6.362   6.968   1.116
 7149SOL     OW22345   5.376   4.272   5.877
 7149SOL    HW122346   5.305   4.239   5.814
 7149SOL    HW222347   5.424   4.194   5.917
 7150SOL     OW22348   3.000   2.522   6.765
 7150SOL    HW122349   3.049   2.568   6.691
 7150SOL    HW222350   3.065   2.475   6.824
 7151SOL     OW22351   5.203   1.439   0.012
 7151SOL    HW122352   5.237   1.349   7.005
 7151SOL    HW222353   5.117   1.429   0.062
 7152SOL     OW22354   4.850   0.120   5.378
 7152SOL    HW122355   4.782   0.073   5.323
 7152SOL    HW222356   4.914   0.169   5.318
 7153SOL     OW22357   3.417   5.529   0.485
 7153SOL    HW122358   3.438   5.481   0.571
 7153SOL    HW222359   3.403   5.462   0.412
 7154SOL     OW22360   4.797   1.057   1.945
 7154SOL    HW122361   4.831   1.090   1.857
 7154SOL    HW222362   4.742   0.974   1.931
 7155SOL     OW22363   1.536   0.396   1.886
 7155SOL    HW122364   1.474   0.431   1.956
 7155SOL    HW222365   1.518   0.299   1.871
 7156SOL     OW22366   6.378   4.058   5.559
 7156SOL    HW122367   6.452   4.029   5.498
 7156SOL    HW222368   6.311   3.985   5.567
 7157SOL     OW22369   0.051   4.425   5.799
 7157SOL    HW122370   6.981   4.428   5.844
 7157SOL    HW222371   0.046   4.369   5.717
 7158SOL     OW22372   5.473   0.404   4.014
 7158SOL    HW122373   5.461   0.476   3.946
 7158SOL    HW222374   5.558   0.420   4.065
 7159SOL     OW22375   0.481   6.309   2.966
 7159SOL    HW122376   0.527   6.320   3.054
 7159SOL    HW222377   0.535   6.248   2.908
 7160SOL     OW22378   5.972   6.931   2.718
 7160SOL    HW122379   6.025   6.883   2.788
 7160SOL    HW222380   5.937   6.864   2.652
 7161SOL     OW22381   4.075   3.756   2.450
 7161SOL    HW122382   4.110   3.663   2.444
 7161SOL    HW222383   4.042   3.785   2.360
 7162SOL     OW22384   7.003   6.306   0.791
 7162SOL    HW122385   6.929   6.325   0.726
 7162SOL    HW222386   0.007   6.390   0.839
 7163SOL     OW22387   6.651   0.514   1.272
 7163SOL    HW122388   6.747   0.486   1.275
 7163SOL    HW222389   6.596   0.451   1.326
 7164SOL     OW22390   1.430   1.080   0.392
 7164SOL    HW122391   1.371   1.082   0.311
 7164SOL    HW222392   1.519   1.119   0.368
 7165SOL     OW22393   5.161   1.973   6.884
 7165SOL    HW122394   5.183   2.048   6.947
 7165SOL    HW222395   5.240   1.912   6.877
 7166SOL     OW22396   0.308   5.510   5.377
 7166SOL    HW122397   0.218   5.504   5.335
 7166SOL    HW222398   0.374   5.546   5.311
 7167SOL     OW22399   6.915   3.022   5.497
 7167SOL    HW122400   6.915   2.932   5.454
 7167SOL    HW222401   6.998   3.071   5.472
 7168SOL     OW22402   1.468   1.928   2.429
 7168SOL    HW122403   1.481   2.003   2.493
 7168SOL    HW222404   1.380   1.884   2.446
 7169SOL     OW22405   1.744   4.553   5.683
 7169SOL    HW122406   1.827   4.499   5.696
 7169SOL    HW222407   1.758   4.617   5.607
 7170SOL     OW22408   3.648   1.419   0.992
 7170SOL    HW122409   3.654   1.320   0.977
 7170SOL    HW222410   3.738   1.460   0.975
 7171SOL     OW22411   6.831   3.894   0.984
 7171SOL    HW122412   6.855   3.840   0.903
 7171SOL    HW222413   6.843   3.838   1.066
 7172SOL     OW22414   0.467   2.171   3.641
 7172SOL    HW122415   0.461   2.212   3.732
 7172SOL    HW222416   0.563   2.154   3.619
 7173SOL     OW22417   4.213   5.627   5.556
 7173SOL    HW122418   4.137   5.619   5.621
 7173SOL    HW222419   4.247   5.721   5.557
 7174SOL     OW22420   6.293   4.078   2.038
 7174SOL    HW122421   6.339   4.166   2.027
 7174SOL    HW222422   6.261   4.047   1.948
 7175SOL     OW22423   6.428   4.043   6.038
 7175SOL    HW122424   6.377   4.078   5.960
 7175SOL    HW222425   6.367   3.991   6.098
 7176SOL     OW22426   0.241   1.011   6.177
 7176SOL    HW122427   0.232   1.087   6.113
 7176SOL    HW222428   0.225   0.925   6.130
 7177SOL     OW22429   1.548   5.996   3.557
 7177SOL    HW122430   1.510   6.065   3.619
 7177SOL    HW222431   1.608   6.040   3.491
 7178SOL     OW22432   1.405   6.855   4.722
 7178SOL    HW122433   1.470   6.815   4.657
 7178SOL    HW222434   1.342   6.784   4.754
 7179SOL     OW22435   4.635   4.803   5.932
 7179SOL    HW122436   4.602   4.831   6.022
 7179SOL    HW222437   4.590   4.857   5.861
 7180SOL     OW22438   1.579   2.902   2.074
 7180SOL    HW122439   1.508   2.966   2.044
 7180SOL    HW222440   1.665   2.950   2.086
 7181SOL     OW22441   2.080   1.109   0.130
 7181SOL    HW122442   2.142   1.086   0.055
 7181SOL    HW222443   1.987   1.081   0.106
 7182SOL     OW22444   1.706   1.166   3.490
 7182SOL    HW122445   1.735   1.261   3.504
 7182SOL    HW222446   1.739   1.134   3.401
 7183SOL     OW22447   1.548   6.731   1.711
 7183SOL    HW122448   1.584   6.675   1.786
 7183SOL    HW222449   1.623   6.768   1.658
 7184SOL     OW22450   6.974   0.837   3.771
 7184SOL    HW122451   6.918   0.916   3.745
 7184SOL    HW222452   0.002   0.857   3.856
 7185SOL     OW22453   3.838   0.335   3.936
 7185SOL    HW122454   3.774   0.400   3.976
 7185SOL    HW222455   3.932   0.368   3.951
 7186SOL     OW22456   6.290   0.896   6.641
 7186SOL    HW122457   6.198   0.926   6.665
 7186SOL    HW222458   6.301   0.801   6.669
 7187SOL     OW22459   3.827   3.605   4.101
 7187SOL    HW122460   3.856   3.514   4.133
 7187SOL    HW222461   3.891   3.674   4.135
 7188SOL     OW22462   4.530   4.507   0.275
 7188SOL    HW122463   4.568   4.455   0.351
 7188SOL    HW222464   4.602   4.561   0.232
 7189SOL     OW22465   6.940   2.472   5.788
 7189SOL    HW122466   7.018   2.456   5.848
 7189SOL    HW222467   6.877   2.394   5.794
 7190SOL     OW22468   6.423   5.052   6.695
 7190SOL    HW122469   6.505   5.109   6.682
 7190SOL    HW222470   6.342   5.110   6.698
 7191SOL     OW22471   6.579   4.687   2.254
 7191SOL    HW122472   6.615   4.667   2.345
 7191SOL    HW222473   6.537   4.604   2.216
 7192SOL     OW22474   2.366   4.133   5.365
 7192SOL    HW122475   2.439   4.198   5.343
 7192SOL    HW222476   2.368   4.058   5.300
 7193SOL     OW22477   3.605   1.909   3.236
 7193SOL    HW122478   3.605   1.809   3.239
 7193SOL    HW222479   3.700   1.942   3.232
 7194SOL     OW22480   2.613   2.684   6.246
 7194SOL    HW122481   2.580   2.777   6.229
 7194SOL    HW222482   2.632   2.638   6.160
 7195SOL     OW22483   1.309   3.750   5.933
 7195SOL    HW122484   1.395   3.703   5.952
 7195SOL    HW222485   1.270   3.714   5.849
 7196SOL     OW22486   3.374   4.165   1.614
 7196SOL    HW122487   3.386   4.120   1.702
 7196SOL    HW222488   3.305   4.237   1.623
 7197SOL     OW22489   3.359   4.886   6.770
 7197SOL    HW122490   3.326   4.824   6.700
 7197SOL    HW222491   3.433   4.943   6.733
 7198SOL     OW22492   0.764   0.524   1.905
 7198SOL    HW122493   0.804   0.433   1.891
 7198SOL    HW222494   0.827   0.580   1.958
 7199SOL     OW22495   6.119   1.462   2.971
 7199SOL    HW122496   6.036   1.444   3.025
 7199SOL    HW222497   6.120   1.403   2.890
 7200SOL     OW22498   0.998   2.878   7.017
 7200SOL    HW122499   1.060   2.957   7.011
 7200SOL    HW222500   1.040   2.807   0.054
 7201SOL     OW22501   5.930   6.149   4.119
 7201SOL    HW122502   6.008   6.178   4.176
 7201SOL    HW222503   5.857   6.115   4.178
 7202SOL     OW22504   4.711   6.784   5.800
 7202SOL    HW122505   4.769   6.866   5.807
 7202SOL    HW222506   4.757   6.715   5.745
 7203SOL     OW22507   0.152   2.052   0.954
 7203SOL    HW122508   0.222   1.984   0.930
 7203SOL    HW222509   0.082   2.054   0.882
 7204SOL     OW22510   6.434   1.243   2.159
 7204SOL    HW122511   6.343   1.205   2.174
 7204SOL    HW222512   6.473   1.271   2.247
 7205SOL     OW22513   3.232   1.865   4.449
 7205SOL    HW122514   3.173   1.864   4.530
 7205SOL    HW222515   3.288   1.948   4.450
 7206SOL     OW22516   1.998   3.720   6.670
 7206SOL    HW122517   2.054   3.756   6.745
 7206SOL    HW222518   2.036   3.633   6.640
 7207SOL     OW22519   2.331   1.299   3.151
 7207SOL    HW122520   2.294   1.208   3.167
 7207SOL    HW222521   2.299   1.334   3.063
 7208SOL     OW22522   4.147   0.949   3.906
 7208SOL    HW122523   4.234   0.948   3.857
 7208SOL    HW222524   4.088   1.020   3.867
 7209SOL     OW22525   3.199   0.886   2.004
 7209SOL    HW122526   3.269   0.937   2.054
 7209SOL    HW222527   3.238   0.849   1.919
 7210SOL     OW22528   3.929   1.184   3.946
 7210SOL    HW122529   3.891   1.214   3.859
 7210SOL    HW222530   4.011   1.238   3.967
 7211SOL     OW22531   4.358   6.223   5.614
 7211SOL    HW122532   4.405   6.305   5.647
 7211SOL    HW222533   4.312   6.178   5.690
 7212SOL     OW22534   0.880   5.362   5.477
 7212SOL    HW122535   0.953   5.432   5.478
 7212SOL    HW222536   0.901   5.291   5.544
 7213SOL     OW22537   4.268   2.520   6.790
 7213SOL    HW122538   4.189   2.565   6.833
 7213SOL    HW222539   4.272   2.424   6.818
 7214SOL     OW22540   6.197   0.635   6.239
 7214SOL    HW122541   6.113   0.648   6.185
 7214SOL    HW222542   6.195   0.544   6.281
 7215SOL     OW22543   6.385   1.571   2.417
 7215SOL    HW122544   6.394   1.620   2.331
 7215SOL    HW222545   6.433   1.483   2.411
 7216SOL     OW22546   5.307   0.226   3.625
 7216SOL    HW122547   5.395   0.205   3.667
 7216SOL    HW222548   5.273   0.145   3.577
 7217SOL     OW22549   1.238   2.656   3.216
 7217SOL    HW122550   1.171   2.697   3.278
 7217SOL    HW222551   1.322   2.711   3.216
 7218SOL     OW22552   6.404   2.522   4.791
 7218SOL    HW122553   6.306   2.524   4.772
 7218SOL    HW222554   6.432   2.609   4.832
 7219SOL     OW22555   3.062   6.155   2.317
 7219SOL    HW122556   3.148   6.105   2.317
 7219SOL    HW222557   3.035   6.176   2.411
 7220SOL     OW22558   6.213   4.064   3.276
 7220SOL    HW122559   6.274   3.994   3.313
 7220SOL    HW222560   6.268   4.136   3.232
 7221SOL     OW22561   3.968   5.426   3.478
 7221SOL    HW122562   3.960   5.470   3.567
 7221SOL    HW222563   4.058   5.446   3.439
 7222SOL     OW22564   6.841   6.321   4.216
 7222SOL    HW122565   6.839   6.398   4.153
 7222SOL    HW222566   6.797   6.346   4.302
 7223SOL     OW22567   0.029   4.378   1.604
 7223SOL    HW122568   6.952   4.355   1.605
 7223SOL    HW222569   0.074   4.336   1.683
 7224SOL     OW22570   4.320   2.348   2.265
 7224SOL    HW122571   4.385   2.399   2.322
 7224SOL    HW222572   4.226   2.376   2.289
 7225SOL     OW22573   0.789   6.400   0.408
 7225SOL    HW122574   0.837   6.335   0.349
 7225SOL    HW222575   0.744   6.351   0.482
 7226SOL     OW22576   6.330   6.546   0.215
 7226SOL    HW122577   6.280   6.558   0.129
 7226SOL    HW222578   6.384   6.628   0.233
 7227SOL     OW22579   1.708   1.582   2.804
 7227SOL    HW122580   1.775   1.654   2.822
 7227SOL    HW222581   1.743   1.495   2.837
 7228SOL     OW22582   5.832   3.087   2.468
 7228SOL    HW122583   5.791   3.174   2.440
 7228SOL    HW222584   5.825   3.077   2.568
 7229SOL     OW22585   6.151   0.721   5.106
 7229SOL    HW122586   6.233   0.779   5.113
 7229SOL    HW222587   6.175   0.633   5.066
 7230SOL     OW22588   2.386   5.285   4.848
 7230SOL    HW122589   2.397   5.208   4.784
 7230SOL    HW222590   2.290   5.290   4.876
 7231SOL     OW22591   4.261   3.062   6.121
 7231SOL    HW122592   4.190   2.992   6.116
 7231SOL    HW222593   4.347   3.021   6.151
 7232SOL     OW22594   4.839   6.095   3.471
 7232SOL    HW122595   4.800   6.105   3.563
 7232SOL    HW222596   4.926   6.144   3.467
 7233SOL     OW22597   0.470   1.154   5.529
 7233SOL    HW122598   0.504   1.193   5.444
 7233SOL    HW222599   0.443   1.059   5.514
 7234SOL     OW22600   5.562   4.365   3.590
 7234SOL    HW122601   5.475   4.317   3.576
 7234SOL    HW222602   5.553   4.426   3.669
 7235SOL     OW22603   6.090   6.631   1.788
 7235SOL    HW122604   6.106   6.726   1.816
 7235SOL    HW222605   6.083   6.574   1.870
 7236SOL     OW22606   2.127   3.687   2.926
 7236SOL    HW122607   2.185   3.768   2.933
 7236SOL    HW222608   2.052   3.705   2.863
 7237SOL     OW22609   5.556   0.919   0.428
 7237SOL    HW122610   5.571   0.934   0.526
 7237SOL    HW222611   5.628   0.965   0.376
 7238SOL     OW22612   4.237   4.012   0.269
 7238SOL    HW122613   4.256   3.916   0.252
 7238SOL    HW222614   4.323   4.064   0.267
 7239SOL     OW22615   5.708   2.396   2.141
 7239SOL    HW122616   5.684   2.450   2.222
 7239SOL    HW222617   5.782   2.333   2.164
 7240SOL     OW22618   6.793   1.591   0.711
 7240SOL    HW122619   6.826   1.662   0.773
 7240SOL    HW222620   6.824   1.610   0.618
 7241SOL     OW22621   1.989   0.690   2.521
 7241SOL    HW122622   1.951   0.681   2.429
 7241SOL    HW222623   1.921   0.732   2.581
 7242SOL     OW22624   6.865   4.337   4.638
 7242SOL    HW122625   6.963   4.351   4.621
 7242SOL    HW222626   6.829   4.416   4.688
 7243SOL     OW22627   5.622   4.847   6.047
 7243SOL    HW122628   5.669   4.808   6.126
 7243SOL    HW222629   5.604   4.944   6.064
 7244SOL     OW22630   0.034   5.846   6.965
 7244SOL    HW122631   6.980   5.893   7.013
 7244SOL    HW222632   0.076   5.908   6.899
 7245SOL     OW22633   1.349   3.061   0.526
 7245SOL    HW122634   1.316   3.127   0.593
 7245SOL    HW222635   1.435   3.021   0.558
 7246SOL     OW22636   4.220   7.019   2.911
 7246SOL    HW122637   4.225   0.086   2.862
 7246SOL    HW222638   4.125   7.001   2.937
 7247SOL     OW22639   3.086   4.021   4.326
 7247SOL    HW122640   3.087   3.922   4.346
 7247SOL    HW222641   3.065   4.071   4.410
 7248SOL     OW22642   2.970   1.480   5.543
 7248SOL    HW122643   3.009   1.416   5.608
 7248SOL    HW222644   2.989   1.574   5.573
 7249SOL     OW22645   4.195   4.974   2.464
 7249SOL    HW122646   4.143   4.928   2.391
 7249SOL    HW222647   4.230   5.061   2.429
 7250SOL     OW22648   5.869   5.213   5.207
 7250SOL    HW122649   5.853   5.119   5.238
 7250SOL    HW222650   5.828   5.226   5.117
 7251SOL     OW22651   0.586   5.539   4.919
 7251SOL    HW122652   0.594   5.468   4.849
 7251SOL    HW222653   0.653   5.610   4.903
 7252SOL     OW22654   3.985   3.804   2.716
 7252SOL    HW122655   4.016   3.729   2.774
 7252SOL    HW222656   4.007   3.784   2.621
 7253SOL     OW22657   2.674   5.281   4.946
 7253SOL    HW122658   2.586   5.258   4.904
 7253SOL    HW222659   2.689   5.224   5.026
 7254SOL     OW22660   5.918   3.128   4.240
 7254SOL    HW122661   5.879   3.164   4.325
 7254SOL    HW222662   6.005   3.082   4.260
 7255SOL     OW22663   5.163   3.710   6.874
 7255SOL    HW122664   5.200   3.781   6.813
 7255SOL    HW222665   5.064   3.706   6.863
 7256SOL     OW22666   3.103   0.147   5.038
 7256SOL    HW122667   3.069   0.166   4.946
 7256SOL    HW222668   3.061   0.063   5.072
 7257SOL     OW22669   0.927   1.237   4.603
 7257SOL    HW122670   0.883   1.244   4.514
 7257SOL    HW222671   1.013   1.289   4.602
 7258SOL     OW22672   5.570   3.415   2.417
 7258SOL    HW122673   5.611   3.386   2.330
 7258SOL    HW222674   5.492   3.474   2.399
 7259SOL     OW22675   1.367   4.283   2.821
 7259SOL    HW122676   1.392   4.188   2.808
 7259SOL    HW222677   1.313   4.292   2.905
 7260SOL     OW22678   5.569   3.028   0.871
 7260SOL    HW122679   5.638   3.003   0.802
 7260SOL    HW222680   5.542   2.946   0.921
 7261SOL     OW22681   6.727   4.640   6.972
 7261SOL    HW122682   6.762   4.547   6.959
 7261SOL    HW222683   6.725   4.662   0.050
 7262SOL     OW22684   5.707   1.662   5.337
 7262SOL    HW122685   5.632   1.712   5.380
 7262SOL    HW222686   5.760   1.613   5.407
 7263SOL     OW22687   6.861   5.828   6.518
 7263SOL    HW122688   6.881   5.923   6.492
 7263SOL    HW222689   6.920   5.800   6.593
 7264SOL     OW22690   5.640   1.154   1.217
 7264SOL    HW122691   5.682   1.244   1.230
 7264SOL    HW222692   5.706   1.083   1.239
 7265SOL     OW22693   3.963   0.597   5.912
 7265SOL    HW122694   3.967   0.602   5.812
 7265SOL    HW222695   3.948   0.502   5.940
 7266SOL     OW22696   0.485   0.875   3.748
 7266SOL    HW122697   0.450   0.894   3.840
 7266SOL    HW222698   0.409   0.850   3.688
 7267SOL     OW22699   6.577   4.276   4.397
 7267SOL    HW122700   6.501   4.315   4.346
 7267SOL    HW222701   6.579   4.315   4.489
 7268SOL     OW22702   6.297   6.867   3.993
 7268SOL    HW122703   6.256   6.859   4.084
 7268SOL    HW222704   6.350   6.952   3.988
 7269SOL     OW22705   2.524   4.530   4.384
 7269SOL    HW122706   2.584   4.595   4.431
 7269SOL    HW222707   2.467   4.482   4.451
 7270SOL     OW22708   0.801   0.968   4.783
 7270SOL    HW122709   0.823   0.965   4.685
 7270SOL    HW222710   0.885   0.969   4.836
 7271SOL     OW22711   0.687   4.717   2.830
 7271SOL    HW122712   0.688   4.620   2.855
 7271SOL    HW222713   0.601   4.758   2.860
 7272SOL     OW22714   6.206   4.390   1.559
 7272SOL    HW122715   6.222   4.380   1.460
 7272SOL    HW222716   6.228   4.304   1.605
 7273SOL     OW22717   0.533   2.104   5.690
 7273SOL    HW122718   0.625   2.078   5.663
 7273SOL    HW222719   0.473   2.102   5.610
 7274SOL     OW22720   0.825   5.041   6.296
 7274SOL    HW122721   0.843   4.949   6.260
 7274SOL    HW222722   0.785   5.034   6.387
 7275SOL     OW22723   0.562   6.124   3.376
 7275SOL    HW122724   0.478   6.130   3.429
 7275SOL    HW222725   0.572   6.205   3.318
 7276SOL     OW22726   5.375   6.335   3.908
 7276SOL    HW122727   5.398   6.254   3.854
 7276SOL    HW222728   5.334   6.307   3.995
 7277SOL     OW22729   4.695   0.394   6.863
 7277SOL    HW122730   4.793   0.376   6.872
 7277SOL    HW222731   4.662   0.443   6.943
 7278SOL     OW22732   3.458   2.824   2.027
 7278SOL    HW122733   3.429   2.918   2.009
 7278SOL    HW222734   3.479   2.814   2.124
 7279SOL     OW22735   3.057   6.393   6.409
 7279SOL    HW122736   2.967   6.348   6.405
 7279SOL    HW222737   3.095   6.398   6.317
 7280SOL     OW22738   4.427   1.779   5.851
 7280SOL    HW122739   4.407   1.841   5.927
 7280SOL    HW222740   4.421   1.684   5.883
 7281SOL     OW22741   5.233   1.324   6.077
 7281SOL    HW122742   5.213   1.418   6.104
 7281SOL    HW222743   5.289   1.324   5.995
 7282SOL     OW22744   5.273   5.377   2.108
 7282SOL    HW122745   5.223   5.322   2.175
 7282SOL    HW222746   5.362   5.334   2.090
 7283SOL     OW22747   2.114   1.225   3.909
 7283SOL    HW122748   2.086   1.235   4.005
 7283SOL    HW222749   2.061   1.151   3.866
 7284SOL     OW22750   0.467   2.474   5.374
 7284SOL    HW122751   0.560   2.437   5.371
 7284SOL    HW222752   0.412   2.431   5.303
 7285SOL     OW22753   5.547   4.998   1.519
 7285SOL    HW122754   5.505   5.087   1.534
 7285SOL    HW222755   5.513   4.959   1.434
 7286SOL     OW22756   2.172   4.043   1.141
 7286SOL    HW122757   2.102   4.110   1.165
 7286SOL    HW222758   2.131   3.952   1.138
 7287SOL     OW22759   5.800   1.596   6.203
 7287SOL    HW122760   5.839   1.519   6.152
 7287SOL    HW222761   5.874   1.648   6.246
 7288SOL     OW22762   3.214   6.881   6.244
 7288SOL    HW122763   3.267   6.966   6.236
 7288SOL    HW222764   3.166   6.881   6.332
 7289SOL     OW22765   5.588   2.268   3.856
 7289SOL    HW122766   5.640   2.183   3.850
 7289SOL    HW222767   5.569   2.290   3.952
 7290SOL     OW22768   2.829   4.775   4.115
 7290SOL    HW122769   2.854   4.761   4.211
 7290SOL    HW222770   2.906   4.816   4.066
 7291SOL     OW22771   3.180   5.132   2.454
 7291SOL    HW122772   3.084   5.109   2.446
 7291SOL    HW222773   3.211   5.178   2.370
 7292SOL     OW22774   3.136   6.850   4.828
 7292SOL    HW122775   3.209   6.786   4.805
 7292SOL    HW222776   3.160   6.942   4.797
 7293SOL     OW22777   1.779   2.445   5.945
 7293SOL    HW122778   1.720   2.437   5.864
 7293SOL    HW222779   1.734   2.400   6.022
 7294SOL     OW22780   3.682   5.918   0.495
 7294SOL    HW122781   3.632   5.922   0.408
 7294SOL    HW222782   3.761   5.978   0.491
 7295SOL     OW22783   5.559   6.971   1.724
 7295SOL    HW122784   5.642   6.914   1.728
 7295SOL    HW222785   5.585   0.047   1.715
 7296SOL     OW22786   4.235   5.149   1.759
 7296SOL    HW122787   4.309   5.183   1.816
 7296SOL    HW222788   4.216   5.214   1.685
 7297SOL     OW22789   5.250   6.858   2.333
 7297SOL    HW122790   5.185   6.797   2.379
 7297SOL    HW222791   5.343   6.822   2.344
 7298SOL     OW22792   5.887   3.790   3.998
 7298SOL    HW122793   5.806   3.732   4.007
 7298SOL    HW222794   5.959   3.740   3.949
 7299SOL     OW22795   5.873   3.523   6.875
 7299SOL    HW122796   5.814   3.443   6.888
 7299SOL    HW222797   5.968   3.497   6.893
 7300SOL     OW22798   4.591   5.014   1.053
 7300SOL    HW122799   4.670   4.954   1.061
 7300SOL    HW222800   4.513   4.962   1.017
 7301SOL     OW22801   6.858   0.750   6.264
 7301SOL    HW122802   6.849   0.820   6.194
 7301SOL    HW222803   6.895   0.666   6.224
 7302SOL     OW22804   4.751   0.722   6.215
 7302SOL    HW122805   4.749   0.813   6.174
 7302SOL    HW222806   4.718   0.727   6.310
 7303SOL     OW22807   3.351   1.178   0.804
 7303SOL    HW122808   3.432   1.127   0.774
 7303SOL    HW222809   3.275   1.159   0.742
 7304SOL     OW22810   3.333   4.194   5.216
 7304SOL    HW122811   3.382   4.232   5.294
 7304SOL    HW222812   3.390   4.127   5.169
 7305SOL     OW22813   5.529   0.956   7.008
 7305SOL    HW122814   5.597   1.002   0.045
 7305SOL    HW222815   5.502   0.870   0.032
 7306SOL     OW22816   4.699   5.102   1.750
 7306SOL    HW122817   4.616   5.057   1.720
 7306SOL    HW222818   4.779   5.056   1.711
 7307SOL     OW22819   4.351   6.638   2.702
 7307SOL    HW122820   4.268   6.611   2.652
 7307SOL    HW222821   4.428   6.641   2.639
 7308SOL     OW22822   6.216   1.590   4.631
 7308SOL    HW122823   6.167   1.628   4.553
 7308SOL    HW222824   6.181   1.498   4.652
 7309SOL     OW22825   4.321   5.766   2.144
 7309SOL    HW122826   4.311   5.799   2.051
 7309SOL    HW222827   4.362   5.838   2.201
 7310SOL     OW22828   2.205   5.303   1.417
 7310SOL    HW122829   2.285   5.340   1.371
 7310SOL    HW222830   2.216   5.204   1.428
 7311SOL     OW22831   2.677   2.344   2.205
 7311SOL    HW122832   2.747   2.320   2.138
 7311SOL    HW222833   2.669   2.444   2.210
 7312SOL     OW22834   6.845   1.625   6.064
 7312SOL    HW122835   6.807   1.571   5.989
 7312SOL    HW222836   6.942   1.644   6.046
 7313SOL     OW22837   4.074   2.887   6.811
 7313SOL    HW122838   4.033   2.977   6.821
 7313SOL    HW222839   4.021   2.834   6.744
 7314SOL     OW22840   0.520   2.820   4.594
 7314SOL    HW122841   0.602   2.862   4.633
 7314SOL    HW222842   0.508   2.853   4.500
 7315SOL     OW22843   6.941   0.364   5.361
 7315SOL    HW122844   6.934   0.464   5.362
 7315SOL    HW222845   6.904   0.327   5.446
 7316SOL     OW22846   3.637   4.049   5.422
 7316SOL    HW122847   3.661   3.952   5.421
 7316SOL    HW222848   3.656   4.090   5.333
 7317SOL     OW22849   2.791   1.071   3.666
 7317SOL    HW122850   2.886   1.068   3.696
 7317SOL    HW222851   2.781   1.140   3.594
 7318SOL     OW22852   1.415   1.831   1.627
 7318SOL    HW122853   1.507   1.859   1.599
 7318SOL    HW222854   1.419   1.793   1.719
 7319SOL     OW22855   0.080   4.101   6.832
 7319SOL    HW122856   0.030   4.152   6.903
 7319SOL    HW222857   0.169   4.144   6.818
 7320SOL     OW22858   6.557   2.587   1.918
 7320SOL    HW122859   6.634   2.639   1.880
 7320SOL    HW222860   6.523   2.523   1.849
 7321SOL     OW22861   2.910   1.154   4.476
 7321SOL    HW122862   2.924   1.100   4.558
 7321SOL    HW222863   2.875   1.244   4.501
 7322SOL     OW22864   0.618   3.492   2.566
 7322SOL    HW122865   0.566   3.454   2.643
 7322SOL    HW222866   0.649   3.418   2.507
 7323SOL     OW22867   2.138   3.807   3.235
 7323SOL    HW122868   2.116   3.711   3.248
 7323SOL    HW222869   2.198   3.838   3.310
 7324SOL     OW22870   5.526   5.887   2.412
 7324SOL    HW122871   5.460   5.962   2.411
 7324SOL    HW222872   5.588   5.899   2.490
 7325SOL     OW22873   2.896   6.385   0.328
 7325SOL    HW122874   2.801   6.370   0.301
 7325SOL    HW222875   2.906   6.369   0.426
 7326SOL     OW22876   2.893   6.900   4.950
 7326SOL    HW122877   2.843   6.940   4.873
 7326SOL    HW222878   2.977   6.857   4.916
 7327SOL     OW22879   1.699   2.214   5.523
 7327SOL    HW122880   1.674   2.137   5.465
 7327SOL    HW222881   1.736   2.288   5.465
 7328SOL     OW22882   2.327   0.065   0.021
 7328SOL    HW122883   2.227   0.069   0.021
 7328SOL    HW222884   2.364   0.158   0.025
 7329SOL     OW22885   4.299   3.485   1.366
 7329SOL    HW122886   4.288   3.428   1.284
 7329SOL    HW222887   4.347   3.432   1.436
 7330SOL     OW22888   4.245   1.829   0.359
 7330SOL    HW122889   4.288   1.885   0.430
 7330SOL    HW222890   4.189   1.888   0.300
 7331SOL     OW22891   5.399   1.256   1.332
 7331SOL    HW122892   5.473   1.216   1.278
 7331SOL    HW222893   5.323   1.281   1.272
 7332SOL     OW22894   3.675   5.275   1.090
 7332SOL    HW122895   3.684   5.351   1.154
 7332SOL    HW222896   3.762   5.226   1.083
 7333SOL     OW22897   0.667   5.379   2.278
 7333SOL    HW122898   0.717   5.331   2.350
 7333SOL    HW222899   0.609   5.450   2.320
 7334SOL     OW22900   3.942   6.600   4.344
 7334SOL    HW122901   3.866   6.628   4.285
 7334SOL    HW222902   3.942   6.654   4.428
 7335SOL     OW22903   1.675   2.599   2.690
 7335SOL    HW122904   1.649   2.693   2.713
 7335SOL    HW222905   1.720   2.557   2.768
 7336SOL     OW22906   1.869   6.601   3.767
 7336SOL    HW122907   1.820   6.669   3.712
 7336SOL    HW222908   1.934   6.648   3.827
 7337SOL     OW22909   5.772   2.609   2.339
 7337SOL    HW122910   5.837   2.603   2.264
 7337SOL    HW222911   5.791   2.690   2.394
 7338SOL     OW22912   6.591   3.251   0.218
 7338SOL    HW122913   6.550   3.273   0.129
 7338SOL    HW222914   6.601   3.335   0.272
 7339SOL     OW22915   1.000   5.187   4.634
 7339SOL    HW122916   1.091   5.196   4.594
 7339SOL    HW222917   0.942   5.262   4.603
 7340SOL     OW22918   1.805   0.277   6.400
 7340SOL    HW122919   1.759   0.271   6.312
 7340SOL    HW222920   1.882   0.213   6.402
 7341SOL     OW22921   6.473   2.418   6.926
 7341SOL    HW122922   6.488   2.319   6.930
 7341SOL    HW222923   6.558   2.466   6.948
 7342SOL     OW22924   6.901   0.129   2.311
 7342SOL    HW122925   6.949   0.208   2.348
 7342SOL    HW222926   6.943   0.045   2.345
 7343SOL     OW22927   5.142   2.985   0.726
 7343SOL    HW122928   5.185   2.982   0.636
 7343SOL    HW222929   5.044   2.966   0.717
 7344SOL     OW22930   1.349   6.636   5.933
 7344SOL    HW122931   1.310   6.693   5.860
 7344SOL    HW222932   1.406   6.693   5.992
 7345SOL     OW22933   3.183   5.014   6.278
 7345SOL    HW122934   3.117   5.080   6.241
 7345SOL    HW222935   3.140   4.962   6.352
 7346SOL     OW22936   4.807   4.780   2.368
 7346SOL    HW122937   4.798   4.748   2.274
 7346SOL    HW222938   4.781   4.876   2.374
 7347SOL     OW22939   5.996   2.096   6.652
 7347SOL    HW122940   5.938   2.163   6.604
 7347SOL    HW222941   6.003   2.013   6.597
 7348SOL     OW22942   6.577   4.574   1.392
 7348SOL    HW122943   6.656   4.514   1.405
 7348SOL    HW222944   6.507   4.553   1.460
 7349SOL     OW22945   3.720   1.644   1.976
 7349SOL    HW122946   3.697   1.699   2.056
 7349SOL    HW222947   3.688   1.691   1.894
 7350SOL     OW22948   3.474   0.967   4.290
 7350SOL    HW122949   3.533   0.921   4.224
 7350SOL    HW222950   3.469   0.913   4.374
 7351SOL     OW22951   3.065   4.931   4.111
 7351SOL    HW122952   2.997   4.983   4.059
 7351SOL    HW222953   3.147   4.919   4.055
 7352SOL     OW22954   6.255   3.262   4.007
 7352SOL    HW122955   6.217   3.354   4.005
 7352SOL    HW222956   6.307   3.249   4.091
 7353SOL     OW22957   6.552   0.630   6.311
 7353SOL    HW122958   6.517   0.661   6.400
 7353SOL    HW222959   6.530   0.533   6.299
 7354SOL     OW22960   0.052   1.437   3.487
 7354SOL    HW122961   0.037   1.532   3.513
 7354SOL    HW222962   0.052   1.429   3.387
 7355SOL     OW22963   2.776   1.621   0.030
 7355SOL    HW122964   2.783   1.617   6.951
 7355SOL    HW222965   2.682   1.643   0.057
 7356SOL     OW22966   4.522   3.836   6.092
 7356SOL    HW122967   4.575   3.790   6.163
 7356SOL    HW222968   4.464   3.769   6.046
 7357SOL     OW22969   4.959   5.688   2.302
 7357SOL    HW122970   5.019   5.627   2.355
 7357SOL    HW222971   4.992   5.693   2.208
 7358SOL     OW22972   5.788   1.118   2.947
 7358SOL    HW122973   5.749   1.029   2.970
 7358SOL    HW222974   5.748   1.188   3.006
 7359SOL     OW22975   5.087   0.125   1.725
 7359SOL    HW122976   5.048   0.073   1.801
 7359SOL    HW222977   5.013   0.160   1.667
 7360SOL     OW22978   3.205   3.362   4.965
 7360SOL    HW122979   3.172   3.378   4.872
 7360SOL    HW222980   3.142   3.405   5.030
 7361SOL     OW22981   6.710   0.398   3.110
 7361SOL    HW122982   6.793   0.343   3.119
 7361SOL    HW222983   6.632   0.339   3.090
 7362SOL     OW22984   2.891   5.315   6.838
 7362SOL    HW122985   2.795   5.333   6.815
 7362SOL    HW222986   2.934   5.266   6.762
 7363SOL     OW22987   3.683   1.213   0.278
 7363SOL    HW122988   3.671   1.170   0.189
 7363SOL    HW222989   3.630   1.298   0.280
 7364SOL     OW22990   5.551   6.536   1.538
 7364SOL    HW122991   5.616   6.544   1.463
 7364SOL    HW222992   5.600   6.527   1.624
 7365SOL     OW22993   5.249   4.572   2.593
 7365SOL    HW122994   5.338   4.559   2.550
 7365SOL    HW222995   5.177   4.541   2.530
 7366SOL     OW22996   1.604   0.728   4.164
 7366SOL    HW122997   1.551   0.760   4.085
 7366SOL    HW222998   1.692   0.692   4.132
 7367SOL     OW22999   4.080   0.965   6.903
 7367SOL    HW123000   4.154   0.990   6.841
 7367SOL    HW223001   4.109   0.984   6.997
 7368SOL     OW23002   3.723   3.298   3.714
 7368SOL    HW123003   3.782   3.380   3.710
 7368SOL    HW223004   3.693   3.275   3.621
 7369SOL     OW23005   5.274   2.177   0.053
 7369SOL    HW123006   5.315   2.164   0.144
 7369SOL    HW223007   5.347   2.179   7.004
 7370SOL     OW23008   2.052   1.304   4.257
 7370SOL    HW123009   2.023   1.226   4.202
 7370SOL    HW223010   2.110   1.271   4.332
 7371SOL     OW23011   4.224   1.329   3.684
 7371SOL    HW123012   4.165   1.391   3.735
 7371SOL    HW223013   4.287   1.284   3.747
 7372SOL     OW23014   5.837   1.142   5.424
 7372SOL    HW123015   5.847   1.198   5.506
 7372SOL    HW223016   5.922   1.141   5.373
 7373SOL     OW23017   5.902   3.426   4.447
 7373SOL    HW123018   5.979   3.454   4.506
 7373SOL    HW223019   5.881   3.500   4.382
 7374SOL     OW23020   6.536   2.693   5.765
 7374SOL    HW123021   6.502   2.755   5.694
 7374SOL    HW223022   6.555   2.603   5.724
 7375SOL     OW23023   1.512   3.750   1.818
 7375SOL    HW123024   1.426   3.800   1.834
 7375SOL    HW223025   1.589   3.806   1.848
 7376SOL     OW23026   0.102   3.384   0.650
 7376SOL    HW123027   0.142   3.293   0.649
 7376SOL    HW223028   0.036   3.392   0.575
 7377SOL     OW23029   2.279   6.484   0.899
 7377SOL    HW123030   2.231   6.397   0.899
 7377SOL    HW223031   2.219   6.556   0.933
 7378SOL     OW23032   1.265   5.416   4.551
 7378SOL    HW123033   1.225   5.469   4.476
 7378SOL    HW223034   1.208   5.425   4.633
 7379SOL     OW23035   4.126   1.070   1.943
 7379SOL    HW123036   4.222   1.073   1.914
 7379SOL    HW223037   4.101   0.976   1.966
 7380SOL     OW23038   5.047   4.206   1.571
 7380SOL    HW123039   5.079   4.275   1.635
 7380SOL    HW223040   4.981   4.146   1.616
 7381SOL     OW23041   3.836   0.367   1.534
 7381SOL    HW123042   3.800   0.331   1.620
 7381SOL    HW223043   3.765   0.420   1.488
 7382SOL     OW23044   5.914   1.390   6.068
 7382SOL    HW123045   5.976   1.337   6.125
 7382SOL    HW223046   5.967   1.445   6.004
 7383SOL     OW23047   2.341   0.716   0.949
 7383SOL    HW123048   2.336   0.619   0.925
 7383SOL    HW223049   2.252   0.759   0.933
 7384SOL     OW23050   6.586   6.880   0.679
 7384SOL    HW123051   6.683   6.896   0.698
 7384SOL    HW223052   6.556   6.939   0.604
 7385SOL     OW23053   6.268   4.222   2.762
 7385SOL    HW123054   6.341   4.203   2.828
 7385SOL    HW223055   6.308   4.237   2.672
 7386SOL     OW23056   5.481   3.441   6.955
 7386SOL    HW123057   5.430   3.464   0.018
 7386SOL    HW223058   5.416   3.421   6.881
 7387SOL     OW23059   6.567   5.675   4.712
 7387SOL    HW123060   6.495   5.620   4.755
 7387SOL    HW223061   6.532   5.716   4.627
 7388SOL     OW23062   2.097   4.607   3.107
 7388SOL    HW123063   2.096   4.693   3.057
 7388SOL    HW223064   2.181   4.557   3.087
 7389SOL     OW23065   6.443   3.162   0.602
 7389SOL    HW123066   6.510   3.236   0.605
 7389SOL    HW223067   6.429   3.126   0.695
 7390SOL     OW23068   2.336   2.824   3.677
 7390SOL    HW123069   2.429   2.834   3.643
 7390SOL    HW223070   2.284   2.764   3.616
 7391SOL     OW23071   3.229   3.756   3.510
 7391SOL    HW123072   3.274   3.679   3.465
 7391SOL    HW223073   3.152   3.787   3.455
 7392SOL     OW23074   3.382   6.928   6.535
 7392SOL    HW123075   3.298   6.875   6.523
 7392SOL    HW223076   3.418   6.952   6.445
 7393SOL     OW23077   5.555   5.023   4.119
 7393SOL    HW123078   5.651   5.049   4.112
 7393SOL    HW223079   5.521   4.993   4.030
 7394SOL     OW23080   2.454   1.854   5.414
 7394SOL    HW123081   2.399   1.872   5.332
 7394SOL    HW223082   2.423   1.769   5.457
 7395SOL     OW23083   2.630   6.258   0.945
 7395SOL    HW123084   2.579   6.293   0.866
 7395SOL    HW223085   2.565   6.232   1.016
 7396SOL     OW23086   2.191   5.078   2.391
 7396SOL    HW123087   2.151   5.167   2.411
 7396SOL    HW223088   2.215   5.073   2.294
 7397SOL     OW23089   5.901   4.311   3.820
 7397SOL    HW123090   5.901   4.229   3.878
 7397SOL    HW223091   5.879   4.391   3.875
 7398SOL     OW23092   2.921   4.770   2.485
 7398SOL    HW123093   3.000   4.757   2.544
 7398SOL    HW223094   2.926   4.708   2.407
 7399SOL     OW23095   5.362   1.815   5.779
 7399SOL    HW123096   5.333   1.909   5.765
 7399SOL    HW223097   5.347   1.763   5.695
 7400SOL     OW23098   5.363   3.251   5.833
 7400SOL    HW123099   5.334   3.344   5.853
 7400SOL    HW223100   5.315   3.187   5.894
 7401SOL     OW23101   1.542   2.614   4.564
 7401SOL    HW123102   1.536   2.531   4.509
 7401SOL    HW223103   1.452   2.656   4.571
 7402SOL     OW23104   3.866   5.691   4.362
 7402SOL    HW123105   3.890   5.782   4.328
 7402SOL    HW223106   3.789   5.655   4.309
 7403SOL     OW23107   1.451   4.202   4.405
 7403SOL    HW123108   1.517   4.159   4.467
 7403SOL    HW223109   1.434   4.141   4.327
 7404SOL     OW23110   3.364   3.344   0.743
 7404SOL    HW123111   3.295   3.328   0.813
 7404SOL    HW223112   3.423   3.420   0.770
 7405SOL     OW23113   4.285   6.660   4.065
 7405SOL    HW123114   4.362   6.705   4.110
 7405SOL    HW223115   4.301   6.657   3.966
 7406SOL     OW23116   1.178   2.002   4.731
 7406SOL    HW123117   1.138   2.029   4.819
 7406SOL    HW223118   1.206   2.084   4.681
 7407SOL     OW23119   1.012   5.744   5.274
 7407SOL    HW123120   1.054   5.711   5.359
 7407SOL    HW223121   1.012   5.844   5.275
 7408SOL     OW23122   4.311   5.065   5.286
 7408SOL    HW123123   4.280   5.158   5.266
 7408SOL    HW223124   4.297   5.007   5.206
 7409SOL     OW23125   6.770   3.692   1.212
 7409SOL    HW123126   6.868   3.694   1.235
 7409SOL    HW223127   6.756   3.627   1.137
 7410SOL     OW23128   6.708   0.814   0.646
 7410SOL    HW123129   6.725   0.837   0.742
 7410SOL    HW223130   6.794   0.786   0.603
 7411SOL     OW23131   2.817   1.598   5.308
 7411SOL    HW123132   2.910   1.617   5.276
 7411SOL    HW223133   2.810   1.621   5.405
 7412SOL     OW23134   3.622   7.006   6.970
 7412SOL    HW123135   3.641   0.063   0.012
 7412SOL    HW223136   3.628   6.920   0.000
 7413SOL     OW23137   4.663   0.750   3.030
 7413SOL    HW123138   4.622   0.666   2.995
 7413SOL    HW223139   4.723   0.789   2.960
 7414SOL     OW23140   2.728   0.844   3.504
 7414SOL    HW123141   2.730   0.921   3.568
 7414SOL    HW223142   2.803   0.854   3.439
 7415SOL     OW23143   4.110   6.587   6.372
 7415SOL    HW123144   4.093   6.586   6.471
 7415SOL    HW223145   4.107   6.681   6.338
 7416SOL     OW23146   1.794   0.958   1.733
 7416SOL    HW123147   1.843   0.942   1.647
 7416SOL    HW223148   1.848   0.922   1.809
 7417SOL     OW23149   0.824   0.670   2.520
 7417SOL    HW123150   0.876   0.751   2.496
 7417SOL    HW223151   0.823   0.660   2.620
 7418SOL     OW23152   1.340   4.275   5.961
 7418SOL    HW123153   1.280   4.278   5.881
 7418SOL    HW223154   1.436   4.284   5.932
 7419SOL     OW23155   6.927   3.628   4.123
 7419SOL    HW123156   6.945   3.711   4.176
 7419SOL    HW223157   6.899   3.555   4.185
 7420SOL     OW23158   0.406   6.535   1.358
 7420SOL    HW123159   0.438   6.582   1.441
 7420SOL    HW223160   0.465   6.455   1.340
 7421SOL     OW23161   5.995   4.010   1.115
 7421SOL    HW123162   6.010   3.919   1.152
 7421SOL    HW223163   6.004   4.078   1.188
 7422SOL     OW23164   5.495   2.680   2.292
 7422SOL    HW123165   5.591   2.656   2.311
 7422SOL    HW223166   5.459   2.735   2.367
 7423SOL     OW23167   4.915   2.138   5.906
 7423SOL    HW123168   4.989   2.075   5.928
 7423SOL    HW223169   4.845   2.090   5.853
 7424SOL     OW23170   0.159   2.678   3.410
 7424SOL    HW123171   0.257   2.681   3.430
 7424SOL    HW223172   0.115   2.609   3.468
 7425SOL     OW23173   5.617   1.042   0.900
 7425SOL    HW123174   5.609   0.946   0.928
 7425SOL    HW223175   5.669   1.049   0.816
 7426SOL     OW23176   3.215   2.818   5.849
 7426SOL    HW123177   3.161   2.746   5.893
 7426SOL    HW223178   3.312   2.804   5.868
 7427SOL     OW23179   3.404   0.755   3.246
 7427SOL    HW123180   3.483   0.804   3.209
 7427SOL    HW223181   3.408   0.755   3.346
 7428SOL     OW23182   3.883   6.048   4.831
 7428SOL    HW123183   3.954   6.067   4.763
 7428SOL    HW223184   3.828   5.970   4.800
 7429SOL     OW23185   0.702   0.255   2.089
 7429SOL    HW123186   0.676   0.174   2.141
 7429SOL    HW223187   0.626   0.320   2.089
 7430SOL     OW23188   6.761   4.858   3.208
 7430SOL    HW123189   6.671   4.881   3.171
 7430SOL    HW223190   6.804   4.940   3.245
 7431SOL     OW23191   1.114   1.413   3.410
 7431SOL    HW123192   1.212   1.424   3.392
 7431SOL    HW223193   1.100   1.368   3.498
 7432SOL     OW23194   2.083   1.064   3.109
 7432SOL    HW123195   2.177   1.042   3.084
 7432SOL    HW223196   2.040   1.117   3.036
 7433SOL     OW23197   2.732   6.675   6.652
 7433SOL    HW123198   2.699   6.582   6.667
 7433SOL    HW223199   2.803   6.675   6.581
 7434SOL     OW23200   4.027   6.655   4.026
 7434SOL    HW123201   4.122   6.655   4.057
 7434SOL    HW223202   3.970   6.703   4.094
 7435SOL     OW23203   4.933   4.162   2.918
 7435SOL    HW123204   5.029   4.139   2.936
 7435SOL    HW223205   4.900   4.107   2.842
 7436SOL     OW23206   5.406   2.839   5.844
 7436SOL    HW123207   5.318   2.884   5.855
 7436SOL    HW223208   5.414   2.765   5.911
 7437SOL     OW23209   3.224   0.165   1.126
 7437SOL    HW123210   3.142   0.216   1.153
 7437SOL    HW223211   3.294   0.230   1.096
 7438SOL     OW23212   1.823   0.228   0.141
 7438SOL    HW123213   1.764   0.153   0.173
 7438SOL    HW223214   1.911   0.222   0.188
 7439SOL     OW23215   1.252   4.645   6.643
 7439SOL    HW123216   1.308   4.651   6.560
 7439SOL    HW223217   1.165   4.693   6.628
 7440SOL     OW23218   5.537   4.186   3.858
 7440SOL    HW123219   5.559   4.248   3.934
 7440SOL    HW223220   5.446   4.208   3.823
 7441SOL     OW23221   5.119   6.155   0.917
 7441SOL    HW123222   5.063   6.234   0.892
 7441SOL    HW223223   5.172   6.125   0.839
 7442SOL     OW23224   5.322   0.593   6.300
 7442SOL    HW123225   5.257   0.580   6.225
 7442SOL    HW223226   5.349   0.504   6.336
 7443SOL     OW23227   0.281   0.830   1.614
 7443SOL    HW123228   0.373   0.867   1.597
 7443SOL    HW223229   0.273   0.805   1.710
 7444SOL     OW23230   1.678   6.637   0.313
 7444SOL    HW123231   1.690   6.606   0.407
 7444SOL    HW223232   1.668   6.557   0.253
 7445SOL     OW23233   3.884   5.747   1.288
 7445SOL    HW123234   3.822   5.750   1.367
 7445SOL    HW223235   3.895   5.840   1.252
 7446SOL     OW23236   5.691   4.862   6.890
 7446SOL    HW123237   5.615   4.865   6.826
 7446SOL    HW223238   5.764   4.805   6.852
 7447SOL     OW23239   0.086   4.972   0.217
 7447SOL    HW123240   0.115   4.876   0.210
 7447SOL    HW223241   0.072   4.995   0.314
 7448SOL     OW23242   4.640   5.975   6.778
 7448SOL    HW123243   4.563   5.980   6.841
 7448SOL    HW223244   4.701   6.053   6.793
 7449SOL     OW23245   0.027   4.855   5.748
 7449SOL    HW123246   0.002   4.832   5.841
 7449SOL    HW223247   6.973   4.909   5.706
 7450SOL     OW23248   5.648   2.438   5.897
 7450SOL    HW123249   5.742   2.415   5.920
 7450SOL    HW223250   5.642   2.463   5.800
 7451SOL     OW23251   4.552   4.359   3.241
 7451SOL    HW123252   4.629   4.333   3.182
 7451SOL    HW223253   4.467   4.320   3.205
 7452SOL     OW23254   6.418   5.762   5.693
 7452SOL    HW123255   6.412   5.676   5.642
 7452SOL    HW223256   6.329   5.782   5.734
 7453SOL     OW23257   3.897   5.555   6.220
 7453SOL    HW123258   3.959   5.546   6.298
 7453SOL    HW223259   3.876   5.651   6.205
 7454SOL     OW23260   3.974   2.582   1.220
 7454SOL    HW123261   3.877   2.571   1.202
 7454SOL    HW223262   3.994   2.553   1.314
 7455SOL     OW23263   6.625   1.731   3.433
 7455SOL    HW123264   6.679   1.757   3.353
 7455SOL    HW223265   6.611   1.632   3.433
 7456SOL     OW23266   2.509   2.307   6.206
 7456SOL    HW123267   2.521   2.355   6.119
 7456SOL    HW223268   2.527   2.209   6.192
 7457SOL     OW23269   1.323   1.237   2.329
 7457SOL    HW123270   1.334   1.328   2.291
 7457SOL    HW223271   1.299   1.173   2.255
 7458SOL     OW23272   1.606   5.486   5.532
 7458SOL    HW123273   1.570   5.439   5.613
 7458SOL    HW223274   1.660   5.422   5.478
 7459SOL     OW23275   6.006   0.222   2.610
 7459SOL    HW123276   6.016   0.129   2.645
 7459SOL    HW223277   6.089   0.274   2.628
 7460SOL     OW23278   1.515   6.780   1.344
 7460SOL    HW123279   1.544   6.864   1.389
 7460SOL    HW223280   1.433   6.745   1.388
 7461SOL     OW23281   2.629   4.634   5.489
 7461SOL    HW123282   2.641   4.594   5.398
 7461SOL    HW223283   2.535   4.668   5.498
 7462SOL     OW23284   1.464   3.997   0.923
 7462SOL    HW123285   1.389   3.938   0.953
 7462SOL    HW223286   1.502   4.045   1.002
 7463SOL     OW23287   3.783   4.980   0.762
 7463SOL    HW123288   3.737   4.899   0.797
 7463SOL    HW223289   3.865   4.999   0.816
 7464SOL     OW23290   5.859   6.619   5.336
 7464SOL    HW123291   5.803   6.539   5.356
 7464SOL    HW223292   5.946   6.611   5.386
 7465SOL     OW23293   1.446   4.914   0.073
 7465SOL    HW123294   1.492   4.975   0.009
 7465SOL    HW223295   1.507   4.895   0.151
 7466SOL     OW23296   0.415   0.178   5.379
 7466SOL    HW123297   0.449   0.194   5.286
 7466SOL    HW223298   0.319   0.151   5.374
 7467SOL     OW23299   1.104   3.789   4.997
 7467SOL    HW123300   1.015   3.801   4.954
 7467SOL    HW223301   1.123   3.868   5.056
 7468SOL     OW23302   5.615   3.305   5.948
 7468SOL    HW123303   5.545   3.284   5.880
 7468SOL    HW223304   5.572   3.323   6.036
 7469SOL     OW23305   0.401   2.111   0.251
 7469SOL    HW123306   0.425   2.159   0.336
 7469SOL    HW223307   0.471   2.130   0.182
 7470SOL     OW23308   5.881   2.567   3.151
 7470SOL    HW123309   5.790   2.565   3.192
 7470SOL    HW223310   5.937   2.494   3.192
 7471SOL     OW23311   3.745   0.099   6.576
 7471SOL    HW123312   3.794   0.032   6.520
 7471SOL    HW223313   3.681   0.052   6.636
 7472SOL     OW23314   6.378   0.018   6.085
 7472SOL    HW123315   6.435   6.990   6.018
 7472SOL    HW223316   6.282   0.007   6.060
 7473SOL     OW23317   3.393   5.759   3.731
 7473SOL    HW123318   3.295   5.756   3.712
 7473SOL    HW223319   3.444   5.741   3.647
 7474SOL     OW23320   5.867   1.869   0.086
 7474SOL    HW123321   5.870   1.914   7.016
 7474SOL    HW223322   5.934   1.912   0.147
 7475SOL     OW23323   4.832   2.141   0.910
 7475SOL    HW123324   4.771   2.141   0.831
 7475SOL    HW223325   4.925   2.165   0.880
 7476SOL     OW23326   2.555   0.599   3.127
 7476SOL    HW123327   2.460   0.591   3.095
 7476SOL    HW223328   2.559   0.663   3.203
 7477SOL     OW23329   1.363   2.995   5.655
 7477SOL    HW123330   1.427   3.038   5.592
 7477SOL    HW223331   1.409   2.977   5.742
 7478SOL     OW23332   0.334   1.204   5.748
 7478SOL    HW123333   0.271   1.134   5.780
 7478SOL    HW223334   0.389   1.169   5.673
 7479SOL     OW23335   4.633   2.788   1.360
 7479SOL    HW123336   4.701   2.820   1.425
 7479SOL    HW223337   4.549   2.762   1.409
 7480SOL     OW23338   3.757   4.866   2.340
 7480SOL    HW123339   3.669   4.902   2.310
 7480SOL    HW223340   3.758   4.767   2.327
 7481SOL     OW23341   0.113   3.818   6.727
 7481SOL    HW123342   0.183   3.889   6.731
 7481SOL    HW223343   0.135   3.753   6.654
 7482SOL     OW23344   5.344   2.140   3.401
 7482SOL    HW123345   5.257   2.168   3.441
 7482SOL    HW223346   5.334   2.128   3.303
 7483SOL     OW23347   4.167   1.733   5.729
 7483SOL    HW123348   4.230   1.732   5.651
 7483SOL    HW223349   4.216   1.761   5.811
 7484SOL     OW23350   3.171   0.322   3.502
 7484SOL    HW123351   3.144   0.399   3.445
 7484SOL    HW223352   3.270   0.323   3.516
 7485SOL     OW23353   3.622   6.757   6.245
 7485SOL    HW123354   3.701   6.727   6.192
 7485SOL    HW223355   3.550   6.688   6.240
 7486SOL     OW23356   3.239   7.012   0.692
 7486SOL    HW123357   3.223   0.081   0.649
 7486SOL    HW223358   3.287   0.005   0.778
 7487SOL     OW23359   3.467   6.281   4.605
 7487SOL    HW123360   3.552   6.329   4.627
 7487SOL    HW223361   3.432   6.236   4.687
 7488SOL     OW23362   1.086   5.991   3.938
 7488SOL    HW123363   1.017   5.998   4.011
 7488SOL    HW223364   1.102   5.895   3.916
 7489SOL     OW23365   5.481   3.025   6.850
 7489SOL    HW123366   5.443   2.946   6.897
 7489SOL    HW223367   5.580   3.025   6.860
 7490SOL     OW23368   1.475   2.755   2.356
 7490SOL    HW123369   1.476   2.669   2.407
 7490SOL    HW223370   1.499   2.738   2.260
 7491SOL     OW23371   4.279   4.006   6.866
 7491SOL    HW123372   4.250   3.935   6.931
 7491SOL    HW223373   4.319   3.964   6.785
 7492SOL     OW23374   1.436   0.322   3.669
 7492SOL    HW123375   1.338   0.300   3.670
 7492SOL    HW223376   1.450   0.413   3.708
 7493SOL     OW23377   6.316   4.368   4.998
 7493SOL    HW123378   6.266   4.346   5.082
 7493SOL    HW223379   6.260   4.428   4.942
 7494SOL     OW23380   6.307   0.996   1.731
 7494SOL    HW123381   6.299   0.931   1.655
 7494SOL    HW223382   6.356   0.953   1.807
 7495SOL     OW23383   1.372   2.911   4.759
 7495SOL    HW123384   1.312   2.971   4.812
 7495SOL    HW223385   1.401   2.959   4.676
 7496SOL     OW23386   5.779   4.088   2.778
 7496SOL    HW123387   5.771   4.015   2.711
 7496SOL    HW223388   5.689   4.128   2.796
 7497SOL     OW23389   6.449   6.508   1.442
 7497SOL    HW123390   6.379   6.550   1.500
 7497SOL    HW223391   6.436   6.409   1.442
 7498SOL     OW23392   3.326   6.376   3.364
 7498SOL    HW123393   3.262   6.452   3.352
 7498SOL    HW223394   3.366   6.353   3.276
 7499SOL     OW23395   2.743   1.293   3.520
 7499SOL    HW123396   2.660   1.300   3.465
 7499SOL    HW223397   2.747   1.370   3.585
 7500SOL     OW23398   4.236   0.922   3.521
 7500SOL    HW123399   4.288   0.875   3.593
 7500SOL    HW223400   4.299   0.950   3.449
 7501SOL     OW23401   6.755   2.513   5.412
 7501SOL    HW123402   6.736   2.611   5.416
 7501SOL    HW223403   6.796   2.490   5.324
 7502SOL     OW23404   4.408   0.395   4.065
 7502SOL    HW123405   4.328   0.388   4.123
 7502SOL    HW223406   4.401   0.476   4.008
 7503SOL     OW23407   1.958   5.812   2.018
 7503SOL    HW123408   1.924   5.905   2.016
 7503SOL    HW223409   1.936   5.770   2.106
 7504SOL     OW23410   5.897   6.468   4.441
 7504SOL    HW123411   5.817   6.432   4.489
 7504SOL    HW223412   5.941   6.537   4.498
 7505SOL     OW23413   0.116   6.060   5.132
 7505SOL    HW123414   0.160   6.109   5.207
 7505SOL    HW223415   0.160   6.084   5.046
 7506SOL     OW23416   3.076   1.890   3.697
 7506SOL    HW123417   3.089   1.832   3.777
 7506SOL    HW223418   3.011   1.847   3.634
 7507SOL     OW23419   6.246   4.267   6.386
 7507SOL    HW123420   6.287   4.301   6.301
 7507SOL    HW223421   6.174   4.201   6.364
 7508SOL     OW23422   2.920   5.666   0.456
 7508SOL    HW123423   3.016   5.690   0.439
 7508SOL    HW223424   2.876   5.641   0.370
 7509SOL     OW23425   6.039   4.631   2.570
 7509SOL    HW123426   6.138   4.639   2.579
 7509SOL    HW223427   5.995   4.663   2.654
 7510SOL     OW23428   3.423   4.140   2.512
 7510SOL    HW123429   3.407   4.154   2.610
 7510SOL    HW223430   3.438   4.228   2.467
 7511SOL     OW23431   4.778   5.976   4.444
 7511SOL    HW123432   4.746   6.046   4.508
 7511SOL    HW223433   4.699   5.925   4.409
 7512SOL     OW23434   3.675   1.149   0.971
 7512SOL    HW123435   3.623   1.071   1.004
 7512SOL    HW223436   3.742   1.119   0.903
 7513SOL     OW23437   1.312   1.890   2.071
 7513SOL    HW123438   1.292   1.888   2.169
 7513SOL    HW223439   1.351   1.978   2.047
 7514SOL     OW23440   1.032   6.298   1.907
 7514SOL    HW123441   0.955   6.235   1.904
 7514SOL    HW223442   1.106   6.263   1.849
 7515SOL     OW23443   0.478   4.168   5.220
 7515SOL    HW123444   0.496   4.115   5.138
 7515SOL    HW223445   0.408   4.237   5.201
 7516SOL     OW23446   1.870   6.444   5.422
 7516SOL    HW123447   1.795   6.449   5.489
 7516SOL    HW223448   1.908   6.352   5.422
 7517SOL     OW23449   1.156   1.417   5.881
 7517SOL    HW123450   1.225   1.365   5.931
 7517SOL    HW223451   1.131   1.369   5.797
 7518SOL     OW23452   4.823   1.888   4.157
 7518SOL    HW123453   4.852   1.806   4.108
 7518SOL    HW223454   4.843   1.878   4.254
 7519SOL     OW23455   4.228   6.316   4.084
 7519SOL    HW123456   4.220   6.356   4.175
 7519SOL    HW223457   4.211   6.218   4.088
 7520SOL     OW23458   1.311   1.751   0.647
 7520SOL    HW123459   1.234   1.732   0.586
 7520SOL    HW223460   1.321   1.850   0.657
 7521SOL     OW23461   3.754   1.556   4.406
 7521SOL    HW123462   3.838   1.544   4.460
 7521SOL    HW223463   3.760   1.499   4.323
 7522SOL     OW23464   2.532   6.753   3.876
 7522SOL    HW123465   2.528   6.834   3.818
 7522SOL    HW223466   2.496   6.674   3.826
 7523SOL     OW23467   5.791   0.706   0.818
 7523SOL    HW123468   5.692   0.717   0.812
 7523SOL    HW223469   5.825   0.752   0.899
 7524SOL     OW23470   0.584   3.614   4.259
 7524SOL    HW123471   0.591   3.530   4.204
 7524SOL    HW223472   0.650   3.681   4.224
 7525SOL     OW23473   3.715   4.802   6.036
 7525SOL    HW123474   3.809   4.794   6.004
 7525SOL    HW223475   3.655   4.821   5.958
 7526SOL     OW23476   2.583   3.764   1.043
 7526SOL    HW123477   2.610   3.714   0.961
 7526SOL    HW223478   2.484   3.757   1.055
 7527SOL     OW23479   3.791   5.329   3.288
 7527SOL    HW123480   3.851   5.382   3.349
 7527SOL    HW223481   3.833   5.240   3.269
 7528SOL     OW23482   6.538   2.679   6.043
 7528SOL    HW123483   6.575   2.761   6.085
 7528SOL    HW223484   6.522   2.695   5.946
 7529SOL     OW23485   6.072   3.629   3.868
 7529SOL    HW123486   6.153   3.571   3.881
 7529SOL    HW223487   6.011   3.586   3.801
 7530SOL     OW23488   0.788   2.289   2.402
 7530SOL    HW123489   0.749   2.203   2.368
 7530SOL    HW223490   0.736   2.320   2.481
 7531SOL     OW23491   3.615   2.117   4.117
 7531SOL    HW123492   3.592   2.105   4.213
 7531SOL    HW223493   3.715   2.114   4.106
 7532SOL     OW23494   4.921   5.527   6.362
 7532SOL    HW123495   4.864   5.449   6.388
 7532SOL    HW223496   4.974   5.557   6.442
 7533SOL     OW23497   4.328   4.430   1.664
 7533SOL    HW123498   4.371   4.432   1.574
 7533SOL    HW223499   4.364   4.354   1.717
 7534SOL     OW23500   4.539   6.547   5.058
 7534SOL    HW123501   4.631   6.585   5.049
 7534SOL    HW223502   4.498   6.579   5.144
 7535SOL     OW23503   0.585   6.545   3.523
 7535SOL    HW123504   0.652   6.486   3.568
 7535SOL    HW223505   0.575   6.630   3.575
 7536SOL     OW23506   6.083   6.589   3.933
 7536SOL    HW123507   6.003   6.533   3.915
 7536SOL    HW223508   6.056   6.670   3.986
 7537SOL     OW23509   2.204   6.444   2.837
 7537SOL    HW123510   2.194   6.345   2.837
 7537SOL    HW223511   2.233   6.475   2.747
 7538SOL     OW23512   0.993   4.155   0.702
 7538SOL    HW123513   1.018   4.059   0.691
 7538SOL    HW223514   1.076   4.212   0.706
 7539SOL     OW23515   6.962   0.009   4.709
 7539SOL    HW123516   6.870   7.005   4.678
 7539SOL    HW223517   0.006   6.957   4.682
 7540SOL     OW23518   5.741   4.812   3.232
 7540SOL    HW123519   5.818   4.750   3.217
 7540SOL    HW223520   5.656   4.767   3.205
 7541SOL     OW23521   2.751   4.223   5.552
 7541SOL    HW123522   2.800   4.254   5.471
 7541SOL    HW223523   2.688   4.294   5.583
 7542SOL     OW23524   6.429   6.193   4.558
 7542SOL    HW123525   6.472   6.277   4.591
 7542SOL    HW223526   6.432   6.190   4.459
 7543SOL     OW23527   2.876   1.384   0.173
 7543SOL    HW123528   2.973   1.400   0.191
 7543SOL    HW223529   2.845   1.447   0.101
 7544SOL     OW23530   6.521   1.443   4.527
 7544SOL    HW123531   6.486   1.510   4.594
 7544SOL    HW223532   6.491   1.470   4.435
 7545SOL     OW23533   1.850   5.609   5.660
 7545SOL    HW123534   1.831   5.576   5.568
 7545SOL    HW223535   1.925   5.675   5.658
 7546SOL     OW23536   2.324   2.576   2.188
 7546SOL    HW123537   2.369   2.513   2.250
 7546SOL    HW223538   2.345   2.551   2.093
 7547SOL     OW23539   4.015   0.162   1.892
 7547SOL    HW123540   4.028   0.137   1.796
 7547SOL    HW223541   3.977   0.085   1.942
 7548SOL     OW23542   3.267   2.915   6.292
 7548SOL    HW123543   3.298   2.822   6.309
 7548SOL    HW223544   3.292   2.942   6.199
 7549SOL     OW23545   5.442   1.210   4.951
 7549SOL    HW123546   5.470   1.199   5.046
 7549SOL    HW223547   5.415   1.122   4.913
 7550SOL     OW23548   2.641   5.268   4.584
 7550SOL    HW123549   2.726   5.321   4.580
 7550SOL    HW223550   2.613   5.258   4.680
 7551SOL     OW23551   6.468   2.330   5.959
 7551SOL    HW123552   6.476   2.261   5.887
 7551SOL    HW223553   6.551   2.330   6.014
 7552SOL     OW23554   2.370   6.824   4.973
 7552SOL    HW123555   2.282   6.800   4.932
 7552SOL    HW223556   2.444   6.785   4.919
 7553SOL     OW23557   5.733   6.548   5.647
 7553SOL    HW123558   5.638   6.548   5.679
 7553SOL    HW223559   5.762   6.642   5.629
 7554SOL     OW23560   4.240   1.398   0.893
 7554SOL    HW123561   4.246   1.301   0.868
 7554SOL    HW223562   4.291   1.453   0.827
 7555SOL     OW23563   4.391   4.973   4.275
 7555SOL    HW123564   4.385   5.030   4.357
 7555SOL    HW223565   4.353   4.882   4.294
 7556SOL     OW23566   0.753   6.541   1.458
 7556SOL    HW123567   0.720   6.602   1.530
 7556SOL    HW223568   0.853   6.538   1.461
 7557SOL     OW23569   4.750   6.767   1.577
 7557SOL    HW123570   4.843   6.736   1.558
 7557SOL    HW223571   4.705   6.792   1.492
 7558SOL     OW23572   0.539   2.043   4.030
 7558SOL    HW123573   0.502   2.015   4.118
 7558SOL    HW223574   0.491   2.125   3.998
 7559SOL     OW23575   2.556   2.101   4.692
 7559SOL    HW123576   2.550   2.074   4.788
 7559SOL    HW223577   2.466   2.132   4.660
 7560SOL     OW23578   1.541   1.098   5.845
 7560SOL    HW123579   1.529   1.078   5.942
 7560SOL    HW223580   1.632   1.137   5.830
 7561SOL     OW23581   6.090   1.674   5.496
 7561SOL    HW123582   6.114   1.601   5.433
 7561SOL    HW223583   6.156   1.676   5.571
 7562SOL     OW23584   2.120   5.408   3.170
 7562SOL    HW123585   2.141   5.465   3.250
 7562SOL    HW223586   2.034   5.438   3.130
 7563SOL     OW23587   3.590   5.982   2.442
 7563SOL    HW123588   3.680   5.986   2.398
 7563SOL    HW223589   3.587   5.904   2.504
 7564SOL     OW23590   3.667   1.650   5.292
 7564SOL    HW123591   3.741   1.678   5.231
 7564SOL    HW223592   3.579   1.666   5.247
 7565SOL     OW23593   6.520   3.901   5.817
 7565SOL    HW123594   6.489   3.936   5.729
 7565SOL    HW223595   6.478   3.953   5.891
 7566SOL     OW23596   4.480   4.723   1.486
 7566SOL    HW123597   4.522   4.637   1.457
 7566SOL    HW223598   4.431   4.764   1.409
 7567SOL     OW23599   0.920   7.018   4.198
 7567SOL    HW123600   0.969   6.966   4.267
 7567SOL    HW223601   0.983   0.024   4.124
 7568SOL     OW23602   5.919   5.034   1.519
 7568SOL    HW123603   5.951   5.078   1.435
 7568SOL    HW223604   5.967   4.946   1.530
 7569SOL     OW23605   4.938   3.571   0.297
 7569SOL    HW123606   4.937   3.538   0.203
 7569SOL    HW223607   4.846   3.567   0.335
 7570SOL     OW23608   0.889   3.298   2.615
 7570SOL    HW123609   0.924   3.384   2.578
 7570SOL    HW223610   0.868   3.235   2.540
 7571SOL     OW23611   4.426   2.171   2.490
 7571SOL    HW123612   4.348   2.116   2.461
 7571SOL    HW223613   4.408   2.268   2.469
 7572SOL     OW23614   4.699   6.847   3.748
 7572SOL    HW123615   4.687   6.934   3.796
 7572SOL    HW223616   4.795   6.822   3.745
 7573SOL     OW23617   4.062   6.776   6.165
 7573SOL    HW123618   4.126   6.718   6.115
 7573SOL    HW223619   4.059   6.867   6.123
 7574SOL     OW23620   0.420   2.266   3.900
 7574SOL    HW123621   0.322   2.259   3.915
 7574SOL    HW223622   0.445   2.360   3.880
 7575SOL     OW23623   0.192   6.257   2.525
 7575SOL    HW123624   0.098   6.281   2.551
 7575SOL    HW223625   0.256   6.315   2.576
 7576SOL     OW23626   5.172   2.420   0.022
 7576SOL    HW123627   5.205   2.325   0.022
 7576SOL    HW223628   5.152   2.448   6.948
 7577SOL     OW23629   0.657   0.869   0.404
 7577SOL    HW123630   0.639   0.967   0.400
 7577SOL    HW223631   0.700   0.846   0.491
 7578SOL     OW23632   6.425   5.789   3.438
 7578SOL    HW123633   6.373   5.867   3.402
 7578SOL    HW223634   6.386   5.761   3.526
 7579SOL     OW23635   0.889   1.848   6.935
 7579SOL    HW123636   0.794   1.818   6.938
 7579SOL    HW223637   0.892   1.948   6.925
 7580SOL     OW23638   2.164   5.120   3.848
 7580SOL    HW123639   2.095   5.189   3.826
 7580SOL    HW223640   2.125   5.029   3.834
 7581SOL     OW23641   6.889   0.705   2.287
 7581SOL    HW123642   6.862   0.748   2.373
 7581SOL    HW223643   6.985   0.724   2.268
 7582SOL     OW23644   2.196   2.032   6.384
 7582SOL    HW123645   2.136   2.108   6.360
 7582SOL    HW223646   2.269   2.024   6.316
 7583SOL     OW23647   5.440   3.303   2.966
 7583SOL    HW123648   5.347   3.341   2.964
 7583SOL    HW223649   5.435   3.204   2.957
 7584SOL     OW23650   0.670   1.278   3.505
 7584SOL    HW123651   0.609   1.199   3.502
 7584SOL    HW223652   0.763   1.249   3.484
 7585SOL     OW23653   0.764   1.238   6.035
 7585SOL    HW123654   0.667   1.260   6.036
 7585SOL    HW223655   0.810   1.291   5.965
 7586SOL     OW23656   1.945   6.864   3.154
 7586SOL    HW123657   1.932   6.858   3.253
 7586SOL    HW223658   1.859   6.889   3.111
 7587SOL     OW23659   4.267   0.178   1.348
 7587SOL    HW123660   4.212   0.127   1.282
 7587SOL    HW223661   4.209   0.206   1.425
 7588SOL     OW23662   2.363   2.648   4.527
 7588SOL    HW123663   2.269   2.624   4.551
 7588SOL    HW223664   2.421   2.567   4.536
 7589SOL     OW23665   0.202   0.173   2.894
 7589SOL    HW123666   0.156   0.086   2.910
 7589SOL    HW223667   0.186   0.203   2.800
 7590SOL     OW23668   6.401   0.991   0.040
 7590SOL    HW123669   6.336   1.055   0.000
 7590SOL    HW223670   6.421   1.018   0.135
 7591SOL     OW23671   3.265   2.880   4.929
 7591SOL    HW123672   3.240   2.796   4.976
 7591SOL    HW223673   3.182   2.933   4.909
 7592SOL     OW23674   6.746   6.509   3.917
 7592SOL    HW123675   6.647   6.504   3.932
 7592SOL    HW223676   6.764   6.511   3.818
 7593SOL     OW23677   0.494   0.861   5.508
 7593SOL    HW123678   0.547   0.796   5.562
 7593SOL    HW223679   0.513   0.848   5.411
 7594SOL     OW23680   0.075   4.008   6.436
 7594SOL    HW123681   0.077   4.104   6.466
 7594SOL    HW223682   0.159   3.962   6.466
 7595SOL     OW23683   1.161   3.630   0.208
 7595SOL    HW123684   1.234   3.592   0.264
 7595SOL    HW223685   1.142   3.569   0.131
 7596SOL     OW23686   3.129   1.633   6.257
 7596SOL    HW123687   3.115   1.574   6.178
 7596SOL    HW223688   3.102   1.585   6.340
 7597SOL     OW23689   1.811   5.052   1.773
 7597SOL    HW123690   1.796   5.125   1.707
 7597SOL    HW223691   1.813   5.089   1.866
 7598SOL     OW23692   6.258   0.550   1.900
 7598SOL    HW123693   6.181   0.601   1.938
 7598SOL    HW223694   6.282   0.476   1.963
 7599SOL     OW23695   3.040   3.863   1.175
 7599SOL    HW123696   3.075   3.779   1.133
 7599SOL    HW223697   2.964   3.897   1.120
 7600SOL     OW23698   1.269   6.812   3.979
 7600SOL    HW123699   1.227   6.894   3.940
 7600SOL    HW223700   1.280   6.824   4.078
 7601SOL     OW23701   3.149   0.049   2.007
 7601SOL    HW123702   3.064   0.094   2.033
 7601SOL    HW223703   3.128   6.980   1.964
 7602SOL     OW23704   0.291   1.527   1.104
 7602SOL    HW123705   0.215   1.480   1.150
 7602SOL    HW223706   0.371   1.526   1.164
 7603SOL     OW23707   3.855   1.026   5.860
 7603SOL    HW123708   3.930   0.971   5.896
 7603SOL    HW223709   3.879   1.058   5.768
 7604SOL     OW23710   0.784   2.432   4.901
 7604SOL    HW123711   0.813   2.527   4.910
 7604SOL    HW223712   0.685   2.428   4.888
 7605SOL     OW23713   2.226   6.366   6.977
 7605SOL    HW123714   2.134   6.353   7.014
 7605SOL    HW223715   2.236   6.460   6.945
 7606SOL     OW23716   6.569   0.981   3.609
 7606SOL    HW123717   6.553   0.940   3.699
 7606SOL    HW223718   6.501   0.946   3.544
 7607SOL     OW23719   1.700   6.202   5.237
 7607SOL    HW123720   1.607   6.175   5.263
 7607SOL    HW223721   1.703   6.218   5.138
 7608SOL     OW23722   6.472   2.089   6.691
 7608SOL    HW123723   6.459   1.991   6.680
 7608SOL    HW223724   6.392   2.137   6.654
 7609SOL     OW23725   2.999   1.579   4.741
 7609SOL    HW123726   3.056   1.581   4.659
 7609SOL    HW223727   3.011   1.492   4.788
 7610SOL     OW23728   4.357   5.415   4.494
 7610SOL    HW123729   4.441   5.427   4.546
 7610SOL    HW223730   4.286   5.476   4.530
 7611SOL     OW23731   4.626   2.798   0.760
 7611SOL    HW123732   4.582   2.708   0.760
 7611SOL    HW223733   4.564   2.864   0.717
 7612SOL     OW23734   4.066   2.182   2.986
 7612SOL    HW123735   4.004   2.153   2.913
 7612SOL    HW223736   4.067   2.112   3.058
 7613SOL     OW23737   1.111   0.650   1.048
 7613SOL    HW123738   1.088   0.626   1.142
 7613SOL    HW223739   1.033   0.695   1.005
 7614SOL     OW23740   5.496   3.911   0.251
 7614SOL    HW123741   5.571   3.845   0.248
 7614SOL    HW223742   5.439   3.900   0.169
 7615SOL     OW23743   6.186   3.199   4.808
 7615SOL    HW123744   6.283   3.175   4.806
 7615SOL    HW223745   6.176   3.299   4.810
 7616SOL     OW23746   6.572   6.927   3.089
 7616SOL    HW123747   6.619   6.920   3.177
 7616SOL    HW223748   6.477   6.899   3.100
 7617SOL     OW23749   6.382   4.243   3.151
 7617SOL    HW123750   6.456   4.290   3.199
 7617SOL    HW223751   6.396   4.251   3.052
 7618SOL     OW23752   2.379   2.386   0.127
 7618SOL    HW123753   2.392   2.303   0.073
 7618SOL    HW223754   2.414   2.465   0.077
 7619SOL     OW23755   1.915   1.529   4.586
 7619SOL    HW123756   1.923   1.615   4.537
 7619SOL    HW223757   1.988   1.523   4.655
 7620SOL     OW23758   2.839   4.609   0.949
 7620SOL    HW123759   2.929   4.649   0.965
 7620SOL    HW223760   2.807   4.635   0.858
 7621SOL     OW23761   6.148   3.957   0.187
 7621SOL    HW123762   6.113   4.041   0.146
 7621SOL    HW223763   6.135   3.961   0.287
 7622SOL     OW23764   3.204   3.953   1.928
 7622SOL    HW123765   3.180   3.862   1.893
 7622SOL    HW223766   3.142   4.021   1.888
 7623SOL     OW23767   5.446   4.334   1.824
 7623SOL    HW123768   5.423   4.430   1.811
 7623SOL    HW223769   5.424   4.307   1.918
 7624SOL     OW23770   1.247   3.438   2.458
 7624SOL    HW123771   1.279   3.354   2.412
 7624SOL    HW223772   1.227   3.417   2.553
 7625SOL     OW23773   5.204   0.739   2.063
 7625SOL    HW123774   5.126   0.801   2.070
 7625SOL    HW223775   5.173   0.645   2.075
 7626SOL     OW23776   4.567   0.260   6.652
 7626SOL    HW123777   4.478   0.283   6.611
 7626SOL    HW223778   4.586   0.322   6.727
 7627SOL     OW23779   3.636   3.168   6.322
 7627SOL    HW123780   3.668   3.247   6.374
 7627SOL    HW223781   3.547   3.188   6.281
 7628SOL     OW23782   3.400   2.632   0.339
 7628SOL    HW123783   3.341   2.694   0.391
 7628SOL    HW223784   3.357   2.611   0.252
 7629SOL     OW23785   5.970   2.172   2.861
 7629SOL    HW123786   5.937   2.257   2.822
 7629SOL    HW223787   6.054   2.190   2.913
 7630SOL     OW23788   1.270   6.541   3.870
 7630SOL    HW123789   1.314   6.624   3.902
 7630SOL    HW223790   1.183   6.529   3.918
 7631SOL     OW23791   0.928   0.560   5.275
 7631SOL    HW123792   0.900   0.554   5.179
 7631SOL    HW223793   0.990   0.485   5.297
 7632SOL     OW23794   4.929   5.757   0.963
 7632SOL    HW123795   4.951   5.720   1.053
 7632SOL    HW223796   4.901   5.683   0.902
 7633SOL     OW23797   6.100   0.881   1.413
 7633SOL    HW123798   6.123   0.835   1.327
 7633SOL    HW223799   6.130   0.824   1.490
 7634SOL     OW23800   6.754   2.148   6.680
 7634SOL    HW123801   6.807   2.067   6.654
 7634SOL    HW223802   6.660   2.121   6.702
 7635SOL     OW23803   1.873   3.148   5.614
 7635SOL    HW123804   1.923   3.098   5.544
 7635SOL    HW223805   1.826   3.084   5.674
 7636SOL     OW23806   6.621   3.977   4.169
 7636SOL    HW123807   6.670   3.992   4.254
 7636SOL    HW223808   6.553   3.904   4.182
 7637SOL     OW23809   0.868   4.530   4.767
 7637SOL    HW123810   0.895   4.479   4.849
 7637SOL    HW223811   0.771   4.556   4.774
 7638SOL     OW23812   0.267   6.073   1.172
 7638SOL    HW123813   0.245   5.985   1.129
 7638SOL    HW223814   0.297   6.137   1.102
 7639SOL     OW23815   1.665   0.975   0.517
 7639SOL    HW123816   1.678   1.050   0.583
 7639SOL    HW223817   1.570   0.944   0.522
 7640SOL     OW23818   3.074   1.378   0.895
 7640SOL    HW123819   3.050   1.410   0.803
 7640SOL    HW223820   3.110   1.454   0.948
 7641SOL     OW23821   0.154   3.956   4.552
 7641SOL    HW123822   0.141   4.050   4.520
 7641SOL    HW223823   0.065   3.914   4.568
 7642SOL     OW23824   5.571   0.787   3.273
 7642SOL    HW123825   5.518   0.862   3.234
 7642SOL    HW223826   5.580   0.799   3.371
 7643SOL     OW23827   5.241   3.843   4.300
 7643SOL    HW123828   5.234   3.792   4.385
 7643SOL    HW223829   5.253   3.779   4.224
 7644SOL     OW23830   5.124   3.569   0.960
 7644SOL    HW123831   5.208   3.523   0.987
 7644SOL    HW223832   5.147   3.649   0.904
 7645SOL     OW23833   3.654   4.955   0.082
 7645SOL    HW123834   3.609   4.912   0.005
 7645SOL    HW223835   3.645   4.897   0.163
 7646SOL     OW23836   6.674   1.794   0.363
 7646SOL    HW123837   6.612   1.731   0.409
 7646SOL    HW223838   6.764   1.751   0.353
 7647SOL     OW23839   0.054   2.217   4.187
 7647SOL    HW123840   0.035   2.130   4.141
 7647SOL    HW223841   6.987   2.265   4.204
 7648SOL     OW23842   2.013   2.052   1.959
 7648SOL    HW123843   2.061   2.060   2.046
 7648SOL    HW223844   2.004   2.143   1.918
 7649SOL     OW23845   3.956   1.153   6.774
 7649SOL    HW123846   4.017   1.094   6.828
 7649SOL    HW223847   4.000   1.174   6.686
 7650SOL     OW23848   4.218   2.458   0.173
 7650SOL    HW123849   4.202   2.365   0.140
 7650SOL    HW223850   4.199   2.463   0.271
 7651SOL     OW23851   3.367   5.153   6.429
 7651SOL    HW123852   3.315   5.093   6.369
 7651SOL    HW223853   3.304   5.202   6.489
 7652SOL     OW23854   0.994   0.856   3.973
 7652SOL    HW123855   0.934   0.885   4.047
 7652SOL    HW223856   1.089   0.859   4.004
 7653SOL     OW23857   2.552   0.562   6.872
 7653SOL    HW123858   2.595   0.552   6.782
 7653SOL    HW223859   2.543   0.659   6.894
 7654SOL     OW23860   6.372   1.902   6.160
 7654SOL    HW123861   6.408   1.993   6.181
 7654SOL    HW223862   6.290   1.911   6.103
 7655SOL     OW23863   3.479   1.620   4.451
 7655SOL    HW123864   3.421   1.595   4.373
 7655SOL    HW223865   3.566   1.571   4.445
 7656SOL     OW23866   5.816   4.154   6.985
 7656SOL    HW123867   5.815   4.056   7.003
 7656SOL    HW223868   5.755   4.175   6.909
 7657SOL     OW23869   1.305   4.038   4.862
 7657SOL    HW123870   1.371   4.113   4.863
 7657SOL    HW223871   1.263   4.030   4.952
 7658SOL     OW23872   2.682   0.530   0.692
 7658SOL    HW123873   2.646   0.545   0.600
 7658SOL    HW223874   2.762   0.469   0.686
 7659SOL     OW23875   4.907   4.279   5.924
 7659SOL    HW123876   4.842   4.323   5.986
 7659SOL    HW223877   4.957   4.208   5.974
 7660SOL     OW23878   6.701   5.567   5.745
 7660SOL    HW123879   6.707   5.526   5.836
 7660SOL    HW223880   6.656   5.656   5.751
 7661SOL     OW23881   3.936   1.286   4.972
 7661SOL    HW123882   3.851   1.321   5.011
 7661SOL    HW223883   3.954   1.331   4.885
 7662SOL     OW23884   6.977   6.091   1.085
 7662SOL    HW123885   6.901   6.061   1.028
 7662SOL    HW223886   7.015   6.013   1.134
 7663SOL     OW23887   0.577   5.233   4.981
 7663SOL    HW123888   0.653   5.175   4.951
 7663SOL    HW223889   0.612   5.324   5.004
 7664SOL     OW23890   3.844   2.064   2.460
 7664SOL    HW123891   3.848   1.965   2.443
 7664SOL    HW223892   3.756   2.087   2.501
 7665SOL     OW23893   3.686   0.485   5.716
 7665SOL    HW123894   3.601   0.498   5.768
 7665SOL    HW223895   3.693   0.389   5.689
 7666SOL     OW23896   5.349   4.554   4.152
 7666SOL    HW123897   5.346   4.571   4.054
 7666SOL    HW223898   5.285   4.614   4.198
 7667SOL     OW23899   4.249   6.345   2.694
 7667SOL    HW123900   4.160   6.391   2.690
 7667SOL    HW223901   4.296   6.357   2.606
 7668SOL     OW23902   1.726   5.720   0.735
 7668SOL    HW123903   1.629   5.745   0.728
 7668SOL    HW223904   1.744   5.679   0.824
 7669SOL     OW23905   2.557   1.334   6.633
 7669SOL    HW123906   2.515   1.360   6.546
 7669SOL    HW223907   2.498   1.365   6.708
 7670SOL     OW23908   0.973   0.767   0.806
 7670SOL    HW123909   0.921   0.733   0.728
 7670SOL    HW223910   1.002   0.861   0.789
 7671SOL     OW23911   3.210   6.704   1.102
 7671SOL    HW123912   3.175   6.770   1.036
 7671SOL    HW223913   3.137   6.679   1.165
 7672SOL     OW23914   5.131   4.310   2.065
 7672SOL    HW123915   5.132   4.410   2.071
 7672SOL    HW223916   5.225   4.276   2.065
 7673SOL     OW23917   1.832   6.779   4.892
 7673SOL    HW123918   1.823   6.863   4.837
 7673SOL    HW223919   1.776   6.707   4.850
 7674SOL     OW23920   4.220   5.974   4.887
 7674SOL    HW123921   4.220   6.070   4.917
 7674SOL    HW223922   4.215   5.970   4.788
 7675SOL     OW23923   5.016   6.055   3.150
 7675SOL    HW123924   5.083   6.055   3.224
 7675SOL    HW223925   4.994   5.960   3.126
 7676SOL     OW23926   3.664   3.022   5.386
 7676SOL    HW123927   3.624   3.051   5.473
 7676SOL    HW223928   3.591   3.005   5.320
 7677SOL     OW23929   6.461   4.863   0.073
 7677SOL    HW123930   6.437   4.948   0.120
 7677SOL    HW223931   6.511   4.803   0.136
 7678SOL     OW23932   3.141   1.531   5.088
 7678SOL    HW123933   3.065   1.472   5.058
 7678SOL    HW223934   3.108   1.591   5.161
 7679SOL     OW23935   3.853   5.768   4.747
 7679SOL    HW123936   3.812   5.785   4.657
 7679SOL    HW223937   3.917   5.691   4.740
 7680SOL     OW23938   1.928   6.594   4.616
 7680SOL    HW123939   1.829   6.610   4.615
 7680SOL    HW223940   1.952   6.543   4.698
 7681SOL     OW23941   2.198   2.798   5.669
 7681SOL    HW123942   2.281   2.826   5.621
 7681SOL    HW223943   2.155   2.878   5.711
 7682SOL     OW23944   3.338   1.055   2.729
 7682SOL    HW123945   3.351   1.088   2.823
 7682SOL    HW223946   3.302   1.130   2.673
 7683SOL     OW23947   1.030   4.400   4.450
 7683SOL    HW123948   1.008   4.363   4.540
 7683SOL    HW223949   1.111   4.459   4.456
 7684SOL     OW23950   5.088   3.430   1.432
 7684SOL    HW123951   5.127   3.461   1.519
 7684SOL    HW223952   5.132   3.344   1.404
 7685SOL     OW23953   2.502   0.304   0.733
 7685SOL    HW123954   2.435   0.291   0.660
 7685SOL    HW223955   2.564   0.380   0.708
 7686SOL     OW23956   6.750   6.718   4.701
 7686SOL    HW123957   6.816   6.644   4.686
 7686SOL    HW223958   6.736   6.731   4.799
 7687SOL     OW23959   5.208   3.212   6.275
 7687SOL    HW123960   5.240   3.127   6.233
 7687SOL    HW223961   5.242   3.290   6.224
 7688SOL     OW23962   6.429   3.114   6.574
 7688SOL    HW123963   6.417   3.088   6.670
 7688SOL    HW223964   6.464   3.207   6.569
 7689SOL     OW23965   5.230   0.343   1.753
 7689SOL    HW123966   5.175   0.259   1.753
 7689SOL    HW223967   5.170   0.422   1.763
 7690SOL     OW23968   5.911   4.984   2.659
 7690SOL    HW123969   5.922   4.903   2.718
 7690SOL    HW223970   5.890   4.955   2.566
 7691SOL     OW23971   4.844   3.335   3.992
 7691SOL    HW123972   4.864   3.377   4.080
 7691SOL    HW223973   4.874   3.239   3.993
 7692SOL     OW23974   2.733   6.714   2.625
 7692SOL    HW123975   2.674   6.787   2.658
 7692SOL    HW223976   2.746   6.646   2.697
 7693SOL     OW23977   3.016   0.907   1.571
 7693SOL    HW123978   3.114   0.920   1.556
 7693SOL    HW223979   3.000   0.881   1.666
 7694SOL     OW23980   4.501   1.780   6.657
 7694SOL    HW123981   4.467   1.689   6.683
 7694SOL    HW223982   4.598   1.786   6.679
 7695SOL     OW23983   5.173   0.430   3.807
 7695SOL    HW123984   5.207   0.340   3.779
 7695SOL    HW223985   5.104   0.461   3.741
 7696SOL     OW23986   2.270   2.351   5.910
 7696SOL    HW123987   2.334   2.306   5.846
 7696SOL    HW223988   2.233   2.433   5.867
 7697SOL     OW23989   5.937   6.813   3.378
 7697SOL    HW123990   5.913   6.910   3.378
 7697SOL    HW223991   6.035   6.803   3.398
 7698SOL     OW23992   6.112   3.160   1.072
 7698SOL    HW123993   6.155   3.250   1.068
 7698SOL    HW223994   6.073   3.138   0.983
 7699SOL     OW23995   4.676   6.233   5.728
 7699SOL    HW123996   4.726   6.188   5.802
 7699SOL    HW223997   4.732   6.305   5.689
 7700SOL     OW23998   5.326   5.697   1.632
 7700SOL    HW123999   5.240   5.685   1.682
 7700SOL    HW224000   5.316   5.663   1.539
 7701SOL     OW24001   1.625   2.357   6.174
 7701SOL    HW124002   1.596   2.406   6.256
 7701SOL    HW224003   1.566   2.277   6.161
 7702SOL     OW24004   4.927   6.656   4.553
 7702SOL    HW124005   5.003   6.667   4.617
 7702SOL    HW224006   4.870   6.738   4.555
 7703SOL     OW24007   0.120   6.513   5.266
 7703SOL    HW124008   0.196   6.569   5.234
 7703SOL    HW224009   0.070   6.478   5.186
 7704SOL     OW24010   1.047   1.590   4.894
 7704SOL    HW124011   1.020   1.642   4.813
 7704SOL    HW224012   1.128   1.537   4.873
 7705SOL     OW24013   1.151   5.216   6.854
 7705SOL    HW124014   1.191   5.133   6.892
 7705SOL    HW224015   1.218   5.291   6.861
 7706SOL     OW24016   3.384   3.229   2.594
 7706SOL    HW124017   3.444   3.189   2.526
 7706SOL    HW224018   3.298   3.178   2.597
 7707SOL     OW24019   6.551   4.377   6.772
 7707SOL    HW124020   6.526   4.412   6.862
 7707SOL    HW224021   6.481   4.405   6.705
 7708SOL     OW24022   1.627   0.246   4.011
 7708SOL    HW124023   1.660   0.211   4.099
 7708SOL    HW224024   1.554   0.313   4.026
 7709SOL     OW24025   6.713   5.056   1.257
 7709SOL    HW124026   6.765   4.977   1.290
 7709SOL    HW224027   6.734   5.136   1.314
 7710SOL     OW24028   5.995   2.825   1.234
 7710SOL    HW124029   5.901   2.848   1.208
 7710SOL    HW224030   6.039   2.775   1.159
 7711SOL     OW24031   0.418   4.516   4.639
 7711SOL    HW124032   0.403   4.417   4.638
 7711SOL    HW224033   0.332   4.563   4.617
 7712SOL     OW24034   0.269   5.204   5.237
 7712SOL    HW124035   0.348   5.264   5.245
 7712SOL    HW224036   0.204   5.224   5.311
 7713SOL     OW24037   1.182   4.614   0.129
 7713SOL    HW124038   1.280   4.633   0.121
 7713SOL    HW224039   1.169   4.519   0.154
 7714SOL     OW24040   6.177   2.043   5.023
 7714SOL    HW124041   6.231   1.980   5.078
 7714SOL    HW224042   6.079   2.025   5.037
 7715SOL     OW24043   3.551   3.192   5.661
 7715SOL    HW124044   3.550   3.163   5.757
 7715SOL    HW224045   3.491   3.270   5.648
 7716SOL     OW24046   1.276   0.023   6.003
 7716SOL    HW124047   1.252   6.959   6.052
 7716SOL    HW224048   1.234   0.022   5.912
 7717SOL     OW24049   0.275   2.501   6.458
 7717SOL    HW124050   0.327   2.426   6.499
 7717SOL    HW224051   0.180   2.496   6.489
 7718SOL     OW24052   0.378   3.307   2.979
 7718SOL    HW124053   0.315   3.292   3.055
 7718SOL    HW224054   0.392   3.222   2.930
 7719SOL     OW24055   1.690   5.410   5.239
 7719SOL    HW124056   1.695   5.386   5.142
 7719SOL    HW224057   1.768   5.467   5.264
 7720SOL     OW24058   4.575   0.980   6.452
 7720SOL    HW124059   4.651   0.916   6.433
 7720SOL    HW224060   4.496   0.928   6.484
 7721SOL     OW24061   6.573   6.487   2.606
 7721SOL    HW124062   6.625   6.445   2.531
 7721SOL    HW224063   6.635   6.507   2.682
 7722SOL     OW24064   1.288   6.013   3.438
 7722SOL    HW124065   1.295   6.010   3.339
 7722SOL    HW224066   1.379   6.007   3.479
 7723SOL     OW24067   4.938   4.136   6.905
 7723SOL    HW124068   4.894   4.069   6.845
 7723SOL    HW224069   4.978   4.089   6.983
 7724SOL     OW24070   1.931   3.819   0.948
 7724SOL    HW124071   1.984   3.814   1.032
 7724SOL    HW224072   1.910   3.915   0.927
 7725SOL     OW24073   5.695   2.806   4.645
 7725SOL    HW124074   5.776   2.842   4.690
 7725SOL    HW224075   5.660   2.727   4.697
 7726SOL     OW24076   1.729   3.674   6.754
 7726SOL    HW124077   1.696   3.728   6.832
 7726SOL    HW224078   1.822   3.702   6.731
 7727SOL     OW24079   5.116   0.469   2.137
 7727SOL    HW124080   5.076   0.378   2.130
 7727SOL    HW224081   5.050   0.531   2.180
 7728SOL     OW24082   1.878   3.920   4.606
 7728SOL    HW124083   1.837   3.885   4.690
 7728SOL    HW224084   1.902   4.017   4.619
 7729SOL     OW24085   0.054   1.111   2.722
 7729SOL    HW124086   0.150   1.125   2.747
 7729SOL    HW224087   0.010   1.054   2.791
 7730SOL     OW24088   6.636   4.626   5.262
 7730SOL    HW124089   6.713   4.607   5.201
 7730SOL    HW224090   6.655   4.588   5.353
 7731SOL     OW24091   6.261   6.934   5.768
 7731SOL    HW124092   6.279   6.968   5.676
 7731SOL    HW224093   6.346   6.897   5.807
 7732SOL     OW24094   4.144   0.511   6.386
 7732SOL    HW124095   4.189   0.574   6.324
 7732SOL    HW224096   4.053   0.545   6.408
 7733SOL     OW24097   6.860   5.119   1.849
 7733SOL    HW124098   6.796   5.147   1.778
 7733SOL    HW224099   6.953   5.118   1.811
 7734SOL     OW24100   3.689   4.061   3.559
 7734SOL    HW124101   3.771   4.039   3.612
 7734SOL    HW224102   3.628   4.118   3.614
 7735SOL     OW24103   0.360   6.174   0.924
 7735SOL    HW124104   0.341   6.261   0.970
 7735SOL    HW224105   0.337   6.183   0.827
 7736SOL     OW24106   1.622   2.520   6.924
 7736SOL    HW124107   1.559   2.458   6.877
 7736SOL    HW224108   1.596   2.526   0.001
 7737SOL     OW24109   4.351   4.558   7.009
 7737SOL    HW124110   4.369   4.499   0.068
 7737SOL    HW224111   4.279   4.623   0.013
 7738SOL     OW24112   2.011   0.614   5.112
 7738SOL    HW124113   1.978   0.524   5.139
 7738SOL    HW224114   2.107   0.624   5.137
 7739SOL     OW24115   1.718   2.337   0.338
 7739SOL    HW124116   1.726   2.417   0.396
 7739SOL    HW224117   1.783   2.343   0.263
 7740SOL     OW24118   2.526   0.658   4.745
 7740SOL    HW124119   2.561   0.746   4.777
 7740SOL    HW224120   2.602   0.600   4.716
 7741SOL     OW24121   0.590   4.708   6.208
 7741SOL    HW124122   0.687   4.703   6.183
 7741SOL    HW224123   0.536   4.657   6.141
 7742SOL     OW24124   4.703   2.219   3.769
 7742SOL    HW124125   4.635   2.279   3.726
 7742SOL    HW224126   4.795   2.255   3.752
 7743SOL     OW24127   3.713   1.651   5.776
 7743SOL    HW124128   3.722   1.596   5.693
 7743SOL    HW224129   3.794   1.709   5.786
 7744SOL     OW24130   1.053   6.889   4.406
 7744SOL    HW124131   1.152   6.899   4.415
 7744SOL    HW224132   1.018   6.834   4.482
 7745SOL     OW24133   2.693   6.729   1.554
 7745SOL    HW124134   2.702   6.784   1.471
 7745SOL    HW224135   2.739   6.641   1.541
 7746SOL     OW24136   0.478   5.696   1.667
 7746SOL    HW124137   0.537   5.702   1.587
 7746SOL    HW224138   0.383   5.688   1.638
 7747SOL     OW24139   6.961   6.008   0.486
 7747SOL    HW124140   6.956   5.913   0.455
 7747SOL    HW224141   6.878   6.031   0.536
 7748SOL     OW24142   4.367   1.524   5.929
 7748SOL    HW124143   4.405   1.466   6.001
 7748SOL    HW224144   4.307   1.469   5.871
 7749SOL     OW24145   3.824   3.219   3.147
 7749SOL    HW124146   3.793   3.148   3.084
 7749SOL    HW224147   3.854   3.177   3.233
 7750SOL     OW24148   5.160   4.865   5.532
 7750SOL    HW124149   5.164   4.946   5.590
 7750SOL    HW224150   5.211   4.791   5.575
 7751SOL     OW24151   6.793   1.414   4.540
 7751SOL    HW124152   6.820   1.447   4.631
 7751SOL    HW224153   6.694   1.420   4.531
 7752SOL     OW24154   6.437   5.084   5.114
 7752SOL    HW124155   6.452   4.985   5.125
 7752SOL    HW224156   6.526   5.130   5.110
 7753SOL     OW24157   2.412   1.004   5.126
 7753SOL    HW124158   2.441   1.099   5.113
 7753SOL    HW224159   2.323   0.990   5.082
 7754SOL     OW24160   6.352   1.096   1.381
 7754SOL    HW124161   6.413   1.060   1.452
 7754SOL    HW224162   6.260   1.057   1.393
 7755SOL     OW24163   1.620   6.092   4.942
 7755SOL    HW124164   1.640   6.158   4.870
 7755SOL    HW224165   1.630   5.999   4.906
 7756SOL     OW24166   4.016   5.645   3.163
 7756SOL    HW124167   3.955   5.609   3.234
 7756SOL    HW224168   4.092   5.693   3.206
 7757SOL     OW24169   3.444   6.730   5.749
 7757SOL    HW124170   3.439   6.805   5.816
 7757SOL    HW224171   3.456   6.768   5.658
 7758SOL     OW24172   3.195   2.534   6.475
 7758SOL    HW124173   3.135   2.508   6.399
 7758SOL    HW224174   3.162   2.620   6.515
 7759SOL     OW24175   1.773   0.886   4.698
 7759SOL    HW124176   1.681   0.874   4.661
 7759SOL    HW224177   1.838   0.897   4.623
 7760SOL     OW24178   5.298   1.690   3.480
 7760SOL    HW124179   5.345   1.775   3.503
 7760SOL    HW224180   5.304   1.627   3.557
 7761SOL     OW24181   4.252   0.610   6.603
 7761SOL    HW124182   4.229   0.565   6.516
 7761SOL    HW224183   4.174   0.665   6.633
 7762SOL     OW24184   1.584   2.086   0.370
 7762SOL    HW124185   1.623   2.065   0.459
 7762SOL    HW224186   1.615   2.175   0.339
 7763SOL     OW24187   2.341   2.021   1.561
 7763SOL    HW124188   2.374   2.011   1.655
 7763SOL    HW224189   2.336   2.118   1.537
 7764SOL     OW24190   4.164   3.506   2.390
 7764SOL    HW124191   4.182   3.448   2.470
 7764SOL    HW224192   4.233   3.489   2.320
 7765SOL     OW24193   0.120   2.019   2.516
 7765SOL    HW124194   0.214   2.031   2.548
 7765SOL    HW224195   0.118   2.026   2.416
 7766SOL     OW24196   6.936   3.690   0.439
 7766SOL    HW124197   6.940   3.595   0.471
 7766SOL    HW224198   0.006   3.718   0.406
 7767SOL     OW24199   5.718   4.120   5.321
 7767SOL    HW124200   5.738   4.096   5.226
 7767SOL    HW224201   5.621   4.143   5.331
 7768SOL     OW24202   4.186   5.277   1.525
 7768SOL    HW124203   4.154   5.368   1.499
 7768SOL    HW224204   4.135   5.208   1.475
 7769SOL     OW24205   6.262   1.888   2.127
 7769SOL    HW124206   6.320   1.953   2.079
 7769SOL    HW224207   6.234   1.926   2.215
 7770SOL     OW24208   3.333   5.491   0.927
 7770SOL    HW124209   3.431   5.507   0.924
 7770SOL    HW224210   3.285   5.579   0.930
 7771SOL     OW24211   2.619   0.894   4.381
 7771SOL    HW124212   2.702   0.874   4.434
 7771SOL    HW224213   2.643   0.950   4.302
 7772SOL     OW24214   5.785   1.000   5.048
 7772SOL    HW124215   5.702   1.017   5.102
 7772SOL    HW224216   5.836   0.924   5.087
 7773SOL     OW24217   3.738   4.480   5.523
 7773SOL    HW124218   3.795   4.414   5.474
 7773SOL    HW224219   3.668   4.432   5.576
 7774SOL     OW24220   4.717   1.305   6.720
 7774SOL    HW124221   4.722   1.386   6.662
 7774SOL    HW224222   4.810   1.272   6.739
 7775SOL     OW24223   2.195   6.451   2.160
 7775SOL    HW124224   2.283   6.495   2.178
 7775SOL    HW224225   2.205   6.386   2.085
 7776SOL     OW24226   3.726   3.905   0.957
 7776SOL    HW124227   3.723   3.924   0.859
 7776SOL    HW224228   3.745   3.990   1.007
 7777SOL     OW24229   1.152   0.300   6.954
 7777SOL    HW124230   1.243   0.262   6.966
 7777SOL    HW224231   1.150   0.394   6.990
 7778SOL     OW24232   5.077   0.997   1.534
 7778SOL    HW124233   5.054   1.091   1.512
 7778SOL    HW224234   5.134   0.958   1.461
 7779SOL     OW24235   4.354   2.706   0.154
 7779SOL    HW124236   4.328   2.612   0.176
 7779SOL    HW224237   4.411   2.707   0.072
 7780SOL     OW24238   1.016   0.232   4.593
 7780SOL    HW124239   1.015   0.167   4.669
 7780SOL    HW224240   1.107   0.230   4.549
 7781SOL     OW24241   1.361   4.628   5.573
 7781SOL    HW124242   1.436   4.563   5.573
 7781SOL    HW224243   1.373   4.693   5.498
 7782SOL     OW24244   4.273   4.945   0.251
 7782SOL    HW124245   4.326   4.860   0.255
 7782SOL    HW224246   4.301   4.998   0.172
 7783SOL     OW24247   2.247   5.209   6.736
 7783SOL    HW124248   2.264   5.306   6.715
 7783SOL    HW224249   2.294   5.184   6.820
 7784SOL     OW24250   0.303   2.864   7.015
 7784SOL    HW124251   0.350   2.820   6.939
 7784SOL    HW224252   0.362   2.933   0.036
 7785SOL     OW24253   2.241   5.701   4.999
 7785SOL    HW124254   2.314   5.659   5.054
 7785SOL    HW224255   2.160   5.713   5.055
 7786SOL     OW24256   3.461   4.095   4.274
 7786SOL    HW124257   3.400   4.091   4.353
 7786SOL    HW224258   3.550   4.130   4.304
 7787SOL     OW24259   2.936   2.358   5.294
 7787SOL    HW124260   2.932   2.273   5.347
 7787SOL    HW224261   3.027   2.366   5.253
 7788SOL     OW24262   0.462   1.455   0.233
 7788SOL    HW124263   0.382   1.513   0.217
 7788SOL    HW224264   0.509   1.485   0.316
 7789SOL     OW24265   2.179   0.429   1.269
 7789SOL    HW124266   2.240   0.487   1.323
 7789SOL    HW224267   2.152   0.349   1.324
 7790SOL     OW24268   6.128   3.892   2.965
 7790SOL    HW124269   6.102   3.859   2.874
 7790SOL    HW224270   6.077   3.976   2.986
 7791SOL     OW24271   0.832   4.474   5.085
 7791SOL    HW124272   0.821   4.401   5.152
 7791SOL    HW224273   0.863   4.557   5.132
 7792SOL     OW24274   2.188   5.724   6.320
 7792SOL    HW124275   2.135   5.639   6.330
 7792SOL    HW224276   2.270   5.706   6.265
 7793SOL     OW24277   1.793   1.084   6.624
 7793SOL    HW124278   1.739   1.002   6.646
 7793SOL    HW224279   1.809   1.087   6.525
 7794SOL     OW24280   5.208   5.659   3.044
 7794SOL    HW124281   5.222   5.564   3.016
 7794SOL    HW224282   5.231   5.719   2.968
 7795SOL     OW24283   1.795   5.005   5.913
 7795SOL    HW124284   1.727   4.932   5.920
 7795SOL    HW224285   1.752   5.093   5.930
 7796SOL     OW24286   4.134   3.337   4.381
 7796SOL    HW124287   4.224   3.346   4.337
 7796SOL    HW224288   4.066   3.312   4.313
 7797SOL     OW24289   0.929   6.882   2.906
 7797SOL    HW124290   1.018   6.907   2.946
 7797SOL    HW224291   0.944   6.820   2.829
 7798SOL     OW24292   3.981   5.945   6.524
 7798SOL    HW124293   4.059   5.886   6.543
 7798SOL    HW224294   3.992   6.033   6.571
 7799SOL     OW24295   6.037   4.796   1.204
 7799SOL    HW124296   5.982   4.717   1.179
 7799SOL    HW224297   6.129   4.767   1.231
 7800SOL     OW24298   0.672   6.551   1.985
 7800SOL    HW124299   0.756   6.594   1.953
 7800SOL    HW224300   0.671   6.455   1.958
 7801SOL     OW24301   3.637   2.438   5.442
 7801SOL    HW124302   3.562   2.497   5.415
 7801SOL    HW224303   3.606   2.343   5.442
 7802SOL     OW24304   5.951   2.004   0.606
 7802SOL    HW124305   5.869   2.003   0.662
 7802SOL    HW224306   5.989   2.097   0.604
 7803SOL     OW24307   2.974   3.993   5.575
 7803SOL    HW124308   2.875   3.986   5.557
 7803SOL    HW224309   3.000   4.089   5.581
 7804SOL     OW24310   4.929   1.379   6.355
 7804SOL    HW124311   4.947   1.345   6.263
 7804SOL    HW224312   5.008   1.432   6.387
 7805SOL     OW24313   5.704   3.301   2.195
 7805SOL    HW124314   5.751   3.351   2.122
 7805SOL    HW224315   5.638   3.238   2.154
 7806SOL     OW24316   4.899   3.378   6.775
 7806SOL    HW124317   4.815   3.362   6.827
 7806SOL    HW224318   4.891   3.462   6.722
 7807SOL     OW24319   0.038   3.365   6.932
 7807SOL    HW124320   7.019   3.447   6.974
 7807SOL    HW224321   0.136   3.361   6.953
 7808SOL     OW24322   0.938   1.604   5.284
 7808SOL    HW124323   0.977   1.516   5.310
 7808SOL    HW224324   0.910   1.601   5.188
 7809SOL     OW24325   1.500   5.336   5.732
 7809SOL    HW124326   1.473   5.415   5.787
 7809SOL    HW224327   1.523   5.260   5.792
 7810SOL     OW24328   2.061   1.116   6.697
 7810SOL    HW124329   2.101   1.206   6.679
 7810SOL    HW224330   1.961   1.123   6.693
 7811SOL     OW24331   0.623   4.596   4.819
 7811SOL    HW124332   0.565   4.573   4.741
 7811SOL    HW224333   0.591   4.681   4.861
 7812SOL     OW24334   0.461   1.904   4.277
 7812SOL    HW124335   0.363   1.910   4.259
 7812SOL    HW224336   0.493   1.811   4.257
 7813SOL     OW24337   6.443   2.354   1.071
 7813SOL    HW124338   6.430   2.376   1.167
 7813SOL    HW224339   6.357   2.366   1.021
 7814SOL     OW24340   1.603   3.786   3.999
 7814SOL    HW124341   1.702   3.771   3.998
 7814SOL    HW224342   1.577   3.835   3.916
 7815SOL     OW24343   0.127   1.556   6.338
 7815SOL    HW124344   0.136   1.507   6.251
 7815SOL    HW224345   0.206   1.616   6.351
 7816SOL     OW24346   1.240   4.025   5.150
 7816SOL    HW124347   1.265   3.972   5.231
 7816SOL    HW224348   1.169   4.091   5.174
 7817SOL     OW24349   5.456   3.242   5.079
 7817SOL    HW124350   5.465   3.146   5.105
 7817SOL    HW224351   5.386   3.286   5.136
 7818SOL     OW24352   5.031   4.953   2.710
 7818SOL    HW124353   4.986   4.906   2.787
 7818SOL    HW224354   5.123   4.980   2.738
 7819SOL     OW24355   0.261   1.787   1.420
 7819SOL    HW124356   0.199   1.819   1.348
 7819SOL    HW224357   0.214   1.719   1.477
 7820SOL     OW24358   1.983   0.098   6.314
 7820SOL    HW124359   1.927   0.114   6.232
 7820SOL    HW224360   2.005   0.000   6.320
 7821SOL     OW24361   2.868   5.311   0.751
 7821SOL    HW124362   2.958   5.316   0.709
 7821SOL    HW224363   2.876   5.287   0.847
 7822SOL     OW24364   1.546   6.633   5.549
 7822SOL    HW124365   1.533   6.723   5.592
 7822SOL    HW224366   1.613   6.580   5.602
 7823SOL     OW24367   1.951   4.383   5.018
 7823SOL    HW124368   2.047   4.360   5.034
 7823SOL    HW224369   1.901   4.380   5.104
 7824SOL     OW24370   0.369   3.500   5.494
 7824SOL    HW124371   0.338   3.405   5.505
 7824SOL    HW224372   0.450   3.515   5.551
 7825SOL     OW24373   3.176   0.771   6.976
 7825SOL    HW124374   3.232   0.733   6.902
 7825SOL    HW224375   3.221   0.852   7.013
 7826SOL     OW24376   0.909   3.344   5.865
 7826SOL    HW124377   0.899   3.298   5.776
 7826SOL    HW224378   1.005   3.349   5.889
 7827SOL     OW24379   6.439   5.414   4.540
 7827SOL    HW124380   6.428   5.398   4.638
 7827SOL    HW224381   6.536   5.415   4.517
 7828SOL     OW24382   0.747   5.002   6.556
 7828SOL    HW124383   0.820   5.009   6.625
 7828SOL    HW224384   0.660   5.032   6.596
 7829SOL     OW24385   3.931   3.592   0.653
 7829SOL    HW124386   3.957   3.525   0.721
 7829SOL    HW224387   3.926   3.683   0.695
 7830SOL     OW24388   2.678   5.865   3.798
 7830SOL    HW124389   2.668   5.768   3.777
 7830SOL    HW224390   2.704   5.915   3.716
 7831SOL     OW24391   1.573   0.031   6.843
 7831SOL    HW124392   1.581   0.107   6.780
 7831SOL    HW224393   1.664   0.002   6.872
 7832SOL     OW24394   6.606   0.887   4.964
 7832SOL    HW124395   6.706   0.892   4.973
 7832SOL    HW224396   6.575   0.795   4.987
 7833SOL     OW24397   1.027   0.509   3.036
 7833SOL    HW124398   0.957   0.453   3.080
 7833SOL    HW224399   1.076   0.561   3.105
 7834SOL     OW24400   6.566   3.066   5.689
 7834SOL    HW124401   6.546   3.105   5.600
 7834SOL    HW224402   6.548   2.967   5.687
 7835SOL     OW24403   4.410   2.528   5.622
 7835SOL    HW124404   4.323   2.541   5.574
 7835SOL    HW224405   4.448   2.438   5.600
 7836SOL     OW24406   3.349   3.724   4.180
 7836SOL    HW124407   3.438   3.708   4.136
 7836SOL    HW224408   3.329   3.822   4.180
 7837SOL     OW24409   0.418   5.871   6.715
 7837SOL    HW124410   0.486   5.943   6.727
 7837SOL    HW224411   0.372   5.854   6.803
 7838SOL     OW24412   4.642   5.472   2.307
 7838SOL    HW124413   4.554   5.446   2.268
 7838SOL    HW224414   4.635   5.562   2.350
 7839SOL     OW24415   6.032   3.370   4.159
 7839SOL    HW124416   5.994   3.448   4.209
 7839SOL    HW224417   5.983   3.287   4.185
 7840SOL     OW24418   1.726   3.015   4.135
 7840SOL    HW124419   1.678   3.036   4.220
 7840SOL    HW224420   1.665   3.032   4.057
 7841SOL     OW24421   3.660   2.182   6.389
 7841SOL    HW124422   3.577   2.141   6.349
 7841SOL    HW224423   3.734   2.179   6.323
 7842SOL     OW24424   1.170   0.853   1.680
 7842SOL    HW124425   1.108   0.930   1.694
 7842SOL    HW224426   1.264   0.882   1.700
 7843SOL     OW24427   0.109   6.214   2.993
 7843SOL    HW124428   0.030   6.259   2.951
 7843SOL    HW224429   0.159   6.162   2.923
 7844SOL     OW24430   3.773   6.989   2.384
 7844SOL    HW124431   3.828   0.052   2.376
 7844SOL    HW224432   3.803   6.922   2.316
 7845SOL     OW24433   6.353   2.461   1.289
 7845SOL    HW124434   6.284   2.417   1.346
 7845SOL    HW224435   6.346   2.560   1.298
 7846SOL     OW24436   1.041   1.035   0.688
 7846SOL    HW124437   1.124   1.087   0.705
 7846SOL    HW224438   1.025   1.029   0.589
 7847SOL     OW24439   5.678   4.744   6.295
 7847SOL    HW124440   5.741   4.675   6.331
 7847SOL    HW224441   5.685   4.827   6.350
 7848SOL     OW24442   3.216   4.676   0.397
 7848SOL    HW124443   3.146   4.708   0.333
 7848SOL    HW224444   3.261   4.595   0.360
 7849SOL     OW24445   4.308   5.341   6.938
 7849SOL    HW124446   4.265   5.320   6.850
 7849SOL    HW224447   4.264   5.422   6.978
 7850SOL     OW24448   7.005   1.247   4.470
 7850SOL    HW124449   0.044   1.226   4.548
 7850SOL    HW224450   6.927   1.302   4.500
 7851SOL     OW24451   6.964   4.654   0.991
 7851SOL    HW124452   6.891   4.585   0.996
 7851SOL    HW224453   6.935   4.728   0.929
 7852SOL     OW24454   1.433   2.839   6.921
 7852SOL    HW124455   1.404   2.919   6.870
 7852SOL    HW224456   1.436   2.760   6.860
 7853SOL     OW24457   4.215   2.937   1.631
 7853SOL    HW124458   4.173   2.940   1.541
 7853SOL    HW224459   4.263   3.023   1.648
 7854SOL     OW24460   4.626   1.286   0.248
 7854SOL    HW124461   4.683   1.247   0.175
 7854SOL    HW224462   4.537   1.313   0.210
 7855SOL     OW24463   5.359   6.632   4.017
 7855SOL    HW124464   5.405   6.615   3.929
 7855SOL    HW224465   5.407   6.582   4.089
 7856SOL     OW24466   2.131   6.412   5.515
 7856SOL    HW124467   2.164   6.371   5.430
 7856SOL    HW224468   2.158   6.354   5.592
 7857SOL     OW24469   6.321   4.177   0.796
 7857SOL    HW124470   6.326   4.274   0.772
 7857SOL    HW224471   6.410   4.147   0.830
 7858SOL     OW24472   6.713   3.891   6.246
 7858SOL    HW124473   6.721   3.837   6.162
 7858SOL    HW224474   6.617   3.916   6.260
 7859SOL     OW24475   4.978   1.939   0.453
 7859SOL    HW124476   5.023   1.986   0.529
 7859SOL    HW224477   5.021   1.965   0.367
 7860SOL     OW24478   2.849   1.409   4.540
 7860SOL    HW124479   2.785   1.448   4.606
 7860SOL    HW224480   2.881   1.480   4.478
 7861SOL     OW24481   2.202   6.428   0.472
 7861SOL    HW124482   2.222   6.489   0.549
 7861SOL    HW224483   2.110   6.448   0.437
 7862SOL     OW24484   1.388   6.480   0.247
 7862SOL    HW124485   1.363   6.567   0.204
 7862SOL    HW224486   1.345   6.405   0.196
 7863SOL     OW24487   1.466   3.887   3.756
 7863SOL    HW124488   1.466   3.981   3.723
 7863SOL    HW224489   1.372   3.854   3.763
 7864SOL     OW24490   2.321   5.968   5.498
 7864SOL    HW124491   2.354   5.943   5.407
 7864SOL    HW224492   2.317   6.068   5.505
 7865SOL     OW24493   5.805   4.125   3.072
 7865SOL    HW124494   5.809   4.026   3.056
 7865SOL    HW224495   5.886   4.168   3.033
 7866SOL     OW24496   0.885   0.813   5.665
 7866SOL    HW124497   0.892   0.897   5.718
 7866SOL    HW224498   0.791   0.778   5.670
 7867SOL     OW24499   4.285   5.429   3.775
 7867SOL    HW124500   4.332   5.397   3.858
 7867SOL    HW224501   4.234   5.354   3.734
 7868SOL     OW24502   3.081   6.226   1.447
 7868SOL    HW124503   3.039   6.159   1.387
 7868SOL    HW224504   3.160   6.267   1.402
 7869SOL     OW24505   6.057   4.702   6.832
 7869SOL    HW124506   6.109   4.688   6.916
 7869SOL    HW224507   6.097   4.648   6.758
 7870SOL     OW24508   5.843   6.412   3.983
 7870SOL    HW124509   5.861   6.321   4.021
 7870SOL    HW224510   5.842   6.479   4.056
 7871SOL     OW24511   4.344   1.134   0.808
 7871SOL    HW124512   4.377   1.170   0.721
 7871SOL    HW224513   4.334   1.034   0.801
 7872SOL     OW24514   0.853   5.451   2.912
 7872SOL    HW124515   0.896   5.437   3.001
 7872SOL    HW224516   0.817   5.544   2.906
 7873SOL     OW24517   4.833   1.981   0.111
 7873SOL    HW124518   4.746   1.962   0.158
 7873SOL    HW224519   4.874   2.064   0.150
 7874SOL     OW24520   5.840   2.500   0.635
 7874SOL    HW124521   5.869   2.409   0.663
 7874SOL    HW224522   5.795   2.495   0.546
 7875SOL     OW24523   6.128   4.475   6.528
 7875SOL    HW124524   6.165   4.460   6.620
 7875SOL    HW224525   6.102   4.387   6.489
 7876SOL     OW24526   1.063   0.107   3.480
 7876SOL    HW124527   1.103   0.117   3.390
 7876SOL    HW224528   1.088   0.018   3.518
 7877SOL     OW24529   6.963   2.710   3.124
 7877SOL    HW124530   6.970   2.731   3.222
 7877SOL    HW224531   0.015   2.759   3.074
 7878SOL     OW24532   4.273   6.003   3.148
 7878SOL    HW124533   4.341   5.991   3.075
 7878SOL    HW224534   4.185   6.026   3.107
 7879SOL     OW24535   3.313   5.275   3.010
 7879SOL    HW124536   3.403   5.313   2.989
 7879SOL    HW224537   3.242   5.341   2.985
 7880SOL     OW24538   1.281   4.964   2.187
 7880SOL    HW124539   1.316   4.928   2.101
 7880SOL    HW224540   1.196   4.916   2.211
 7881SOL     OW24541   4.965   4.269   3.714
 7881SOL    HW124542   4.988   4.193   3.653
 7881SOL    HW224543   4.884   4.245   3.768
 7882SOL     OW24544   0.673   3.454   0.205
 7882SOL    HW124545   0.636   3.545   0.184
 7882SOL    HW224546   0.683   3.444   0.304
 7883SOL     OW24547   0.768   0.388   5.045
 7883SOL    HW124548   0.692   0.355   4.989
 7883SOL    HW224549   0.821   0.455   4.994
 7884SOL     OW24550   0.837   3.016   4.303
 7884SOL    HW124551   0.750   3.048   4.264
 7884SOL    HW224552   0.912   3.045   4.245
 7885SOL     OW24553   0.138   6.045   6.808
 7885SOL    HW124554   0.172   6.089   6.891
 7885SOL    HW224555   0.107   6.115   6.744
 7886SOL     OW24556   5.328   4.266   1.154
 7886SOL    HW124557   5.330   4.209   1.236
 7886SOL    HW224558   5.240   4.312   1.147
 7887SOL     OW24559   4.742   3.261   6.200
 7887SOL    HW124560   4.736   3.354   6.166
 7887SOL    HW224561   4.727   3.197   6.124
 7888SOL     OW24562   5.213   5.994   4.924
 7888SOL    HW124563   5.247   5.991   4.830
 7888SOL    HW224564   5.143   5.923   4.936
 7889SOL     OW24565   0.004   5.186   3.165
 7889SOL    HW124566   0.026   5.128   3.087
 7889SOL    HW224567   0.078   5.252   3.180
 7890SOL     OW24568   1.884   3.021   2.264
 7890SOL    HW124569   1.906   3.018   2.167
 7890SOL    HW224570   1.969   3.020   2.318
 7891SOL     OW24571   1.136   4.859   2.760
 7891SOL    HW124572   1.161   4.763   2.775
 7891SOL    HW224573   1.210   4.919   2.790
 7892SOL     OW24574   2.373   2.167   5.189
 7892SOL    HW124575   2.473   2.169   5.200
 7892SOL    HW224576   2.349   2.188   5.095
 7893SOL     OW24577   6.251   6.826   1.378
 7893SOL    HW124578   6.266   6.742   1.430
 7893SOL    HW224579   6.153   6.840   1.365
 7894SOL     OW24580   2.893   0.046   1.821
 7894SOL    HW124581   2.901   0.090   1.911
 7894SOL    HW224582   2.957   0.089   1.758
 7895SOL     OW24583   6.608   1.460   3.366
 7895SOL    HW124584   6.611   1.388   3.436
 7895SOL    HW224585   6.641   1.423   3.279
 7896SOL     OW24586   4.319   1.967   6.585
 7896SOL    HW124587   4.408   1.924   6.575
 7896SOL    HW224588   4.303   2.030   6.508
 7897SOL     OW24589   3.339   3.138   6.468
 7897SOL    HW124590   3.353   3.094   6.380
 7897SOL    HW224591   3.356   3.236   6.460
 7898SOL     OW24592   5.337   1.641   3.850
 7898SOL    HW124593   5.388   1.701   3.912
 7898SOL    HW224594   5.282   1.697   3.789
 7899SOL     OW24595   4.303   1.353   2.358
 7899SOL    HW124596   4.312   1.380   2.262
 7899SOL    HW224597   4.341   1.425   2.416
 7900SOL     OW24598   1.367   5.816   1.098
 7900SOL    HW124599   1.407   5.826   1.007
 7900SOL    HW224600   1.342   5.720   1.112
 7901SOL     OW24601   6.367   5.599   0.980
 7901SOL    HW124602   6.310   5.660   1.035
 7901SOL    HW224603   6.322   5.583   0.892
 7902SOL     OW24604   5.116   4.579   5.888
 7902SOL    HW124605   5.168   4.522   5.951
 7902SOL    HW224606   5.087   4.525   5.809
 7903SOL     OW24607   0.296   2.506   6.895
 7903SOL    HW124608   0.220   2.557   6.936
 7903SOL    HW224609   0.376   2.513   6.954
 7904SOL     OW24610   6.053   1.937   2.429
 7904SOL    HW124611   6.146   1.969   2.414
 7904SOL    HW224612   6.035   1.930   2.527
 7905SOL     OW24613   2.142   2.223   1.783
 7905SOL    HW124614   2.163   2.305   1.835
 7905SOL    HW224615   2.225   2.188   1.741
 7906SOL     OW24616   0.496   4.485   0.551
 7906SOL    HW124617   0.481   4.502   0.454
 7906SOL    HW224618   0.594   4.485   0.570
 7907SOL     OW24619   6.324   2.665   2.016
 7907SOL    HW124620   6.267   2.583   2.017
 7907SOL    HW224621   6.412   2.643   1.972
 7908SOL     OW24622   6.844   1.133   3.125
 7908SOL    HW124623   6.809   1.224   3.103
 7908SOL    HW224624   6.901   1.100   3.049
 7909SOL     OW24625   4.158   6.241   4.966
 7909SOL    HW124626   4.137   6.200   5.055
 7909SOL    HW224627   4.161   6.341   4.976
 7910SOL     OW24628   5.809   3.259   6.403
 7910SOL    HW124629   5.904   3.292   6.400
 7910SOL    HW224630   5.763   3.299   6.482
 7911SOL     OW24631   6.999   5.466   6.802
 7911SOL    HW124632   6.998   5.547   6.744
 7911SOL    HW224633   6.952   5.391   6.755
 7912SOL     OW24634   0.306   4.849   5.389
 7912SOL    HW124635   0.268   4.925   5.441
 7912SOL    HW224636   0.390   4.878   5.343
 7913SOL     OW24637   1.443   6.347   6.620
 7913SOL    HW124638   1.472   6.253   6.603
 7913SOL    HW224639   1.358   6.365   6.569
 7914SOL     OW24640   6.639   4.001   1.190
 7914SOL    HW124641   6.664   3.904   1.191
 7914SOL    HW224642   6.676   4.043   1.108
 7915SOL     OW24643   3.661   1.012   2.442
 7915SOL    HW124644   3.643   1.008   2.540
 7915SOL    HW224645   3.677   1.106   2.414
 7916SOL     OW24646   4.801   3.757   5.682
 7916SOL    HW124647   4.734   3.798   5.743
 7916SOL    HW224648   4.772   3.772   5.587
 7917SOL     OW24649   4.056   3.825   3.405
 7917SOL    HW124650   4.088   3.855   3.315
 7917SOL    HW224651   3.957   3.837   3.411
 7918SOL     OW24652   6.626   2.643   2.397
 7918SOL    HW124653   6.711   2.668   2.443
 7918SOL    HW224654   6.549   2.653   2.460
 7919SOL     OW24655   5.635   4.606   1.773
 7919SOL    HW124656   5.539   4.603   1.802
 7919SOL    HW224657   5.653   4.691   1.723
 7920SOL     OW24658   0.406   6.680   1.980
 7920SOL    HW124659   0.493   6.632   1.996
 7920SOL    HW224660   0.334   6.613   1.960
 7921SOL     OW24661   2.500   6.289   2.096
 7921SOL    HW124662   2.559   6.285   2.015
 7921SOL    HW224663   2.519   6.210   2.154
 7922SOL     OW24664   0.974   4.551   6.257
 7922SOL    HW124665   1.025   4.510   6.333
 7922SOL    HW224666   0.976   4.490   6.178
 7923SOL     OW24667   0.607   1.824   3.022
 7923SOL    HW124668   0.679   1.804   3.089
 7923SOL    HW224669   0.525   1.772   3.046
 7924SOL     OW24670   2.062   0.990   3.773
 7924SOL    HW124671   2.098   1.054   3.705
 7924SOL    HW224672   2.026   0.909   3.727
 7925SOL     OW24673   0.110   1.668   6.750
 7925SOL    HW124674   0.020   1.681   6.708
 7925SOL    HW224675   0.151   1.757   6.769
 7926SOL     OW24676   3.489   6.952   1.835
 7926SOL    HW124677   3.403   6.929   1.790
 7926SOL    HW224678   3.471   6.973   1.931
 7927SOL     OW24679   4.674   4.214   4.382
 7927SOL    HW124680   4.608   4.288   4.368
 7927SOL    HW224681   4.688   4.200   4.480
 7928SOL     OW24682   0.934   4.379   6.720
 7928SOL    HW124683   0.988   4.365   6.804
 7928SOL    HW224684   0.868   4.305   6.710
 7929SOL     OW24685   4.025   3.695   4.365
 7929SOL    HW124686   4.002   3.789   4.341
 7929SOL    HW224687   4.072   3.651   4.289
 7930SOL     OW24688   5.520   6.344   3.228
 7930SOL    HW124689   5.490   6.348   3.323
 7930SOL    HW224690   5.466   6.275   3.179
 7931SOL     OW24691   2.630   3.195   6.968
 7931SOL    HW124692   2.605   3.172   6.873
 7931SOL    HW224693   2.642   3.294   6.977
 7932SOL     OW24694   2.937   0.026   0.360
 7932SOL    HW124695   2.890   0.090   0.299
 7932SOL    HW224696   2.874   7.012   0.429
 7933SOL     OW24697   1.916   1.015   6.149
 7933SOL    HW124698   1.899   0.923   6.113
 7933SOL    HW224699   1.852   1.079   6.107
 7934SOL     OW24700   4.141   2.746   5.695
 7934SOL    HW124701   4.091   2.701   5.769
 7934SOL    HW224702   4.162   2.840   5.722
 7935SOL     OW24703   4.565   6.044   1.877
 7935SOL    HW124704   4.473   6.012   1.900
 7935SOL    HW224705   4.592   6.005   1.789
 7936SOL     OW24706   4.190   6.143   2.864
 7936SOL    HW124707   4.247   6.200   2.805
 7936SOL    HW224708   4.127   6.201   2.915
 7937SOL     OW24709   6.248   0.656   5.765
 7937SOL    HW124710   6.304   0.683   5.687
 7937SOL    HW224711   6.308   0.633   5.842
 7938SOL     OW24712   6.037   4.963   4.464
 7938SOL    HW124713   6.115   4.910   4.431
 7938SOL    HW224714   6.071   5.042   4.515
 7939SOL     OW24715   0.114   6.482   4.152
 7939SOL    HW124716   0.193   6.483   4.090
 7939SOL    HW224717   0.103   6.390   4.190
 7940SOL     OW24718   1.884   5.927   0.761
 7940SOL    HW124719   1.833   6.011   0.743
 7940SOL    HW224720   1.821   5.850   0.766
 7941SOL     OW24721   6.966   0.319   0.891
 7941SOL    HW124722   7.018   0.400   0.917
 7941SOL    HW224723   6.870   0.344   0.879
 7942SOL     OW24724   1.176   1.134   1.023
 7942SOL    HW124725   1.239   1.110   0.949
 7942SOL    HW224726   1.130   1.051   1.055
 7943SOL     OW24727   6.106   2.359   0.293
 7943SOL    HW124728   6.025   2.417   0.298
 7943SOL    HW224729   6.188   2.415   0.305
 7944SOL     OW24730   6.964   3.109   2.005
 7944SOL    HW124731   6.991   3.132   2.099
 7944SOL    HW224732   6.992   3.182   1.943
 7945SOL     OW24733   5.215   6.760   1.159
 7945SOL    HW124734   5.278   6.832   1.130
 7945SOL    HW224735   5.229   6.678   1.102
 7946SOL     OW24736   1.355   1.287   6.025
 7946SOL    HW124737   1.434   1.324   5.978
 7946SOL    HW224738   1.367   1.298   6.124
 7947SOL     OW24739   4.589   5.164   6.263
 7947SOL    HW124740   4.651   5.213   6.201
 7947SOL    HW224741   4.643   5.109   6.327
 7948SOL     OW24742   0.811   4.928   5.924
 7948SOL    HW124743   0.787   4.920   5.827
 7948SOL    HW224744   0.742   4.983   5.971
 7949SOL     OW24745   6.181   3.943   3.866
 7949SOL    HW124746   6.276   3.973   3.873
 7949SOL    HW224747   6.177   3.853   3.822
 7950SOL     OW24748   3.620   5.263   4.429
 7950SOL    HW124749   3.686   5.272   4.503
 7950SOL    HW224750   3.659   5.207   4.356
 7951SOL     OW24751   2.935   3.179   0.465
 7951SOL    HW124752   2.871   3.251   0.440
 7951SOL    HW224753   2.909   3.140   0.553
 7952SOL     OW24754   4.960   4.794   0.610
 7952SOL    HW124755   5.018   4.816   0.689
 7952SOL    HW224756   5.017   4.781   0.529
 7953SOL     OW24757   2.134   3.442   2.808
 7953SOL    HW124758   2.138   3.373   2.880
 7953SOL    HW224759   2.183   3.524   2.837
 7954SOL     OW24760   5.167   5.524   4.602
 7954SOL    HW124761   5.168   5.623   4.586
 7954SOL    HW224762   5.138   5.477   4.519
 7955SOL     OW24763   1.542   6.725   6.084
 7955SOL    HW124764   1.560   6.641   6.134
 7955SOL    HW224765   1.509   6.795   6.147
 7956SOL     OW24766   6.336   6.776   3.153
 7956SOL    HW124767   6.389   6.702   3.111
 7956SOL    HW224768   6.283   6.824   3.082
 7957SOL     OW24769   0.627   2.132   1.100
 7957SOL    HW124770   0.555   2.202   1.095
 7957SOL    HW224771   0.685   2.149   1.179
 7958SOL     OW24772   2.479   5.375   3.742
 7958SOL    HW124773   2.450   5.346   3.832
 7958SOL    HW224774   2.409   5.351   3.674
 7959SOL     OW24775   4.962   5.402   1.166
 7959SOL    HW124776   4.915   5.354   1.240
 7959SOL    HW224777   4.979   5.497   1.193
 7960SOL     OW24778   2.207   2.367   0.808
 7960SOL    HW124779   2.257   2.410   0.733
 7960SOL    HW224780   2.264   2.367   0.890
 7961SOL     OW24781   1.688   5.901   0.050
 7961SOL    HW124782   1.593   5.930   0.040
 7961SOL    HW224783   1.745   5.981   0.068
 7962SOL     OW24784   1.719   6.711   2.168
 7962SOL    HW124785   1.651   6.685   2.236
 7962SOL    HW224786   1.811   6.688   2.201
 7963SOL     OW24787   0.993   6.364   4.802
 7963SOL    HW124788   1.066   6.424   4.835
 7963SOL    HW224789   0.998   6.277   4.851
 7964SOL     OW24790   6.169   5.450   3.555
 7964SOL    HW124791   6.209   5.372   3.509
 7964SOL    HW224792   6.132   5.514   3.488
 7965SOL     OW24793   5.310   1.635   0.298
 7965SOL    HW124794   5.226   1.676   0.262
 7965SOL    HW224795   5.372   1.614   0.222
 7966SOL     OW24796   0.220   6.593   3.588
 7966SOL    HW124797   0.316   6.623   3.590
 7966SOL    HW224798   0.162   6.667   3.622
 7967SOL     OW24799   3.131   0.005   3.031
 7967SOL    HW124800   3.095   0.098   3.030
 7967SOL    HW224801   3.094   6.975   2.952
 7968SOL     OW24802   2.055   0.664   1.654
 7968SOL    HW124803   2.102   0.583   1.689
 7968SOL    HW224804   2.045   0.656   1.554
 7969SOL     OW24805   3.140   1.840   3.283
 7969SOL    HW124806   3.185   1.923   3.315
 7969SOL    HW224807   3.155   1.830   3.184
 7970SOL     OW24808   0.442   5.218   2.987
 7970SOL    HW124809   0.510   5.192   2.919
 7970SOL    HW224810   0.462   5.171   3.073
 7971SOL     OW24811   3.076   1.566   2.403
 7971SOL    HW124812   3.104   1.655   2.368
 7971SOL    HW224813   2.979   1.569   2.427
 7972SOL     OW24814   0.108   5.070   1.757
 7972SOL    HW124815   0.119   5.005   1.682
 7972SOL    HW224816   0.140   5.028   1.842
 7973SOL     OW24817   4.525   2.028   2.757
 7973SOL    HW124818   4.459   2.055   2.686
 7973SOL    HW224819   4.584   1.955   2.721
 7974SOL     OW24820   5.864   6.345   3.414
 7974SOL    HW124821   5.957   6.357   3.449
 7974SOL    HW224822   5.850   6.403   3.334
 7975SOL     OW24823   1.992   1.267   2.977
 7975SOL    HW124824   2.010   1.288   2.881
 7975SOL    HW224825   1.985   1.353   3.028
 7976SOL     OW24826   0.708   6.454   6.028
 7976SOL    HW124827   0.797   6.498   6.031
 7976SOL    HW224828   0.701   6.399   5.945
 7977SOL     OW24829   4.551   6.548   1.586
 7977SOL    HW124830   4.583   6.455   1.574
 7977SOL    HW224831   4.625   6.612   1.569
 7978SOL     OW24832   3.435   2.434   5.718
 7978SOL    HW124833   3.422   2.335   5.716
 7978SOL    HW224834   3.360   2.477   5.769
 7979SOL     OW24835   5.254   6.972   4.188
 7979SOL    HW124836   5.270   0.046   4.158
 7979SOL    HW224837   5.256   6.967   4.288
 7980SOL     OW24838   2.537   0.720   2.116
 7980SOL    HW124839   2.567   0.628   2.091
 7980SOL    HW224840   2.489   0.718   2.204
 7981SOL     OW24841   0.977   5.948   2.700
 7981SOL    HW124842   1.061   5.995   2.673
 7981SOL    HW224843   0.997   5.854   2.726
 7982SOL     OW24844   0.093   2.420   0.356
 7982SOL    HW124845   0.077   2.513   0.387
 7982SOL    HW224846   0.092   2.417   0.256
 7983SOL     OW24847   4.728   2.713   2.130
 7983SOL    HW124848   4.716   2.803   2.088
 7983SOL    HW224849   4.731   2.723   2.229
 7984SOL     OW24850   0.099   0.176   0.122
 7984SOL    HW124851   0.013   0.147   0.165
 7984SOL    HW224852   0.160   0.214   0.191
 7985SOL     OW24853   0.581   1.250   1.033
 7985SOL    HW124854   0.563   1.295   1.121
 7985SOL    HW224855   0.675   1.270   1.004
 7986SOL     OW24856   4.799   3.036   0.016
 7986SOL    HW124857   4.888   3.043   6.992
 7986SOL    HW224858   4.796   3.097   0.095
 7987SOL     OW24859   1.002   2.667   4.715
 7987SOL    HW124860   0.963   2.593   4.661
 7987SOL    HW224861   1.096   2.684   4.686
 7988SOL     OW24862   2.800   1.878   5.734
 7988SOL    HW124863   2.703   1.897   5.720
 7988SOL    HW224864   2.851   1.964   5.734
 7989SOL     OW24865   3.725   3.564   6.114
 7989SOL    HW124866   3.749   3.495   6.047
 7989SOL    HW224867   3.788   3.642   6.106
 7990SOL     OW24868   2.237   2.773   4.739
 7990SOL    HW124869   2.258   2.755   4.835
 7990SOL    HW224870   2.316   2.749   4.683
 7991SOL     OW24871   1.158   3.199   5.721
 7991SOL    HW124872   1.173   3.245   5.809
 7991SOL    HW224873   1.240   3.147   5.696
 7992SOL     OW24874   2.599   1.448   0.625
 7992SOL    HW124875   2.537   1.427   0.700
 7992SOL    HW224876   2.684   1.396   0.637
 7993SOL     OW24877   2.516   6.348   6.395
 7993SOL    HW124878   2.536   6.250   6.386
 7993SOL    HW224879   2.599   6.396   6.424
 7994SOL     OW24880   6.015   1.149   4.687
 7994SOL    HW124881   6.111   1.151   4.657
 7994SOL    HW224882   5.956   1.122   4.611
 7995SOL     OW24883   4.293   5.679   3.516
 7995SOL    HW124884   4.353   5.639   3.585
 7995SOL    HW224885   4.266   5.608   3.450
 7996SOL     OW24886   4.334   1.082   5.202
 7996SOL    HW124887   4.403   1.014   5.175
 7996SOL    HW224888   4.276   1.103   5.124
 7997SOL     OW24889   5.334   2.459   2.340
 7997SOL    HW124890   5.379   2.401   2.408
 7997SOL    HW224891   5.401   2.521   2.299
 7998SOL     OW24892   6.274   4.946   6.466
 7998SOL    HW124893   6.322   4.992   6.540
 7998SOL    HW224894   6.335   4.936   6.387
 7999SOL     OW24895   1.865   0.550   5.479
 7999SOL    HW124896   1.864   0.504   5.567
 7999SOL    HW224897   1.833   0.644   5.490
 8000SOL     OW24898   5.325   0.383   5.911
 8000SOL    HW124899   5.334   0.337   5.822
 8000SOL    HW224900   5.268   0.465   5.901
 8001SOL     OW24901   2.723   5.986   1.427
 8001SOL    HW124902   2.783   6.019   1.354
 8001SOL    HW224903   2.641   5.945   1.386
 8002SOL     OW24904   5.076   2.590   5.419
 8002SOL    HW124905   5.155   2.575   5.359
 8002SOL    HW224906   5.027   2.504   5.431
 8003SOL     OW24907   3.637   5.893   3.801
 8003SOL    HW124908   3.717   5.833   3.795
 8003SOL    HW224909   3.554   5.840   3.786
 8004SOL     OW24910   1.061   4.091   2.775
 8004SOL    HW124911   1.059   3.995   2.804
 8004SOL    HW224912   1.023   4.099   2.683
 8005SOL     OW24913   2.354   0.344   2.340
 8005SOL    HW124914   2.314   0.297   2.419
 8005SOL    HW224915   2.281   0.391   2.289
 8006SOL     OW24916   3.795   6.363   1.669
 8006SOL    HW124917   3.731   6.439   1.683
 8006SOL    HW224918   3.755   6.296   1.606
 8007SOL     OW24919   0.402   1.235   4.180
 8007SOL    HW124920   0.443   1.206   4.267
 8007SOL    HW224921   0.474   1.275   4.122
 8008SOL     OW24922   6.086   5.748   0.527
 8008SOL    HW124923   6.038   5.815   0.470
 8008SOL    HW224924   6.176   5.729   0.486
 8009SOL     OW24925   6.991   6.911   4.198
 8009SOL    HW124926   6.996   6.820   4.158
 8009SOL    HW224927   6.905   6.921   4.249
 8010SOL     OW24928   1.772   3.253   6.684
 8010SOL    HW124929   1.741   3.302   6.766
 8010SOL    HW224930   1.713   3.277   6.607
 8011SOL     OW24931   2.019   2.480   0.410
 8011SOL    HW124932   2.093   2.546   0.394
 8011SOL    HW224933   2.013   2.461   0.508
 8012SOL     OW24934   2.891   0.313   3.633
 8012SOL    HW124935   2.927   0.248   3.565
 8012SOL    HW224936   2.836   0.383   3.586
 8013SOL     OW24937   5.631   5.544   4.673
 8013SOL    HW124938   5.722   5.584   4.668
 8013SOL    HW224939   5.607   5.526   4.769
 8014SOL     OW24940   2.080   6.933   6.751
 8014SOL    HW124941   2.149   6.873   6.711
 8014SOL    HW224942   2.089   6.931   6.851
 8015SOL     OW24943   1.572   1.864   5.929
 8015SOL    HW124944   1.493   1.923   5.913
 8015SOL    HW224945   1.652   1.901   5.882
 8016SOL     OW24946   3.875   6.048   1.785
 8016SOL    HW124947   3.853   6.078   1.877
 8016SOL    HW224948   3.837   5.957   1.770
 8017SOL     OW24949   5.791   3.744   5.420
 8017SOL    HW124950   5.823   3.827   5.467
 8017SOL    HW224951   5.697   3.757   5.390
 8018SOL     OW24952   5.885   2.548   4.835
 8018SOL    HW124953   5.850   2.634   4.874
 8018SOL    HW224954   5.814   2.507   4.778
 8019SOL     OW24955   1.867   5.213   1.323
 8019SOL    HW124956   1.907   5.304   1.319
 8019SOL    HW224957   1.797   5.204   1.251
 8020SOL     OW24958   5.816   6.095   6.340
 8020SOL    HW124959   5.834   6.076   6.244
 8020SOL    HW224960   5.718   6.087   6.358
 8021SOL     OW24961   6.754   0.918   0.888
 8021SOL    HW124962   6.681   0.979   0.920
 8021SOL    HW224963   6.839   0.941   0.934
 8022SOL     OW24964   4.220   5.462   3.323
 8022SOL    HW124965   4.195   5.367   3.306
 8022SOL    HW224966   4.274   5.497   3.246
 8023SOL     OW24967   6.741   6.206   3.494
 8023SOL    HW124968   6.675   6.141   3.457
 8023SOL    HW224969   6.822   6.157   3.526
 8024SOL     OW24970   4.580   5.447   4.659
 8024SOL    HW124971   4.619   5.362   4.694
 8024SOL    HW224972   4.650   5.498   4.609
 8025SOL     OW24973   2.770   5.898   0.642
 8025SOL    HW124974   2.795   5.840   0.565
 8025SOL    HW224975   2.850   5.948   0.674
 8026SOL     OW24976   2.040   3.102   0.498
 8026SOL    HW124977   1.964   3.075   0.438
 8026SOL    HW224978   2.077   3.021   0.543
 8027SOL     OW24979   5.072   3.036   5.568
 8027SOL    HW124980   5.031   2.953   5.531
 8027SOL    HW224981   5.135   3.075   5.500
 8028SOL     OW24982   5.358   5.786   0.638
 8028SOL    HW124983   5.279   5.769   0.580
 8028SOL    HW224984   5.442   5.774   0.586
 8029SOL     OW24985   3.118   4.576   6.959
 8029SOL    HW124986   3.216   4.584   6.978
 8029SOL    HW224987   3.070   4.549   0.023
 8030SOL     OW24988   6.103   3.756   0.827
 8030SOL    HW124989   6.175   3.823   0.843
 8030SOL    HW224990   6.133   3.692   0.757
 8031SOL     OW24991   3.677   6.188   1.120
 8031SOL    HW124992   3.690   6.165   1.024
 8031SOL    HW224993   3.606   6.258   1.128
 8032SOL     OW24994   4.915   4.759   5.574
 8032SOL    HW124995   4.894   4.732   5.668
 8032SOL    HW224996   5.010   4.790   5.568
 8033SOL     OW24997   6.307   2.427   0.516
 8033SOL    HW124998   6.316   2.364   0.438
 8033SOL    HW224999   6.396   2.438   0.560
 8034SOL     OW25000   6.383   1.596   4.996
 8034SOL    HW125001   6.292   1.587   4.956
 8034SOL    HW225002   6.403   1.515   5.051
 8035SOL     OW25003   5.688   5.978   6.928
 8035SOL    HW125004   5.632   5.991   7.010
 8035SOL    HW225005   5.675   5.885   6.893
 8036SOL     OW25006   1.215   4.644   1.210
 8036SOL    HW125007   1.135   4.584   1.204
 8036SOL    HW225008   1.295   4.590   1.238
 8037SOL     OW25009   2.183   2.931   1.688
 8037SOL    HW125010   2.178   2.982   1.601
 8037SOL    HW225011   2.177   2.996   1.764
 8038SOL     OW25012   6.230   1.386   3.963
 8038SOL    HW125013   6.165   1.460   3.946
 8038SOL    HW225014   6.276   1.402   4.050
 8039SOL     OW25015   3.322   6.652   4.759
 8039SOL    HW125016   3.238   6.597   4.760
 8039SOL    HW225017   3.346   6.675   4.665
 8040SOL     OW25018   6.082   6.096   0.600
 8040SOL    HW125019   5.988   6.062   0.595
 8040SOL    HW225020   6.085   6.189   0.561
 8041SOL     OW25021   4.109   2.017   0.798
 8041SOL    HW125022   4.012   2.040   0.808
 8041SOL    HW225023   4.156   2.090   0.748
 8042SOL     OW25024   2.606   4.138   0.803
 8042SOL    HW125025   2.525   4.133   0.861
 8042SOL    HW225026   2.599   4.071   0.730
 8043SOL     OW25027   2.638   0.379   1.277
 8043SOL    HW125028   2.599   0.450   1.218
 8043SOL    HW225029   2.718   0.415   1.325
 8044SOL     OW25030   3.262   3.876   1.566
 8044SOL    HW125031   3.229   3.808   1.632
 8044SOL    HW225032   3.240   3.968   1.598
 8045SOL     OW25033   6.336   2.724   3.550
 8045SOL    HW125034   6.363   2.812   3.511
 8045SOL    HW225035   6.396   2.701   3.626
 8046SOL     OW25036   0.270   5.519   5.662
 8046SOL    HW125037   0.185   5.467   5.675
 8046SOL    HW225038   0.286   5.532   5.564
 8047SOL     OW25039   2.937   6.691   4.545
 8047SOL    HW125040   2.975   6.783   4.555
 8047SOL    HW225041   2.984   6.629   4.608
 8048SOL     OW25042   6.110   1.041   5.950
 8048SOL    HW125043   6.074   0.949   5.938
 8048SOL    HW225044   6.132   1.080   5.860
 8049SOL     OW25045   1.391   6.550   0.523
 8049SOL    HW125046   1.418   6.606   0.445
 8049SOL    HW225047   1.420   6.456   0.508
 8050SOL     OW25048   0.587   3.212   1.094
 8050SOL    HW125049   0.496   3.224   1.053
 8050SOL    HW225050   0.653   3.191   1.022
 8051SOL     OW25051   3.494   2.068   3.873
 8051SOL    HW125052   3.554   2.024   3.806
 8051SOL    HW225053   3.550   2.112   3.944
 8052SOL     OW25054   3.842   2.039   3.208
 8052SOL    HW125055   3.829   2.004   3.116
 8052SOL    HW225056   3.940   2.046   3.228
 8053SOL     OW25057   3.915   3.355   1.904
 8053SOL    HW125058   4.002   3.305   1.898
 8053SOL    HW225059   3.854   3.309   1.968
 8054SOL     OW25060   4.682   5.613   4.449
 8054SOL    HW125061   4.771   5.647   4.479
 8054SOL    HW225062   4.614   5.686   4.456
 8055SOL     OW25063   0.986   0.068   4.805
 8055SOL    HW125064   0.985   6.991   4.831
 8055SOL    HW225065   1.049   0.118   4.865
 8056SOL     OW25066   4.379   1.141   2.191
 8056SOL    HW125067   4.323   1.203   2.247
 8056SOL    HW225068   4.469   1.182   2.177
 8057SOL     OW25069   3.178   6.850   3.212
 8057SOL    HW125070   3.169   6.922   3.143
 8057SOL    HW225071   3.255   6.872   3.273
 8058SOL     OW25072   2.513   0.236   3.686
 8058SOL    HW125073   2.508   0.293   3.605
 8058SOL    HW225074   2.558   0.149   3.664
 8059SOL     OW25075   2.543   0.957   3.743
 8059SOL    HW125076   2.610   1.025   3.775
 8059SOL    HW225077   2.491   0.923   3.821
 8060SOL     OW25078   0.966   2.598   5.181
 8060SOL    HW125079   0.986   2.582   5.277
 8060SOL    HW225080   0.958   2.696   5.165
 8061SOL     OW25081   6.891   5.911   1.954
 8061SOL    HW125082   6.903   5.972   2.032
 8061SOL    HW225083   6.793   5.898   1.935
 8062SOL     OW25084   2.089   3.603   2.261
 8062SOL    HW125085   2.048   3.523   2.305
 8062SOL    HW225086   2.163   3.574   2.201
 8063SOL     OW25087   2.555   3.100   6.720
 8063SOL    HW125088   2.458   3.078   6.707
 8063SOL    HW225089   2.609   3.063   6.645
 8064SOL     OW25090   6.447   2.763   6.870
 8064SOL    HW125091   6.465   2.720   6.782
 8064SOL    HW225092   6.376   2.712   6.918
 8065SOL     OW25093   4.819   7.013   6.455
 8065SOL    HW125094   4.801   6.980   6.362
 8065SOL    HW225095   4.846   6.936   6.513
 8066SOL     OW25096   2.527   6.942   1.915
 8066SOL    HW125097   2.506   6.879   1.841
 8066SOL    HW225098   2.507   0.016   1.887
 8067SOL     OW25099   4.870   2.132   2.449
 8067SOL    HW125100   4.882   2.222   2.406
 8067SOL    HW225101   4.807   2.140   2.526
 8068SOL     OW25102   6.272   4.807   4.405
 8068SOL    HW125103   6.305   4.773   4.317
 8068SOL    HW225104   6.266   4.732   4.471
 8069SOL     OW25105   1.196   6.509   2.486
 8069SOL    HW125106   1.260   6.472   2.420
 8069SOL    HW225107   1.246   6.552   2.561
 8070SOL     OW25108   3.901   0.173   2.598
 8070SOL    HW125109   3.945   0.252   2.642
 8070SOL    HW225110   3.934   0.166   2.504
 8071SOL     OW25111   3.465   6.684   0.423
 8071SOL    HW125112   3.395   6.726   0.482
 8071SOL    HW225113   3.555   6.695   0.466
 8072SOL     OW25114   5.213   0.565   2.589
 8072SOL    HW125115   5.221   0.480   2.641
 8072SOL    HW225116   5.193   0.641   2.651
 8073SOL     OW25117   4.760   0.007   6.077
 8073SOL    HW125118   4.755   6.948   6.139
 8073SOL    HW225119   4.735   0.090   6.128
 8074SOL     OW25120   3.421   4.031   6.700
 8074SOL    HW125121   3.434   3.949   6.756
 8074SOL    HW225122   3.430   4.113   6.756
 8075SOL     OW25123   5.635   2.309   3.029
 8075SOL    HW125124   5.694   2.273   3.102
 8075SOL    HW225125   5.553   2.349   3.069
 8076SOL     OW25126   4.666   2.824   6.092
 8076SOL    HW125127   4.688   2.825   6.190
 8076SOL    HW225128   4.730   2.765   6.043
 8077SOL     OW25129   1.086   0.506   0.495
 8077SOL    HW125130   1.109   0.560   0.576
 8077SOL    HW225131   1.059   0.567   0.421
 8078SOL     OW25132   6.155   2.888   0.777
 8078SOL    HW125133   6.094   2.817   0.743
 8078SOL    HW225134   6.119   2.978   0.753
 8079SOL     OW25135   0.727   1.856   1.580
 8079SOL    HW125136   0.643   1.807   1.602
 8079SOL    HW225137   0.804   1.792   1.578
 8080SOL     OW25138   3.362   4.922   0.260
 8080SOL    HW125139   3.369   4.884   0.168
 8080SOL    HW225140   3.325   4.853   0.322
 8081SOL     OW25141   5.853   2.033   5.345
 8081SOL    HW125142   5.889   2.028   5.252
 8081SOL    HW225143   5.787   2.109   5.351
 8082SOL     OW25144   6.632   3.607   4.245
 8082SOL    HW125145   6.566   3.671   4.204
 8082SOL    HW225146   6.709   3.659   4.282
 8083SOL     OW25147   6.081   2.089   4.439
 8083SOL    HW125148   6.166   2.040   4.453
 8083SOL    HW225149   6.099   2.187   4.428
 8084SOL     OW25150   6.670   0.414   0.859
 8084SOL    HW125151   6.632   0.476   0.790
 8084SOL    HW225152   6.600   0.395   0.928
 8085SOL     OW25153   6.065   2.252   0.544
 8085SOL    HW125154   6.071   2.272   0.446
 8085SOL    HW225155   6.131   2.309   0.594
 8086SOL     OW25156   2.714   5.991   5.728
 8086SOL    HW125157   2.692   6.043   5.811
 8086SOL    HW225158   2.789   5.927   5.748
 8087SOL     OW25159   2.776   4.108   0.458
 8087SOL    HW125160   2.817   4.176   0.518
 8087SOL    HW225161   2.709   4.054   0.509
 8088SOL     OW25162   4.458   0.527   2.631
 8088SOL    HW125163   4.520   0.459   2.592
 8088SOL    HW225164   4.489   0.619   2.605
 8089SOL     OW25165   6.330   2.855   0.566
 8089SOL    HW125166   6.269   2.844   0.644
 8089SOL    HW225167   6.359   2.950   0.559
 8090SOL     OW25168   4.142   2.267   5.314
 8090SOL    HW125169   4.145   2.350   5.259
 8090SOL    HW225170   4.103   2.193   5.260
 8091SOL     OW25171   2.475   4.871   5.639
 8091SOL    HW125172   2.529   4.944   5.597
 8091SOL    HW225173   2.378   4.895   5.636
 8092SOL     OW25174   6.782   1.913   4.086
 8092SOL    HW125175   6.695   1.959   4.070
 8092SOL    HW225176   6.772   1.847   4.160
 8093SOL     OW25177   5.771   5.340   0.830
 8093SOL    HW125178   5.784   5.292   0.743
 8093SOL    HW225179   5.784   5.275   0.905
 8094SOL     OW25180   0.806   3.769   4.501
 8094SOL    HW125181   0.842   3.764   4.408
 8094SOL    HW225182   0.764   3.859   4.515
 8095SOL     OW25183   6.159   3.461   5.000
 8095SOL    HW125184   6.077   3.411   5.028
 8095SOL    HW225185   6.208   3.493   5.081
 8096SOL     OW25186   3.683   1.074   0.520
 8096SOL    HW125187   3.762   1.120   0.561
 8096SOL    HW225188   3.663   1.116   0.431
 8097SOL     OW25189   4.662   1.380   4.280
 8097SOL    HW125190   4.663   1.363   4.379
 8097SOL    HW225191   4.590   1.445   4.258
 8098SOL     OW25192   2.470   1.449   4.264
 8098SOL    HW125193   2.413   1.477   4.187
 8098SOL    HW225194   2.486   1.529   4.323
 8099SOL     OW25195   4.621   6.082   4.909
 8099SOL    HW125196   4.624   6.016   4.983
 8099SOL    HW225197   4.592   6.171   4.944
 8100SOL     OW25198   6.868   6.478   0.503
 8100SOL    HW125199   6.830   6.524   0.583
 8100SOL    HW225200   6.820   6.391   0.489
 8101SOL     OW25201   0.794   5.241   2.498
 8101SOL    HW125202   0.741   5.273   2.577
 8101SOL    HW225203   0.891   5.235   2.523
 8102SOL     OW25204   6.421   0.365   6.302
 8102SOL    HW125205   6.417   0.334   6.207
 8102SOL    HW225206   6.390   0.291   6.362
 8103SOL     OW25207   2.149   1.859   2.288
 8103SOL    HW125208   2.126   1.935   2.349
 8103SOL    HW225209   2.097   1.778   2.315
 8104SOL     OW25210   3.310   6.003   5.898
 8104SOL    HW125211   3.349   5.911   5.907
 8104SOL    HW225212   3.319   6.033   5.803
 8105SOL     OW25213   2.194   2.767   2.615
 8105SOL    HW125214   2.284   2.734   2.644
 8105SOL    HW225215   2.196   2.785   2.517
 8106SOL     OW25216   6.948   4.349   4.980
 8106SOL    HW125217   6.895   4.369   4.897
 8106SOL    HW225218   0.025   4.341   4.956
 8107SOL     OW25219   1.049   5.710   6.403
 8107SOL    HW125220   0.969   5.653   6.416
 8107SOL    HW225221   1.022   5.798   6.365
 8108SOL     OW25222   2.113   3.693   4.991
 8108SOL    HW125223   2.211   3.688   4.968
 8108SOL    HW225224   2.077   3.600   5.000
 8109SOL     OW25225   0.818   5.675   4.864
 8109SOL    HW125226   0.834   5.654   4.960
 8109SOL    HW225227   0.904   5.669   4.814
 8110SOL     OW25228   1.298   4.712   0.929
 8110SOL    HW125229   1.289   4.653   1.010
 8110SOL    HW225230   1.394   4.725   0.907
 8111SOL     OW25231   3.293   5.983   4.275
 8111SOL    HW125232   3.324   5.975   4.369
 8111SOL    HW225233   3.195   6.004   4.274
 8112SOL     OW25234   4.349   1.169   4.432
 8112SOL    HW125235   4.421   1.168   4.363
 8112SOL    HW225236   4.263   1.139   4.391
 8113SOL     OW25237   3.493   2.814   5.853
 8113SOL    HW125238   3.540   2.780   5.771
 8113SOL    HW225239   3.525   2.907   5.874
 8114SOL     OW25240   3.197   3.700   1.770
 8114SOL    HW125241   3.132   3.624   1.768
 8114SOL    HW225242   3.263   3.685   1.844
 8115SOL     OW25243   3.623   2.407   1.347
 8115SOL    HW125244   3.653   2.475   1.280
 8115SOL    HW225245   3.556   2.447   1.409
 8116SOL     OW25246   4.885   1.530   5.273
 8116SOL    HW125247   4.851   1.579   5.353
 8116SOL    HW225248   4.909   1.437   5.299
 8117SOL     OW25249   2.543   1.898   5.749
 8117SOL    HW125250   2.505   1.873   5.838
 8117SOL    HW225251   2.482   1.962   5.703
 8118SOL     OW25252   1.504   2.350   4.410
 8118SOL    HW125253   1.563   2.344   4.329
 8118SOL    HW225254   1.408   2.340   4.382
 8119SOL     OW25255   1.079   6.036   1.559
 8119SOL    HW125256   1.132   5.951   1.554
 8119SOL    HW225257   1.137   6.114   1.537
 8120SOL     OW25258   4.748   4.128   1.778
 8120SOL    HW125259   4.729   4.224   1.795
 8120SOL    HW225260   4.664   4.081   1.753
 8121SOL     OW25261   6.384   6.555   2.987
 8121SOL    HW125262   6.407   6.458   2.978
 8121SOL    HW225263   6.449   6.610   2.934
 8122SOL     OW25264   0.544   5.871   1.326
 8122SOL    HW125265   0.588   5.907   1.244
 8122SOL    HW225266   0.613   5.827   1.384
 8123SOL     OW25267   1.099   5.480   0.328
 8123SOL    HW125268   1.034   5.553   0.347
 8123SOL    HW225269   1.049   5.397   0.301
 8124SOL     OW25270   1.249   6.265   3.197
 8124SOL    HW125271   1.267   6.168   3.212
 8124SOL    HW225272   1.161   6.289   3.237
 8125SOL     OW25273   5.874   5.028   3.105
 8125SOL    HW125274   5.844   4.959   3.171
 8125SOL    HW225275   5.838   5.005   3.014
 8126SOL     OW25276   6.743   4.276   2.535
 8126SOL    HW125277   6.703   4.243   2.449
 8126SOL    HW225278   6.830   4.229   2.552
 8127SOL     OW25279   3.993   5.114   1.370
 8127SOL    HW125280   4.059   5.039   1.374
 8127SOL    HW225281   3.902   5.077   1.356
 8128SOL     OW25282   3.395   2.162   5.743
 8128SOL    HW125283   3.323   2.093   5.756
 8128SOL    HW225284   3.484   2.121   5.761
 8129SOL     OW25285   4.889   6.274   6.421
 8129SOL    HW125286   4.942   6.255   6.503
 8129SOL    HW225287   4.950   6.279   6.342
 8130SOL     OW25288   0.822   6.719   0.015
 8130SOL    HW125289   0.892   6.789   7.019
 8130SOL    HW225290   0.847   6.665   0.095
 8131SOL     OW25291   1.807   1.360   0.783
 8131SOL    HW125292   1.874   1.347   0.856
 8131SOL    HW225293   1.749   1.439   0.805
 8132SOL     OW25294   6.319   4.677   3.115
 8132SOL    HW125295   6.319   4.648   3.211
 8132SOL    HW225296   6.307   4.597   3.056
 8133SOL     OW25297   0.602   6.027   2.013
 8133SOL    HW125298   0.623   6.022   1.915
 8133SOL    HW225299   0.509   5.991   2.028
 8134SOL     OW25300   1.584   2.529   2.162
 8134SOL    HW125301   1.660   2.506   2.223
 8134SOL    HW225302   1.616   2.592   2.091
 8135SOL     OW25303   4.085   6.137   2.356
 8135SOL    HW125304   4.184   6.144   2.344
 8135SOL    HW225305   4.044   6.107   2.270
 8136SOL     OW25306   2.201   5.997   1.408
 8136SOL    HW125307   2.283   5.954   1.446
 8136SOL    HW225308   2.121   5.969   1.461
 8137SOL     OW25309   3.226   3.884   4.993
 8137SOL    HW125310   3.194   3.880   5.087
 8137SOL    HW225311   3.148   3.903   4.932
 8138SOL     OW25312   4.727   1.203   3.145
 8138SOL    HW125313   4.817   1.223   3.183
 8138SOL    HW225314   4.710   1.262   3.066
 8139SOL     OW25315   1.264   3.084   4.977
 8139SOL    HW125316   1.273   3.008   5.041
 8139SOL    HW225317   1.183   3.138   5.000
 8140SOL     OW25318   4.294   0.774   1.069
 8140SOL    HW125319   4.243   0.861   1.067
 8140SOL    HW225320   4.360   0.773   0.994
 8141SOL     OW25321   6.047   0.382   5.745
 8141SOL    HW125322   6.045   0.441   5.826
 8141SOL    HW225323   6.140   0.349   5.732
 8142SOL     OW25324   2.397   5.631   0.768
 8142SOL    HW125325   2.431   5.719   0.803
 8142SOL    HW225326   2.445   5.556   0.814
 8143SOL     OW25327   5.786   4.754   0.610
 8143SOL    HW125328   5.823   4.704   0.688
 8143SOL    HW225329   5.690   4.778   0.627
 8144SOL     OW25330   0.712   5.862   6.931
 8144SOL    HW125331   0.771   5.811   6.869
 8144SOL    HW225332   0.764   5.936   6.974
 8145SOL     OW25333   5.263   5.608   6.832
 8145SOL    HW125334   5.325   5.654   6.769
 8145SOL    HW225335   5.229   5.673   6.899
 8146SOL     OW25336   6.710   6.144   4.765
 8146SOL    HW125337   6.674   6.228   4.725
 8146SOL    HW225338   6.634   6.087   4.796
 8147SOL     OW25339   2.087   0.824   5.519
 8147SOL    HW125340   2.122   0.864   5.604
 8147SOL    HW225341   1.993   0.855   5.504
 8148SOL     OW25342   4.776   3.878   0.511
 8148SOL    HW125343   4.766   3.976   0.525
 8148SOL    HW225344   4.757   3.830   0.597
 8149SOL     OW25345   1.449   6.920   5.017
 8149SOL    HW125346   1.403   6.940   4.931
 8149SOL    HW225347   1.536   6.874   4.999
 8150SOL     OW25348   0.727   4.253   0.670
 8150SOL    HW125349   0.674   4.276   0.752
 8150SOL    HW225350   0.817   4.219   0.697
 8151SOL     OW25351   6.559   5.260   3.102
 8151SOL    HW125352   6.654   5.291   3.111
 8151SOL    HW225353   6.497   5.332   3.134
 8152SOL     OW25354   5.362   1.458   2.862
 8152SOL    HW125355   5.454   1.426   2.881
 8152SOL    HW225356   5.364   1.556   2.841
 8153SOL     OW25357   0.260   1.823   2.094
 8153SOL    HW125358   0.172   1.777   2.107
 8153SOL    HW225359   0.321   1.801   2.170
 8154SOL     OW25360   1.463   0.791   3.168
 8154SOL    HW125361   1.449   0.856   3.094
 8154SOL    HW225362   1.393   0.805   3.238
 8155SOL     OW25363   1.723   5.105   4.165
 8155SOL    HW125364   1.680   5.017   4.182
 8155SOL    HW225365   1.822   5.094   4.160
 8156SOL     OW25366   1.322   4.347   0.462
 8156SOL    HW125367   1.336   4.283   0.386
 8156SOL    HW225368   1.227   4.378   0.462
 8157SOL     OW25369   6.540   4.499   4.938
 8157SOL    HW125370   6.462   4.439   4.953
 8157SOL    HW225371   6.553   4.558   5.017
 8158SOL     OW25372   6.002   5.274   6.098
 8158SOL    HW125373   6.076   5.308   6.040
 8158SOL    HW225374   5.952   5.202   6.050
 8159SOL     OW25375   2.762   0.481   4.691
 8159SOL    HW125376   2.785   0.533   4.772
 8159SOL    HW225377   2.756   0.384   4.714
 8160SOL     OW25378   5.951   1.533   2.409
 8160SOL    HW125379   5.964   1.602   2.339
 8160SOL    HW225380   5.877   1.561   2.471
 8161SOL     OW25381   6.154   2.217   2.127
 8161SOL    HW125382   6.087   2.206   2.053
 8161SOL    HW225383   6.246   2.202   2.090
 8162SOL     OW25384   0.482   5.687   4.634
 8162SOL    HW125385   0.458   5.590   4.635
 8162SOL    HW225386   0.400   5.741   4.613
 8163SOL     OW25387   3.973   4.671   5.640
 8163SOL    HW125388   3.876   4.680   5.661
 8163SOL    HW225389   4.005   4.580   5.669
 8164SOL     OW25390   5.369   1.523   0.610
 8164SOL    HW125391   5.337   1.558   0.521
 8164SOL    HW225392   5.291   1.514   0.672
 8165SOL     OW25393   0.621   1.965   6.001
 8165SOL    HW125394   0.575   2.053   6.010
 8165SOL    HW225395   0.626   1.939   5.905
 8166SOL     OW25396   2.035   1.613   5.194
 8166SOL    HW125397   2.131   1.590   5.176
 8166SOL    HW225398   1.981   1.529   5.193
 8167SOL     OW25399   1.881   3.225   3.663
 8167SOL    HW125400   1.917   3.258   3.750
 8167SOL    HW225401   1.781   3.238   3.661
 8168SOL     OW25402   1.817   6.945   2.521
 8168SOL    HW125403   1.902   6.906   2.558
 8168SOL    HW225404   1.837   6.991   2.435
 8169SOL     OW25405   4.639   3.490   1.080
 8169SOL    HW125406   4.594   3.575   1.108
 8169SOL    HW225407   4.705   3.463   1.151
 8170SOL     OW25408   0.005   4.399   2.785
 8170SOL    HW125409   6.964   4.458   2.838
 8170SOL    HW225410   0.014   4.436   2.692
 8171SOL     OW25411   2.578   1.946   1.443
 8171SOL    HW125412   2.578   1.949   1.343
 8171SOL    HW225413   2.488   1.972   1.477
 8172SOL     OW25414   1.258   3.101   1.453
 8172SOL    HW125415   1.342   3.057   1.420
 8172SOL    HW225416   1.282   3.175   1.516
 8173SOL     OW25417   5.897   0.261   1.728
 8173SOL    HW125418   5.827   0.217   1.671
 8173SOL    HW225419   5.865   0.353   1.754
 8174SOL     OW25420   2.488   6.510   3.729
 8174SOL    HW125421   2.459   6.443   3.798
 8174SOL    HW225422   2.533   6.461   3.653
 8175SOL     OW25423   0.696   2.314   5.797
 8175SOL    HW125424   0.616   2.272   5.753
 8175SOL    HW225425   0.675   2.332   5.893
 8176SOL     OW25426   2.492   4.613   0.587
 8176SOL    HW125427   2.575   4.595   0.534
 8176SOL    HW225428   2.517   4.653   0.675
 8177SOL     OW25429   2.526   0.770   3.340
 8177SOL    HW125430   2.589   0.817   3.403
 8177SOL    HW225431   2.472   0.703   3.390
 8178SOL     OW25432   2.415   6.325   1.410
 8178SOL    HW125433   2.341   6.264   1.382
 8178SOL    HW225434   2.474   6.278   1.475
 8179SOL     OW25435   5.808   0.501   3.392
 8179SOL    HW125436   5.825   0.599   3.409
 8179SOL    HW225437   5.741   0.468   3.459
 8180SOL     OW25438   4.900   5.790   0.438
 8180SOL    HW125439   4.843   5.752   0.365
 8180SOL    HW225440   4.991   5.747   0.434
 8181SOL     OW25441   6.835   0.429   6.372
 8181SOL    HW125442   6.788   0.497   6.428
 8181SOL    HW225443   6.833   0.457   6.276
 8182SOL     OW25444   3.418   3.834   3.762
 8182SOL    HW125445   3.350   3.793   3.823
 8182SOL    HW225446   3.435   3.773   3.685
 8183SOL     OW25447   6.422   0.225   5.670
 8183SOL    HW125448   6.434   0.129   5.645
 8183SOL    HW225449   6.394   0.231   5.766
 8184SOL     OW25450   0.101   5.649   6.057
 8184SOL    HW125451   0.005   5.649   6.084
 8184SOL    HW225452   0.152   5.584   6.113
 8185SOL     OW25453   0.292   5.986   5.935
 8185SOL    HW125454   0.296   5.890   5.964
 8185SOL    HW225455   0.197   6.012   5.919
 8186SOL     OW25456   1.736   5.473   0.570
 8186SOL    HW125457   1.703   5.552   0.623
 8186SOL    HW225458   1.793   5.416   0.628
 8187SOL     OW25459   1.839   0.019   4.849
 8187SOL    HW125460   1.873   0.084   4.917
 8187SOL    HW225461   1.757   0.055   4.805
 8188SOL     OW25462   2.183   3.218   2.610
 8188SOL    HW125463   2.090   3.200   2.578
 8188SOL    HW225464   2.183   3.304   2.661
 8189SOL     OW25465   5.882   5.280   3.483
 8189SOL    HW125466   5.807   5.337   3.516
 8189SOL    HW225467   5.846   5.190   3.459
 8190SOL     OW25468   6.620   4.044   3.111
 8190SOL    HW125469   6.551   3.975   3.090
 8190SOL    HW225470   6.676   4.013   3.188
 8191SOL     OW25471   4.037   4.568   0.782
 8191SOL    HW125472   4.040   4.668   0.790
 8191SOL    HW225473   4.067   4.542   0.690
 8192SOL     OW25474   0.472   5.735   3.239
 8192SOL    HW125475   0.501   5.650   3.281
 8192SOL    HW225476   0.552   5.791   3.219
 8193SOL     OW25477   0.820   4.531   3.834
 8193SOL    HW125478   0.875   4.543   3.751
 8193SOL    HW225479   0.725   4.512   3.809
 8194SOL     OW25480   4.715   0.425   1.601
 8194SOL    HW125481   4.646   0.465   1.661
 8194SOL    HW225482   4.712   0.470   1.512
 8195SOL     OW25483   6.352   0.112   3.981
 8195SOL    HW125484   6.293   0.178   4.027
 8195SOL    HW225485   6.315   0.090   3.891
 8196SOL     OW25486   5.113   1.125   1.994
 8196SOL    HW125487   5.113   1.083   1.903
 8196SOL    HW225488   5.088   1.056   2.062
 8197SOL     OW25489   3.884   1.733   3.266
 8197SOL    HW125490   3.967   1.678   3.251
 8197SOL    HW225491   3.851   1.769   3.179
 8198SOL     OW25492   1.676   5.834   1.478
 8198SOL    HW125493   1.748   5.824   1.409
 8198SOL    HW225494   1.717   5.847   1.568
 8199SOL     OW25495   5.928   2.557   0.234
 8199SOL    HW125496   5.854   2.522   0.292
 8199SOL    HW225497   5.911   2.530   0.139
 8200SOL     OW25498   4.750   3.442   0.723
 8200SOL    HW125499   4.776   3.406   0.813
 8200SOL    HW225500   4.832   3.477   0.676
 8201SOL     OW25501   5.781   6.806   5.548
 8201SOL    HW125502   5.855   6.863   5.584
 8201SOL    HW225503   5.808   6.770   5.458
 8202SOL     OW25504   1.285   6.203   1.747
 8202SOL    HW125505   1.332   6.287   1.772
 8202SOL    HW225506   1.281   6.195   1.648
 8203SOL     OW25507   1.895   3.535   1.203
 8203SOL    HW125508   1.888   3.484   1.288
 8203SOL    HW225509   1.929   3.476   1.130
 8204SOL     OW25510   2.656   3.591   0.811
 8204SOL    HW125511   2.754   3.570   0.807
 8204SOL    HW225512   2.619   3.596   0.718
 8205SOL     OW25513   0.783   4.524   0.060
 8205SOL    HW125514   0.725   4.443   0.057
 8205SOL    HW225515   0.811   4.548   6.987
 8206SOL     OW25516   2.941   1.260   1.125
 8206SOL    HW125517   3.021   1.281   1.068
 8206SOL    HW225518   2.936   1.161   1.140
 8207SOL     OW25519   3.916   3.905   3.965
 8207SOL    HW125520   3.834   3.851   3.947
 8207SOL    HW225521   3.892   3.986   4.019
 8208SOL     OW25522   2.057   0.231   0.288
 8208SOL    HW125523   2.156   0.246   0.286
 8208SOL    HW225524   2.012   0.312   0.325
 8209SOL     OW25525   6.072   1.556   4.951
 8209SOL    HW125526   5.981   1.523   4.925
 8209SOL    HW225527   6.139   1.483   4.941
 8210SOL     OW25528   2.163   2.696   6.525
 8210SOL    HW125529   2.113   2.665   6.606
 8210SOL    HW225530   2.126   2.651   6.444
 8211SOL     OW25531   4.062   4.590   1.280
 8211SOL    HW125532   4.090   4.494   1.280
 8211SOL    HW225533   4.099   4.636   1.200
 8212SOL     OW25534   1.860   2.687   2.978
 8212SOL    HW125535   1.905   2.731   2.900
 8212SOL    HW225536   1.876   2.742   3.060
 8213SOL     OW25537   6.389   4.784   1.588
 8213SOL    HW125538   6.477   4.743   1.614
 8213SOL    HW225539   6.395   4.818   1.495
 8214SOL     OW25540   5.301   3.617   3.059
 8214SOL    HW125541   5.283   3.688   2.991
 8214SOL    HW225542   5.262   3.530   3.028
 8215SOL     OW25543   3.588   5.133   2.968
 8215SOL    HW125544   3.561   5.181   2.884
 8215SOL    HW225545   3.563   5.188   3.048
 8216SOL     OW25546   5.772   3.577   3.722
 8216SOL    HW125547   5.714   3.656   3.701
 8216SOL    HW225548   5.715   3.497   3.739
 8217SOL     OW25549   2.058   6.294   0.903
 8217SOL    HW125550   1.960   6.311   0.904
 8217SOL    HW225551   2.084   6.256   0.814
 8218SOL     OW25552   6.108   2.298   7.002
 8218SOL    HW125553   6.119   2.301   0.081
 8218SOL    HW225554   6.110   2.391   6.965
 8219SOL     OW25555   5.444   1.522   0.062
 8219SOL    HW125556   5.358   1.480   0.033
 8219SOL    HW225557   5.498   1.456   0.114
 8220SOL     OW25558   4.201   3.709   1.717
 8220SOL    HW125559   4.142   3.667   1.787
 8220SOL    HW225560   4.228   3.801   1.747
 8221SOL     OW25561   5.092   4.993   3.264
 8221SOL    HW125562   5.138   4.925   3.206
 8221SOL    HW225563   4.998   4.963   3.283
 8222SOL     OW25564   6.618   1.800   2.770
 8222SOL    HW125565   6.535   1.799   2.827
 8222SOL    HW225566   6.599   1.752   2.684
 8223SOL     OW25567   0.136   5.037   5.484
 8223SOL    HW125568   0.105   4.977   5.558
 8223SOL    HW225569   0.092   5.127   5.492
 8224SOL     OW25570   1.136   3.585   3.129
 8224SOL    HW125571   1.098   3.542   3.047
 8224SOL    HW225572   1.206   3.652   3.103
 8225SOL     OW25573   4.561   0.991   0.534
 8225SOL    HW125574   4.652   1.005   0.495
 8225SOL    HW225575   4.530   1.076   0.578
 8226SOL     OW25576   4.001   0.619   0.856
 8226SOL    HW125577   3.946   0.697   0.884
 8226SOL    HW225578   3.942   0.544   0.830
 8227SOL     OW25579   5.959   3.807   2.749
 8227SOL    HW125580   5.888   3.806   2.678
 8227SOL    HW225581   5.927   3.756   2.829
 8228SOL     OW25582   0.065   1.906   4.924
 8228SOL    HW125583   6.999   1.956   4.920
 8228SOL    HW225584   0.104   1.898   4.832
 8229SOL     OW25585   3.804   5.487   0.699
 8229SOL    HW125586   3.818   5.511   0.603
 8229SOL    HW225587   3.889   5.503   0.750
 8230SOL     OW25588   5.050   0.176   4.061
 8230SOL    HW125589   5.104   0.120   3.997
 8230SOL    HW225590   4.963   0.201   4.018
 8231SOL     OW25591   4.198   5.930   1.266
 8231SOL    HW125592   4.182   5.831   1.258
 8231SOL    HW225593   4.258   5.947   1.344
 8232SOL     OW25594   2.537   1.722   6.625
 8232SOL    HW125595   2.509   1.818   6.628
 8232SOL    HW225596   2.539   1.692   6.529
 8233SOL     OW25597   0.301   5.085   6.159
 8233SOL    HW125598   0.230   5.105   6.091
 8233SOL    HW225599   0.258   5.073   6.248
 8234SOL     OW25600   3.374   3.334   0.082
 8234SOL    HW125601   3.293   3.279   0.098
 8234SOL    HW225602   3.358   3.398   0.007
 8235SOL     OW25603   4.837   2.392   0.000
 8235SOL    HW125604   4.917   2.349   6.979
 8235SOL    HW225605   4.759   2.384   6.958
 8236SOL     OW25606   5.705   2.294   0.830
 8236SOL    HW125607   5.630   2.242   0.870
 8236SOL    HW225608   5.735   2.366   0.893
 8237SOL     OW25609   4.137   6.214   5.469
 8237SOL    HW125610   4.226   6.240   5.505
 8237SOL    HW225611   4.066   6.235   5.536
 8238SOL     OW25612   1.831   1.038   0.042
 8238SOL    HW125613   1.813   1.119   7.006
 8238SOL    HW225614   1.823   0.956   7.005
 8239SOL     OW25615   6.637   1.283   6.638
 8239SOL    HW125616   6.687   1.226   6.703
 8239SOL    HW225617   6.592   1.357   6.688
 8240SOL     OW25618   4.160   3.616   3.184
 8240SOL    HW125619   4.209   3.548   3.130
 8240SOL    HW225620   4.136   3.577   3.273
 8241SOL     OW25621   4.291   6.667   1.644
 8241SOL    HW125622   4.374   6.618   1.617
 8241SOL    HW225623   4.315   6.761   1.669
 8242SOL     OW25624   0.867   3.925   5.231
 8242SOL    HW125625   0.789   3.910   5.171
 8242SOL    HW225626   0.935   3.981   5.184
 8243SOL     OW25627   0.962   3.541   5.115
 8243SOL    HW125628   0.972   3.585   5.204
 8243SOL    HW225629   1.024   3.583   5.049
 8244SOL     OW25630   1.076   5.625   4.800
 8244SOL    HW125631   1.060   5.598   4.895
 8244SOL    HW225632   1.175   5.626   4.782
 8245SOL     OW25633   3.537   3.575   0.791
 8245SOL    HW125634   3.606   3.602   0.858
 8245SOL    HW225635   3.489   3.656   0.757
 8246SOL     OW25636   5.193   3.967   5.870
 8246SOL    HW125637   5.125   4.019   5.922
 8246SOL    HW225638   5.149   3.891   5.824
 8247SOL     OW25639   1.205   6.758   1.602
 8247SOL    HW125640   1.153   6.754   1.517
 8247SOL    HW225641   1.198   6.670   1.649
 8248SOL     OW25642   0.143   4.253   3.348
 8248SOL    HW125643   0.075   4.184   3.324
 8248SOL    HW225644   0.129   4.284   3.442
 8249SOL     OW25645   1.516   5.603   2.997
 8249SOL    HW125646   1.609   5.574   2.973
 8249SOL    HW225647   1.518   5.649   3.086
 8250SOL     OW25648   3.956   3.801   2.218
 8250SOL    HW125649   3.866   3.759   2.208
 8250SOL    HW225650   3.994   3.820   2.127
 8251SOL     OW25651   6.384   1.858   5.095
 8251SOL    HW125652   6.380   1.768   5.052
 8251SOL    HW225653   6.469   1.866   5.148
 8252SOL     OW25654   1.281   3.318   4.179
 8252SOL    HW125655   1.286   3.362   4.269
 8252SOL    HW225656   1.372   3.318   4.137
 8253SOL     OW25657   2.606   2.836   5.323
 8253SOL    HW125658   2.706   2.839   5.324
 8253SOL    HW225659   2.571   2.913   5.270
 8254SOL     OW25660   4.371   5.966   3.621
 8254SOL    HW125661   4.416   5.886   3.581
 8254SOL    HW225662   4.307   6.005   3.556
 8255SOL     OW25663   4.250   5.031   4.017
 8255SOL    HW125664   4.258   5.131   4.017
 8255SOL    HW225665   4.306   4.994   4.091
 8256SOL     OW25666   6.323   2.521   4.368
 8256SOL    HW125667   6.410   2.471   4.369
 8256SOL    HW225668   6.321   2.583   4.290
 8257SOL     OW25669   6.324   4.128   4.834
 8257SOL    HW125670   6.403   4.132   4.772
 8257SOL    HW225671   6.332   4.202   4.902
 8258SOL     OW25672   4.797   1.594   0.008
 8258SOL    HW125673   4.708   1.562   6.993
 8258SOL    HW225674   4.866   1.581   6.957
 8259SOL     OW25675   3.767   1.213   1.645
 8259SOL    HW125676   3.732   1.283   1.583
 8259SOL    HW225677   3.865   1.226   1.657
 8260SOL     OW25678   2.727   6.190   0.588
 8260SOL    HW125679   2.822   6.218   0.579
 8260SOL    HW225680   2.721   6.090   0.590
 8261SOL     OW25681   5.398   1.215   1.612
 8261SOL    HW125682   5.320   1.261   1.653
 8261SOL    HW225683   5.403   1.236   1.515
 8262SOL     OW25684   0.854   2.088   0.574
 8262SOL    HW125685   0.950   2.066   0.592
 8262SOL    HW225686   0.849   2.154   0.499
 8263SOL     OW25687   5.738   1.010   0.214
 8263SOL    HW125688   5.834   0.996   0.189
 8263SOL    HW225689   5.703   1.092   0.167
 8264SOL     OW25690   1.602   4.432   2.741
 8264SOL    HW125691   1.513   4.387   2.748
 8264SOL    HW225692   1.673   4.365   2.720
 8265SOL     OW25693   1.801   1.029   2.107
 8265SOL    HW125694   1.881   0.977   2.075
 8265SOL    HW225695   1.737   1.041   2.031
 8266SOL     OW25696   3.001   0.264   3.055
 8266SOL    HW125697   3.051   0.327   2.994
 8266SOL    HW225698   2.913   0.304   3.078
 8267SOL     OW25699   0.367   3.721   0.415
 8267SOL    HW125700   0.349   3.675   0.502
 8267SOL    HW225701   0.405   3.812   0.433
 8268SOL     OW25702   3.600   5.901   6.412
 8268SOL    HW125703   3.690   5.909   6.455
 8268SOL    HW225704   3.529   5.925   6.478
 8269SOL     OW25705   6.147   1.890   0.932
 8269SOL    HW125706   6.091   1.904   1.013
 8269SOL    HW225707   6.089   1.893   0.851
 8270SOL     OW25708   3.308   6.295   4.183
 8270SOL    HW125709   3.232   6.233   4.166
 8270SOL    HW225710   3.273   6.387   4.202
 8271SOL     OW25711   6.616   2.231   2.013
 8271SOL    HW125712   6.675   2.153   2.029
 8271SOL    HW225713   6.631   2.300   2.084
 8272SOL     OW25714   3.369   1.537   4.207
 8272SOL    HW125715   3.291   1.488   4.167
 8272SOL    HW225716   3.451   1.518   4.153
 8273SOL     OW25717   1.906   6.567   1.090
 8273SOL    HW125718   1.935   6.517   1.173
 8273SOL    HW225719   1.860   6.504   1.028
 8274SOL     OW25720   5.290   4.279   3.554
 8274SOL    HW125721   5.244   4.368   3.553
 8274SOL    HW225722   5.245   4.219   3.620
 8275SOL     OW25723   4.909   2.308   6.545
 8275SOL    HW125724   4.903   2.218   6.503
 8275SOL    HW225725   4.841   2.369   6.503
 8276SOL     OW25726   0.436   2.143   3.020
 8276SOL    HW125727   0.409   2.064   3.075
 8276SOL    HW225728   0.527   2.128   2.983
 8277SOL     OW25729   6.367   0.458   0.150
 8277SOL    HW125730   6.398   0.541   0.197
 8277SOL    HW225731   6.344   0.388   0.218
 8278SOL     OW25732   1.754   2.703   6.613
 8278SOL    HW125733   1.755   2.802   6.629
 8278SOL    HW225734   1.841   2.664   6.644
 8279SOL     OW25735   7.015   6.140   4.162
 8279SOL    HW125736   0.002   6.133   4.063
 8279SOL    HW225737   6.945   6.208   4.186
 8280SOL     OW25738   2.676   2.149   5.904
 8280SOL    HW125739   2.669   2.107   5.994
 8280SOL    HW225740   2.709   2.243   5.914
 8281SOL     OW25741   6.188   5.764   2.167
 8281SOL    HW125742   6.185   5.670   2.201
 8281SOL    HW225743   6.096   5.802   2.166
 8282SOL     OW25744   5.704   3.100   6.207
 8282SOL    HW125745   5.755   3.154   6.275
 8282SOL    HW225746   5.717   3.140   6.117
 8283SOL     OW25747   1.729   3.324   5.993
 8283SOL    HW125748   1.690   3.321   6.085
 8283SOL    HW225749   1.667   3.375   5.932
 8284SOL     OW25750   6.311   4.152   1.655
 8284SOL    HW125751   6.354   4.142   1.565
 8284SOL    HW225752   6.238   4.084   1.665
 8285SOL     OW25753   3.844   3.507   4.470
 8285SOL    HW125754   3.900   3.426   4.488
 8285SOL    HW225755   3.903   3.587   4.457
 8286SOL     OW25756   6.711   1.760   6.250
 8286SOL    HW125757   6.620   1.754   6.209
 8286SOL    HW225758   6.776   1.709   6.194
 8287SOL     OW25759   1.181   5.662   4.383
 8287SOL    HW125760   1.275   5.693   4.398
 8287SOL    HW225761   1.130   5.733   4.334
 8288SOL     OW25762   2.673   2.076   3.108
 8288SOL    HW125763   2.758   2.083   3.056
 8288SOL    HW225764   2.676   1.995   3.166
 8289SOL     OW25765   0.166   5.933   6.531
 8289SOL    HW125766   0.210   5.907   6.616
 8289SOL    HW225767   0.078   5.978   6.551
 8290SOL     OW25768   6.761   2.623   0.768
 8290SOL    HW125769   6.702   2.691   0.725
 8290SOL    HW225770   6.712   2.579   0.843
 8291SOL     OW25771   3.869   6.687   1.094
 8291SOL    HW125772   3.843   6.596   1.126
 8291SOL    HW225773   3.801   6.754   1.125
 8292SOL     OW25774   2.891   6.676   6.384
 8292SOL    HW125775   2.812   6.730   6.354
 8292SOL    HW225776   2.905   6.600   6.322
 8293SOL     OW25777   5.457   5.836   5.140
 8293SOL    HW125778   5.422   5.774   5.069
 8293SOL    HW225779   5.405   5.823   5.224
 8294SOL     OW25780   5.433   2.555   0.127
 8294SOL    HW125781   5.373   2.551   0.048
 8294SOL    HW225782   5.387   2.600   0.203
 8295SOL     OW25783   4.903   4.013   0.296
 8295SOL    HW125784   4.849   3.942   0.342
 8295SOL    HW225785   4.845   4.091   0.274
 8296SOL     OW25786   1.120   5.402   6.507
 8296SOL    HW125787   1.040   5.438   6.555
 8296SOL    HW225788   1.096   5.317   6.461
 8297SOL     OW25789   0.734   2.276   3.683
 8297SOL    HW125790   0.726   2.302   3.587
 8297SOL    HW225791   0.831   2.267   3.707
 8298SOL     OW25792   4.714   1.447   1.832
 8298SOL    HW125793   4.639   1.488   1.780
 8298SOL    HW225794   4.787   1.419   1.769
 8299SOL     OW25795   6.510   2.181   1.401
 8299SOL    HW125796   6.538   2.276   1.393
 8299SOL    HW225797   6.516   2.136   1.312
 8300SOL     OW25798   1.023   4.521   3.657
 8300SOL    HW125799   1.116   4.540   3.626
 8300SOL    HW225800   0.982   4.449   3.601
 8301SOL     OW25801   3.449   2.898   6.607
 8301SOL    HW125802   3.375   2.892   6.674
 8301SOL    HW225803   3.429   2.970   6.541
 8302SOL     OW25804   5.312   5.701   6.112
 8302SOL    HW125805   5.385   5.700   6.043
 8302SOL    HW225806   5.270   5.611   6.117
 8303SOL     OW25807   0.359   0.651   5.725
 8303SOL    HW125808   0.315   0.571   5.683
 8303SOL    HW225809   0.450   0.663   5.683
 8304SOL     OW25810   0.312   3.377   7.001
 8304SOL    HW125811   0.311   3.450   6.933
 8304SOL    HW225812   0.366   3.405   0.060
 8305SOL     OW25813   3.087   6.012   3.918
 8305SOL    HW125814   2.999   5.996   3.964
 8305SOL    HW225815   3.101   6.110   3.906
 8306SOL     OW25816   0.623   3.350   4.154
 8306SOL    HW125817   0.692   3.346   4.082
 8306SOL    HW225818   0.667   3.341   4.243
 8307SOL     OW25819   2.710   5.720   1.020
 8307SOL    HW125820   2.620   5.677   1.016
 8307SOL    HW225821   2.763   5.693   0.939
 8308SOL     OW25822   3.678   6.801   3.358
 8308SOL    HW125823   3.715   6.890   3.386
 8308SOL    HW225824   3.691   6.735   3.431
 8309SOL     OW25825   5.417   5.801   2.006
 8309SOL    HW125826   5.500   5.792   2.061
 8309SOL    HW225827   5.387   5.710   1.977
 8310SOL     OW25828   6.959   4.519   0.062
 8310SOL    HW125829   6.934   4.562   0.148
 8310SOL    HW225830   0.032   4.547   0.035
 8311SOL     OW25831   6.060   0.138   0.060
 8311SOL    HW125832   6.106   0.089   0.134
 8311SOL    HW225833   5.962   0.121   0.065
 8312SOL     OW25834   5.274   6.405   1.346
 8312SOL    HW125835   5.252   6.327   1.405
 8312SOL    HW225836   5.266   6.377   1.250
 8313SOL     OW25837   3.280   1.513   2.848
 8313SOL    HW125838   3.217   1.533   2.773
 8313SOL    HW225839   3.259   1.423   2.886
 8314SOL     OW25840   6.494   0.193   3.691
 8314SOL    HW125841   6.422   0.261   3.673
 8314SOL    HW225842   6.549   0.224   3.768
 8315SOL     OW25843   5.193   4.757   6.505
 8315SOL    HW125844   5.212   4.710   6.591
 8315SOL    HW225845   5.165   4.690   6.436
 8316SOL     OW25846   2.307   5.631   6.933
 8316SOL    HW125847   2.274   5.603   0.003
 8316SOL    HW225848   2.407   5.629   6.932
 8317SOL     OW25849   2.040   4.526   2.500
 8317SOL    HW125850   1.961   4.547   2.442
 8317SOL    HW225851   2.022   4.559   2.593
 8318SOL     OW25852   3.833   0.971   5.306
 8318SOL    HW125853   3.736   0.994   5.293
 8318SOL    HW225854   3.857   0.980   5.402
 8319SOL     OW25855   3.763   0.530   4.654
 8319SOL    HW125856   3.803   0.606   4.602
 8319SOL    HW225857   3.664   0.542   4.660
 8320SOL     OW25858   3.903   4.623   1.739
 8320SOL    HW125859   3.811   4.634   1.777
 8320SOL    HW225860   3.917   4.691   1.666
 8321SOL     OW25861   0.469   0.649   1.245
 8321SOL    HW125862   0.560   0.678   1.274
 8321SOL    HW225863   0.404   0.724   1.257
 8322SOL     OW25864   5.730   6.841   0.359
 8322SOL    HW125865   5.691   6.820   0.449
 8322SOL    HW225866   5.785   6.763   0.327
 8323SOL     OW25867   1.522   2.040   1.790
 8323SOL    HW125868   1.471   2.003   1.712
 8323SOL    HW225869   1.584   1.971   1.826
 8324SOL     OW25870   7.008   1.261   1.965
 8324SOL    HW125871   6.923   1.253   2.016
 8324SOL    HW225872   0.034   1.347   1.990
 8325SOL     OW25873   3.043   3.095   3.921
 8325SOL    HW125874   3.020   3.158   3.847
 8325SOL    HW225875   2.987   3.013   3.913
 8326SOL     OW25876   3.218   3.431   5.982
 8326SOL    HW125877   3.140   3.465   5.929
 8326SOL    HW225878   3.267   3.362   5.929
 8327SOL     OW25879   4.801   1.737   5.899
 8327SOL    HW125880   4.771   1.827   5.933
 8327SOL    HW225881   4.770   1.666   5.962
 8328SOL     OW25882   2.594   2.492   5.129
 8328SOL    HW125883   2.653   2.551   5.184
 8328SOL    HW225884   2.617   2.396   5.146
 8329SOL     OW25885   0.125   2.683   5.407
 8329SOL    HW125886   0.125   2.674   5.507
 8329SOL    HW225887   0.038   2.721   5.377
 8330SOL     OW25888   3.222   6.963   0.242
 8330SOL    HW125889   3.150   7.000   0.301
 8330SOL    HW225890   3.185   6.886   0.190
 8331SOL     OW25891   2.489   6.931   1.126
 8331SOL    HW125892   2.424   6.951   1.199
 8331SOL    HW225893   2.539   7.015   1.102
 8332SOL     OW25894   5.155   5.788   2.668
 8332SOL    HW125895   5.186   5.820   2.758
 8332SOL    HW225896   5.111   5.864   2.619
 8333SOL     OW25897   0.854   6.089   6.153
 8333SOL    HW125898   0.802   6.073   6.069
 8333SOL    HW225899   0.826   6.176   6.193
 8334SOL     OW25900   5.833   1.087   3.550
 8334SOL    HW125901   5.912   1.090   3.489
 8334SOL    HW225902   5.854   1.137   3.634
 8335SOL     OW25903   5.641   6.823   5.781
 8335SOL    HW125904   5.685   6.822   5.691
 8335SOL    HW225905   5.586   6.906   5.790
 8336SOL     OW25906   0.215   2.211   2.157
 8336SOL    HW125907   0.142   2.147   2.180
 8336SOL    HW225908   0.180   2.281   2.095
 8337SOL     OW25909   0.272   6.238   2.251
 8337SOL    HW125910   0.240   6.183   2.328
 8337SOL    HW225911   0.251   6.334   2.268
 8338SOL     OW25912   1.458   4.712   0.643
 8338SOL    HW125913   1.487   4.645   0.575
 8338SOL    HW225914   1.436   4.798   0.598
 8339SOL     OW25915   5.629   1.331   2.724
 8339SOL    HW125916   5.608   1.323   2.822
 8339SOL    HW225917   5.691   1.258   2.697
 8340SOL     OW25918   4.647   3.254   0.511
 8340SOL    HW125919   4.553   3.227   0.533
 8340SOL    HW225920   4.705   3.240   0.591
 8341SOL     OW25921   1.994   0.112   1.080
 8341SOL    HW125922   1.960   0.056   1.004
 8341SOL    HW225923   2.075   0.068   1.120
 8342SOL     OW25924   4.333   1.029   1.339
 8342SOL    HW125925   4.338   1.039   1.240
 8342SOL    HW225926   4.341   1.118   1.382
 8343SOL     OW25927   1.618   5.216   5.963
 8343SOL    HW125928   1.547   5.148   5.950
 8343SOL    HW225929   1.610   5.256   6.055
 8344SOL     OW25930   3.792   0.068   5.293
 8344SOL    HW125931   3.891   0.076   5.284
 8344SOL    HW225932   3.751   0.158   5.304
 8345SOL     OW25933   6.493   1.321   2.411
 8345SOL    HW125934   6.456   1.277   2.492
 8345SOL    HW225935   6.592   1.332   2.421
 8346SOL     OW25936   3.264   5.195   1.886
 8346SOL    HW125937   3.194   5.199   1.815
 8346SOL    HW225938   3.300   5.102   1.892
 8347SOL     OW25939   3.541   5.390   3.917
 8347SOL    HW125940   3.589   5.382   4.005
 8347SOL    HW225941   3.606   5.415   3.846
 8348SOL     OW25942   1.538   0.607   0.390
 8348SOL    HW125943   1.615   0.666   0.366
 8348SOL    HW225944   1.486   0.584   0.308
 8349SOL     OW25945   5.595   5.105   1.856
 8349SOL    HW125946   5.594   5.006   1.849
 8349SOL    HW225947   5.674   5.141   1.805
 8350SOL     OW25948   6.482   0.630   5.079
 8350SOL    HW125949   6.464   0.652   5.175
 8350SOL    HW225950   6.401   0.586   5.039
 8351SOL     OW25951   2.899   6.269   2.112
 8351SOL    HW125952   2.852   6.194   2.066
 8351SOL    HW225953   2.962   6.232   2.180
 8352SOL     OW25954   6.793   6.415   1.224
 8352SOL    HW125955   6.885   6.376   1.222
 8352SOL    HW225956   6.765   6.431   1.319
 8353SOL     OW25957   0.266   3.705   2.223
 8353SOL    HW125958   0.168   3.706   2.203
 8353SOL    HW225959   0.281   3.660   2.311
 8354SOL     OW25960   2.296   0.854   0.566
 8354SOL    HW125961   2.326   0.859   0.471
 8354SOL    HW225962   2.201   0.884   0.572
 8355SOL     OW25963   3.123   1.078   0.325
 8355SOL    HW125964   3.142   0.981   0.334
 8355SOL    HW225965   3.026   1.092   0.306
 8356SOL     OW25966   2.024   5.198   0.105
 8356SOL    HW125967   2.020   5.133   0.028
 8356SOL    HW225968   1.991   5.287   0.074
 8357SOL     OW25969   5.070   5.421   4.375
 8357SOL    HW125970   5.073   5.449   4.279
 8357SOL    HW225971   5.094   5.324   4.382
 8358SOL     OW25972   2.433   2.185   5.720
 8358SOL    HW125973   2.439   2.208   5.623
 8358SOL    HW225974   2.523   2.157   5.753
 8359SOL     OW25975   4.568   5.015   3.778
 8359SOL    HW125976   4.601   4.965   3.858
 8359SOL    HW225977   4.565   5.112   3.799
 8360SOL     OW25978   4.928   0.325   3.584
 8360SOL    HW125979   4.870   0.367   3.654
 8360SOL    HW225980   4.928   0.382   3.502
 8361SOL     OW25981   1.998   0.726   3.181
 8361SOL    HW125982   1.908   0.755   3.149
 8361SOL    HW225983   2.064   0.799   3.167
 8362SOL     OW25984   2.591   3.212   0.663
 8362SOL    HW125985   2.613   3.126   0.710
 8362SOL    HW225986   2.495   3.213   0.637
 8363SOL     OW25987   0.248   3.156   0.701
 8363SOL    HW125988   0.215   3.090   0.768
 8363SOL    HW225989   0.241   3.117   0.609
 8364SOL     OW25990   6.727   4.652   3.875
 8364SOL    HW125991   6.707   4.745   3.845
 8364SOL    HW225992   6.641   4.604   3.895
 8365SOL     OW25993   1.795   3.630   6.028
 8365SOL    HW125994   1.801   3.647   6.126
 8365SOL    HW225995   1.772   3.533   6.012
 8366SOL     OW25996   3.338   6.566   2.974
 8366SOL    HW125997   3.415   6.624   2.950
 8366SOL    HW225998   3.264   6.577   2.907
 8367SOL     OW25999   5.723   5.732   3.842
 8367SOL    HW126000   5.820   5.716   3.862
 8367SOL    HW226001   5.705   5.709   3.746
 8368SOL     OW26002   3.019   5.110   6.593
 8368SOL    HW126003   3.084   5.186   6.590
 8368SOL    HW226004   2.946   5.127   6.527
 8369SOL     OW26005   2.233   1.384   1.146
 8369SOL    HW126006   2.176   1.408   1.224
 8369SOL    HW226007   2.326   1.417   1.161
 8370SOL     OW26008   1.535   1.575   6.696
 8370SOL    HW126009   1.530   1.670   6.726
 8370SOL    HW226010   1.478   1.562   6.615
 8371SOL     OW26011   1.844   3.361   0.783
 8371SOL    HW126012   1.917   3.343   0.848
 8371SOL    HW226013   1.839   3.459   0.763
 8372SOL     OW26014   0.159   0.602   1.984
 8372SOL    HW126015   0.075   0.558   1.952
 8372SOL    HW226016   0.196   0.659   1.910
 8373SOL     OW26017   1.452   6.638   5.126
 8373SOL    HW126018   1.513   6.563   5.148
 8373SOL    HW226019   1.496   6.725   5.148
 8374SOL     OW26020   6.290   0.064   6.565
 8374SOL    HW126021   6.358   0.138   6.563
 8374SOL    HW226022   6.228   0.078   6.642
 8375SOL     OW26023   3.864   0.692   6.367
 8375SOL    HW126024   3.907   0.737   6.288
 8375SOL    HW226025   3.776   0.736   6.386
 8376SOL     OW26026   3.935   0.283   4.848
 8376SOL    HW126027   3.956   0.273   4.751
 8376SOL    HW226028   3.838   0.302   4.860
 8377SOL     OW26029   5.604   4.430   0.498
 8377SOL    HW126030   5.524   4.369   0.499
 8377SOL    HW226031   5.683   4.381   0.462
 8378SOL     OW26032   4.862   3.041   3.704
 8378SOL    HW126033   4.821   3.095   3.630
 8378SOL    HW226034   4.838   2.944   3.692
 8379SOL     OW26035   5.475   2.068   2.053
 8379SOL    HW126036   5.441   1.974   2.048
 8379SOL    HW226037   5.560   2.075   2.000
 8380SOL     OW26038   5.132   1.742   3.261
 8380SOL    HW126039   5.181   1.702   3.338
 8380SOL    HW226040   5.160   1.837   3.249
 8381SOL     OW26041   2.155   5.366   4.547
 8381SOL    HW126042   2.191   5.439   4.605
 8381SOL    HW226043   2.153   5.396   4.452
 8382SOL     OW26044   1.181   3.184   2.246
 8382SOL    HW126045   1.189   3.169   2.344
 8382SOL    HW226046   1.190   3.097   2.198
 8383SOL     OW26047   3.310   1.956   6.655
 8383SOL    HW126048   3.310   1.858   6.633
 8383SOL    HW226049   3.281   2.007   6.574
 8384SOL     OW26050   0.926   6.329   1.622
 8384SOL    HW126051   0.953   6.297   1.531
 8384SOL    HW226052   0.904   6.251   1.681
 8385SOL     OW26053   4.404   2.323   0.913
 8385SOL    HW126054   4.491   2.364   0.940
 8385SOL    HW226055   4.343   2.320   0.993
 8386SOL     OW26056   1.164   4.408   2.694
 8386SOL    HW126057   1.175   4.387   2.597
 8386SOL    HW226058   1.211   4.339   2.749
 8387SOL     OW26059   0.525   1.867   1.111
 8387SOL    HW126060   0.472   1.867   1.026
 8387SOL    HW226061   0.590   1.942   1.110
 8388SOL     OW26062   1.031   6.750   2.588
 8388SOL    HW126063   0.965   6.804   2.536
 8388SOL    HW226064   1.100   6.713   2.525
 8389SOL     OW26065   5.133   2.317   2.608
 8389SOL    HW126066   5.045   2.362   2.624
 8389SOL    HW226067   5.198   2.343   2.679
 8390SOL     OW26068   5.654   1.728   6.024
 8390SOL    HW126069   5.675   1.822   6.048
 8390SOL    HW226070   5.712   1.666   6.077
 8391SOL     OW26071   6.443   6.869   1.198
 8391SOL    HW126072   6.530   6.904   1.233
 8391SOL    HW226073   6.385   6.841   1.274
 8392SOL     OW26074   5.128   2.794   5.918
 8392SOL    HW126075   5.034   2.827   5.923
 8392SOL    HW226076   5.143   2.751   5.829
 8393SOL     OW26077   5.277   7.006   1.582
 8393SOL    HW126078   5.356   6.974   1.636
 8393SOL    HW226079   5.229   0.057   1.633
 8394SOL     OW26080   5.748   2.814   2.518
 8394SOL    HW126081   5.779   2.901   2.479
 8394SOL    HW226082   5.746   2.820   2.618
 8395SOL     OW26083   2.577   1.193   4.868
 8395SOL    HW126084   2.576   1.100   4.904
 8395SOL    HW226085   2.483   1.222   4.851
 8396SOL     OW26086   4.657   5.479   4.204
 8396SOL    HW126087   4.699   5.389   4.202
 8396SOL    HW226088   4.662   5.516   4.297
 8397SOL     OW26089   6.289   0.779   3.090
 8397SOL    HW126090   6.327   0.835   3.164
 8397SOL    HW226091   6.189   0.780   3.096
 8398SOL     OW26092   5.074   2.102   6.248
 8398SOL    HW126093   5.161   2.052   6.255
 8398SOL    HW226094   5.083   2.191   6.292
 8399SOL     OW26095   0.267   4.526   1.187
 8399SOL    HW126096   0.205   4.479   1.250
 8399SOL    HW226097   0.263   4.480   1.098
 8400SOL     OW26098   1.585   1.182   4.853
 8400SOL    HW126099   1.616   1.244   4.926
 8400SOL    HW226100   1.646   1.191   4.774
 8401SOL     OW26101   2.424   6.788   5.818
 8401SOL    HW126102   2.341   6.778   5.873
 8401SOL    HW226103   2.435   6.884   5.791
 8402SOL     OW26104   3.386   0.784   5.987
 8402SOL    HW126105   3.436   0.699   6.002
 8402SOL    HW226106   3.443   0.848   5.936
 8403SOL     OW26107   5.796   4.515   4.607
 8403SOL    HW126108   5.776   4.419   4.588
 8403SOL    HW226109   5.793   4.568   4.522
 8404SOL     OW26110   0.828   1.866   6.454
 8404SOL    HW126111   0.785   1.900   6.371
 8404SOL    HW226112   0.911   1.816   6.430
 8405SOL     OW26113   4.387   0.310   5.661
 8405SOL    HW126114   4.468   0.251   5.656
 8405SOL    HW226115   4.310   0.265   5.616
 8406SOL     OW26116   5.402   0.302   6.213
 8406SOL    HW126117   5.307   0.302   6.181
 8406SOL    HW226118   5.408   0.251   6.299
 8407SOL     OW26119   3.882   6.854   4.180
 8407SOL    HW126120   3.807   6.843   4.246
 8407SOL    HW226121   3.913   6.949   4.180
 8408SOL     OW26122   3.759   1.484   1.290
 8408SOL    HW126123   3.838   1.489   1.229
 8408SOL    HW226124   3.786   1.440   1.376
 8409SOL     OW26125   4.468   2.386   2.042
 8409SOL    HW126126   4.410   2.382   2.124
 8409SOL    HW226127   4.412   2.406   1.962
 8410SOL     OW26128   6.967   1.744   1.906
 8410SOL    HW126129   7.007   1.833   1.883
 8410SOL    HW226130   6.868   1.753   1.916
 8411SOL     OW26131   1.017   6.503   0.829
 8411SOL    HW126132   1.043   6.533   0.921
 8411SOL    HW226133   1.090   6.524   0.765
 8412SOL     OW26134   2.454   1.973   6.645
 8412SOL    HW126135   2.503   2.054   6.676
 8412SOL    HW226136   2.356   1.992   6.639
 8413SOL     OW26137   4.117   5.560   4.474
 8413SOL    HW126138   4.180   5.591   4.402
 8413SOL    HW226139   4.033   5.613   4.469
 8414SOL     OW26140   1.033   0.633   1.333
 8414SOL    HW126141   0.969   0.564   1.297
 8414SOL    HW226142   1.115   0.587   1.368
 8415SOL     OW26143   2.719   1.402   5.709
 8415SOL    HW126144   2.773   1.454   5.643
 8415SOL    HW226145   2.625   1.437   5.710
 8416SOL     OW26146   6.709   1.793   5.754
 8416SOL    HW126147   6.809   1.795   5.753
 8416SOL    HW226148   6.675   1.862   5.691
 8417SOL     OW26149   1.501   3.384   5.865
 8417SOL    HW126150   1.495   3.341   5.775
 8417SOL    HW226151   1.525   3.480   5.854
 8418SOL     OW26152   0.749   5.970   2.256
 8418SOL    HW126153   0.724   5.981   2.160
 8418SOL    HW226154   0.736   6.057   2.304
 8419SOL     OW26155   4.574   1.985   4.158
 8419SOL    HW126156   4.539   1.985   4.064
 8419SOL    HW226157   4.655   1.926   4.164
 8420SOL     OW26158   3.216   0.410   2.143
 8420SOL    HW126159   3.172   0.500   2.139
 8420SOL    HW226160   3.259   0.397   2.232
 8421SOL     OW26161   4.811   6.725   6.529
 8421SOL    HW126162   4.808   6.654   6.458
 8421SOL    HW226163   4.719   6.762   6.542
 8422SOL     OW26164   5.287   2.474   3.377
 8422SOL    HW126165   5.297   2.441   3.470
 8422SOL    HW226166   5.237   2.561   3.377
 8423SOL     OW26167   6.895   5.178   6.863
 8423SOL    HW126168   6.817   5.137   6.912
 8423SOL    HW226169   6.969   5.197   6.927
 8424SOL     OW26170   3.402   0.357   4.667
 8424SOL    HW126171   3.425   0.411   4.587
 8424SOL    HW226172   3.477   0.293   4.687
 8425SOL     OW26173   3.624   4.046   2.122
 8425SOL    HW126174   3.706   4.075   2.071
 8425SOL    HW226175   3.646   4.039   2.219
 8426SOL     OW26176   4.013   3.038   1.951
 8426SOL    HW126177   4.046   3.044   1.857
 8426SOL    HW226178   3.979   2.946   1.970
 8427SOL     OW26179   3.682   3.804   3.873
 8427SOL    HW126180   3.601   3.825   3.818
 8427SOL    HW226181   3.654   3.756   3.956
 8428SOL     OW26182   6.126   6.905   1.839
 8428SOL    HW126183   6.093   6.998   1.858
 8428SOL    HW226184   6.226   6.905   1.838
 8429SOL     OW26185   3.117   5.530   5.569
 8429SOL    HW126186   3.066   5.565   5.490
 8429SOL    HW226187   3.054   5.516   5.645
 8430SOL     OW26188   5.062   0.003   4.867
 8430SOL    HW126189   5.043   0.094   4.829
 8430SOL    HW226190   5.002   7.007   4.945
 8431SOL     OW26191   1.882   3.915   5.688
 8431SOL    HW126192   1.784   3.918   5.671
 8431SOL    HW226193   1.927   3.991   5.640
 8432SOL     OW26194   6.130   5.180   5.811
 8432SOL    HW126195   6.084   5.092   5.823
 8432SOL    HW226196   6.130   5.205   5.714
 8433SOL     OW26197   5.258   2.014   0.955
 8433SOL    HW126198   5.187   1.957   0.914
 8433SOL    HW226199   5.219   2.103   0.979
 8434SOL     OW26200   2.647   5.491   4.794
 8434SOL    HW126201   2.698   5.568   4.833
 8434SOL    HW226202   2.652   5.413   4.855
 8435SOL     OW26203   5.404   1.768   3.036
 8435SOL    HW126204   5.450   1.853   3.063
 8435SOL    HW226205   5.381   1.773   2.938
 8436SOL     OW26206   2.376   5.731   2.133
 8436SOL    HW126207   2.461   5.735   2.186
 8436SOL    HW226208   2.395   5.696   2.041
 8437SOL     OW26209   1.064   5.527   1.963
 8437SOL    HW126210   1.131   5.475   1.910
 8437SOL    HW226211   0.972   5.494   1.943
 8438SOL     OW26212   0.559   3.991   2.416
 8438SOL    HW126213   0.604   4.048   2.347
 8438SOL    HW226214   0.562   3.895   2.387
 8439SOL     OW26215   6.005   4.469   2.847
 8439SOL    HW126216   6.064   4.505   2.919
 8439SOL    HW226217   5.910   4.480   2.873
 8440SOL     OW26218   1.661   2.009   2.831
 8440SOL    HW126219   1.581   2.017   2.772
 8440SOL    HW226220   1.703   2.099   2.841
 8441SOL     OW26221   6.549   1.573   5.814
 8441SOL    HW126222   6.612   1.648   5.798
 8441SOL    HW226223   6.600   1.493   5.846
 8442SOL     OW26224   3.948   2.143   6.293
 8442SOL    HW126225   3.911   2.052   6.309
 8442SOL    HW226226   4.007   2.169   6.370
 8443SOL     OW26227   1.426   4.009   2.814
 8443SOL    HW126228   1.507   3.955   2.834
 8443SOL    HW226229   1.344   3.954   2.828
 8444SOL     OW26230   5.565   5.185   5.221
 8444SOL    HW126231   5.612   5.270   5.246
 8444SOL    HW226232   5.502   5.159   5.294
 8445SOL     OW26233   4.282   6.051   6.618
 8445SOL    HW126234   4.374   6.083   6.596
 8445SOL    HW226235   4.281   5.951   6.619
 8446SOL     OW26236   6.521   5.117   4.871
 8446SOL    HW126237   6.462   5.116   4.952
 8446SOL    HW226238   6.561   5.207   4.859
 8447SOL     OW26239   4.167   1.627   3.552
 8447SOL    HW126240   4.236   1.623   3.480
 8447SOL    HW226241   4.123   1.538   3.561
 8448SOL     OW26242   3.138   6.161   3.391
 8448SOL    HW126243   3.183   6.247   3.367
 8448SOL    HW226244   3.128   6.105   3.308
 8449SOL     OW26245   2.067   2.326   3.217
 8449SOL    HW126246   1.971   2.322   3.245
 8449SOL    HW226247   2.073   2.338   3.118
 8450SOL     OW26248   0.076   1.396   6.747
 8450SOL    HW126249   0.086   1.495   6.752
 8450SOL    HW226250   0.147   1.353   6.804
 8451SOL     OW26251   4.051   2.381   0.882
 8451SOL    HW126252   4.091   2.437   0.954
 8451SOL    HW226253   4.006   2.302   0.923
 8452SOL     OW26254   5.000   1.592   5.803
 8452SOL    HW126255   4.920   1.652   5.807
 8452SOL    HW226256   4.984   1.510   5.858
 8453SOL     OW26257   6.647   6.306   0.255
 8453SOL    HW126258   6.573   6.250   0.217
 8453SOL    HW226259   6.695   6.352   0.180
 8454SOL     OW26260   6.634   4.093   6.845
 8454SOL    HW126261   6.642   4.191   6.827
 8454SOL    HW226262   6.563   4.054   6.786
 8455SOL     OW26263   6.931   1.334   2.693
 8455SOL    HW126264   6.897   1.341   2.787
 8455SOL    HW226265   6.982   1.249   2.682
 8456SOL     OW26266   6.873   0.167   3.140
 8456SOL    HW126267   6.924   0.081   3.127
 8456SOL    HW226268   6.898   0.207   3.228
 8457SOL     OW26269   6.894   6.734   5.293
 8457SOL    HW126270   6.977   6.687   5.260
 8457SOL    HW226271   6.815   6.673   5.282
 8458SOL     OW26272   0.589   6.998   6.556
 8458SOL    HW126273   0.550   0.070   6.555
 8458SOL    HW226274   0.530   6.936   6.607
 8459SOL     OW26275   1.314   6.416   3.648
 8459SOL    HW126276   1.311   6.462   3.737
 8459SOL    HW226277   1.335   6.483   3.577
 8460SOL     OW26278   3.768   3.861   3.388
 8460SOL    HW126279   3.743   3.935   3.451
 8460SOL    HW226280   3.708   3.783   3.403
 8461SOL     OW26281   6.579   3.779   3.725
 8461SOL    HW126282   6.493   3.828   3.741
 8461SOL    HW226283   6.561   3.681   3.724
 8462SOL     OW26284   2.393   2.735   1.721
 8462SOL    HW126285   2.462   2.807   1.731
 8462SOL    HW226286   2.302   2.771   1.741
 8463SOL     OW26287   5.464   0.681   2.104
 8463SOL    HW126288   5.449   0.663   2.201
 8463SOL    HW226289   5.377   0.708   2.062
 8464SOL     OW26290   6.661   1.938   5.069
 8464SOL    HW126291   6.600   2.016   5.053
 8464SOL    HW226292   6.663   1.916   5.167
 8465SOL     OW26293   1.538   2.257   6.818
 8465SOL    HW126294   1.616   2.227   6.761
 8465SOL    HW226295   1.477   2.179   6.833
 8466SOL     OW26296   0.440   6.774   3.937
 8466SOL    HW126297   0.510   6.827   3.985
 8466SOL    HW226298   0.350   6.810   3.957
 8467SOL     OW26299   3.753   4.985   1.327
 8467SOL    HW126300   3.786   4.899   1.288
 8467SOL    HW226301   3.659   4.974   1.358
 8468SOL     OW26302   4.553   2.482   0.407
 8468SOL    HW126303   4.624   2.415   0.430
 8468SOL    HW226304   4.463   2.447   0.433
 8469SOL     OW26305   4.044   2.684   6.335
 8469SOL    HW126306   4.133   2.652   6.367
 8469SOL    HW226307   3.979   2.609   6.338
 8470SOL     OW26308   1.728   3.338   6.959
 8470SOL    HW126309   1.635   3.302   6.945
 8470SOL    HW226310   1.780   3.274   7.015
 8471SOL     OW26311   5.041   1.300   4.214
 8471SOL    HW126312   5.104   1.366   4.172
 8471SOL    HW226313   4.953   1.304   4.167
 8472SOL     OW26314   1.483   0.134   2.784
 8472SOL    HW126315   1.412   0.204   2.787
 8472SOL    HW226316   1.440   0.043   2.781
 8473SOL     OW26317   6.433   5.498   6.603
 8473SOL    HW126318   6.480   5.427   6.655
 8473SOL    HW226319   6.496   5.540   6.538
 8474SOL     OW26320   3.914   5.212   0.286
 8474SOL    HW126321   3.895   5.190   0.190
 8474SOL    HW226322   3.828   5.228   0.334
 8475SOL     OW26323   4.507   1.640   2.881
 8475SOL    HW126324   4.593   1.627   2.930
 8475SOL    HW226325   4.453   1.557   2.885
 8476SOL     OW26326   4.191   0.611   2.601
 8476SOL    HW126327   4.285   0.589   2.627
 8476SOL    HW226328   4.191   0.672   2.522
 8477SOL     OW26329   2.511   0.544   2.412
 8477SOL    HW126330   2.459   0.460   2.400
 8477SOL    HW226331   2.561   0.540   2.498
 8478SOL     OW26332   1.422   0.432   5.339
 8478SOL    HW126333   1.338   0.433   5.394
 8478SOL    HW226334   1.483   0.504   5.370
 8479SOL     OW26335   5.123   1.721   2.209
 8479SOL    HW126336   5.140   1.624   2.194
 8479SOL    HW226337   5.037   1.733   2.258
 8480SOL     OW26338   1.013   1.408   1.320
 8480SOL    HW126339   1.024   1.473   1.245
 8480SOL    HW226340   0.915   1.400   1.342
 8481SOL     OW26341   4.638   0.106   4.975
 8481SOL    HW126342   4.550   0.124   4.931
 8481SOL    HW226343   4.649   0.008   4.987
 8482SOL     OW26344   0.513   0.438   2.121
 8482SOL    HW126345   0.465   0.497   2.055
 8482SOL    HW226346   0.541   0.493   2.199
 8483SOL     OW26347   5.280   6.162   1.939
 8483SOL    HW126348   5.234   6.249   1.958
 8483SOL    HW226349   5.331   6.134   2.020
 8484SOL     OW26350   0.553   4.710   4.413
 8484SOL    HW126351   0.580   4.639   4.478
 8484SOL    HW226352   0.587   4.799   4.445
 8485SOL     OW26353   2.393   3.508   5.687
 8485SOL    HW126354   2.318   3.449   5.656
 8485SOL    HW226355   2.438   3.549   5.608
 8486SOL     OW26356   4.196   0.225   2.769
 8486SOL    HW126357   4.113   0.278   2.752
 8486SOL    HW226358   4.241   0.204   2.682
 8487SOL     OW26359   4.732   0.453   0.901
 8487SOL    HW126360   4.799   0.379   0.904
 8487SOL    HW226361   4.774   0.539   0.930
 8488SOL     OW26362   5.400   3.237   4.809
 8488SOL    HW126363   5.416   3.249   4.907
 8488SOL    HW226364   5.420   3.142   4.783
 8489SOL     OW26365   4.084   5.851   2.396
 8489SOL    HW126366   4.177   5.879   2.377
 8489SOL    HW226367   4.084   5.786   2.473
 8490SOL     OW26368   3.991   5.428   2.275
 8490SOL    HW126369   4.075   5.475   2.251
 8490SOL    HW226370   3.981   5.345   2.220
 8491SOL     OW26371   1.287   1.080   2.088
 8491SOL    HW126372   1.197   1.106   2.052
 8491SOL    HW226373   1.345   1.048   2.014
 8492SOL     OW26374   5.480   3.827   4.565
 8492SOL    HW126375   5.405   3.774   4.526
 8492SOL    HW226376   5.453   3.923   4.573
 8493SOL     OW26377   3.717   2.566   1.142
 8493SOL    HW126378   3.724   2.485   1.083
 8493SOL    HW226379   3.657   2.633   1.099
 8494SOL     OW26380   3.351   5.901   6.894
 8494SOL    HW126381   3.276   5.894   6.829
 8494SOL    HW226382   3.424   5.957   6.854
 8495SOL     OW26383   0.513   2.516   0.035
 8495SOL    HW126384   0.514   2.514   0.135
 8495SOL    HW226385   0.552   2.602   0.002
 8496SOL     OW26386   6.823   2.264   3.346
 8496SOL    HW126387   6.769   2.345   3.368
 8496SOL    HW226388   6.904   2.292   3.294
 8497SOL     OW26389   6.086   4.915   3.718
 8497SOL    HW126390   6.177   4.898   3.756
 8497SOL    HW226391   6.072   5.013   3.707
 8498SOL     OW26392   6.253   0.939   0.896
 8498SOL    HW126393   6.185   0.919   0.966
 8498SOL    HW226394   6.325   0.870   0.897
 8499SOL     OW26395   2.352   4.122   6.166
 8499SOL    HW126396   2.430   4.066   6.194
 8499SOL    HW226397   2.355   4.138   6.068
 8500SOL     OW26398   3.138   0.667   6.156
 8500SOL    HW126399   3.205   0.738   6.136
 8500SOL    HW226400   3.110   0.622   6.071
 8501SOL     OW26401   2.697   4.532   6.261
 8501SOL    HW126402   2.766   4.469   6.295
 8501SOL    HW226403   2.608   4.488   6.263
 8502SOL     OW26404   0.496   6.946   1.998
 8502SOL    HW126405   0.591   6.941   1.969
 8502SOL    HW226406   0.451   6.859   1.981
 8503SOL     OW26407   2.907   6.119   2.942
 8503SOL    HW126408   2.941   6.212   2.957
 8503SOL    HW226409   2.809   6.116   2.963
 8504SOL     OW26410   1.508   5.437   3.392
 8504SOL    HW126411   1.500   5.376   3.471
 8504SOL    HW226412   1.568   5.513   3.414
 8505SOL     OW26413   4.903   3.051   3.986
 8505SOL    HW126414   4.875   2.958   4.010
 8505SOL    HW226415   4.907   3.059   3.886
 8506SOL     OW26416   0.693   6.248   0.622
 8506SOL    HW126417   0.749   6.168   0.647
 8506SOL    HW226418   0.693   6.314   0.697
 8507SOL     OW26419   1.725   0.312   4.515
 8507SOL    HW126420   1.706   0.396   4.465
 8507SOL    HW226421   1.773   0.334   4.600
 8508SOL     OW26422   1.066   3.250   6.407
 8508SOL    HW126423   1.148   3.200   6.433
 8508SOL    HW226424   0.994   3.185   6.380
 8509SOL     OW26425   6.171   2.216   4.718
 8509SOL    HW126426   6.171   2.315   4.705
 8509SOL    HW226427   6.090   2.189   4.771
 8510SOL     OW26428   4.955   0.265   2.300
 8510SOL    HW126429   5.012   0.209   2.360
 8510SOL    HW226430   4.918   0.342   2.352
 8511SOL     OW26431   6.677   4.965   1.613
 8511SOL    HW126432   6.652   4.873   1.645
 8511SOL    HW226433   6.730   4.957   1.529
 8512SOL     OW26434   4.124   2.683   0.817
 8512SOL    HW126435   4.032   2.661   0.783
 8512SOL    HW226436   4.147   2.623   0.892
 8513SOL     OW26437   0.618   4.224   1.859
 8513SOL    HW126438   0.607   4.125   1.850
 8513SOL    HW226439   0.542   4.262   1.911
 8514SOL     OW26440   2.518   2.642   5.476
 8514SOL    HW126441   2.569   2.567   5.432
 8514SOL    HW226442   2.537   2.727   5.427
 8515SOL     OW26443   2.156   0.575   0.399
 8515SOL    HW126444   2.213   0.580   0.481
 8515SOL    HW226445   2.214   0.564   0.319
 8516SOL     OW26446   5.297   2.543   3.901
 8516SOL    HW126447   5.263   2.455   3.934
 8516SOL    HW226448   5.321   2.601   3.979
 8517SOL     OW26449   1.888   1.799   6.120
 8517SOL    HW126450   1.978   1.756   6.123
 8517SOL    HW226451   1.896   1.889   6.078
 8518SOL     OW26452   5.564   4.882   0.135
 8518SOL    HW126453   5.592   4.821   0.209
 8518SOL    HW226454   5.617   4.862   0.053
 8519SOL     OW26455   1.143   2.923   1.016
 8519SOL    HW126456   1.061   2.888   0.971
 8519SOL    HW226457   1.192   2.848   1.060
 8520SOL     OW26458   3.648   4.003   6.127
 8520SOL    HW126459   3.669   4.072   6.196
 8520SOL    HW226460   3.690   4.029   6.040
 8521SOL     OW26461   2.050   6.488   5.059
 8521SOL    HW126462   2.029   6.398   5.096
 8521SOL    HW226463   2.082   6.479   4.965
 8522SOL     OW26464   0.727   6.995   6.907
 8522SOL    HW126465   0.726   6.897   6.922
 8522SOL    HW226466   0.812   0.002   6.863
 8523SOL     OW26467   3.592   1.861   0.428
 8523SOL    HW126468   3.498   1.838   0.454
 8523SOL    HW226469   3.608   1.959   0.445
 8524SOL     OW26470   2.410   5.363   5.273
 8524SOL    HW126471   2.329   5.379   5.329
 8524SOL    HW226472   2.490   5.354   5.333
 8525SOL     OW26473   6.143   3.942   1.879
 8525SOL    HW126474   6.121   3.926   1.783
 8525SOL    HW226475   6.119   3.862   1.933
 8526SOL     OW26476   0.387   4.614   0.761
 8526SOL    HW126477   0.379   4.713   0.765
 8526SOL    HW226478   0.424   4.587   0.672
 8527SOL     OW26479   2.846   0.586   5.523
 8527SOL    HW126480   2.796   0.666   5.556
 8527SOL    HW226481   2.939   0.587   5.560
 8528SOL     OW26482   4.969   0.837   0.619
 8528SOL    HW126483   5.059   0.794   0.613
 8528SOL    HW226484   4.977   0.935   0.598
 8529SOL     OW26485   1.337   6.193   6.870
 8529SOL    HW126486   1.371   6.236   6.786
 8529SOL    HW226487   1.254   6.142   6.850
 8530SOL     OW26488   3.551   4.148   3.306
 8530SOL    HW126489   3.559   4.110   3.398
 8530SOL    HW226490   3.631   4.123   3.252
 8531SOL     OW26491   6.740   5.088   4.549
 8531SOL    HW126492   6.650   5.049   4.564
 8531SOL    HW226493   6.774   5.061   4.458
 8532SOL     OW26494   2.800   4.692   6.597
 8532SOL    HW126495   2.843   4.657   6.514
 8532SOL    HW226496   2.708   4.724   6.576
 8533SOL     OW26497   2.899   6.619   5.030
 8533SOL    HW126498   2.899   6.718   5.016
 8533SOL    HW226499   2.805   6.586   5.033
 8534SOL     OW26500   2.205   2.550   3.010
 8534SOL    HW126501   2.122   2.518   3.055
 8534SOL    HW226502   2.208   2.650   3.013
 8535SOL     OW26503   6.675   0.367   2.554
 8535SOL    HW126504   6.617   0.311   2.613
 8535SOL    HW226505   6.739   0.420   2.610
 8536SOL     OW26506   0.636   1.734   4.739
 8536SOL    HW126507   0.662   1.642   4.708
 8536SOL    HW226508   0.709   1.772   4.795
 8537SOL     OW26509   6.370   1.444   2.680
 8537SOL    HW126510   6.378   1.498   2.596
 8537SOL    HW226511   6.411   1.494   2.756
 8538SOL     OW26512   0.893   2.602   0.285
 8538SOL    HW126513   0.929   2.515   0.254
 8538SOL    HW226514   0.856   2.592   0.377
 8539SOL     OW26515   5.355   2.843   2.491
 8539SOL    HW126516   5.403   2.800   2.568
 8539SOL    HW226517   5.332   2.938   2.516
 8540SOL     OW26518   3.552   0.725   0.700
 8540SOL    HW126519   3.470   0.708   0.645
 8540SOL    HW226520   3.535   0.697   0.795
 8541SOL     OW26521   2.022   2.746   4.237
 8541SOL    HW126522   1.991   2.808   4.309
 8541SOL    HW226523   2.111   2.776   4.203
 8542SOL     OW26524   3.114   4.739   0.653
 8542SOL    HW126525   3.057   4.820   0.644
 8542SOL    HW226526   3.184   4.739   0.582
 8543SOL     OW26527   2.549   1.989   6.355
 8543SOL    HW126528   2.479   1.986   6.284
 8543SOL    HW226529   2.507   2.014   6.442
 8544SOL     OW26530   6.094   2.610   3.437
 8544SOL    HW126531   6.171   2.673   3.441
 8544SOL    HW226532   6.014   2.652   3.481
 8545SOL     OW26533   4.392   6.485   4.715
 8545SOL    HW126534   4.312   6.430   4.692
 8545SOL    HW226535   4.383   6.576   4.674
 8546SOL     OW26536   4.674   2.345   6.810
 8546SOL    HW126537   4.621   2.379   6.733
 8546SOL    HW226538   4.710   2.254   6.788
 8547SOL     OW26539   1.058   5.016   2.544
 8547SOL    HW126540   1.115   5.092   2.513
 8547SOL    HW226541   1.092   4.983   2.632
 8548SOL     OW26542   6.391   1.596   5.416
 8548SOL    HW126543   6.306   1.570   5.371
 8548SOL    HW226544   6.408   1.534   5.493
 8549SOL     OW26545   5.247   3.190   5.415
 8549SOL    HW126546   5.329   3.196   5.472
 8549SOL    HW226547   5.245   3.267   5.351
 8550SOL     OW26548   1.150   4.387   6.471
 8550SOL    HW126549   1.243   4.415   6.447
 8550SOL    HW226550   1.121   4.436   6.554
 8551SOL     OW26551   2.662   4.188   1.460
 8551SOL    HW126552   2.641   4.168   1.556
 8551SOL    HW226553   2.710   4.276   1.454
 8552SOL     OW26554   3.311   6.692   4.494
 8552SOL    HW126555   3.326   6.760   4.422
 8552SOL    HW226556   3.276   6.607   4.454
 8553SOL     OW26557   6.400   4.677   6.886
 8553SOL    HW126558   6.427   4.729   6.966
 8553SOL    HW226559   6.436   4.721   6.804
 8554SOL     OW26560   5.807   3.875   6.970
 8554SOL    HW126561   5.809   3.878   6.870
 8554SOL    HW226562   5.726   3.825   7.001
 8555SOL     OW26563   1.424   6.666   4.266
 8555SOL    HW126564   1.500   6.601   4.263
 8555SOL    HW226565   1.338   6.616   4.260
 8556SOL     OW26566   6.263   0.257   4.205
 8556SOL    HW126567   6.189   0.308   4.161
 8556SOL    HW226568   6.257   0.268   4.304
 8557SOL     OW26569   6.913   0.963   0.166
 8557SOL    HW126570   6.897   1.051   0.122
 8557SOL    HW226571   6.949   0.977   0.258
 8558SOL     OW26572   0.821   5.637   2.200
 8558SOL    HW126573   0.899   5.696   2.178
 8558SOL    HW226574   0.809   5.570   2.127
 8559SOL     OW26575   0.266   1.472   5.738
 8559SOL    HW126576   0.314   1.545   5.691
 8559SOL    HW226577   0.307   1.384   5.715
 8560SOL     OW26578   6.609   2.419   6.167
 8560SOL    HW126579   6.562   2.493   6.120
 8560SOL    HW226580   6.622   2.444   6.263
 8561SOL     OW26581   4.979   6.321   5.411
 8561SOL    HW126582   4.921   6.241   5.397
 8561SOL    HW226583   4.991   6.370   5.325
 8562SOL     OW26584   3.520   0.023   4.484
 8562SOL    HW126585   3.567   6.969   4.436
 8562SOL    HW226586   3.440   7.007   4.532
 8563SOL     OW26587   3.109   3.004   6.603
 8563SOL    HW126588   3.182   3.060   6.565
 8563SOL    HW226589   3.117   3.003   6.703
 8564SOL     OW26590   6.922   6.558   3.663
 8564SOL    HW126591   6.985   6.483   3.682
 8564SOL    HW226592   6.883   6.547   3.572
 8565SOL     OW26593   3.820   0.447   1.851
 8565SOL    HW126594   3.857   0.406   1.934
 8565SOL    HW226595   3.747   0.390   1.815
 8566SOL     OW26596   2.033   3.683   3.529
 8566SOL    HW126597   2.081   3.605   3.491
 8566SOL    HW226598   2.087   3.766   3.515
 8567SOL     OW26599   5.247   6.068   0.687
 8567SOL    HW126600   5.298   5.984   0.673
 8567SOL    HW226601   5.234   6.114   0.599
 8568SOL     OW26602   5.160   1.111   0.139
 8568SOL    HW126603   5.152   1.019   0.176
 8568SOL    HW226604   5.252   1.125   0.102
 8569SOL     OW26605   4.092   1.265   5.582
 8569SOL    HW126606   4.140   1.251   5.496
 8569SOL    HW226607   4.045   1.354   5.581
 8570SOL     OW26608   0.321   3.924   6.527
 8570SOL    HW126609   0.384   3.973   6.587
 8570SOL    HW226610   0.368   3.845   6.486
 8571SOL     OW26611   0.095   4.429   4.581
 8571SOL    HW126612   0.071   4.507   4.522
 8571SOL    HW226613   0.138   4.358   4.525
 8572SOL     OW26614   3.215   5.067   5.776
 8572SOL    HW126615   3.165   4.990   5.737
 8572SOL    HW226616   3.288   5.095   5.713
 8573SOL     OW26617   4.520   5.826   4.438
 8573SOL    HW126618   4.484   5.803   4.348
 8573SOL    HW226619   4.491   5.919   4.463
 8574SOL     OW26620   0.251   3.591   4.393
 8574SOL    HW126621   0.246   3.685   4.360
 8574SOL    HW226622   0.329   3.582   4.455
 8575SOL     OW26623   2.851   3.602   6.525
 8575SOL    HW126624   2.916   3.534   6.559
 8575SOL    HW226625   2.820   3.575   6.434
 8576SOL     OW26626   1.645   0.286   1.121
 8576SOL    HW126627   1.733   0.246   1.147
 8576SOL    HW226628   1.640   0.380   1.154
 8577SOL     OW26629   6.619   5.323   4.090
 8577SOL    HW126630   6.657   5.270   4.015
 8577SOL    HW226631   6.689   5.338   4.160
 8578SOL     OW26632   4.768   0.049   3.356
 8578SOL    HW126633   4.774   0.014   3.263
 8578SOL    HW226634   4.678   0.088   3.372
 8579SOL     OW26635   0.600   5.045   2.761
 8579SOL    HW126636   0.572   5.134   2.726
 8579SOL    HW226637   0.520   4.987   2.775
 8580SOL     OW26638   3.072   4.642   6.140
 8580SOL    HW126639   3.105   4.687   6.057
 8580SOL    HW226640   2.994   4.692   6.176
 8581SOL     OW26641   3.288   2.988   0.241
 8581SOL    HW126642   3.363   3.015   0.301
 8581SOL    HW226643   3.224   2.930   0.291
 8582SOL     OW26644   4.417   4.459   1.109
 8582SOL    HW126645   4.409   4.460   1.009
 8582SOL    HW226646   4.326   4.454   1.149
 8583SOL     OW26647   5.312   0.142   5.250
 8583SOL    HW126648   5.247   0.163   5.322
 8583SOL    HW226649   5.360   0.226   5.223
 8584SOL     OW26650   0.814   5.527   6.457
 8584SOL    HW126651   0.741   5.500   6.519
 8584SOL    HW226652   0.779   5.527   6.363
 8585SOL     OW26653   0.832   1.248   0.982
 8585SOL    HW126654   0.874   1.201   1.059
 8585SOL    HW226655   0.902   1.303   0.935
 8586SOL     OW26656   3.900   5.497   4.062
 8586SOL    HW126657   3.986   5.539   4.092
 8586SOL    HW226658   3.823   5.553   4.094
 8587SOL     OW26659   6.531   2.194   1.765
 8587SOL    HW126660   6.568   2.208   1.856
 8587SOL    HW226661   6.600   2.152   1.706
 8588SOL     OW26662   3.717   2.211   0.285
 8588SOL    HW126663   3.679   2.267   0.212
 8588SOL    HW226664   3.787   2.150   0.247
 8589SOL     OW26665   2.815   1.791   4.825
 8589SOL    HW126666   2.856   1.708   4.789
 8589SOL    HW226667   2.776   1.773   4.915
 8590SOL     OW26668   6.304   5.419   5.363
 8590SOL    HW126669   6.368   5.459   5.297
 8590SOL    HW226670   6.214   5.407   5.319
 8591SOL     OW26671   0.760   2.896   0.260
 8591SOL    HW126672   0.763   2.799   0.234
 8591SOL    HW226673   0.732   2.951   0.182
 8592SOL     OW26674   6.598   5.919   6.253
 8592SOL    HW126675   6.537   5.860   6.305
 8592SOL    HW226676   6.603   6.009   6.297
 8593SOL     OW26677   0.358   6.233   3.538
 8593SOL    HW126678   0.284   6.276   3.590
 8593SOL    HW226679   0.443   6.238   3.592
 8594SOL     OW26680   2.867   3.617   3.443
 8594SOL    HW126681   2.859   3.634   3.541
 8594SOL    HW226682   2.881   3.704   3.395
 8595SOL     OW26683   2.031   2.727   1.643
 8595SOL    HW126684   2.012   2.703   1.738
 8595SOL    HW226685   2.103   2.796   1.639
 8596SOL     OW26686   6.615   4.088   2.316
 8596SOL    HW126687   6.665   4.119   2.235
 8596SOL    HW226688   6.526   4.052   2.288
 8597SOL     OW26689   2.414   2.164   6.985
 8597SOL    HW126690   2.381   2.194   6.895
 8597SOL    HW226691   2.509   2.133   6.977
 8598SOL     OW26692   5.221   3.829   1.526
 8598SOL    HW126693   5.304   3.773   1.522
 8598SOL    HW226694   5.149   3.778   1.573
 8599SOL     OW26695   0.714   3.051   1.326
 8599SOL    HW126696   0.653   3.098   1.261
 8599SOL    HW226697   0.808   3.056   1.293
 8600SOL     OW26698   6.133   3.259   6.048
 8600SOL    HW126699   6.184   3.183   6.008
 8600SOL    HW226700   6.038   3.255   6.016
 8601SOL     OW26701   0.157   0.282   5.252
 8601SOL    HW126702   0.221   0.348   5.291
 8601SOL    HW226703   0.063   0.313   5.269
 8602SOL     OW26704   1.899   6.094   2.019
 8602SOL    HW126705   1.828   6.128   1.957
 8602SOL    HW226706   1.984   6.146   2.005
 8603SOL     OW26707   4.727   3.754   1.741
 8603SOL    HW126708   4.725   3.680   1.674
 8603SOL    HW226709   4.727   3.842   1.694
 8604SOL     OW26710   5.559   1.956   2.784
 8604SOL    HW126711   5.628   1.988   2.720
 8604SOL    HW226712   5.520   2.034   2.833
 8605SOL     OW26713   3.045   5.838   1.889
 8605SOL    HW126714   3.059   5.897   1.809
 8605SOL    HW226715   3.124   5.845   1.949
 8606SOL     OW26716   4.010   5.545   5.736
 8606SOL    HW126717   3.957   5.562   5.818
 8606SOL    HW226718   3.997   5.450   5.706
 8607SOL     OW26719   2.957   5.673   1.536
 8607SOL    HW126720   2.998   5.590   1.574
 8607SOL    HW226721   2.912   5.724   1.609
 8608SOL     OW26722   6.018   6.199   2.138
 8608SOL    HW126723   6.100   6.163   2.094
 8608SOL    HW226724   5.937   6.168   2.088
 8609SOL     OW26725   4.336   0.877   6.514
 8609SOL    HW126726   4.292   0.924   6.591
 8609SOL    HW226727   4.348   0.780   6.536
 8610SOL     OW26728   7.008   6.581   4.972
 8610SOL    HW126729   6.910   6.595   4.990
 8610SOL    HW226730   0.001   6.493   4.927
 8611SOL     OW26731   1.668   2.208   3.481
 8611SOL    HW126732   1.598   2.150   3.439
 8611SOL    HW226733   1.637   2.303   3.479
 8612SOL     OW26734   4.801   3.104   4.750
 8612SOL    HW126735   4.736   3.179   4.736
 8612SOL    HW226736   4.801   3.078   4.846
 8613SOL     OW26737   1.209   1.552   0.028
 8613SOL    HW126738   1.297   1.566   0.075
 8613SOL    HW226739   1.198   1.621   6.976
 8614SOL     OW26740   1.302   1.028   3.761
 8614SOL    HW126741   1.213   1.040   3.718
 8614SOL    HW226742   1.368   1.089   3.718
 8615SOL     OW26743   4.549   2.225   5.052
 8615SOL    HW126744   4.625   2.289   5.035
 8615SOL    HW226745   4.463   2.267   5.021
 8616SOL     OW26746   1.404   3.202   0.180
 8616SOL    HW126747   1.418   3.103   0.190
 8616SOL    HW226748   1.466   3.251   0.242
 8617SOL     OW26749   6.311   2.939   1.112
 8617SOL    HW126750   6.362   3.021   1.139
 8617SOL    HW226751   6.215   2.949   1.139
 8618SOL     OW26752   4.370   0.802   3.169
 8618SOL    HW126753   4.459   0.847   3.168
 8618SOL    HW226754   4.377   0.714   3.216
 8619SOL     OW26755   4.158   5.909   0.578
 8619SOL    HW126756   4.148   5.833   0.514
 8619SOL    HW226757   4.254   5.919   0.604
 8620SOL     OW26758   6.903   6.413   2.946
 8620SOL    HW126759   6.858   6.458   2.869
 8620SOL    HW226760   6.845   6.341   2.982
 8621SOL     OW26761   5.706   0.637   3.077
 8621SOL    HW126762   5.688   0.539   3.093
 8621SOL    HW226763   5.655   0.691   3.144
 8622SOL     OW26764   5.263   5.342   6.751
 8622SOL    HW126765   5.273   5.441   6.760
 8622SOL    HW226766   5.207   5.322   6.671
 8623SOL     OW26767   6.318   2.508   2.857
 8623SOL    HW126768   6.348   2.603   2.869
 8623SOL    HW226769   6.248   2.504   2.785
 8624SOL     OW26770   7.004   4.157   4.248
 8624SOL    HW126771   0.010   4.247   4.213
 8624SOL    HW226772   7.011   4.089   4.175
 8625SOL     OW26773   3.568   0.853   6.245
 8625SOL    HW126774   3.608   0.874   6.156
 8625SOL    HW226775   3.559   0.754   6.256
 8626SOL     OW26776   3.371   3.520   2.705
 8626SOL    HW126777   3.413   3.456   2.641
 8626SOL    HW226778   3.358   3.476   2.793
 8627SOL     OW26779   2.294   7.005   6.339
 8627SOL    HW126780   2.362   0.002   6.411
 8627SOL    HW226781   2.220   6.949   6.376
 8628SOL     OW26782   5.798   0.738   0.164
 8628SOL    HW126783   5.773   0.834   0.179
 8628SOL    HW226784   5.733   0.679   0.212
 8629SOL     OW26785   1.352   5.218   3.589
 8629SOL    HW126786   1.260   5.181   3.600
 8629SOL    HW226787   1.410   5.151   3.543
 8630SOL     OW26788   5.643   4.803   4.295
 8630SOL    HW126789   5.723   4.817   4.236
 8630SOL    HW226790   5.564   4.849   4.254
 8631SOL     OW26791   4.596   6.068   3.752
 8631SOL    HW126792   4.512   6.073   3.699
 8631SOL    HW226793   4.626   5.972   3.757
 8632SOL     OW26794   3.880   0.660   3.563
 8632SOL    HW126795   3.890   0.669   3.662
 8632SOL    HW226796   3.922   0.575   3.533
 8633SOL     OW26797   6.111   0.108   3.366
 8633SOL    HW126798   6.183   0.055   3.410
 8633SOL    HW226799   6.123   0.205   3.386
 8634SOL     OW26800   6.296   5.516   1.575
 8634SOL    HW126801   6.327   5.579   1.504
 8634SOL    HW226802   6.208   5.476   1.550
 8635SOL     OW26803   6.333   3.651   6.084
 8635SOL    HW126804   6.240   3.626   6.113
 8635SOL    HW226805   6.373   3.575   6.033
 8636SOL     OW26806   5.373   5.721   0.234
 8636SOL    HW126807   5.447   5.654   0.240
 8636SOL    HW226808   5.340   5.725   0.140
 8637SOL     OW26809   1.837   0.546   1.438
 8637SOL    HW126810   1.806   0.520   1.529
 8637SOL    HW226811   1.843   0.646   1.431
 8638SOL     OW26812   4.617   5.204   0.843
 8638SOL    HW126813   4.674   5.171   0.919
 8638SOL    HW226814   4.659   5.285   0.803
 8639SOL     OW26815   6.286   2.767   1.762
 8639SOL    HW126816   6.270   2.739   1.856
 8639SOL    HW226817   6.377   2.738   1.733
 8640SOL     OW26818   5.013   6.259   1.229
 8640SOL    HW126819   5.005   6.338   1.168
 8640SOL    HW226820   5.014   6.175   1.176
 8641SOL     OW26821   5.389   5.019   3.324
 8641SOL    HW126822   5.399   4.926   3.361
 8641SOL    HW226823   5.292   5.038   3.309
 8642SOL     OW26824   4.715   1.559   1.467
 8642SOL    HW126825   4.754   1.637   1.418
 8642SOL    HW226826   4.659   1.593   1.543
 8643SOL     OW26827   4.598   0.645   6.738
 8643SOL    HW126828   4.653   0.565   6.764
 8643SOL    HW226829   4.504   0.631   6.766
 8644SOL     OW26830   6.358   3.546   5.536
 8644SOL    HW126831   6.286   3.567   5.601
 8644SOL    HW226832   6.445   3.580   5.571
 8645SOL     OW26833   5.803   4.408   1.869
 8645SOL    HW126834   5.771   4.317   1.894
 8645SOL    HW226835   5.725   4.467   1.847
 8646SOL     OW26836   5.459   6.973   1.026
 8646SOL    HW126837   5.517   6.914   1.082
 8646SOL    HW226838   5.513   0.033   0.996
 8647SOL     OW26839   4.511   4.974   1.594
 8647SOL    HW126840   4.491   5.056   1.542
 8647SOL    HW226841   4.501   4.894   1.535
 8648SOL     OW26842   5.772   1.555   4.837
 8648SOL    HW126843   5.832   1.594   4.768
 8648SOL    HW226844   5.748   1.462   4.812
 8649SOL     OW26845   0.473   4.633   5.801
 8649SOL    HW126846   0.528   4.712   5.774
 8649SOL    HW226847   0.425   4.597   5.720
 8650SOL     OW26848   0.710   4.606   1.548
 8650SOL    HW126849   0.661   4.669   1.488
 8650SOL    HW226850   0.686   4.512   1.524
 8651SOL     OW26851   3.523   2.985   1.169
 8651SOL    HW126852   3.426   2.963   1.164
 8651SOL    HW226853   3.563   2.945   1.251
 8652SOL     OW26854   1.232   3.010   3.773
 8652SOL    HW126855   1.287   3.026   3.855
 8652SOL    HW226856   1.283   3.038   3.692
 8653SOL     OW26857   6.082   3.094   6.535
 8653SOL    HW126858   6.146   3.061   6.466
 8653SOL    HW226859   6.016   3.021   6.556
 8654SOL     OW26860   0.413   5.814   2.411
 8654SOL    HW126861   0.485   5.782   2.350
 8654SOL    HW226862   0.397   5.746   2.482
 8655SOL     OW26863   6.054   6.202   3.184
 8655SOL    HW126864   6.051   6.174   3.280
 8655SOL    HW226865   6.110   6.284   3.174
 8656SOL     OW26866   6.556   1.864   1.356
 8656SOL    HW126867   6.493   1.924   1.405
 8656SOL    HW226868   6.647   1.905   1.353
 8657SOL     OW26869   3.059   3.950   0.591
 8657SOL    HW126870   3.005   3.993   0.664
 8657SOL    HW226871   3.120   4.018   0.551
 8658SOL     OW26872   0.438   5.194   6.541
 8658SOL    HW126873   0.385   5.111   6.557
 8658SOL    HW226874   0.449   5.244   6.627
 8659SOL     OW26875   4.410   0.657   3.957
 8659SOL    HW126876   4.465   0.685   4.035
 8659SOL    HW226877   4.355   0.735   3.925
 8660SOL     OW26878   5.424   4.618   0.486
 8660SOL    HW126879   5.472   4.673   0.555
 8660SOL    HW226880   5.472   4.531   0.474
 8661SOL     OW26881   6.296   3.484   1.347
 8661SOL    HW126882   6.217   3.534   1.380
 8661SOL    HW226883   6.310   3.403   1.403
 8662SOL     OW26884   0.201   0.437   0.648
 8662SOL    HW126885   0.277   0.403   0.593
 8662SOL    HW226886   0.198   0.537   0.643
 8663SOL     OW26887   2.113   5.879   0.575
 8663SOL    HW126888   2.207   5.910   0.586
 8663SOL    HW226889   2.054   5.929   0.639
 8664SOL     OW26890   4.426   5.182   1.428
 8664SOL    HW126891   4.432   5.205   1.331
 8664SOL    HW226892   4.345   5.226   1.468
 8665SOL     OW26893   4.913   5.322   4.984
 8665SOL    HW126894   4.902   5.229   4.948
 8665SOL    HW226895   4.997   5.362   4.947
 8666SOL     OW26896   5.966   3.872   4.759
 8666SOL    HW126897   5.955   3.877   4.660
 8666SOL    HW226898   6.014   3.788   4.784
 8667SOL     OW26899   5.311   2.670   2.969
 8667SOL    HW126900   5.245   2.595   2.971
 8667SOL    HW226901   5.355   2.674   2.879
 8668SOL     OW26902   3.221   1.342   4.095
 8668SOL    HW126903   3.256   1.250   4.113
 8668SOL    HW226904   3.123   1.338   4.072
 8669SOL     OW26905   4.522   6.924   5.602
 8669SOL    HW126906   4.561   6.861   5.535
 8669SOL    HW226907   4.498   7.010   5.557
 8670SOL     OW26908   4.078   4.958   3.562
 8670SOL    HW126909   4.055   4.879   3.618
 8670SOL    HW226910   4.088   4.930   3.466
 8671SOL     OW26911   6.068   6.212   2.663
 8671SOL    HW126912   6.092   6.177   2.573
 8671SOL    HW226913   6.001   6.286   2.654
 8672SOL     OW26914   3.497   4.798   5.593
 8672SOL    HW126915   3.568   4.840   5.536
 8672SOL    HW226916   3.494   4.844   5.682
 8673SOL     OW26917   5.440   1.923   0.475
 8673SOL    HW126918   5.383   1.841   0.474
 8673SOL    HW226919   5.511   1.913   0.545
 8674SOL     OW26920   0.627   0.334   2.617
 8674SOL    HW126921   0.597   0.368   2.707
 8674SOL    HW226922   0.712   0.282   2.628
 8675SOL     OW26923   1.935   2.396   2.627
 8675SOL    HW126924   2.029   2.379   2.658
 8675SOL    HW226925   1.927   2.492   2.598
 8676SOL     OW26926   4.642   0.098   3.814
 8676SOL    HW126927   4.684   0.116   3.903
 8676SOL    HW226928   4.553   0.144   3.809
 8677SOL     OW26929   2.391   4.436   5.267
 8677SOL    HW126930   2.327   4.486   5.325
 8677SOL    HW226931   2.475   4.489   5.255
 8678SOL     OW26932   1.566   0.902   6.319
 8678SOL    HW126933   1.634   0.846   6.271
 8678SOL    HW226934   1.531   0.852   6.398
 8679SOL     OW26935   6.864   2.451   4.742
 8679SOL    HW126936   6.776   2.410   4.764
 8679SOL    HW226937   6.888   2.518   4.812
 8680SOL     OW26938   0.930   3.788   0.938
 8680SOL    HW126939   0.959   3.696   0.962
 8680SOL    HW226940   1.011   3.845   0.921
 8681SOL     OW26941   4.144   3.708   1.444
 8681SOL    HW126942   4.185   3.622   1.415
 8681SOL    HW226943   4.153   3.718   1.543
 8682SOL     OW26944   2.203   5.949   2.983
 8682SOL    HW126945   2.287   5.921   2.937
 8682SOL    HW226946   2.128   5.887   2.959
 8683SOL     OW26947   5.916   2.854   6.638
 8683SOL    HW126948   5.850   2.796   6.590
 8683SOL    HW226949   6.000   2.802   6.655
 8684SOL     OW26950   6.487   2.921   4.422
 8684SOL    HW126951   6.550   2.887   4.352
 8684SOL    HW226952   6.434   2.997   4.385
 8685SOL     OW26953   0.173   2.058   5.502
 8685SOL    HW126954   0.268   2.059   5.471
 8685SOL    HW226955   0.141   1.963   5.511
 8686SOL     OW26956   6.344   1.671   3.819
 8686SOL    HW126957   6.422   1.610   3.807
 8686SOL    HW226958   6.290   1.673   3.735
 8687SOL     OW26959   3.948   0.827   3.044
 8687SOL    HW126960   4.034   0.777   3.030
 8687SOL    HW226961   3.898   0.834   2.958
 8688SOL     OW26962   1.540   0.143   2.147
 8688SOL    HW126963   1.496   0.165   2.234
 8688SOL    HW226964   1.473   0.149   2.073
 8689SOL     OW26965   4.678   5.676   0.602
 8689SOL    HW126966   4.772   5.664   0.572
 8689SOL    HW226967   4.633   5.744   0.544
 8690SOL     OW26968   1.318   0.772   2.743
 8690SOL    HW126969   1.415   0.778   2.721
 8690SOL    HW226970   1.301   0.818   2.830
 8691SOL     OW26971   6.022   1.634   0.629
 8691SOL    HW126972   5.950   1.651   0.696
 8691SOL    HW226973   6.068   1.548   0.651
 8692SOL     OW26974   1.740   1.351   3.958
 8692SOL    HW126975   1.764   1.383   4.049
 8692SOL    HW226976   1.790   1.403   3.889
 8693SOL     OW26977   5.502   2.118   6.905
 8693SOL    HW126978   5.580   2.118   6.967
 8693SOL    HW226979   5.484   2.024   6.874
 8694SOL     OW26980   3.740   6.497   6.592
 8694SOL    HW126981   3.736   6.429   6.519
 8694SOL    HW226982   3.718   6.587   6.555
 8695SOL     OW26983   4.433   4.200   5.289
 8695SOL    HW126984   4.381   4.248   5.218
 8695SOL    HW226985   4.530   4.225   5.282
 8696SOL     OW26986   1.676   5.026   0.907
 8696SOL    HW126987   1.679   5.100   0.840
 8696SOL    HW226988   1.723   5.055   0.991
 8697SOL     OW26989   5.429   4.612   6.824
 8697SOL    HW126990   5.372   4.679   6.872
 8697SOL    HW226991   5.401   4.606   6.729
 8698SOL     OW26992   5.780   6.598   4.189
 8698SOL    HW126993   5.822   6.580   4.277
 8698SOL    HW226994   5.764   6.696   4.179
 8699SOL     OW26995   1.362   1.094   5.243
 8699SOL    HW126996   1.338   1.184   5.209
 8699SOL    HW226997   1.414   1.044   5.173
 8700SOL     OW26998   2.156   1.696   6.141
 8700SOL    HW126999   2.166   1.597   6.126
 8700SOL    HW227000   2.188   1.745   6.061
 8701SOL     OW27001   1.498   1.956   4.034
 8701SOL    HW127002   1.448   1.965   4.121
 8701SOL    HW227003   1.596   1.951   4.052
 8702SOL     OW27004   5.182   5.761   0.028
 8702SOL    HW127005   5.145   5.683   0.079
 8702SOL    HW227006   5.107   5.820   7.019
 8703SOL     OW27007   1.406   5.524   1.295
 8703SOL    HW127008   1.441   5.461   1.226
 8703SOL    HW227009   1.316   5.557   1.267
 8704SOL     OW27010   0.494   3.973   1.895
 8704SOL    HW127011   0.422   3.972   1.826
 8704SOL    HW227012   0.455   3.989   1.985
 8705SOL     OW27013   5.185   6.656   4.669
 8705SOL    HW127014   5.220   6.569   4.634
 8705SOL    HW227015   5.260   6.721   4.678
 8706SOL     OW27016   5.032   1.847   5.986
 8706SOL    HW127017   5.102   1.779   5.968
 8706SOL    HW227018   4.949   1.825   5.934
 8707SOL     OW27019   4.774   2.224   5.684
 8707SOL    HW127020   4.756   2.322   5.673
 8707SOL    HW227021   4.872   2.209   5.694
 8708SOL     OW27022   3.781   1.686   0.826
 8708SOL    HW127023   3.843   1.613   0.857
 8708SOL    HW227024   3.695   1.680   0.876
 8709SOL     OW27025   6.214   3.423   1.097
 8709SOL    HW127026   6.291   3.419   1.034
 8709SOL    HW227027   6.248   3.442   1.190
 8710SOL     OW27028   6.892   3.070   3.521
 8710SOL    HW127029   6.976   3.045   3.569
 8710SOL    HW227030   6.869   3.165   3.541
 8711SOL     OW27031   0.943   1.711   4.170
 8711SOL    HW127032   0.874   1.650   4.210
 8711SOL    HW227033   0.951   1.793   4.226
 8712SOL     OW27034   3.610   1.510   6.006
 8712SOL    HW127035   3.623   1.567   5.925
 8712SOL    HW227036   3.654   1.421   5.991
 8713SOL     OW27037   5.881   4.724   2.784
 8713SOL    HW127038   5.789   4.738   2.821
 8713SOL    HW227039   5.942   4.695   2.857
 8714SOL     OW27040   1.799   1.233   4.649
 8714SOL    HW127041   1.856   1.310   4.678
 8714SOL    HW227042   1.853   1.171   4.592
 8715SOL     OW27043   6.045   1.482   1.965
 8715SOL    HW127044   6.108   1.446   2.034
 8715SOL    HW227045   6.057   1.581   1.957
 8716SOL     OW27046   1.047   1.624   1.822
 8716SOL    HW127047   1.047   1.698   1.890
 8716SOL    HW227048   1.037   1.536   1.869
 8717SOL     OW27049   3.875   2.890   0.578
 8717SOL    HW127050   3.911   2.889   0.485
 8717SOL    HW227051   3.844   2.982   0.601
 8718SOL     OW27052   0.041   3.195   6.044
 8718SOL    HW127053   6.964   3.199   6.069
 8718SOL    HW227054   0.049   3.187   5.945
 8719SOL     OW27055   6.774   0.797   5.857
 8719SOL    HW127056   6.846   0.845   5.907
 8719SOL    HW227057   6.703   0.768   5.922
 8720SOL     OW27058   4.797   3.936   6.089
 8720SOL    HW127059   4.793   3.850   6.140
 8720SOL    HW227060   4.751   3.925   6.001
 8721SOL     OW27061   6.865   1.492   4.790
 8721SOL    HW127062   6.935   1.511   4.859
 8721SOL    HW227063   6.793   1.561   4.795
 8722SOL     OW27064   3.179   2.997   0.842
 8722SOL    HW127065   3.228   3.059   0.902
 8722SOL    HW227066   3.211   3.009   0.748
 8723SOL     OW27067   0.220   5.299   6.834
 8723SOL    HW127068   0.134   5.347   6.816
 8723SOL    HW227069   0.295   5.365   6.835
 8724SOL     OW27070   5.733   5.725   6.850
 8724SOL    HW127071   5.702   5.632   6.868
 8724SOL    HW227072   5.788   5.727   6.766
 8725SOL     OW27073   2.204   6.189   1.234
 8725SOL    HW127074   2.109   6.219   1.234
 8725SOL    HW227075   2.217   6.120   1.305
 8726SOL     OW27076   5.463   0.537   1.285
 8726SOL    HW127077   5.405   0.549   1.204
 8726SOL    HW227078   5.414   0.486   1.355
 8727SOL     OW27079   6.192   5.564   0.754
 8727SOL    HW127080   6.156   5.613   0.674
 8727SOL    HW227081   6.116   5.527   0.807
 8728SOL     OW27082   2.024   6.661   5.530
 8728SOL    HW127083   2.061   6.568   5.539
 8728SOL    HW227084   1.928   6.656   5.503
 8729SOL     OW27085   5.677   6.907   4.189
 8729SOL    HW127086   5.600   6.861   4.145
 8729SOL    HW227087   5.647   6.945   4.277
 8730SOL     OW27088   6.875   6.839   0.925
 8730SOL    HW127089   6.944   6.770   0.948
 8730SOL    HW227090   6.784   6.801   0.939
 8731SOL     OW27091   0.924   1.831   2.418
 8731SOL    HW127092   0.911   1.927   2.442
 8731SOL    HW227093   0.901   1.774   2.498
 8732SOL     OW27094   5.985   5.012   1.863
 8732SOL    HW127095   5.909   5.054   1.814
 8732SOL    HW227096   6.064   5.074   1.864
 8733SOL     OW27097   0.167   6.606   1.536
 8733SOL    HW127098   0.248   6.659   1.512
 8733SOL    HW227099   0.087   6.666   1.542
 8734SOL     OW27100   6.764   5.273   0.247
 8734SOL    HW127101   6.719   5.310   0.328
 8734SOL    HW227102   6.791   5.178   0.265
 8735SOL     OW27103   6.839   2.376   6.790
 8735SOL    HW127104   6.811   2.287   6.754
 8735SOL    HW227105   6.895   2.363   6.872
 8736SOL     OW27106   0.697   4.728   6.510
 8736SOL    HW127107   0.651   4.725   6.422
 8736SOL    HW227108   0.723   4.822   6.531
 8737SOL     OW27109   3.590   6.072   6.842
 8737SOL    HW127110   3.680   6.105   6.871
 8737SOL    HW227111   3.521   6.140   6.868
 8738SOL     OW27112   1.368   3.708   4.941
 8738SOL    HW127113   1.281   3.733   4.984
 8738SOL    HW227114   1.431   3.676   5.011
 8739SOL     OW27115   1.234   3.014   5.316
 8739SOL    HW127116   1.248   2.916   5.302
 8739SOL    HW227117   1.321   3.058   5.337
 8740SOL     OW27118   1.638   6.461   1.370
 8740SOL    HW127119   1.706   6.523   1.330
 8740SOL    HW227120   1.582   6.511   1.435
 8741SOL     OW27121   1.475   3.484   1.984
 8741SOL    HW127122   1.472   3.579   1.953
 8741SOL    HW227123   1.562   3.467   2.031
 8742SOL     OW27124   4.864   6.390   2.182
 8742SOL    HW127125   4.853   6.291   2.190
 8742SOL    HW227126   4.952   6.417   2.220
 8743SOL     OW27127   2.435   4.619   3.330
 8743SOL    HW127128   2.392   4.707   3.309
 8743SOL    HW227129   2.387   4.547   3.280
 8744SOL     OW27130   3.001   3.535   5.771
 8744SOL    HW127131   3.067   3.538   5.696
 8744SOL    HW227132   2.926   3.472   5.746
 8745SOL     OW27133   6.618   1.777   0.083
 8745SOL    HW127134   6.530   1.824   0.078
 8745SOL    HW227135   6.660   1.795   0.171
 8746SOL     OW27136   5.158   4.134   5.436
 8746SOL    HW127137   5.086   4.178   5.382
 8746SOL    HW227138   5.162   4.037   5.411
 8747SOL     OW27139   1.507   2.815   3.762
 8747SOL    HW127140   1.425   2.851   3.718
 8747SOL    HW227141   1.505   2.715   3.759
 8748SOL     OW27142   2.793   0.344   6.841
 8748SOL    HW127143   2.795   0.411   6.767
 8748SOL    HW227144   2.776   0.392   6.928
 8749SOL     OW27145   4.064   1.502   3.834
 8749SOL    HW127146   4.006   1.583   3.820
 8749SOL    HW227147   4.118   1.514   3.917
 8750SOL     OW27148   2.282   0.600   5.185
 8750SOL    HW127149   2.256   0.587   5.281
 8750SOL    HW227150   2.371   0.645   5.181
 8751SOL     OW27151   2.241   0.227   2.967
 8751SOL    HW127152   2.155   0.201   3.011
 8751SOL    HW227153   2.261   0.163   2.893
 8752SOL     OW27154   2.041   2.684   6.063
 8752SOL    HW127155   2.007   2.775   6.040
 8752SOL    HW227156   1.967   2.629   6.102
 8753SOL     OW27157   6.134   1.756   5.134
 8753SOL    HW127158   6.230   1.778   5.115
 8753SOL    HW227159   6.107   1.677   5.079
 8754SOL     OW27160   2.135   0.984   5.014
 8754SOL    HW127161   2.041   1.002   4.982
 8754SOL    HW227162   2.134   0.970   5.113
 8755SOL     OW27163   2.450   2.068   0.839
 8755SOL    HW127164   2.500   2.065   0.926
 8755SOL    HW227165   2.509   2.034   0.766
 8756SOL     OW27166   1.822   3.642   3.715
 8756SOL    HW127167   1.917   3.664   3.692
 8756SOL    HW227168   1.760   3.699   3.662
 8757SOL     OW27169   5.033   5.988   4.426
 8757SOL    HW127170   5.064   6.083   4.422
 8757SOL    HW227171   4.933   5.985   4.427
 8758SOL     OW27172   5.165   6.391   2.020
 8758SOL    HW127173   5.150   6.480   1.978
 8758SOL    HW227174   5.158   6.400   2.120
 8759SOL     OW27175   4.921   1.281   5.517
 8759SOL    HW127176   4.835   1.311   5.559
 8759SOL    HW227177   4.998   1.314   5.572
 8760SOL     OW27178   1.641   3.029   3.790
 8760SOL    HW127179   1.740   3.027   3.778
 8760SOL    HW227180   1.603   2.940   3.765
 8761SOL     OW27181   4.639   6.415   0.548
 8761SOL    HW127182   4.588   6.359   0.483
 8761SOL    HW227183   4.731   6.377   0.560
 8762SOL     OW27184   0.986   4.052   0.363
 8762SOL    HW127185   1.011   3.965   0.404
 8762SOL    HW227186   0.997   4.046   0.263
 8763SOL     OW27187   6.845   6.293   5.958
 8763SOL    HW127188   6.856   6.194   5.952
 8763SOL    HW227189   6.750   6.317   5.942
 8764SOL     OW27190   3.365   2.179   5.222
 8764SOL    HW127191   3.295   2.246   5.198
 8764SOL    HW227192   3.322   2.092   5.244
 8765SOL     OW27193   0.281   0.127   5.059
 8765SOL    HW127194   0.214   0.059   5.032
 8765SOL    HW227195   0.241   0.188   5.128
 8766SOL     OW27196   2.321   4.332   2.534
 8766SOL    HW127197   2.391   4.357   2.467
 8766SOL    HW227198   2.230   4.348   2.494
 8767SOL     OW27199   4.592   1.614   4.748
 8767SOL    HW127200   4.593   1.692   4.812
 8767SOL    HW227201   4.687   1.586   4.730
 8768SOL     OW27202   1.389   4.175   7.009
 8768SOL    HW127203   1.420   4.269   6.998
 8768SOL    HW227204   1.344   4.144   6.925
 8769SOL     OW27205   2.438   0.737   5.443
 8769SOL    HW127206   2.457   0.725   5.346
 8769SOL    HW227207   2.364   0.676   5.471
 8770SOL     OW27208   5.298   1.705   2.496
 8770SOL    HW127209   5.319   1.788   2.444
 8770SOL    HW227210   5.202   1.682   2.484
 8771SOL     OW27211   2.136   2.577   5.831
 8771SOL    HW127212   2.090   2.612   5.913
 8771SOL    HW227213   2.168   2.654   5.776
 8772SOL     OW27214   5.912   5.999   6.579
 8772SOL    HW127215   5.886   6.014   6.484
 8772SOL    HW227216   5.882   5.907   6.607
 8773SOL     OW27217   3.282   2.149   3.010
 8773SOL    HW127218   3.213   2.197   3.063
 8773SOL    HW227219   3.370   2.153   3.057
 8774SOL     OW27220   1.381   1.226   0.608
 8774SOL    HW127221   1.343   1.307   0.564
 8774SOL    HW227222   1.411   1.160   0.538
 8775SOL     OW27223   6.635   6.781   4.189
 8775SOL    HW127224   6.692   6.774   4.271
 8775SOL    HW227225   6.692   6.769   4.108
 8776SOL     OW27226   3.084   3.976   4.597
 8776SOL    HW127227   3.073   3.882   4.564
 8776SOL    HW227228   3.031   3.988   4.681
 8777SOL     OW27229   6.568   5.658   2.406
 8777SOL    HW127230   6.526   5.634   2.493
 8777SOL    HW227231   6.649   5.601   2.391
 8778SOL     OW27232   0.759   1.990   3.217
 8778SOL    HW127233   0.692   2.038   3.273
 8778SOL    HW227234   0.750   1.891   3.233
 8779SOL     OW27235   1.494   4.839   1.316
 8779SOL    HW127236   1.562   4.886   1.371
 8779SOL    HW227237   1.516   4.742   1.311
 8780SOL     OW27238   2.216   6.092   4.516
 8780SOL    HW127239   2.303   6.114   4.472
 8780SOL    HW227240   2.192   5.996   4.498
 8781SOL     OW27241   0.609   2.336   2.705
 8781SOL    HW127242   0.707   2.352   2.689
 8781SOL    HW227243   0.565   2.422   2.732
 8782SOL     OW27244   4.751   1.549   2.998
 8782SOL    HW127245   4.820   1.518   3.063
 8782SOL    HW227246   4.739   1.479   2.927
 8783SOL     OW27247   5.367   2.282   5.375
 8783SOL    HW127248   5.394   2.278   5.471
 8783SOL    HW227249   5.370   2.190   5.336
 8784SOL     OW27250   5.280   3.865   6.133
 8784SOL    HW127251   5.262   3.926   6.210
 8784SOL    HW227252   5.248   3.908   6.048
 8785SOL     OW27253   5.351   4.903   6.321
 8785SOL    HW127254   5.305   4.849   6.392
 8785SOL    HW227255   5.330   4.864   6.231
 8786SOL     OW27256   1.127   6.599   0.558
 8786SOL    HW127257   1.225   6.593   0.538
 8786SOL    HW227258   1.079   6.528   0.506
 8787SOL     OW27259   1.446   2.937   0.166
 8787SOL    HW127260   1.381   2.890   0.225
 8787SOL    HW227261   1.425   2.917   0.071
 8788SOL     OW27262   1.194   1.306   5.126
 8788SOL    HW127263   1.096   1.284   5.129
 8788SOL    HW227264   1.211   1.372   5.052
 8789SOL     OW27265   0.362   0.377   6.552
 8789SOL    HW127266   0.319   0.403   6.638
 8789SOL    HW227267   0.343   0.281   6.532
 8790SOL     OW27268   4.800   1.254   0.042
 8790SOL    HW127269   4.844   1.239   6.973
 8790SOL    HW227270   4.867   1.288   0.108
 8791SOL     OW27271   4.467   6.277   5.016
 8791SOL    HW127272   4.367   6.277   5.011
 8791SOL    HW227273   4.500   6.371   5.012
 8792SOL     OW27274   5.393   0.166   2.988
 8792SOL    HW127275   5.309   0.116   3.006
 8792SOL    HW227276   5.428   0.143   2.897
 8793SOL     OW27277   1.074   4.134   3.749
 8793SOL    HW127278   1.146   4.204   3.749
 8793SOL    HW227279   1.116   4.044   3.757
 8794SOL     OW27280   2.767   6.127   2.705
 8794SOL    HW127281   2.774   6.029   2.686
 8794SOL    HW227282   2.808   6.147   2.794
 8795SOL     OW27283   2.110   5.980   5.191
 8795SOL    HW127284   2.126   5.881   5.198
 8795SOL    HW227285   2.179   6.020   5.131
 8796SOL     OW27286   5.717   2.843   5.478
 8796SOL    HW127287   5.722   2.832   5.578
 8796SOL    HW227288   5.689   2.937   5.457
 8797SOL     OW27289   0.791   6.651   6.513
 8797SOL    HW127290   0.779   6.711   6.592
 8797SOL    HW227291   0.756   6.696   6.431
 8798SOL     OW27292   3.580   3.120   5.917
 8798SOL    HW127293   3.546   3.109   6.011
 8798SOL    HW227294   3.679   3.131   5.919
 8799SOL     OW27295   3.999   6.872   3.047
 8799SOL    HW127296   4.033   6.896   3.138
 8799SOL    HW227297   3.911   6.825   3.056
 8800SOL     OW27298   4.345   5.135   0.444
 8800SOL    HW127299   4.302   5.069   0.383
 8800SOL    HW227300   4.278   5.167   0.511
 8801SOL     OW27301   3.164   6.456   5.085
 8801SOL    HW127302   3.077   6.503   5.078
 8801SOL    HW227303   3.151   6.358   5.069
 8802SOL     OW27304   2.100   6.645   1.938
 8802SOL    HW127305   2.170   6.579   1.912
 8802SOL    HW227306   2.134   6.701   2.014
 8803SOL     OW27307   3.722   6.256   0.546
 8803SOL    HW127308   3.795   6.188   0.543
 8803SOL    HW227309   3.665   6.241   0.627
 8804SOL     OW27310   3.075   0.709   0.841
 8804SOL    HW127311   2.987   0.732   0.799
 8804SOL    HW227312   3.127   0.794   0.857
 8805SOL     OW27313   0.213   0.237   3.288
 8805SOL    HW127314   0.186   0.141   3.293
 8805SOL    HW227315   0.296   0.252   3.341
 8806SOL     OW27316   2.351   4.856   0.578
 8806SOL    HW127317   2.329   4.910   0.497
 8806SOL    HW227318   2.403   4.775   0.551
 8807SOL     OW27319   1.926   6.363   6.242
 8807SOL    HW127320   1.879   6.396   6.160
 8807SOL    HW227321   1.961   6.442   6.294
 8808SOL     OW27322   6.100   1.619   1.006
 8808SOL    HW127323   6.151   1.533   0.995
 8808SOL    HW227324   6.158   1.696   0.978
 8809SOL     OW27325   6.003   4.250   0.970
 8809SOL    HW127326   6.004   4.164   1.022
 8809SOL    HW227327   5.918   4.299   0.989
 8810SOL     OW27328   5.403   1.473   3.632
 8810SOL    HW127329   5.498   1.468   3.600
 8810SOL    HW227330   5.401   1.513   3.723
 8811SOL     OW27331   1.614   1.631   3.895
 8811SOL    HW127332   1.710   1.631   3.869
 8811SOL    HW227333   1.574   1.542   3.872
 8812SOL     OW27334   1.983   0.742   0.264
 8812SOL    HW127335   2.024   0.681   0.331
 8812SOL    HW227336   2.022   0.723   0.174
 8813SOL     OW27337   1.084   5.855   0.934
 8813SOL    HW127338   1.169   5.903   0.912
 8813SOL    HW227339   1.009   5.893   0.880
 8814SOL     OW27340   5.663   6.145   0.257
 8814SOL    HW127341   5.611   6.216   0.211
 8814SOL    HW227342   5.712   6.184   0.335
 8815SOL     OW27343   6.653   5.570   3.237
 8815SOL    HW127344   6.562   5.543   3.267
 8815SOL    HW227345   6.693   5.632   3.305
 8816SOL     OW27346   0.789   6.164   1.782
 8816SOL    HW127347   0.747   6.078   1.753
 8816SOL    HW227348   0.717   6.233   1.798
 8817SOL     OW27349   2.916   4.601   5.496
 8817SOL    HW127350   2.943   4.591   5.400
 8817SOL    HW227351   2.825   4.642   5.501
 8818SOL     OW27352   0.082   5.258   4.763
 8818SOL    HW127353   0.016   5.314   4.813
 8818SOL    HW227354   0.158   5.234   4.824
 8819SOL     OW27355   5.891   0.216   3.963
 8819SOL    HW127356   5.911   0.267   3.880
 8819SOL    HW227357   5.865   0.122   3.940
 8820SOL     OW27358   1.224   2.959   4.145
 8820SOL    HW127359   1.137   2.993   4.109
 8820SOL    HW227360   1.298   3.018   4.115
 8821SOL     OW27361   1.580   6.915   6.584
 8821SOL    HW127362   1.564   7.011   6.606
 8821SOL    HW227363   1.650   6.878   6.646
 8822SOL     OW27364   0.510   1.819   3.874
 8822SOL    HW127365   0.510   1.899   3.935
 8822SOL    HW227366   0.595   1.818   3.822
 8823SOL     OW27367   2.538   5.003   1.982
 8823SOL    HW127368   2.601   4.935   1.946
 8823SOL    HW227369   2.499   4.969   2.068
 8824SOL     OW27370   4.693   3.996   0.806
 8824SOL    HW127371   4.734   3.906   0.817
 8824SOL    HW227372   4.657   4.027   0.894
 8825SOL     OW27373   1.703   2.205   1.018
 8825SOL    HW127374   1.766   2.140   1.059
 8825SOL    HW227375   1.717   2.295   1.058
 8826SOL     OW27376   5.370   0.359   0.085
 8826SOL    HW127377   5.408   0.411   0.162
 8826SOL    HW227378   5.270   0.368   0.085
 8827SOL     OW27379   0.477   1.452   3.634
 8827SOL    HW127380   0.549   1.406   3.583
 8827SOL    HW227381   0.391   1.401   3.625
 8828SOL     OW27382   1.488   6.314   2.763
 8828SOL    HW127383   1.406   6.358   2.800
 8828SOL    HW227384   1.481   6.309   2.663
 8829SOL     OW27385   0.588   1.629   0.457
 8829SOL    HW127386   0.586   1.726   0.431
 8829SOL    HW227387   0.646   1.617   0.538
 8830SOL     OW27388   0.888   1.610   0.348
 8830SOL    HW127389   0.793   1.599   0.377
 8830SOL    HW227390   0.892   1.668   0.267
 8831SOL     OW27391   0.073   1.007   1.959
 8831SOL    HW127392   0.063   1.105   1.946
 8831SOL    HW227393   0.088   0.986   2.055
 8832SOL     OW27394   0.072   0.959   2.230
 8832SOL    HW127395   0.062   0.971   2.328
 8832SOL    HW227396   0.099   0.864   2.211
 8833SOL     OW27397   1.404   4.814   3.376
 8833SOL    HW127398   1.404   4.868   3.292
 8833SOL    HW227399   1.471   4.740   3.369
 8834SOL     OW27400   5.801   4.004   4.145
 8834SOL    HW127401   5.830   3.988   4.239
 8834SOL    HW227402   5.815   3.921   4.091
 8835SOL     OW27403   0.440   0.683   6.482
 8835SOL    HW127404   0.467   0.674   6.386
 8835SOL    HW227405   0.382   0.605   6.508
 8836SOL     OW27406   4.893   1.712   1.334
 8836SOL    HW127407   4.951   1.654   1.391
 8836SOL    HW227408   4.926   1.708   1.239
 8837SOL     OW27409   0.515   1.715   2.434
 8837SOL    HW127410   0.582   1.760   2.376
 8837SOL    HW227411   0.559   1.638   2.482
 8838SOL     OW27412   2.308   6.113   3.414
 8838SOL    HW127413   2.407   6.104   3.406
 8838SOL    HW227414   2.264   6.029   3.381
 8839SOL     OW27415   5.527   6.516   4.192
 8839SOL    HW127416   5.488   6.541   4.280
 8839SOL    HW227417   5.627   6.527   4.194
 8840SOL     OW27418   5.093   1.215   2.592
 8840SOL    HW127419   5.128   1.145   2.529
 8840SOL    HW227420   5.136   1.203   2.681
 8841SOL     OW27421   2.188   6.966   3.977
 8841SOL    HW127422   2.172   6.956   4.075
 8841SOL    HW227423   2.243   0.027   3.959
 8842SOL     OW27424   1.704   2.679   1.963
 8842SOL    HW127425   1.680   2.776   1.955
 8842SOL    HW227426   1.665   2.629   1.886
 8843SOL     OW27427   0.355   3.204   4.961
 8843SOL    HW127428   0.359   3.292   4.915
 8843SOL    HW227429   0.398   3.134   4.904
 8844SOL     OW27430   5.745   1.197   5.952
 8844SOL    HW127431   5.811   1.270   5.972
 8844SOL    HW227432   5.670   1.201   6.017
 8845SOL     OW27433   5.709   3.449   0.313
 8845SOL    HW127434   5.611   3.447   0.295
 8845SOL    HW227435   5.735   3.367   0.364
 8846SOL     OW27436   2.853   4.730   3.349
 8846SOL    HW127437   2.877   4.635   3.330
 8846SOL    HW227438   2.767   4.733   3.399
 8847SOL     OW27439   1.589   0.757   2.595
 8847SOL    HW127440   1.614   0.802   2.509
 8847SOL    HW227441   1.531   0.678   2.575
 8848SOL     OW27442   1.160   0.224   3.262
 8848SOL    HW127443   1.197   0.205   3.170
 8848SOL    HW227444   1.232   0.264   3.318
 8849SOL     OW27445   2.340   6.762   1.437
 8849SOL    HW127446   2.342   6.856   1.403
 8849SOL    HW227447   2.366   6.699   1.364
 8850SOL     OW27448   2.948   2.801   6.935
 8850SOL    HW127449   2.937   2.728   6.867
 8850SOL    HW227450   2.863   2.853   6.943
 8851SOL     OW27451   1.892   3.858   2.222
 8851SOL    HW127452   1.965   3.816   2.275
 8851SOL    HW227453   1.806   3.809   2.238
 8852SOL     OW27454   0.883   1.848   5.377
 8852SOL    HW127455   0.899   1.753   5.353
 8852SOL    HW227456   0.939   1.907   5.318
 8853SOL     OW27457   5.442   0.683   1.614
 8853SOL    HW127458   5.420   0.769   1.659
 8853SOL    HW227459   5.374   0.664   1.543
 8854SOL     OW27460   0.856   3.018   4.880
 8854SOL    HW127461   0.891   2.984   4.967
 8854SOL    HW227462   0.789   3.090   4.896
 8855SOL     OW27463   5.224   4.869   1.311
 8855SOL    HW127464   5.307   4.858   1.257
 8855SOL    HW227465   5.211   4.965   1.333
 8856SOL     OW27466   6.511   0.510   5.678
 8856SOL    HW127467   6.534   0.446   5.605
 8856SOL    HW227468   6.544   0.474   5.765
 8857SOL     OW27469   6.936   1.912   6.323
 8857SOL    HW127470   6.874   1.852   6.272
 8857SOL    HW227471   6.891   2.000   6.339
 8858SOL     OW27472   6.681   5.561   5.043
 8858SOL    HW127473   6.699   5.656   5.017
 8858SOL    HW227474   6.691   5.503   4.962
 8859SOL     OW27475   1.408   6.055   2.901
 8859SOL    HW127476   1.404   6.130   2.836
 8859SOL    HW227477   1.376   5.971   2.857
 8860SOL     OW27478   0.365   3.616   2.468
 8860SOL    HW127479   0.446   3.559   2.482
 8860SOL    HW227480   0.294   3.590   2.533
 8861SOL     OW27481   3.774   2.717   1.576
 8861SOL    HW127482   3.848   2.661   1.539
 8861SOL    HW227483   3.789   2.813   1.550
 8862SOL     OW27484   4.292   4.696   4.791
 8862SOL    HW127485   4.312   4.651   4.878
 8862SOL    HW227486   4.219   4.763   4.805
 8863SOL     OW27487   1.472   3.662   2.868
 8863SOL    HW127488   1.468   3.658   2.768
 8863SOL    HW227489   1.550   3.718   2.896
 8864SOL     OW27490   6.477   2.207   5.700
 8864SOL    HW127491   6.527   2.291   5.678
 8864SOL    HW227492   6.526   2.129   5.660
 8865SOL     OW27493   2.831   2.228   0.430
 8865SOL    HW127494   2.907   2.253   0.370
 8865SOL    HW227495   2.745   2.257   0.388
 8866SOL     OW27496   5.896   6.662   2.185
 8866SOL    HW127497   5.854   6.733   2.130
 8866SOL    HW227498   5.933   6.590   2.126
 8867SOL     OW27499   6.371   3.030   2.708
 8867SOL    HW127500   6.306   3.071   2.644
 8867SOL    HW227501   6.321   2.989   2.784
 8868SOL     OW27502   6.840   3.726   3.813
 8868SOL    HW127503   6.848   3.737   3.913
 8868SOL    HW227504   6.744   3.740   3.787
 8869SOL     OW27505   4.917   0.546   3.398
 8869SOL    HW127506   4.982   0.585   3.463
 8869SOL    HW227507   4.959   0.539   3.308
 8870SOL     OW27508   1.468   0.832   1.954
 8870SOL    HW127509   1.511   0.911   1.997
 8870SOL    HW227510   1.517   0.810   1.869
 8871SOL     OW27511   0.268   0.571   1.507
 8871SOL    HW127512   0.346   0.522   1.545
 8871SOL    HW227513   0.255   0.656   1.557
 8872SOL     OW27514   6.805   3.679   3.413
 8872SOL    HW127515   6.868   3.725   3.475
 8872SOL    HW227516   6.819   3.581   3.417
 8873SOL     OW27517   2.502   2.263   2.992
 8873SOL    HW127518   2.429   2.196   2.981
 8873SOL    HW227519   2.580   2.221   3.038
 8874SOL     OW27520   3.204   6.247   0.580
 8874SOL    HW127521   3.250   6.286   0.501
 8874SOL    HW227522   3.249   6.162   0.607
 8875SOL     OW27523   6.634   3.218   4.489
 8875SOL    HW127524   6.664   3.123   4.478
 8875SOL    HW227525   6.682   3.276   4.423
 8876SOL     OW27526   3.886   0.583   0.414
 8876SOL    HW127527   3.839   0.500   0.383
 8876SOL    HW227528   3.818   0.655   0.429
 8877SOL     OW27529   0.611   4.948   1.244
 8877SOL    HW127530   0.702   4.990   1.241
 8877SOL    HW227531   0.542   5.019   1.256
 8878SOL     OW27532   4.745   4.133   1.403
 8878SOL    HW127533   4.713   4.190   1.479
 8878SOL    HW227534   4.794   4.054   1.438
 8879SOL     OW27535   6.855   3.637   2.757
 8879SOL    HW127536   6.785   3.704   2.783
 8879SOL    HW227537   6.837   3.551   2.804
 8880SOL     OW27538   4.260   2.384   3.014
 8880SOL    HW127539   4.202   2.310   2.979
 8880SOL    HW227540   4.226   2.472   2.979
 8881SOL     OW27541   3.914   5.086   3.241
 8881SOL    HW127542   3.911   5.034   3.326
 8881SOL    HW227543   3.936   5.025   3.165
 8882SOL     OW27544   3.803   0.876   0.847
 8882SOL    HW127545   3.804   0.939   0.770
 8882SOL    HW227546   3.709   0.855   0.872
 8883SOL     OW27547   6.646   6.629   3.251
 8883SOL    HW127548   6.589   6.687   3.309
 8883SOL    HW227549   6.713   6.581   3.309
 8884SOL     OW27550   4.697   3.201   5.724
 8884SOL    HW127551   4.613   3.155   5.696
 8884SOL    HW227552   4.753   3.221   5.643
 8885SOL     OW27553   5.726   6.058   0.619
 8885SOL    HW127554   5.664   6.093   0.690
 8885SOL    HW227555   5.672   6.021   0.544
 8886SOL     OW27556   4.197   6.144   6.864
 8886SOL    HW127557   4.220   6.105   6.775
 8886SOL    HW227558   4.237   6.235   6.872
 8887SOL     OW27559   4.128   0.675   1.726
 8887SOL    HW127560   4.196   0.747   1.719
 8887SOL    HW227561   4.130   0.635   1.817
 8888SOL     OW27562   3.368   1.667   2.261
 8888SOL    HW127563   3.340   1.723   2.339
 8888SOL    HW227564   3.410   1.582   2.293
 8889SOL     OW27565   1.469   4.946   0.482
 8889SOL    HW127566   1.470   4.898   0.395
 8889SOL    HW227567   1.544   5.012   0.484
 8890SOL     OW27568   1.127   6.627   6.738
 8890SOL    HW127569   1.037   6.585   6.754
 8890SOL    HW227570   1.196   6.555   6.732
 8891SOL     OW27571   6.411   4.163   5.793
 8891SOL    HW127572   6.492   4.220   5.804
 8891SOL    HW227573   6.390   4.154   5.695
 8892SOL     OW27574   2.931   5.367   4.869
 8892SOL    HW127575   2.990   5.292   4.839
 8892SOL    HW227576   2.838   5.331   4.884
 8893SOL     OW27577   1.116   4.571   5.669
 8893SOL    HW127578   1.208   4.596   5.640
 8893SOL    HW227579   1.071   4.651   5.710
 8894SOL     OW27580   4.942   1.484   1.682
 8894SOL    HW127581   4.910   1.509   1.590
 8894SOL    HW227582   4.962   1.568   1.733
 8895SOL     OW27583   6.667   3.226   0.978
 8895SOL    HW127584   6.600   3.178   0.922
 8895SOL    HW227585   6.643   3.218   1.075
 8896SOL     OW27586   1.202   1.437   3.819
 8896SOL    HW127587   1.301   1.442   3.807
 8896SOL    HW227588   1.176   1.486   3.903
 8897SOL     OW27589   1.672   5.655   3.989
 8897SOL    HW127590   1.700   5.560   3.998
 8897SOL    HW227591   1.605   5.678   4.060
 8898SOL     OW27592   5.138   3.896   2.184
 8898SOL    HW127593   5.163   3.931   2.094
 8898SOL    HW227594   5.122   3.973   2.247
 8899SOL     OW27595   1.837   3.717   3.092
 8899SOL    HW127596   1.848   3.779   3.170
 8899SOL    HW227597   1.920   3.718   3.037
 8900SOL     OW27598   4.290   1.893   4.253
 8900SOL    HW127599   4.375   1.860   4.295
 8900SOL    HW227600   4.303   1.902   4.155
 8901SOL     OW27601   1.546   5.217   4.851
 8901SOL    HW127602   1.457   5.187   4.884
 8901SOL    HW227603   1.539   5.243   4.754
 8902SOL     OW27604   0.279   5.039   6.895
 8902SOL    HW127605   0.255   5.132   6.866
 8902SOL    HW227606   0.315   5.041   6.988
 8903SOL     OW27607   0.979   0.269   5.295
 8903SOL    HW127608   0.917   0.234   5.365
 8903SOL    HW227609   0.937   0.260   5.205
 8904SOL     OW27610   0.863   1.241   3.706
 8904SOL    HW127611   0.820   1.150   3.709
 8904SOL    HW227612   0.807   1.303   3.651
 8905SOL     OW27613   1.199   4.290   2.408
 8905SOL    HW127614   1.283   4.236   2.409
 8905SOL    HW227615   1.138   4.256   2.335
 8906SOL     OW27616   5.822   6.948   6.967
 8906SOL    HW127617   5.883   6.879   7.007
 8906SOL    HW227618   5.845   6.960   6.871
 8907SOL     OW27619   2.938   3.097   5.132
 8907SOL    HW127620   2.993   3.045   5.197
 8907SOL    HW227621   2.987   3.103   5.045
 8908SOL     OW27622   1.562   4.770   6.551
 8908SOL    HW127623   1.631   4.749   6.482
 8908SOL    HW227624   1.485   4.817   6.508
 8909SOL     OW27625   2.046   5.527   1.510
 8909SOL    HW127626   1.958   5.510   1.555
 8909SOL    HW227627   2.103   5.446   1.516
 8910SOL     OW27628   0.939   0.800   3.497
 8910SOL    HW127629   0.928   0.805   3.398
 8910SOL    HW227630   0.966   0.708   3.524
 8911SOL     OW27631   5.071   2.409   4.323
 8911SOL    HW127632   5.048   2.338   4.391
 8911SOL    HW227633   5.039   2.498   4.357
 8912SOL     OW27634   3.559   3.619   4.044
 8912SOL    HW127635   3.508   3.539   4.073
 8912SOL    HW227636   3.653   3.613   4.078
 8913SOL     OW27637   4.958   6.037   1.093
 8913SOL    HW127638   5.009   6.063   1.011
 8913SOL    HW227639   4.923   5.944   1.083
 8914SOL     OW27640   4.697   5.878   5.414
 8914SOL    HW127641   4.740   5.798   5.458
 8914SOL    HW227642   4.613   5.901   5.463
 8915SOL     OW27643   1.727   0.800   3.394
 8915SOL    HW127644   1.692   0.721   3.343
 8915SOL    HW227645   1.716   0.784   3.492
 8916SOL     OW27646   5.111   1.113   1.236
 8916SOL    HW127647   5.054   1.156   1.306
 8916SOL    HW227648   5.198   1.085   1.277
 8917SOL     OW27649   5.674   1.711   0.212
 8917SOL    HW127650   5.734   1.782   0.176
 8917SOL    HW227651   5.646   1.735   0.305
 8918SOL     OW27652   0.934   3.350   3.020
 8918SOL    HW127653   0.948   3.330   3.117
 8918SOL    HW227654   0.875   3.280   2.980
 8919SOL     OW27655   5.963   2.658   2.120
 8919SOL    HW127656   6.017   2.593   2.173
 8919SOL    HW227657   6.010   2.746   2.116
 8920SOL     OW27658   0.192   1.176   0.119
 8920SOL    HW127659   0.248   1.094   0.107
 8920SOL    HW227660   0.197   1.206   0.214
 8921SOL     OW27661   0.930   3.076   2.376
 8921SOL    HW127662   0.991   3.118   2.309
 8921SOL    HW227663   0.980   3.005   2.426
 8922SOL     OW27664   3.992   4.987   3.975
 8922SOL    HW127665   4.084   4.999   4.011
 8922SOL    HW227666   3.944   5.075   3.977
 8923SOL     OW27667   2.353   1.555   4.016
 8923SOL    HW127668   2.400   1.643   4.024
 8923SOL    HW227669   2.352   1.527   3.920
 8924SOL     OW27670   6.457   4.819   5.184
 8924SOL    HW127671   6.515   4.742   5.211
 8924SOL    HW227672   6.385   4.786   5.123
 8925SOL     OW27673   0.828   6.450   2.885
 8925SOL    HW127674   0.895   6.500   2.830
 8925SOL    HW227675   0.736   6.477   2.858
 8926SOL     OW27676   6.066   0.741   6.885
 8926SOL    HW127677   6.011   0.662   6.909
 8926SOL    HW227678   6.043   0.818   6.944
 8927SOL     OW27679   1.742   1.205   6.862
 8927SOL    HW127680   1.656   1.255   6.873
 8927SOL    HW227681   1.751   1.173   6.768
 8928SOL     OW27682   1.124   6.807   5.462
 8928SOL    HW127683   1.215   6.779   5.492
 8928SOL    HW227684   1.104   6.766   5.373
 8929SOL     OW27685   0.192   1.652   4.136
 8929SOL    HW127686   0.165   1.587   4.206
 8929SOL    HW227687   0.145   1.630   4.050
 8930SOL     OW27688   1.803   4.810   4.015
 8930SOL    HW127689   1.715   4.837   4.055
 8930SOL    HW227690   1.875   4.823   4.083
 8931SOL     OW27691   4.065   3.693   0.409
 8931SOL    HW127692   4.002   3.677   0.485
 8931SOL    HW227693   4.014   3.699   0.323
 8932SOL     OW27694   0.488   3.308   3.470
 8932SOL    HW127695   0.441   3.220   3.478
 8932SOL    HW227696   0.426   3.375   3.430
 8933SOL     OW27697   3.995   1.573   5.582
 8933SOL    HW127698   4.044   1.617   5.658
 8933SOL    HW227699   4.040   1.597   5.496
 8934SOL     OW27700   2.669   6.184   3.036
 8934SOL    HW127701   2.586   6.170   2.982
 8934SOL    HW227702   2.649   6.248   3.110
 8935SOL     OW27703   6.770   5.014   0.485
 8935SOL    HW127704   6.731   5.106   0.492
 8935SOL    HW227705   6.773   4.986   0.389
 8936SOL     OW27706   3.824   2.624   0.398
 8936SOL    HW127707   3.913   2.664   0.420
 8936SOL    HW227708   3.827   2.583   0.307
 8937SOL     OW27709   0.791   0.327   5.797
 8937SOL    HW127710   0.810   0.417   5.837
 8937SOL    HW227711   0.720   0.282   5.851
 8938SOL     OW27712   5.046   6.215   1.497
 8938SOL    HW127713   5.061   6.236   1.400
 8938SOL    HW227714   5.078   6.123   1.516
 8939SOL     OW27715   5.007   2.025   5.158
 8939SOL    HW127716   5.071   2.088   5.115
 8939SOL    HW227717   4.999   2.046   5.255
 8940SOL     OW27718   5.839   6.939   2.364
 8940SOL    HW127719   5.900   6.876   2.412
 8940SOL    HW227720   5.843   6.919   2.266
 8941SOL     OW27721   4.493   1.452   6.415
 8941SOL    HW127722   4.499   1.362   6.372
 8941SOL    HW227723   4.571   1.465   6.476
 8942SOL     OW27724   1.599   2.472   5.346
 8942SOL    HW127725   1.547   2.550   5.382
 8942SOL    HW227726   1.605   2.480   5.246
 8943SOL     OW27727   4.915   3.387   0.942
 8943SOL    HW127728   4.984   3.459   0.949
 8943SOL    HW227729   4.868   3.377   1.030
 8944SOL     OW27730   4.105   5.513   1.416
 8944SOL    HW127731   4.152   5.563   1.342
 8944SOL    HW227732   4.009   5.541   1.418
 8945SOL     OW27733   2.293   1.475   4.511
 8945SOL    HW127734   2.271   1.482   4.414
 8945SOL    HW227735   2.383   1.432   4.522
 8946SOL     OW27736   3.925   1.674   4.657
 8946SOL    HW127737   3.840   1.724   4.637
 8946SOL    HW227738   3.998   1.740   4.676
 8947SOL     OW27739   3.772   3.863   5.130
 8947SOL    HW127740   3.835   3.825   5.062
 8947SOL    HW227741   3.769   3.802   5.209
 8948SOL     OW27742   5.584   4.777   2.830
 8948SOL    HW127743   5.507   4.782   2.766
 8948SOL    HW227744   5.587   4.686   2.871
 8949SOL     OW27745   2.188   5.648   5.824
 8949SOL    HW127746   2.285   5.628   5.810
 8949SOL    HW227747   2.152   5.694   5.743
 8950SOL     OW27748   4.737   2.327   4.756
 8950SOL    HW127749   4.756   2.420   4.726
 8950SOL    HW227750   4.774   2.314   4.848
 8951SOL     OW27751   2.218   1.781   5.690
 8951SOL    HW127752   2.230   1.851   5.761
 8951SOL    HW227753   2.132   1.732   5.707
 8952SOL     OW27754   6.328   7.001   3.491
 8952SOL    HW127755   6.370   0.072   3.496
 8952SOL    HW227756   6.309   6.968   3.583
 8953SOL     OW27757   1.395   5.375   6.670
 8953SOL    HW127758   1.378   5.411   6.761
 8953SOL    HW227759   1.308   5.371   6.620
 8954SOL     OW27760   1.889   6.631   5.801
 8954SOL    HW127761   1.793   6.659   5.803
 8954SOL    HW227762   1.937   6.683   5.730
 8955SOL     OW27763   6.201   3.809   4.246
 8955SOL    HW127764   6.150   3.894   4.236
 8955SOL    HW227765   6.231   3.799   4.341
 8956SOL     OW27766   1.315   0.597   4.837
 8956SOL    HW127767   1.242   0.665   4.846
 8956SOL    HW227768   1.369   0.597   4.921
 8957SOL     OW27769   2.623   5.815   1.882
 8957SOL    HW127770   2.531   5.781   1.865
 8957SOL    HW227771   2.664   5.844   1.795
 8958SOL     OW27772   2.461   0.212   4.100
 8958SOL    HW127773   2.441   0.252   4.190
 8958SOL    HW227774   2.532   0.266   4.055
 8959SOL     OW27775   3.097   5.288   0.253
 8959SOL    HW127776   3.129   5.220   0.187
 8959SOL    HW227777   3.012   5.257   0.296
 8960SOL     OW27778   3.595   5.468   0.882
 8960SOL    HW127779   3.661   5.478   0.807
 8960SOL    HW227780   3.606   5.378   0.925
 8961SOL     OW27781   1.513   2.560   4.084
 8961SOL    HW127782   1.421   2.593   4.063
 8961SOL    HW227783   1.566   2.633   4.128
 8962SOL     OW27784   4.833   0.438   3.092
 8962SOL    HW127785   4.827   0.514   3.027
 8962SOL    HW227786   4.744   0.425   3.136
 8963SOL     OW27787   0.150   1.058   3.738
 8963SOL    HW127788   0.142   1.067   3.837
 8963SOL    HW227789   0.065   1.023   3.700
 8964SOL     OW27790   6.746   3.638   3.118
 8964SOL    HW127791   6.841   3.639   3.086
 8964SOL    HW227792   6.743   3.671   3.213
 8965SOL     OW27793   1.189   5.374   1.794
 8965SOL    HW127794   1.288   5.377   1.778
 8965SOL    HW227795   1.141   5.361   1.707
 8966SOL     OW27796   3.490   2.190   5.475
 8966SOL    HW127797   3.434   2.200   5.557
 8966SOL    HW227798   3.432   2.198   5.394
 8967SOL     OW27799   4.392   6.921   0.859
 8967SOL    HW127800   4.361   6.856   0.790
 8967SOL    HW227801   4.376   7.014   0.826
 8968SOL     OW27802   5.074   4.643   3.345
 8968SOL    HW127803   5.069   4.630   3.444
 8968SOL    HW227804   4.984   4.627   3.305
 8969SOL     OW27805   6.338   0.732   4.172
 8969SOL    HW127806   6.361   0.652   4.117
 8969SOL    HW227807   6.281   0.705   4.250
 8970SOL     OW27808   3.551   2.005   1.485
 8970SOL    HW127809   3.578   2.067   1.559
 8970SOL    HW227810   3.457   2.025   1.457
 8971SOL     OW27811   4.599   6.156   3.297
 8971SOL    HW127812   4.669   6.143   3.368
 8971SOL    HW227813   4.533   6.080   3.302
 8972SOL     OW27814   5.635   0.759   4.530
 8972SOL    HW127815   5.661   0.690   4.597
 8972SOL    HW227816   5.605   0.842   4.577
 8973SOL     OW27817   1.830   4.462   6.788
 8973SOL    HW127818   1.753   4.424   6.738
 8973SOL    HW227819   1.852   4.402   6.865
 8974SOL     OW27820   0.257   3.053   3.938
 8974SOL    HW127821   0.258   3.018   4.032
 8974SOL    HW227822   0.298   2.985   3.878
 8975SOL     OW27823   3.509   0.462   6.767
 8975SOL    HW127824   3.586   0.436   6.709
 8975SOL    HW227825   3.540   0.468   6.862
 8976SOL     OW27826   1.072   4.714   4.705
 8976SOL    HW127827   1.146   4.685   4.644
 8976SOL    HW227828   0.996   4.649   4.699
 8977SOL     OW27829   5.570   1.046   6.470
 8977SOL    HW127830   5.640   0.974   6.472
 8977SOL    HW227831   5.502   1.028   6.542
 8978SOL     OW27832   5.631   5.544   0.944
 8978SOL    HW127833   5.686   5.627   0.939
 8978SOL    HW227834   5.672   5.472   0.888
 8979SOL     OW27835   1.694   5.083   4.660
 8979SOL    HW127836   1.647   5.171   4.652
 8979SOL    HW227837   1.626   5.011   4.672
 8980SOL     OW27838   3.837   2.978   4.684
 8980SOL    HW127839   3.860   3.008   4.776
 8980SOL    HW227840   3.894   3.027   4.617
 8981SOL     OW27841   2.844   1.271   5.342
 8981SOL    HW127842   2.944   1.270   5.342
 8981SOL    HW227843   2.812   1.337   5.411
 8982SOL     OW27844   4.475   4.336   0.839
 8982SOL    HW127845   4.494   4.271   0.912
 8982SOL    HW227846   4.414   4.295   0.772
 8983SOL     OW27847   4.944   5.271   0.798
 8983SOL    HW127848   5.015   5.312   0.854
 8983SOL    HW227849   4.880   5.220   0.856
 8984SOL     OW27850   1.624   6.861   3.304
 8984SOL    HW127851   1.648   6.764   3.303
 8984SOL    HW227852   1.636   6.897   3.397
 8985SOL     OW27853   2.889   3.049   5.939
 8985SOL    HW127854   2.924   3.050   6.032
 8985SOL    HW227855   2.805   2.995   5.935
 8986SOL     OW27856   3.690   6.296   2.884
 8986SOL    HW127857   3.734   6.276   2.797
 8986SOL    HW227858   3.705   6.392   2.908
 8987SOL     OW27859   5.187   5.921   1.885
 8987SOL    HW127860   5.269   5.866   1.900
 8987SOL    HW227861   5.209   6.018   1.896
 8988SOL     OW27862   0.833   5.622   5.129
 8988SOL    HW127863   0.894   5.653   5.203
 8988SOL    HW227864   0.803   5.529   5.147
 8989SOL     OW27865   2.931   3.305   6.832
 8989SOL    HW127866   2.842   3.323   6.789
 8989SOL    HW227867   2.985   3.389   6.831
 8990SOL     OW27868   0.282   5.895   3.436
 8990SOL    HW127869   0.337   5.870   3.356
 8990SOL    HW227870   0.258   5.992   3.431
 8991SOL     OW27871   1.050   1.996   5.203
 8991SOL    HW127872   1.018   2.000   5.109
 8991SOL    HW227873   1.124   1.929   5.210
 8992SOL     OW27874   6.612   2.278   0.815
 8992SOL    HW127875   6.607   2.188   0.857
 8992SOL    HW227876   6.609   2.349   0.886
 8993SOL     OW27877   4.840   2.413   0.680
 8993SOL    HW127878   4.742   2.406   0.694
 8993SOL    HW227879   4.862   2.505   0.646
 8994SOL     OW27880   1.953   5.846   3.427
 8994SOL    HW127881   1.927   5.899   3.346
 8994SOL    HW227882   1.975   5.909   3.501
 8995SOL     OW27883   0.126   0.525   0.948
 8995SOL    HW127884   0.186   0.483   0.880
 8995SOL    HW227885   0.179   0.553   1.028
 8996SOL     OW27886   4.116   6.507   5.642
 8996SOL    HW127887   4.030   6.457   5.649
 8996SOL    HW227888   4.191   6.443   5.629
 8997SOL     OW27889   6.257   1.122   4.576
 8997SOL    HW127890   6.344   1.170   4.586
 8997SOL    HW227891   6.275   1.027   4.549
 8998SOL     OW27892   6.494   3.338   4.731
 8998SOL    HW127893   6.560   3.293   4.671
 8998SOL    HW227894   6.520   3.323   4.827
 8999SOL     OW27895   3.933   6.828   5.733
 8999SOL    HW127896   4.029   6.815   5.711
 8999SOL    HW227897   3.876   6.783   5.664
 9000SOL     OW27898   1.522   4.132   1.151
 9000SOL    HW127899   1.458   4.166   1.220
 9000SOL    HW227900   1.593   4.200   1.135
 9001SOL     OW27901   1.089   5.979   2.362
 9001SOL    HW127902   1.003   5.947   2.401
 9001SOL    HW227903   1.092   5.957   2.265
 9002SOL     OW27904   0.557   4.509   6.569
 9002SOL    HW127905   0.632   4.574   6.575
 9002SOL    HW227906   0.562   4.445   6.646
 9003SOL     OW27907   5.310   0.418   1.480
 9003SOL    HW127908   5.225   0.375   1.449
 9003SOL    HW227909   5.320   0.404   1.579
 9004SOL     OW27910   4.677   5.090   0.211
 9004SOL    HW127911   4.653   5.178   0.253
 9004SOL    HW227912   4.635   5.015   0.261
 9005SOL     OW27913   5.412   1.743   5.514
 9005SOL    HW127914   5.453   1.833   5.502
 9005SOL    HW227915   5.412   1.694   5.427
 9006SOL     OW27916   3.610   6.313   0.292
 9006SOL    HW127917   3.634   6.297   0.387
 9006SOL    HW227918   3.657   6.246   0.234
 9007SOL     OW27919   1.819   1.183   3.192
 9007SOL    HW127920   1.845   1.216   3.101
 9007SOL    HW227921   1.894   1.131   3.232
 9008SOL     OW27922   0.855   5.823   2.454
 9008SOL    HW127923   0.830   5.872   2.537
 9008SOL    HW227924   0.817   5.869   2.374
 9009SOL     OW27925   3.626   5.985   1.323
 9009SOL    HW127926   3.669   6.035   1.248
 9009SOL    HW227927   3.697   5.949   1.384
 9010SOL     OW27928   1.337   6.087   3.960
 9010SOL    HW127929   1.239   6.079   3.944
 9010SOL    HW227930   1.384   6.100   3.873
 9011SOL     OW27931   2.520   2.307   1.955
 9011SOL    HW127932   2.547   2.260   2.039
 9011SOL    HW227933   2.602   2.332   1.903
 9012SOL     OW27934   1.945   6.614   0.137
 9012SOL    HW127935   2.022   6.671   0.106
 9012SOL    HW227936   1.860   6.664   0.126
 9013SOL     OW27937   2.289   6.668   4.324
 9013SOL    HW127938   2.220   6.725   4.369
 9013SOL    HW227939   2.291   6.577   4.366
 9014SOL     OW27940   5.175   3.113   3.605
 9014SOL    HW127941   5.092   3.093   3.658
 9014SOL    HW227942   5.225   3.188   3.648
 9015SOL     OW27943   4.982   1.253   6.125
 9015SOL    HW127944   4.989   1.158   6.154
 9015SOL    HW227945   5.071   1.283   6.090
 9016SOL     OW27946   5.159   5.122   6.305
 9016SOL    HW127947   5.254   5.095   6.288
 9016SOL    HW227948   5.099   5.043   6.289
 9017SOL     OW27949   4.222   6.868   4.407
 9017SOL    HW127950   4.304   6.924   4.403
 9017SOL    HW227951   4.169   6.880   4.323
 9018SOL     OW27952   4.244   4.588   6.455
 9018SOL    HW127953   4.338   4.568   6.428
 9018SOL    HW227954   4.181   4.552   6.387
 9019SOL     OW27955   0.410   3.280   3.915
 9019SOL    HW127956   0.348   3.202   3.927
 9019SOL    HW227957   0.408   3.337   3.997
 9020SOL     OW27958   5.266   5.088   2.801
 9020SOL    HW127959   5.325   5.100   2.882
 9020SOL    HW227960   5.322   5.057   2.724
 9021SOL     OW27961   0.516   1.260   4.465
 9021SOL    HW127962   0.588   1.271   4.534
 9021SOL    HW227963   0.464   1.177   4.483
 9022SOL     OW27964   4.717   4.142   6.283
 9022SOL    HW127965   4.728   4.233   6.244
 9022SOL    HW227966   4.718   4.073   6.210
 9023SOL     OW27967   6.108   4.383   0.464
 9023SOL    HW127968   6.057   4.324   0.527
 9023SOL    HW227969   6.044   4.441   0.414
 9024SOL     OW27970   2.287   6.078   6.040
 9024SOL    HW127971   2.301   6.172   6.070
 9024SOL    HW227972   2.223   6.077   5.963
 9025SOL     OW27973   1.024   5.970   1.200
 9025SOL    HW127974   1.025   5.962   1.100
 9025SOL    HW227975   1.117   5.961   1.236
 9026SOL     OW27976   5.135   1.392   0.455
 9026SOL    HW127977   5.084   1.357   0.533
 9026SOL    HW227978   5.114   1.489   0.442
 9027SOL     OW27979   1.040   3.824   3.329
 9027SOL    HW127980   0.966   3.890   3.343
 9027SOL    HW227981   1.001   3.734   3.308
 9028SOL     OW27982   3.346   4.889   6.057
 9028SOL    HW127983   3.343   4.816   6.125
 9028SOL    HW227984   3.287   4.965   6.087
 9029SOL     OW27985   4.594   0.062   4.657
 9029SOL    HW127986   4.613   0.143   4.602
 9029SOL    HW227987   4.525   0.083   4.726
 9030SOL     OW27988   2.543   1.346   2.303
 9030SOL    HW127989   2.494   1.345   2.216
 9030SOL    HW227990   2.637   1.313   2.289
 9031SOL     OW27991   4.616   6.801   4.699
 9031SOL    HW127992   4.600   6.898   4.686
 9031SOL    HW227993   4.542   6.749   4.656
 9032SOL     OW27994   4.872   3.296   2.277
 9032SOL    HW127995   4.779   3.333   2.273
 9032SOL    HW227996   4.868   3.196   2.279
 9033SOL     OW27997   0.398   6.895   3.134
 9033SOL    HW127998   0.443   6.983   3.122
 9033SOL    HW227999   0.466   6.824   3.154
 9034SOL     OW28000   4.559   6.941   4.402
 9034SOL    HW128001   4.550   6.850   4.361
 9034SOL    HW228002   4.595   6.932   4.495
 9035SOL     OW28003   2.207   4.939   6.758
 9035SOL    HW128004   2.225   4.882   6.677
 9035SOL    HW228005   2.225   5.035   6.736
 9036SOL     OW28006   1.758   4.359   5.251
 9036SOL    HW128007   1.781   4.287   5.186
 9036SOL    HW228008   1.668   4.341   5.291
 9037SOL     OW28009   0.651   1.130   3.232
 9037SOL    HW128010   0.688   1.093   3.146
 9037SOL    HW228011   0.725   1.142   3.298
 9038SOL     OW28012   4.465   2.841   5.314
 9038SOL    HW128013   4.552   2.890   5.323
 9038SOL    HW228014   4.483   2.746   5.287
 9039SOL     OW28015   4.175   5.759   6.631
 9039SOL    HW128016   4.274   5.748   6.621
 9039SOL    HW228017   4.152   5.773   6.727
 9040SOL     OW28018   2.065   1.867   1.603
 9040SOL    HW128019   2.149   1.914   1.574
 9040SOL    HW228020   2.089   1.778   1.642
 9041SOL     OW28021   6.825   2.208   2.294
 9041SOL    HW128022   6.783   2.245   2.377
 9041SOL    HW228023   6.875   2.281   2.247
 9042SOL     OW28024   3.685   6.543   0.155
 9042SOL    HW128025   3.610   6.488   0.193
 9042SOL    HW228026   3.706   6.511   0.062
 9043SOL     OW28027   3.413   2.600   0.784
 9043SOL    HW128028   3.453   2.511   0.766
 9043SOL    HW228029   3.470   2.671   0.744
 9044SOL     OW28030   0.617   1.142   0.419
 9044SOL    HW128031   0.683   1.194   0.473
 9044SOL    HW228032   0.555   1.206   0.373
 9045SOL     OW28033   4.292   1.790   2.954
 9045SOL    HW128034   4.380   1.754   2.924
 9045SOL    HW228035   4.235   1.811   2.874
 9046SOL     OW28036   3.003   3.225   1.906
 9046SOL    HW128037   2.931   3.220   1.975
 9046SOL    HW228038   3.062   3.144   1.914
 9047SOL     OW28039   1.355   4.251   6.667
 9047SOL    HW128040   1.341   4.332   6.725
 9047SOL    HW228041   1.266   4.210   6.646
 9048SOL     OW28042   6.661   1.409   6.164
 9048SOL    HW128043   6.712   1.486   6.201
 9048SOL    HW228044   6.649   1.339   6.235
 9049SOL     OW28045   2.853   6.726   5.867
 9049SOL    HW128046   2.817   6.633   5.867
 9049SOL    HW228047   2.838   6.768   5.777
 9050SOL     OW28048   0.758   4.479   1.019
 9050SOL    HW128049   0.800   4.512   0.934
 9050SOL    HW228050   0.700   4.551   1.057
 9051SOL     OW28051   2.486   1.145   1.308
 9051SOL    HW128052   2.497   1.051   1.340
 9051SOL    HW228053   2.452   1.202   1.383
 9052SOL     OW28054   1.356   2.364   5.733
 9052SOL    HW128055   1.296   2.442   5.752
 9052SOL    HW228056   1.305   2.296   5.679
 9053SOL     OW28057   0.961   0.987   0.121
 9053SOL    HW128058   0.989   0.994   0.217
 9053SOL    HW228059   0.908   1.068   0.096
 9054SOL     OW28060   2.374   5.851   2.557
 9054SOL    HW128061   2.280   5.835   2.527
 9054SOL    HW228062   2.436   5.837   2.481
 9055SOL     OW28063   0.144   3.013   5.209
 9055SOL    HW128064   0.215   2.977   5.148
 9055SOL    HW228065   0.176   3.100   5.248
 9056SOL     OW28066   6.254   2.914   2.936
 9056SOL    HW128067   6.224   2.927   3.030
 9056SOL    HW228068   6.325   2.843   2.933
 9057SOL     OW28069   4.511   2.055   3.893
 9057SOL    HW128070   4.483   2.001   3.814
 9057SOL    HW228071   4.589   2.113   3.869
 9058SOL     OW28072   2.723   1.018   5.677
 9058SOL    HW128073   2.713   1.059   5.586
 9058SOL    HW228074   2.673   0.931   5.679
 9059SOL     OW28075   1.388   2.251   3.134
 9059SOL    HW128076   1.414   2.163   3.174
 9059SOL    HW228077   1.379   2.241   3.035
 9060SOL     OW28078   5.143   2.689   5.655
 9060SOL    HW128079   5.212   2.618   5.671
 9060SOL    HW228080   5.081   2.658   5.583
 9061SOL     OW28081   3.238   5.704   2.860
 9061SOL    HW128082   3.259   5.797   2.891
 9061SOL    HW228083   3.210   5.649   2.939
 9062SOL     OW28084   1.689   5.873   1.038
 9062SOL    HW128085   1.742   5.947   1.080
 9062SOL    HW228086   1.744   5.790   1.037
 9063SOL     OW28087   2.569   2.023   2.134
 9063SOL    HW128088   2.635   2.041   2.061
 9063SOL    HW228089   2.601   2.067   2.218
 9064SOL     OW28090   5.078   3.184   0.429
 9064SOL    HW128091   5.151   3.117   0.441
 9064SOL    HW228092   5.053   3.189   0.333
 9065SOL     OW28093   2.652   0.755   0.039
 9065SOL    HW128094   2.650   0.761   0.139
 9065SOL    HW228095   2.747   0.752   0.007
 9066SOL     OW28096   4.871   6.624   0.059
 9066SOL    HW128097   4.856   6.719   0.032
 9066SOL    HW228098   4.827   6.607   0.147
 9067SOL     OW28099   1.354   0.082   1.971
 9067SOL    HW128100   1.278   0.025   2.003
 9067SOL    HW228101   1.320   0.151   1.907
 9068SOL     OW28102   1.476   6.078   6.624
 9068SOL    HW128103   1.469   6.045   6.529
 9068SOL    HW228104   1.476   6.000   6.686
 9069SOL     OW28105   1.235   2.294   6.045
 9069SOL    HW128106   1.218   2.392   6.032
 9069SOL    HW228107   1.306   2.264   5.981
 9070SOL     OW28108   1.423   4.224   3.449
 9070SOL    HW128109   1.445   4.304   3.505
 9070SOL    HW228110   1.505   4.193   3.401
 9071SOL     OW28111   4.480   5.683   0.199
 9071SOL    HW128112   4.568   5.638   0.184
 9071SOL    HW228113   4.406   5.616   0.192
 9072SOL     OW28114   5.281   4.915   0.202
 9072SOL    HW128115   5.251   4.824   0.229
 9072SOL    HW228116   5.381   4.919   0.205
 9073SOL     OW28117   1.666   0.585   1.197
 9073SOL    HW128118   1.713   0.648   1.135
 9073SOL    HW228119   1.720   0.574   1.280
 9074SOL     OW28120   0.482   0.218   3.403
 9074SOL    HW128121   0.492   0.281   3.480
 9074SOL    HW228122   0.570   0.206   3.358
 9075SOL     OW28123   0.512   0.603   1.864
 9075SOL    HW128124   0.605   0.566   1.870
 9075SOL    HW228125   0.507   0.688   1.915
 9076SOL     OW28126   0.543   1.490   5.382
 9076SOL    HW128127   0.562   1.542   5.299
 9076SOL    HW228128   0.563   1.546   5.462
 9077SOL     OW28129   6.174   6.200   1.408
 9077SOL    HW128130   6.272   6.212   1.425
 9077SOL    HW228131   6.145   6.259   1.333
 9078SOL     OW28132   4.105   3.092   5.281
 9078SOL    HW128133   4.127   3.135   5.193
 9078SOL    HW228134   4.057   3.158   5.339
 9079SOL     OW28135   4.155   0.975   5.364
 9079SOL    HW128136   4.092   0.929   5.301
 9079SOL    HW228137   4.225   1.023   5.311
 9080SOL     OW28138   5.007   1.348   0.187
 9080SOL    HW128139   5.057   1.263   0.206
 9080SOL    HW228140   5.014   1.409   0.266
 9081SOL     OW28141   5.465   0.243   3.242
 9081SOL    HW128142   5.428   0.221   3.152
 9081SOL    HW228143   5.392   0.276   3.302
 9082SOL     OW28144   3.018   0.667   2.518
 9082SOL    HW128145   3.113   0.689   2.539
 9082SOL    HW228146   2.963   0.672   2.601
 9083SOL     OW28147   4.788   4.399   4.008
 9083SOL    HW128148   4.861   4.465   4.027
 9083SOL    HW228149   4.799   4.319   4.067
 9084SOL     OW28150   3.922   3.965   2.911
 9084SOL    HW128151   3.967   3.923   2.990
 9084SOL    HW228152   3.955   3.923   2.827
 9085SOL     OW28153   1.046   2.396   0.503
 9085SOL    HW128154   1.105   2.398   0.584
 9085SOL    HW228155   1.017   2.303   0.486
 9086SOL     OW28156   6.821   4.102   0.359
 9086SOL    HW128157   6.849   4.089   0.264
 9086SOL    HW228158   6.744   4.165   0.362
 9087SOL     OW28159   5.479   3.768   2.153
 9087SOL    HW128160   5.411   3.700   2.182
 9087SOL    HW228161   5.452   3.858   2.187
 9088SOL     OW28162   4.883   6.280   0.596
 9088SOL    HW128163   4.857   6.188   0.565
 9088SOL    HW228164   4.954   6.316   0.537
 9089SOL     OW28165   4.363   0.543   5.787
 9089SOL    HW128166   4.373   0.452   5.745
 9089SOL    HW228167   4.273   0.580   5.766
 9090SOL     OW28168   5.968   1.762   3.334
 9090SOL    HW128169   6.009   1.764   3.425
 9090SOL    HW228170   6.014   1.694   3.278
 9091SOL     OW28171   3.798   2.571   6.231
 9091SOL    HW128172   3.767   2.566   6.326
 9091SOL    HW228173   3.807   2.667   6.204
 9092SOL     OW28174   6.951   3.243   6.714
 9092SOL    HW128175   6.995   3.276   6.798
 9092SOL    HW228176   6.857   3.277   6.711
 9093SOL     OW28177   2.211   6.413   4.836
 9093SOL    HW128178   2.204   6.489   4.771
 9093SOL    HW228179   2.199   6.326   4.787
 9094SOL     OW28180   1.620   3.641   1.310
 9094SOL    HW128181   1.608   3.636   1.410
 9094SOL    HW228182   1.698   3.585   1.283
 9095SOL     OW28183   6.545   6.937   6.328
 9095SOL    HW128184   6.483   6.948   6.251
 9095SOL    HW228185   6.522   6.854   6.378
 9096SOL     OW28186   5.678   5.371   4.452
 9096SOL    HW128187   5.773   5.346   4.436
 9096SOL    HW228188   5.672   5.427   4.535
 9097SOL     OW28189   1.182   2.162   5.596
 9097SOL    HW128190   1.245   2.100   5.549
 9097SOL    HW228191   1.120   2.109   5.654
 9098SOL     OW28192   1.990   4.521   3.933
 9098SOL    HW128193   2.028   4.592   3.991
 9098SOL    HW228194   2.027   4.432   3.961
 9099SOL     OW28195   2.112   1.720   6.725
 9099SOL    HW128196   2.047   1.689   6.794
 9099SOL    HW228197   2.130   1.646   6.660
 9100SOL     OW28198   1.709   4.558   3.889
 9100SOL    HW128199   1.720   4.647   3.933
 9100SOL    HW228200   1.794   4.506   3.895
 9101SOL     OW28201   0.340   2.334   0.485
 9101SOL    HW128202   0.287   2.392   0.422
 9101SOL    HW228203   0.281   2.306   0.561
 9102SOL     OW28204   3.840   0.247   3.094
 9102SOL    HW128205   3.827   0.220   2.999
 9102SOL    HW228206   3.906   0.322   3.098
 9103SOL     OW28207   6.119   1.394   1.539
 9103SOL    HW128208   6.187   1.393   1.466
 9103SOL    HW228209   6.098   1.300   1.567
 9104SOL     OW28210   6.142   1.876   5.997
 9104SOL    HW128211   6.067   1.849   5.936
 9104SOL    HW228212   6.213   1.921   5.944
 9105SOL     OW28213   3.104   1.271   5.673
 9105SOL    HW128214   3.096   1.174   5.648
 9105SOL    HW228215   3.052   1.289   5.756
 9106SOL     OW28216   1.778   3.792   0.075
 9106SOL    HW128217   1.815   3.861   0.013
 9106SOL    HW228218   1.789   3.822   0.169
 9107SOL     OW28219   3.220   1.042   0.612
 9107SOL    HW128220   3.173   0.963   0.574
 9107SOL    HW228221   3.210   1.119   0.549
 9108SOL     OW28222   7.003   5.723   5.804
 9108SOL    HW128223   6.908   5.754   5.801
 9108SOL    HW228224   0.005   5.693   5.897
 9109SOL     OW28225   5.756   3.881   2.582
 9109SOL    HW128226   5.662   3.846   2.588
 9109SOL    HW228227   5.781   3.891   2.486
 9110SOL     OW28228   1.646   6.293   3.181
 9110SOL    HW128229   1.703   6.252   3.110
 9110SOL    HW228230   1.571   6.343   3.138
 9111SOL     OW28231   3.688   2.507   5.821
 9111SOL    HW128232   3.605   2.458   5.793
 9111SOL    HW228233   3.738   2.452   5.887
 9112SOL     OW28234   0.513   5.272   2.095
 9112SOL    HW128235   0.422   5.309   2.077
 9112SOL    HW228236   0.556   5.324   2.170
 9113SOL     OW28237   5.677   0.940   4.074
 9113SOL    HW128238   5.678   0.947   3.974
 9113SOL    HW228239   5.583   0.946   4.107
 9114SOL     OW28240   0.879   6.929   5.602
 9114SOL    HW128241   0.960   6.961   5.552
 9114SOL    HW228242   0.797   6.966   5.560
 9115SOL     OW28243   4.944   4.295   5.288
 9115SOL    HW128244   5.013   4.297   5.216
 9115SOL    HW228245   4.962   4.367   5.355
 9116SOL     OW28246   1.887   6.878   4.089
 9116SOL    HW128247   1.936   6.937   4.153
 9116SOL    HW228248   1.952   6.816   4.045
 9117SOL     OW28249   1.851   6.854   0.389
 9117SOL    HW128250   1.895   6.854   0.479
 9117SOL    HW228251   1.805   6.767   0.374
 9118SOL     OW28252   6.636   3.832   1.776
 9118SOL    HW128253   6.595   3.810   1.864
 9118SOL    HW228254   6.647   3.931   1.767
 9119SOL     OW28255   3.003   1.124   0.774
 9119SOL    HW128256   3.073   1.100   0.707
 9119SOL    HW228257   3.037   1.199   0.832
 9120SOL     OW28258   6.273   3.760   4.505
 9120SOL    HW128259   6.372   3.766   4.506
 9120SOL    HW228260   6.242   3.720   4.592
 9121SOL     OW28261   4.107   1.120   4.318
 9121SOL    HW128262   4.092   1.119   4.417
 9121SOL    HW228263   4.056   1.044   4.276
 9122SOL     OW28264   0.143   2.585   1.541
 9122SOL    HW128265   0.226   2.529   1.541
 9122SOL    HW228266   0.131   2.628   1.630
 9123SOL     OW28267   0.698   5.805   4.138
 9123SOL    HW128268   0.615   5.818   4.084
 9123SOL    HW228269   0.701   5.712   4.174
 9124SOL     OW28270   3.830   5.694   0.475
 9124SOL    HW128271   3.894   5.700   0.552
 9124SOL    HW228272   3.761   5.766   0.484
 9125SOL     OW28273   5.322   6.285   1.597
 9125SOL    HW128274   5.417   6.264   1.619
 9125SOL    HW228275   5.262   6.216   1.639
 9126SOL     OW28276   4.403   4.621   0.852
 9126SOL    HW128277   4.332   4.644   0.786
 9126SOL    HW228278   4.445   4.534   0.827
 9127SOL     OW28279   6.501   4.361   5.506
 9127SOL    HW128280   6.471   4.291   5.441
 9127SOL    HW228281   6.595   4.389   5.484
 9128SOL     OW28282   5.536   4.091   5.990
 9128SOL    HW128283   5.605   4.104   6.062
 9128SOL    HW228284   5.544   4.000   5.951
 9129SOL     OW28285   0.983   2.889   0.518
 9129SOL    HW128286   0.935   2.867   0.433
 9129SOL    HW228287   1.003   2.987   0.520
 9130SOL     OW28288   3.095   3.717   5.242
 9130SOL    HW128289   3.166   3.648   5.234
 9130SOL    HW228290   3.012   3.686   5.195
 9131SOL     OW28291   5.479   2.516   0.942
 9131SOL    HW128292   5.385   2.548   0.943
 9131SOL    HW228293   5.482   2.421   0.975
 9132SOL     OW28294   1.002   3.728   3.942
 9132SOL    HW128295   0.930   3.660   3.955
 9132SOL    HW228296   0.968   3.818   3.969
 9133SOL     OW28297   5.868   6.862   1.218
 9133SOL    HW128298   5.778   6.866   1.175
 9133SOL    HW228299   5.928   6.929   1.174
 9134SOL     OW28300   5.234   4.856   6.900
 9134SOL    HW128301   5.138   4.828   6.904
 9134SOL    HW228302   5.269   4.868   6.993
 9135SOL     OW28303   6.433   5.337   2.400
 9135SOL    HW128304   6.456   5.365   2.306
 9135SOL    HW228305   6.346   5.378   2.426
 9136SOL     OW28306   0.586   5.071   0.406
 9136SOL    HW128307   0.619   5.061   0.500
 9136SOL    HW228308   0.492   5.106   0.407
 9137SOL     OW28309   5.748   5.815   5.381
 9137SOL    HW128310   5.669   5.875   5.365
 9137SOL    HW228311   5.822   5.840   5.318
 9138SOL     OW28312   2.220   4.373   5.944
 9138SOL    HW128313   2.138   4.327   5.979
 9138SOL    HW228314   2.292   4.305   5.929
 9139SOL     OW28315   0.392   0.399   1.711
 9139SOL    HW128316   0.302   0.370   1.744
 9139SOL    HW228317   0.424   0.476   1.766
 9140SOL     OW28318   1.985   4.243   2.505
 9140SOL    HW128319   1.997   4.223   2.408
 9140SOL    HW228320   2.013   4.337   2.524
 9141SOL     OW28321   0.239   5.806   4.632
 9141SOL    HW128322   0.222   5.712   4.604
 9141SOL    HW228323   0.187   5.869   4.574
 9142SOL     OW28324   1.206   4.265   3.045
 9142SOL    HW128325   1.126   4.251   2.987
 9142SOL    HW228326   1.204   4.201   3.121
 9143SOL     OW28327   6.396   3.881   3.053
 9143SOL    HW128328   6.301   3.888   3.025
 9143SOL    HW228329   6.401   3.859   3.151
 9144SOL     OW28330   3.080   4.129   5.139
 9144SOL    HW128331   3.082   4.114   5.040
 9144SOL    HW228332   3.173   4.147   5.171
 9145SOL     OW28333   1.727   6.422   5.663
 9145SOL    HW128334   1.788   6.447   5.738
 9145SOL    HW228335   1.731   6.323   5.650
 9146SOL     OW28336   6.220   2.383   3.644
 9146SOL    HW128337   6.182   2.291   3.640
 9146SOL    HW228338   6.153   2.446   3.682
 9147SOL     OW28339   4.049   0.852   5.943
 9147SOL    HW128340   4.057   0.752   5.946
 9147SOL    HW228341   4.103   0.888   5.867
 9148SOL     OW28342   4.473   5.746   1.571
 9148SOL    HW128343   4.539   5.728   1.498
 9148SOL    HW228344   4.434   5.659   1.603
 9149SOL     OW28345   0.807   3.610   1.638
 9149SOL    HW128346   0.730   3.586   1.580
 9149SOL    HW228347   0.891   3.613   1.583
 9150SOL     OW28348   2.913   3.891   6.864
 9150SOL    HW128349   2.846   3.821   6.888
 9150SOL    HW228350   2.869   3.963   6.811
 9151SOL     OW28351   2.178   3.058   3.638
 9151SOL    HW128352   2.172   3.070   3.539
 9151SOL    HW228353   2.233   2.977   3.658
 9152SOL     OW28354   1.846   4.622   2.308
 9152SOL    HW128355   1.765   4.655   2.358
 9152SOL    HW228356   1.891   4.699   2.263
 9153SOL     OW28357   0.193   3.353   0.324
 9153SOL    HW128358   0.103   3.339   0.280
 9153SOL    HW228359   0.222   3.267   0.366
 9154SOL     OW28360   4.727   4.794   3.504
 9154SOL    HW128361   4.786   4.811   3.583
 9154SOL    HW228362   4.633   4.823   3.527
 9155SOL     OW28363   0.920   6.240   3.023
 9155SOL    HW128364   0.975   6.264   3.103
 9155SOL    HW228365   0.878   6.324   2.986
 9156SOL     OW28366   0.076   3.964   5.860
 9156SOL    HW128367   0.093   3.962   5.959
 9156SOL    HW228368   0.089   3.873   5.823
 9157SOL     OW28369   1.890   4.750   5.228
 9157SOL    HW128370   1.919   4.670   5.279
 9157SOL    HW228371   1.920   4.742   5.133
 9158SOL     OW28372   0.064   3.169   4.725
 9158SOL    HW128373   0.138   3.133   4.781
 9158SOL    HW228374   0.088   3.260   4.693
 9159SOL     OW28375   2.659   1.269   3.913
 9159SOL    HW128376   2.663   1.347   3.851
 9159SOL    HW228377   2.607   1.195   3.870
 9160SOL     OW28378   1.023   2.894   6.728
 9160SOL    HW128379   0.972   2.882   6.643
 9160SOL    HW228380   0.965   2.866   6.805
 9161SOL     OW28381   6.180   2.981   3.178
 9161SOL    HW128382   6.093   2.932   3.184
 9161SOL    HW228383   6.164   3.078   3.194
 9162SOL     OW28384   3.797   2.381   1.584
 9162SOL    HW128385   3.767   2.389   1.679
 9162SOL    HW228386   3.721   2.401   1.523
 9163SOL     OW28387   1.752   2.700   4.188
 9163SOL    HW128388   1.762   2.800   4.194
 9163SOL    HW228389   1.842   2.657   4.200
 9164SOL     OW28390   2.559   6.440   6.670
 9164SOL    HW128391   2.460   6.428   6.679
 9164SOL    HW228392   2.604   6.351   6.679
 9165SOL     OW28393   5.820   1.016   6.266
 9165SOL    HW128394   5.775   0.944   6.319
 9165SOL    HW228395   5.778   1.021   6.175
 9166SOL     OW28396   4.477   6.465   1.869
 9166SOL    HW128397   4.566   6.425   1.849
 9166SOL    HW228398   4.443   6.514   1.788
 9167SOL     OW28399   1.611   1.744   4.344
 9167SOL    HW128400   1.616   1.664   4.404
 9167SOL    HW228401   1.598   1.826   4.400
 9168SOL     OW28402   6.375   5.833   5.277
 9168SOL    HW128403   6.310   5.796   5.344
 9168SOL    HW228404   6.412   5.919   5.311
 9169SOL     OW28405   6.576   5.942   0.146
 9169SOL    HW128406   6.514   6.011   0.184
 9169SOL    HW228407   6.527   5.889   0.076
 9170SOL     OW28408   2.335   0.808   5.869
 9170SOL    HW128409   2.319   0.718   5.910
 9170SOL    HW228410   2.424   0.842   5.898
 9171SOL     OW28411   3.185   5.937   0.092
 9171SOL    HW128412   3.118   5.865   0.075
 9171SOL    HW228413   3.253   5.938   0.019
 9172SOL     OW28414   4.385   1.477   5.599
 9172SOL    HW128415   4.332   1.515   5.523
 9172SOL    HW228416   4.324   1.455   5.675
 9173SOL     OW28417   6.075   3.747   5.342
 9173SOL    HW128418   6.093   3.816   5.272
 9173SOL    HW228419   5.981   3.756   5.375
 9174SOL     OW28420   6.121   4.473   0.884
 9174SOL    HW128421   6.217   4.464   0.858
 9174SOL    HW228422   6.083   4.383   0.904
 9175SOL     OW28423   2.098   0.881   1.267
 9175SOL    HW128424   2.084   0.792   1.224
 9175SOL    HW228425   2.155   0.937   1.207
 9176SOL     OW28426   1.710   0.868   2.370
 9176SOL    HW128427   1.720   0.957   2.326
 9176SOL    HW228428   1.654   0.809   2.312
 9177SOL     OW28429   0.957   5.811   3.665
 9177SOL    HW128430   0.930   5.891   3.611
 9177SOL    HW228431   0.883   5.787   3.728
 9178SOL     OW28432   1.259   3.996   1.156
 9178SOL    HW128433   1.330   4.064   1.140
 9178SOL    HW228434   1.189   4.034   1.217
 9179SOL     OW28435   4.235   5.148   3.674
 9179SOL    HW128436   4.281   5.119   3.758
 9179SOL    HW228437   4.185   5.071   3.635
 9180SOL     OW28438   0.636   0.486   5.279
 9180SOL    HW128439   0.713   0.470   5.218
 9180SOL    HW228440   0.649   0.433   5.363
 9181SOL     OW28441   2.744   1.496   3.688
 9181SOL    HW128442   2.667   1.545   3.648
 9181SOL    HW228443   2.800   1.560   3.742
 9182SOL     OW28444   0.057   1.784   2.880
 9182SOL    HW128445   0.086   1.875   2.851
 9182SOL    HW228446   0.094   1.716   2.816
 9183SOL     OW28447   2.102   1.277   5.857
 9183SOL    HW128448   2.030   1.258   5.923
 9183SOL    HW228449   2.110   1.201   5.792
 9184SOL     OW28450   2.526   4.530   1.437
 9184SOL    HW128451   2.592   4.565   1.370
 9184SOL    HW228452   2.575   4.502   1.520
 9185SOL     OW28453   1.570   0.588   5.937
 9185SOL    HW128454   1.513   0.506   5.946
 9185SOL    HW228455   1.518   0.660   5.890
 9186SOL     OW28456   5.576   6.152   6.433
 9186SOL    HW128457   5.494   6.167   6.488
 9186SOL    HW228458   5.596   6.234   6.380
 9187SOL     OW28459   4.847   2.674   1.177
 9187SOL    HW128460   4.762   2.721   1.199
 9187SOL    HW228461   4.915   2.741   1.147
 9188SOL     OW28462   1.170   0.188   1.779
 9188SOL    HW128463   1.145   0.129   1.702
 9188SOL    HW228464   1.088   0.211   1.831
 9189SOL     OW28465   3.143   0.547   5.570
 9189SOL    HW128466   3.144   0.460   5.521
 9189SOL    HW228467   3.235   0.586   5.571
 9190SOL     OW28468   4.398   1.062   5.780
 9190SOL    HW128469   4.465   1.100   5.716
 9190SOL    HW228470   4.430   0.972   5.812
 9191SOL     OW28471   5.356   6.569   1.778
 9191SOL    HW128472   5.449   6.569   1.816
 9191SOL    HW228473   5.291   6.596   1.850
 9192SOL     OW28474   4.715   4.271   4.698
 9192SOL    HW128475   4.716   4.186   4.750
 9192SOL    HW228476   4.677   4.345   4.754
 9193SOL     OW28477   3.971   3.811   3.134
 9193SOL    HW128478   4.053   3.754   3.141
 9193SOL    HW228479   3.895   3.756   3.099
 9194SOL     OW28480   3.982   4.883   3.070
 9194SOL    HW128481   4.060   4.918   3.017
 9194SOL    HW228482   3.904   4.869   3.008
 9195SOL     OW28483   0.678   2.325   3.421
 9195SOL    HW128484   0.758   2.299   3.367
 9195SOL    HW228485   0.594   2.299   3.372
 9196SOL     OW28486   5.079   5.761   3.732
 9196SOL    HW128487   5.065   5.860   3.737
 9196SOL    HW228488   5.056   5.729   3.640
 9197SOL     OW28489   4.422   1.429   0.088
 9197SOL    HW128490   4.488   1.442   0.014
 9197SOL    HW228491   4.413   1.514   0.139
 9198SOL     OW28492   5.743   2.631   5.265
 9198SOL    HW128493   5.768   2.700   5.333
 9198SOL    HW228494   5.795   2.547   5.283
 9199SOL     OW28495   0.892   3.659   6.625
 9199SOL    HW128496   0.818   3.622   6.567
 9199SOL    HW228497   0.978   3.655   6.575
 9200SOL     OW28498   5.353   5.786   1.328
 9200SOL    HW128499   5.447   5.753   1.337
 9200SOL    HW228500   5.350   5.883   1.354
 9201SOL     OW28501   0.269   3.032   1.928
 9201SOL    HW128502   0.221   3.031   2.015
 9201SOL    HW228503   0.204   3.018   1.854
 9202SOL     OW28504   2.820   6.398   4.438
 9202SOL    HW128505   2.916   6.398   4.465
 9202SOL    HW228506   2.774   6.320   4.480
 9203SOL     OW28507   4.828   0.967   0.157
 9203SOL    HW128508   4.752   0.916   0.118
 9203SOL    HW228509   4.858   1.037   0.092
 9204SOL     OW28510   4.929   4.857   2.947
 9204SOL    HW128511   4.889   4.768   2.970
 9204SOL    HW228512   5.015   4.868   2.995
 9205SOL     OW28513   4.276   2.467   1.352
 9205SOL    HW128514   4.330   2.391   1.316
 9205SOL    HW228515   4.291   2.549   1.297
 9206SOL     OW28516   6.342   6.267   4.935
 9206SOL    HW128517   6.404   6.196   4.904
 9206SOL    HW228518   6.247   6.238   4.920
 9207SOL     OW28519   4.359   6.662   0.362
 9207SOL    HW128520   4.355   6.709   0.451
 9207SOL    HW228521   4.320   6.571   0.371
 9208SOL     OW28522   4.692   4.562   1.087
 9208SOL    HW128523   4.687   4.642   1.028
 9208SOL    HW228524   4.599   4.528   1.105
 9209SOL     OW28525   4.399   0.222   3.865
 9209SOL    HW128526   4.378   0.266   3.953
 9209SOL    HW228527   4.314   0.197   3.820
 9210SOL     OW28528   1.069   6.821   6.939
 9210SOL    HW128529   1.124   6.808   0.001
 9210SOL    HW228530   1.083   6.745   6.876
 9211SOL     OW28531   4.876   0.908   6.601
 9211SOL    HW128532   4.894   0.952   6.689
 9211SOL    HW228533   4.881   0.975   6.528
 9212SOL     OW28534   6.159   3.611   5.757
 9212SOL    HW128535   6.065   3.597   5.726
 9212SOL    HW228536   6.158   3.670   5.838
 9213SOL     OW28537   6.551   5.755   1.810
 9213SOL    HW128538   6.559   5.854   1.825
 9213SOL    HW228539   6.457   5.727   1.825
 9214SOL     OW28540   1.794   1.537   6.205
 9214SOL    HW128541   1.811   1.636   6.201
 9214SOL    HW228542   1.855   1.495   6.273
 9215SOL     OW28543   0.216   3.700   3.693
 9215SOL    HW128544   0.293   3.636   3.693
 9215SOL    HW228545   0.245   3.786   3.734
 9216SOL     OW28546   2.600   6.368   3.540
 9216SOL    HW128547   2.584   6.350   3.443
 9216SOL    HW228548   2.605   6.281   3.589
 9217SOL     OW28549   3.860   2.054   0.081
 9217SOL    HW128550   3.846   1.960   0.052
 9217SOL    HW228551   3.819   2.117   0.014
 9218SOL     OW28552   4.921   5.973   5.668
 9218SOL    HW128553   4.906   6.004   5.762
 9218SOL    HW228554   4.884   6.041   5.605
 9219SOL     OW28555   3.188   1.943   5.795
 9219SOL    HW128556   3.114   2.009   5.779
 9219SOL    HW228557   3.189   1.875   5.722
 9220SOL     OW28558   0.603   6.330   3.211
 9220SOL    HW128559   0.549   6.412   3.231
 9220SOL    HW228560   0.700   6.352   3.219
 9221SOL     OW28561   2.708   1.850   1.670
 9221SOL    HW128562   2.644   1.881   1.600
 9221SOL    HW228563   2.765   1.927   1.699
 9222SOL     OW28564   1.800   5.261   3.206
 9222SOL    HW128565   1.880   5.212   3.242
 9222SOL    HW228566   1.816   5.360   3.212
 9223SOL     OW28567   6.914   3.092   4.940
 9223SOL    HW128568   6.817   3.068   4.944
 9223SOL    HW228569   6.937   3.121   4.847
 9224SOL     OW28570   1.810   4.868   2.168
 9224SOL    HW128571   1.757   4.857   2.084
 9224SOL    HW228572   1.758   4.830   2.245
 9225SOL     OW28573   0.818   5.813   6.061
 9225SOL    HW128574   0.774   5.901   6.075
 9225SOL    HW228575   0.915   5.827   6.041
 9226SOL     OW28576   0.716   0.547   4.792
 9226SOL    HW128577   0.659   0.622   4.826
 9226SOL    HW228578   0.759   0.574   4.706
 9227SOL     OW28579   3.647   3.812   0.480
 9227SOL    HW128580   3.558   3.839   0.518
 9227SOL    HW228581   3.634   3.742   0.410
 9228SOL     OW28582   3.854   3.511   5.099
 9228SOL    HW128583   3.799   3.437   5.139
 9228SOL    HW228584   3.795   3.572   5.047
 9229SOL     OW28585   0.062   5.186   0.060
 9229SOL    HW128586   0.025   5.137   0.139
 9229SOL    HW228587   0.158   5.161   0.048
 9230SOL     OW28588   4.364   6.873   5.297
 9230SOL    HW128589   4.373   6.972   5.300
 9230SOL    HW228590   4.441   6.831   5.344
 9231SOL     OW28591   6.375   6.216   1.755
 9231SOL    HW128592   6.292   6.161   1.747
 9231SOL    HW228593   6.391   6.266   1.670
 9232SOL     OW28594   1.674   5.794   2.450
 9232SOL    HW128595   1.756   5.768   2.500
 9232SOL    HW228596   1.596   5.741   2.484
 9233SOL     OW28597   0.902   0.196   5.560
 9233SOL    HW128598   0.877   0.224   5.653
 9233SOL    HW228599   0.990   0.148   5.562
 9234SOL     OW28600   3.689   4.323   6.071
 9234SOL    HW128601   3.599   4.365   6.070
 9234SOL    HW228602   3.743   4.359   5.995
 9235SOL     OW28603   2.474   2.548   2.928
 9235SOL    HW128604   2.386   2.561   2.974
 9235SOL    HW228605   2.486   2.451   2.905
 9236SOL     OW28606   1.215   3.395   5.902
 9236SOL    HW128607   1.315   3.391   5.902
 9236SOL    HW228608   1.184   3.453   5.978
 9237SOL     OW28609   6.581   4.818   3.439
 9237SOL    HW128610   6.605   4.826   3.342
 9237SOL    HW228611   6.664   4.811   3.494
 9238SOL     OW28612   1.456   2.736   4.976
 9238SOL    HW128613   1.467   2.803   4.902
 9238SOL    HW228614   1.427   2.648   4.937
 9239SOL     OW28615   1.306   6.073   5.897
 9239SOL    HW128616   1.274   6.065   5.803
 9239SOL    HW228617   1.391   6.126   5.899
 9240SOL     OW28618   3.434   1.783   4.052
 9240SOL    HW128619   3.365   1.735   4.106
 9240SOL    HW228620   3.458   1.868   4.097
 9241SOL     OW28621   6.076   6.289   6.903
 9241SOL    HW128622   6.029   6.201   6.909
 9241SOL    HW228623   6.011   6.360   6.875
 9242SOL     OW28624   2.108   2.877   0.615
 9242SOL    HW128625   2.206   2.882   0.595
 9242SOL    HW228626   2.087   2.786   0.653
 9243SOL     OW28627   2.153   0.147   0.756
 9243SOL    HW128628   2.112   0.062   0.723
 9243SOL    HW228629   2.081   0.215   0.771
 9244SOL     OW28630   2.439   6.186   6.998
 9244SOL    HW128631   2.358   6.245   6.998
 9244SOL    HW228632   2.425   6.111   6.934
 9245SOL     OW28633   0.887   5.047   2.808
 9245SOL    HW128634   0.792   5.075   2.803
 9245SOL    HW228635   0.945   5.126   2.827
 9246SOL     OW28636   4.705   6.346   6.908
 9246SOL    HW128637   4.780   6.393   6.863
 9246SOL    HW228638   4.618   6.391   6.887
 9247SOL     OW28639   3.811   6.646   2.573
 9247SOL    HW128640   3.724   6.599   2.587
 9247SOL    HW228641   3.801   6.743   2.595
 9248SOL     OW28642   3.093   0.183   6.480
 9248SOL    HW128643   3.178   0.153   6.524
 9248SOL    HW228644   3.017   0.128   6.514
 9249SOL     OW28645   3.171   0.205   0.498
 9249SOL    HW128646   3.104   0.134   0.476
 9249SOL    HW228647   3.261   0.177   0.465
 9250SOL     OW28648   0.360   3.771   3.008
 9250SOL    HW128649   0.286   3.789   2.944
 9250SOL    HW228650   0.428   3.712   2.963
 9251SOL     OW28651   3.584   1.998   0.977
 9251SOL    HW128652   3.509   2.044   1.025
 9251SOL    HW228653   3.635   1.941   1.040
 9252SOL     OW28654   5.257   1.460   4.540
 9252SOL    HW128655   5.306   1.437   4.457
 9252SOL    HW228656   5.321   1.462   4.617
 9253SOL     OW28657   2.250   5.310   4.225
 9253SOL    HW128658   2.323   5.267   4.277
 9253SOL    HW228659   2.270   5.408   4.214
 9254SOL     OW28660   0.077   5.528   2.096
 9254SOL    HW128661   7.013   5.580   2.112
 9254SOL    HW228662   0.154   5.592   2.084
 9255SOL     OW28663   5.995   3.600   1.032
 9255SOL    HW128664   6.047   3.650   0.962
 9255SOL    HW228665   6.050   3.522   1.065
 9256SOL     OW28666   2.593   6.488   1.107
 9256SOL    HW128667   2.539   6.539   1.040
 9256SOL    HW228668   2.635   6.408   1.063
 9257SOL     OW28669   6.436   6.038   4.805
 9257SOL    HW128670   6.432   6.046   4.705
 9257SOL    HW228671   6.372   5.968   4.835
 9258SOL     OW28672   5.143   4.829   2.196
 9258SOL    HW128673   5.070   4.897   2.183
 9258SOL    HW228674   5.164   4.822   2.293
 9259SOL     OW28675   0.789   2.379   0.002
 9259SOL    HW128676   0.695   2.411   0.012
 9259SOL    HW228677   0.848   2.457   7.000
 9260SOL     OW28678   4.743   4.109   4.991
 9260SOL    HW128679   4.770   4.019   5.026
 9260SOL    HW228680   4.822   4.169   4.990
 9261SOL     OW28681   1.730   3.377   2.061
 9261SOL    HW128682   1.768   3.286   2.080
 9261SOL    HW228683   1.804   3.443   2.052
 9262SOL     OW28684   6.958   6.534   5.944
 9262SOL    HW128685   0.031   6.538   5.980
 9262SOL    HW228686   6.927   6.439   5.940
 9263SOL     OW28687   2.585   4.510   2.911
 9263SOL    HW128688   2.669   4.460   2.891
 9263SOL    HW228689   2.548   4.548   2.826
 9264SOL     OW28690   5.149   3.676   5.518
 9264SOL    HW128691   5.080   3.611   5.486
 9264SOL    HW228692   5.239   3.633   5.513
 9265SOL     OW28693   4.993   0.529   1.730
 9265SOL    HW128694   4.915   0.478   1.767
 9265SOL    HW228695   4.973   0.627   1.730
 9266SOL     OW28696   1.093   4.864   1.103
 9266SOL    HW128697   1.112   4.767   1.117
 9266SOL    HW228698   1.179   4.915   1.097
 9267SOL     OW28699   6.865   1.611   4.205
 9267SOL    HW128700   6.954   1.605   4.251
 9267SOL    HW228701   6.812   1.684   4.248
 9268SOL     OW28702   0.740   1.268   1.774
 9268SOL    HW128703   0.681   1.216   1.836
 9268SOL    HW228704   0.757   1.359   1.812
 9269SOL     OW28705   4.360   0.403   1.202
 9269SOL    HW128706   4.277   0.448   1.169
 9269SOL    HW228707   4.335   0.323   1.257
 9270SOL     OW28708   2.756   1.023   5.284
 9270SOL    HW128709   2.668   1.002   5.328
 9270SOL    HW228710   2.787   1.113   5.315
 9271SOL     OW28711   1.252   4.334   5.687
 9271SOL    HW128712   1.346   4.357   5.665
 9271SOL    HW228713   1.192   4.411   5.664
 9272SOL     OW28714   6.294   6.262   5.429
 9272SOL    HW128715   6.254   6.259   5.521
 9272SOL    HW228716   6.265   6.346   5.383
 9273SOL     OW28717   5.652   3.678   4.109
 9273SOL    HW128718   5.622   3.768   4.139
 9273SOL    HW228719   5.581   3.637   4.051
 9274SOL     OW28720   0.264   3.753   6.972
 9274SOL    HW128721   0.239   3.774   0.047
 9274SOL    HW228722   0.181   3.747   6.916
 9275SOL     OW28723   5.816   1.424   0.577
 9275SOL    HW128724   5.892   1.408   0.640
 9275SOL    HW228725   5.738   1.367   0.604
 9276SOL     OW28726   2.439   4.035   0.079
 9276SOL    HW128727   2.430   4.107   0.147
 9276SOL    HW228728   2.535   4.010   0.068
 9277SOL     OW28729   4.222   5.575   2.293
 9277SOL    HW128730   4.184   5.631   2.366
 9277SOL    HW228731   4.276   5.632   2.231
 9278SOL     OW28732   0.984   6.950   5.882
 9278SOL    HW128733   0.921   6.968   5.806
 9278SOL    HW228734   0.932   6.934   5.966
 9279SOL     OW28735   2.730   6.085   1.960
 9279SOL    HW128736   2.674   6.003   1.951
 9279SOL    HW228737   2.786   6.096   1.878
 9280SOL     OW28738   1.263   5.505   2.368
 9280SOL    HW128739   1.262   5.515   2.268
 9280SOL    HW228740   1.356   5.514   2.401
 9281SOL     OW28741   1.454   5.712   0.836
 9281SOL    HW128742   1.397   5.738   0.757
 9281SOL    HW228743   1.445   5.614   0.852
 9282SOL     OW28744   2.417   0.182   4.850
 9282SOL    HW128745   2.348   0.161   4.780
 9282SOL    HW228746   2.391   0.267   4.896
 9283SOL     OW28747   4.459   5.907   6.985
 9283SOL    HW128748   4.438   5.999   6.951
 9283SOL    HW228749   4.389   5.879   0.030
 9284SOL     OW28750   4.014   6.511   0.782
 9284SOL    HW128751   4.094   6.517   0.843
 9284SOL    HW228752   3.931   6.530   0.834
 9285SOL     OW28753   0.006   5.939   3.779
 9285SOL    HW128754   0.062   6.014   3.812
 9285SOL    HW228755   7.006   5.876   3.855
 9286SOL     OW28756   4.868   6.723   1.885
 9286SOL    HW128757   4.828   6.706   1.975
 9286SOL    HW228758   4.813   6.678   1.815
 9287SOL     OW28759   4.711   3.971   6.818
 9287SOL    HW128760   4.705   3.948   6.721
 9287SOL    HW228761   4.643   4.041   6.841
 9288SOL     OW28762   3.838   1.802   2.382
 9288SOL    HW128763   3.785   1.788   2.298
 9288SOL    HW228764   3.843   1.717   2.433
 9289SOL     OW28765   4.471   6.152   1.639
 9289SOL    HW128766   4.460   6.152   1.739
 9289SOL    HW228767   4.557   6.196   1.615
 9290SOL     OW28768   5.579   1.165   3.452
 9290SOL    HW128769   5.656   1.140   3.510
 9290SOL    HW228770   5.592   1.259   3.419
 9291SOL     OW28771   0.536   4.224   5.749
 9291SOL    HW128772   0.525   4.206   5.652
 9291SOL    HW228773   0.479   4.160   5.802
 9292SOL     OW28774   0.626   1.794   6.928
 9292SOL    HW128775   0.544   1.752   6.890
 9292SOL    HW228776   0.600   1.864   6.995
 9293SOL     OW28777   4.601   1.644   5.642
 9293SOL    HW128778   4.577   1.683   5.732
 9293SOL    HW228779   4.522   1.595   5.605
 9294SOL     OW28780   4.927   6.466   6.835
 9294SOL    HW128781   4.917   6.526   6.915
 9294SOL    HW228782   4.955   6.521   6.756
 9295SOL     OW28783   6.528   0.507   3.299
 9295SOL    HW128784   6.610   0.487   3.244
 9295SOL    HW228785   6.451   0.455   3.263
 9296SOL     OW28786   1.983   4.433   5.742
 9296SOL    HW128787   2.039   4.371   5.687
 9296SOL    HW228788   2.043   4.485   5.804
 9297SOL     OW28789   6.961   4.767   1.818
 9297SOL    HW128790   6.983   4.718   1.903
 9297SOL    HW228791   6.876   4.818   1.830
 9298SOL     OW28792   0.319   4.014   6.240
 9298SOL    HW128793   0.241   4.076   6.225
 9298SOL    HW228794   0.335   4.003   6.338
 9299SOL     OW28795   3.166   1.903   4.157
 9299SOL    HW128796   3.173   1.989   4.107
 9299SOL    HW228797   3.194   1.917   4.252
 9300SOL     OW28798   3.027   5.889   5.413
 9300SOL    HW128799   2.974   5.973   5.423
 9300SOL    HW228800   3.108   5.907   5.357
 9301SOL     OW28801   0.900   4.027   4.063
 9301SOL    HW128802   0.931   4.064   4.150
 9301SOL    HW228803   0.846   4.095   4.014
 9302SOL     OW28804   3.066   5.525   4.040
 9302SOL    HW128805   2.996   5.521   4.111
 9302SOL    HW228806   3.114   5.613   4.045
 9303SOL     OW28807   2.433   4.756   0.232
 9303SOL    HW128808   2.390   4.834   0.277
 9303SOL    HW228809   2.377   4.727   0.154
 9304SOL     OW28810   5.254   5.743   6.486
 9304SOL    HW128811   5.345   5.760   6.521
 9304SOL    HW228812   5.233   5.646   6.491
 9305SOL     OW28813   1.661   1.731   1.025
 9305SOL    HW128814   1.569   1.745   1.061
 9305SOL    HW228815   1.657   1.721   0.926
 9306SOL     OW28816   6.837   5.995   4.561
 9306SOL    HW128817   6.792   5.906   4.567
 9306SOL    HW228818   6.794   6.058   4.627
 9307SOL     OW28819   2.189   3.569   1.619
 9307SOL    HW128820   2.099   3.526   1.627
 9307SOL    HW228821   2.243   3.549   1.700
 9308SOL     OW28822   2.409   3.745   1.720
 9308SOL    HW128823   2.400   3.704   1.811
 9308SOL    HW228824   2.432   3.673   1.654
 9309SOL     OW28825   4.857   5.109   6.333
 9309SOL    HW128826   4.864   5.177   6.259
 9309SOL    HW228827   4.890   5.021   6.300
 9310SOL     OW28828   6.002   6.351   5.212
 9310SOL    HW128829   6.026   6.259   5.243
 9310SOL    HW228830   5.916   6.379   5.256
 9311SOL     OW28831   5.757   4.186   0.592
 9311SOL    HW128832   5.685   4.218   0.655
 9311SOL    HW228833   5.715   4.152   0.508
 9312SOL     OW28834   6.562   2.821   4.167
 9312SOL    HW128835   6.636   2.779   4.114
 9312SOL    HW228836   6.494   2.751   4.191
 9313SOL     OW28837   0.510   0.983   2.416
 9313SOL    HW128838   0.479   0.892   2.390
 9313SOL    HW228839   0.566   1.022   2.343
 9314SOL     OW28840   5.355   5.368   1.205
 9314SOL    HW128841   5.356   5.417   1.292
 9314SOL    HW228842   5.376   5.432   1.131
 9315SOL     OW28843   5.827   5.433   5.693
 9315SOL    HW128844   5.766   5.496   5.645
 9315SOL    HW228845   5.866   5.368   5.628
 9316SOL     OW28846   4.901   6.876   1.135
 9316SOL    HW128847   4.978   6.895   1.074
 9316SOL    HW228848   4.831   6.825   1.086
 9317SOL     OW28849   2.341   6.088   3.851
 9317SOL    HW128850   2.374   6.034   3.928
 9317SOL    HW228851   2.266   6.039   3.805
 9318SOL     OW28852   3.143   6.547   2.776
 9318SOL    HW128853   3.141   6.620   2.707
 9318SOL    HW228854   3.170   6.461   2.733
 9319SOL     OW28855   4.114   1.974   0.153
 9319SOL    HW128856   4.016   1.993   0.165
 9319SOL    HW228857   4.162   2.059   0.134
 9320SOL     OW28858   6.688   6.886   6.621
 9320SOL    HW128859   6.732   6.933   6.545
 9320SOL    HW228860   6.616   6.825   6.586
 9321SOL     OW28861   0.723   2.823   3.658
 9321SOL    HW128862   0.814   2.791   3.633
 9321SOL    HW228863   0.717   2.828   3.758
 9322SOL     OW28864   4.922   2.358   0.363
 9322SOL    HW128865   4.884   2.398   0.446
 9322SOL    HW228866   4.946   2.431   0.299
 9323SOL     OW28867   0.293   2.516   5.829
 9323SOL    HW128868   0.290   2.616   5.822
 9323SOL    HW228869   0.278   2.476   5.739
 9324SOL     OW28870   0.362   5.147   1.224
 9324SOL    HW128871   0.328   5.057   1.251
 9324SOL    HW228872   0.287   5.213   1.225
 9325SOL     OW28873   0.961   4.779   3.314
 9325SOL    HW128874   0.889   4.798   3.380
 9325SOL    HW228875   0.941   4.825   3.228
 9326SOL     OW28876   4.749   4.614   0.608
 9326SOL    HW128877   4.819   4.685   0.604
 9326SOL    HW228878   4.659   4.656   0.593
 9327SOL     OW28879   2.759   1.556   3.252
 9327SOL    HW128880   2.691   1.629   3.262
 9327SOL    HW228881   2.837   1.574   3.312
 9328SOL     OW28882   2.023   0.508   3.351
 9328SOL    HW128883   2.031   0.588   3.292
 9328SOL    HW228884   1.963   0.529   3.428
 9329SOL     OW28885   1.227   5.618   6.215
 9329SOL    HW128886   1.183   5.639   6.302
 9329SOL    HW228887   1.161   5.572   6.155
 9330SOL     OW28888   0.724   6.966   0.843
 9330SOL    HW128889   0.814   7.002   0.869
 9330SOL    HW228890   0.729   6.929   0.750
 9331SOL     OW28891   2.044   4.672   4.437
 9331SOL    HW128892   1.974   4.725   4.390
 9331SOL    HW228893   2.070   4.593   4.380
 9332SOL     OW28894   6.569   5.272   0.054
 9332SOL    HW128895   6.503   5.209   0.095
 9332SOL    HW228896   6.649   5.279   0.113
 9333SOL     OW28897   2.398   5.008   1.292
 9333SOL    HW128898   2.477   4.991   1.350
 9333SOL    HW228899   2.315   5.010   1.348
 9334SOL     OW28900   6.682   5.603   6.490
 9334SOL    HW128901   6.732   5.519   6.471
 9334SOL    HW228902   6.738   5.682   6.465
 9335SOL     OW28903   0.232   3.457   1.021
 9335SOL    HW128904   0.179   3.449   1.106
 9335SOL    HW228905   0.316   3.509   1.038
 9336SOL     OW28906   4.835   6.103   5.375
 9336SOL    HW128907   4.770   6.158   5.321
 9336SOL    HW228908   4.794   6.014   5.395
 9337SOL     OW28909   2.689   1.705   5.528
 9337SOL    HW128910   2.592   1.681   5.542
 9337SOL    HW228911   2.729   1.734   5.615
 9338SOL     OW28912   5.001   6.740   0.801
 9338SOL    HW128913   5.057   6.658   0.791
 9338SOL    HW228914   4.905   6.716   0.805
 9339SOL     OW28915   6.703   3.567   5.374
 9339SOL    HW128916   6.707   3.493   5.442
 9339SOL    HW228917   6.637   3.543   5.303
 9340SOL     OW28918   2.667   4.764   2.678
 9340SOL    HW128919   2.760   4.780   2.644
 9340SOL    HW228920   2.633   4.848   2.721
 9341SOL     OW28921   5.771   5.246   0.143
 9341SOL    HW128922   5.824   5.165   0.168
 9341SOL    HW228923   5.800   5.324   0.199
 9342SOL     OW28924   3.002   0.436   5.114
 9342SOL    HW128925   3.017   0.338   5.109
 9342SOL    HW228926   3.028   0.478   5.026
 9343SOL     OW28927   4.935   3.832   1.226
 9343SOL    HW128928   4.913   3.785   1.141
 9343SOL    HW228929   4.858   3.826   1.289
 9344SOL     OW28930   5.800   0.190   4.756
 9344SOL    HW128931   5.826   0.095   4.734
 9344SOL    HW228932   5.883   0.244   4.771
 9345SOL     OW28933   0.118   4.759   6.725
 9345SOL    HW128934   0.201   4.722   6.767
 9345SOL    HW228935   0.110   4.856   6.747
 9346SOL     OW28936   5.395   0.359   2.245
 9346SOL    HW128937   5.473   0.407   2.207
 9346SOL    HW228938   5.311   0.389   2.198
 9347SOL     OW28939   4.909   5.946   1.876
 9347SOL    HW128940   5.008   5.945   1.889
 9347SOL    HW228941   4.888   5.966   1.781
 9348SOL     OW28942   2.745   5.101   2.188
 9348SOL    HW128943   2.650   5.072   2.176
 9348SOL    HW228944   2.787   5.116   2.099
 9349SOL     OW28945   6.537   6.027   0.752
 9349SOL    HW128946   6.452   5.978   0.733
 9349SOL    HW228947   6.525   6.124   0.727
 9350SOL     OW28948   6.261   7.018   0.174
 9350SOL    HW128949   6.331   0.058   0.211
 9350SOL    HW228950   6.270   6.927   0.214
 9351SOL     OW28951   4.431   3.435   6.476
 9351SOL    HW128952   4.362   3.397   6.414
 9351SOL    HW228953   4.508   3.372   6.484
 9352SOL     OW28954   2.649   2.541   6.561
 9352SOL    HW128955   2.561   2.588   6.551
 9352SOL    HW228956   2.724   2.604   6.539
 9353SOL     OW28957   1.095   2.879   1.499
 9353SOL    HW128958   1.128   2.971   1.475
 9353SOL    HW228959   1.156   2.811   1.460
 9354SOL     OW28960   5.376   1.938   2.339
 9354SOL    HW128961   5.299   1.987   2.379
 9354SOL    HW228962   5.358   1.918   2.243
 9355SOL     OW28963   0.060   1.638   2.158
 9355SOL    HW128964   0.115   1.556   2.142
 9355SOL    HW228965   7.015   1.650   2.082
 9356SOL     OW28966   5.728   3.141   2.768
 9356SOL    HW128967   5.770   3.067   2.821
 9356SOL    HW228968   5.628   3.133   2.775
 9357SOL     OW28969   2.215   4.852   0.801
 9357SOL    HW128970   2.250   4.878   0.711
 9357SOL    HW228971   2.203   4.753   0.805
 9358SOL     OW28972   4.940   3.721   2.280
 9358SOL    HW128973   4.995   3.799   2.251
 9358SOL    HW228974   4.857   3.716   2.225
 9359SOL     OW28975   4.973   5.494   6.083
 9359SOL    HW128976   5.045   5.428   6.062
 9359SOL    HW228977   4.973   5.513   6.181
 9360SOL     OW28978   1.070   1.065   4.859
 9360SOL    HW128979   1.084   1.056   4.957
 9360SOL    HW228980   1.148   1.112   4.817
 9361SOL     OW28981   2.261   1.120   2.381
 9361SOL    HW128982   2.349   1.166   2.371
 9361SOL    HW228983   2.196   1.156   2.314
 9362SOL     OW28984   2.263   2.060   3.218
 9362SOL    HW128985   2.163   2.066   3.217
 9362SOL    HW228986   2.294   2.051   3.313
 9363SOL     OW28987   1.400   6.379   2.081
 9363SOL    HW128988   1.437   6.454   2.134
 9363SOL    HW228989   1.441   6.293   2.112
 9364SOL     OW28990   5.289   4.635   0.873
 9364SOL    HW128991   5.288   4.538   0.850
 9364SOL    HW228992   5.366   4.654   0.935
 9365SOL     OW28993   2.324   1.098   4.353
 9365SOL    HW128994   2.414   1.131   4.321
 9365SOL    HW228995   2.327   1.088   4.452
 9366SOL     OW28996   2.887   1.219   2.137
 9366SOL    HW128997   2.957   1.266   2.083
 9366SOL    HW228998   2.931   1.158   2.203
 9367SOL     OW28999   6.525   6.402   4.239
 9367SOL    HW129000   6.505   6.475   4.174
 9367SOL    HW229001   6.599   6.432   4.300
 9368SOL     OW29002   4.459   2.852   0.472
 9368SOL    HW129003   4.455   2.905   0.557
 9368SOL    HW229004   4.397   2.774   0.479
 9369SOL     OW29005   6.988   2.300   5.514
 9369SOL    HW129006   0.064   2.287   5.541
 9369SOL    HW229007   6.959   2.393   5.539
 9370SOL     OW29008   5.638   5.661   2.957
 9370SOL    HW129009   5.657   5.612   2.872
 9370SOL    HW229010   5.709   5.640   3.025
 9371SOL     OW29011   1.204   6.884   0.514
 9371SOL    HW129012   1.166   6.795   0.538
 9371SOL    HW229013   1.294   6.872   0.471
 9372SOL     OW29014   5.712   6.474   0.336
 9372SOL    HW129015   5.751   6.393   0.380
 9372SOL    HW229016   5.777   6.510   0.269
 9373SOL     OW29017   5.468   2.377   4.647
 9373SOL    HW129018   5.513   2.349   4.562
 9373SOL    HW229019   5.373   2.347   4.646
 9374SOL     OW29020   4.637   4.355   0.486
 9374SOL    HW129021   4.697   4.276   0.501
 9374SOL    HW229022   4.680   4.437   0.524
 9375SOL     OW29023   6.714   1.288   4.324
 9375SOL    HW129024   6.757   1.332   4.403
 9375SOL    HW229025   6.758   1.320   4.240
 9376SOL     OW29026   1.786   2.792   1.473
 9376SOL    HW129027   1.710   2.796   1.537
 9376SOL    HW229028   1.865   2.748   1.517
 9377SOL     OW29029   6.187   4.936   2.728
 9377SOL    HW129030   6.229   5.015   2.772
 9377SOL    HW229031   6.150   4.963   2.639
 9378SOL     OW29032   3.381   5.878   1.289
 9378SOL    HW129033   3.404   5.781   1.285
 9378SOL    HW229034   3.464   5.931   1.303
 9379SOL     OW29035   5.899   4.858   5.173
 9379SOL    HW129036   5.808   4.888   5.145
 9379SOL    HW229037   5.967   4.888   5.106
 9380SOL     OW29038   6.131   5.645   6.375
 9380SOL    HW129039   6.061   5.578   6.351
 9380SOL    HW229040   6.212   5.630   6.318
 9381SOL     OW29041   1.244   0.824   0.400
 9381SOL    HW129042   1.337   0.807   0.368
 9381SOL    HW229043   1.238   0.804   0.498
 9382SOL     OW29044   5.169   2.079   2.470
 9382SOL    HW129045   5.178   2.173   2.503
 9382SOL    HW229046   5.073   2.050   2.476
 9383SOL     OW29047   6.260   5.250   5.570
 9383SOL    HW129048   6.276   5.315   5.496
 9383SOL    HW229049   6.202   5.176   5.537
 9384SOL     OW29050   3.987   6.376   3.081
 9384SOL    HW129051   3.958   6.367   2.986
 9384SOL    HW229052   3.910   6.354   3.141
 9385SOL     OW29053   3.967   0.890   4.261
 9385SOL    HW129054   3.876   0.849   4.273
 9385SOL    HW229055   4.018   0.838   4.193
 9386SOL     OW29056   3.973   0.337   5.476
 9386SOL    HW129057   4.022   0.262   5.432
 9386SOL    HW229058   3.932   0.396   5.407
 9387SOL     OW29059   3.763   5.859   1.054
 9387SOL    HW129060   3.745   5.907   0.968
 9387SOL    HW229061   3.795   5.924   1.122
 9388SOL     OW29062   6.539   6.799   2.266
 9388SOL    HW129063   6.593   6.718   2.243
 9388SOL    HW229064   6.488   6.829   2.186
 9389SOL     OW29065   3.381   1.575   7.012
 9389SOL    HW129066   3.389   1.479   6.987
 9389SOL    HW229067   3.463   1.624   6.981
 9390SOL     OW29068   2.943   5.619   1.266
 9390SOL    HW129069   2.951   5.663   1.355
 9390SOL    HW229070   3.023   5.642   1.210
 9391SOL     OW29071   6.913   1.072   5.365
 9391SOL    HW129072   6.969   0.990   5.379
 9391SOL    HW229073   6.968   1.144   5.323
 9392SOL     OW29074   1.330   6.876   4.426
 9392SOL    HW129075   1.285   6.835   4.505
 9392SOL    HW229076   1.381   6.806   4.377
 9393SOL     OW29077   3.945   1.867   5.234
 9393SOL    HW129078   3.870   1.895   5.293
 9393SOL    HW229079   3.909   1.822   5.152
 9394SOL     OW29080   5.495   2.536   1.552
 9394SOL    HW129081   5.545   2.618   1.525
 9394SOL    HW229082   5.450   2.552   1.640
 9395SOL     OW29083   1.895   3.120   6.239
 9395SOL    HW129084   1.810   3.142   6.287
 9395SOL    HW229085   1.875   3.104   6.142
 9396SOL     OW29086   6.605   0.877   6.626
 9396SOL    HW129087   6.598   0.954   6.562
 9396SOL    HW229088   6.550   0.801   6.592
 9397SOL     OW29089   2.807   1.668   1.206
 9397SOL    HW129090   2.799   1.576   1.244
 9397SOL    HW229091   2.878   1.718   1.255
 9398SOL     OW29092   2.211   1.556   0.733
 9398SOL    HW129093   2.294   1.501   0.725
 9398SOL    HW229094   2.165   1.560   0.645
 9399SOL     OW29095   6.330   0.340   5.453
 9399SOL    HW129096   6.363   0.317   5.544
 9399SOL    HW229097   6.268   0.269   5.420
 9400SOL     OW29098   3.995   1.885   3.494
 9400SOL    HW129099   3.940   1.837   3.426
 9400SOL    HW229100   4.069   1.826   3.525
 9401SOL     OW29101   4.174   0.167   3.692
 9401SOL    HW129102   4.224   0.247   3.659
 9401SOL    HW229103   4.199   0.087   3.637
 9402SOL     OW29104   1.994   4.910   0.415
 9402SOL    HW129105   1.943   4.895   0.500
 9402SOL    HW229106   2.042   4.998   0.421
 9403SOL     OW29107   5.930   0.847   5.240
 9403SOL    HW129108   5.949   0.861   5.337
 9403SOL    HW229109   6.005   0.797   5.197
 9404SOL     OW29110   1.185   4.062   5.691
 9404SOL    HW129111   1.110   4.086   5.752
 9404SOL    HW229112   1.219   4.146   5.647
 9405SOL     OW29113   0.152   0.070   0.917
 9405SOL    HW129114   0.145   0.015   0.833
 9405SOL    HW229115   0.131   0.166   0.896
 9406SOL     OW29116   6.582   0.989   5.762
 9406SOL    HW129117   6.657   0.926   5.786
 9406SOL    HW229118   6.617   1.061   5.703
 9407SOL     OW29119   3.731   5.915   3.285
 9407SOL    HW129120   3.660   5.985   3.275
 9407SOL    HW229121   3.762   5.886   3.194
 9408SOL     OW29122   4.162   1.851   6.875
 9408SOL    HW129123   4.148   1.806   6.787
 9408SOL    HW229124   4.127   1.793   6.948
 9409SOL     OW29125   5.938   3.305   3.477
 9409SOL    HW129126   5.914   3.339   3.568
 9409SOL    HW229127   6.004   3.229   3.487
 9410SOL     OW29128   4.498   6.686   2.022
 9410SOL    HW129129   4.441   6.760   1.988
 9410SOL    HW229130   4.478   6.602   1.972
 9411SOL     OW29131   4.521   5.747   1.267
 9411SOL    HW129132   4.588   5.675   1.284
 9411SOL    HW229133   4.569   5.834   1.257
 9412SOL     OW29134   5.946   2.991   2.241
 9412SOL    HW129135   6.046   2.987   2.243
 9412SOL    HW229136   5.911   2.997   2.334
 9413SOL     OW29137   3.757   5.112   4.247
 9413SOL    HW129138   3.780   5.016   4.232
 9413SOL    HW229139   3.827   5.171   4.207
 9414SOL     OW29140   2.126   0.961   2.584
 9414SOL    HW129141   2.169   1.006   2.506
 9414SOL    HW229142   2.095   0.869   2.557
 9415SOL     OW29143   2.515   1.022   2.155
 9415SOL    HW129144   2.520   1.032   2.254
 9415SOL    HW229145   2.488   0.929   2.131
 9416SOL     OW29146   1.721   1.945   1.189
 9416SOL    HW129147   1.777   1.923   1.268
 9416SOL    HW229148   1.710   1.864   1.132
 9417SOL     OW29149   2.013   0.431   4.470
 9417SOL    HW129150   2.033   0.376   4.551
 9417SOL    HW229151   2.088   0.495   4.453
 9418SOL     OW29152   4.109   4.342   1.354
 9418SOL    HW129153   4.086   4.263   1.297
 9418SOL    HW229154   4.070   4.329   1.445
 9419SOL     OW29155   3.543   5.381   4.194
 9419SOL    HW129156   3.559   5.359   4.290
 9419SOL    HW229157   3.446   5.373   4.173
 9420SOL     OW29158   1.153   1.378   4.576
 9420SOL    HW129159   1.222   1.312   4.546
 9420SOL    HW229160   1.198   1.465   4.596
 9421SOL     OW29161   1.667   5.303   4.346
 9421SOL    HW129162   1.720   5.249   4.280
 9421SOL    HW229163   1.718   5.310   4.432
 9422SOL     OW29164   4.318   1.123   2.699
 9422SOL    HW129165   4.335   1.092   2.606
 9422SOL    HW229166   4.399   1.108   2.755
 9423SOL     OW29167   4.892   6.960   4.623
 9423SOL    HW129168   4.808   7.013   4.638
 9423SOL    HW229169   4.963   6.992   4.685
 9424SOL     OW29170   3.313   6.010   4.575
 9424SOL    HW129171   3.315   5.992   4.673
 9424SOL    HW229172   3.373   6.087   4.554
 9425SOL     OW29173   1.304   4.896   3.095
 9425SOL    HW129174   1.285   4.991   3.068
 9425SOL    HW229175   1.218   4.851   3.119
 9426SOL     OW29176   3.408   5.806   0.957
 9426SOL    HW129177   3.450   5.797   0.867
 9426SOL    HW229178   3.452   5.880   1.008
 9427SOL     OW29179   3.168   4.855   4.350
 9427SOL    HW129180   3.136   4.760   4.353
 9427SOL    HW229181   3.122   4.904   4.277
 9428SOL     OW29182   4.875   5.943   2.233
 9428SOL    HW129183   4.971   5.963   2.252
 9428SOL    HW229184   4.849   5.858   2.278
 9429SOL     OW29185   6.984   3.163   2.754
 9429SOL    HW129186   6.939   3.209   2.830
 9429SOL    HW229187   7.008   3.230   2.684
 9430SOL     OW29188   5.570   7.009   2.075
 9430SOL    HW129189   5.502   0.030   2.137
 9430SOL    HW229190   5.618   0.061   2.025
 9431SOL     OW29191   6.315   3.890   1.221
 9431SOL    HW129192   6.404   3.853   1.246
 9431SOL    HW229193   6.243   3.840   1.269
 9432SOL     OW29194   6.810   6.846   4.399
 9432SOL    HW129195   6.789   6.937   4.435
 9432SOL    HW229196   6.839   6.786   4.474
 9433SOL     OW29197   3.286   5.021   4.605
 9433SOL    HW129198   3.252   4.952   4.668
 9433SOL    HW229199   3.313   4.978   4.519
 9434SOL     OW29200   5.787   4.503   3.026
 9434SOL    HW129201   5.711   4.513   2.962
 9434SOL    HW229202   5.771   4.423   3.083
 9435SOL     OW29203   1.833   1.800   4.667
 9435SOL    HW129204   1.902   1.795   4.595
 9435SOL    HW229205   1.799   1.893   4.674
 9436SOL     OW29206   2.170   2.127   6.053
 9436SOL    HW129207   2.073   2.151   6.062
 9436SOL    HW229208   2.220   2.206   6.017
 9437SOL     OW29209   0.808   5.178   3.887
 9437SOL    HW129210   0.854   5.264   3.869
 9437SOL    HW229211   0.711   5.195   3.903
 9438SOL     OW29212   0.662   6.650   2.254
 9438SOL    HW129213   0.698   6.743   2.242
 9438SOL    HW229214   0.651   6.608   2.164
 9439SOL     OW29215   1.601   2.834   1.677
 9439SOL    HW129216   1.620   2.919   1.726
 9439SOL    HW229217   1.509   2.803   1.699
 9440SOL     OW29218   4.435   5.793   5.017
 9440SOL    HW129219   4.499   5.839   5.079
 9440SOL    HW229220   4.365   5.858   4.988
 9441SOL     OW29221   1.856   5.820   5.362
 9441SOL    HW129222   1.866   5.919   5.358
 9441SOL    HW229223   1.763   5.796   5.391
 9442SOL     OW29224   0.514   3.774   1.370
 9442SOL    HW129225   0.557   3.857   1.404
 9442SOL    HW229226   0.548   3.695   1.422
 9443SOL     OW29227   2.113   3.079   1.459
 9443SOL    HW129228   2.018   3.103   1.438
 9443SOL    HW229229   2.174   3.151   1.426
 9444SOL     OW29230   0.942   3.908   5.867
 9444SOL    HW129231   0.918   3.985   5.808
 9444SOL    HW229232   0.893   3.916   5.954
 9445SOL     OW29233   6.338   3.277   1.846
 9445SOL    HW129234   6.346   3.209   1.773
 9445SOL    HW229235   6.251   3.325   1.838
 9446SOL     OW29236   5.904   4.643   0.829
 9446SOL    HW129237   5.840   4.587   0.881
 9446SOL    HW229238   5.993   4.596   0.825
 9447SOL     OW29239   5.858   2.346   1.568
 9447SOL    HW129240   5.790   2.393   1.511
 9447SOL    HW229241   5.937   2.323   1.511
 9448SOL     OW29242   6.068   6.397   0.261
 9448SOL    HW129243   6.156   6.432   0.229
 9448SOL    HW229244   6.063   6.299   0.243
 9449SOL     OW29245   6.677   5.170   5.206
 9449SOL    HW129246   6.651   5.094   5.266
 9449SOL    HW229247   6.665   5.256   5.254
 9450SOL     OW29248   2.888   5.754   4.272
 9450SOL    HW129249   2.823   5.712   4.336
 9450SOL    HW229250   2.980   5.751   4.312
 9451SOL     OW29251   4.241   4.099   5.839
 9451SOL    HW129252   4.154   4.137   5.870
 9451SOL    HW229253   4.307   4.101   5.914
 9452SOL     OW29254   3.037   4.487   1.290
 9452SOL    HW129255   3.048   4.586   1.291
 9452SOL    HW229256   3.126   4.443   1.300
 9453SOL     OW29257   3.038   5.360   1.343
 9453SOL    HW129258   3.112   5.326   1.285
 9453SOL    HW229259   2.998   5.442   1.302
 9454SOL     OW29260   1.943   1.867   5.276
 9454SOL    HW129261   1.987   1.903   5.358
 9454SOL    HW229262   1.992   1.787   5.244
 9455SOL     OW29263   2.703   2.139   2.383
 9455SOL    HW129264   2.661   2.226   2.358
 9455SOL    HW229265   2.682   2.119   2.479
 9456SOL     OW29266   1.268   3.737   0.892
 9456SOL    HW129267   1.275   3.712   0.988
 9456SOL    HW229268   1.258   3.654   0.837
 9457SOL     OW29269   6.902   3.419   0.469
 9457SOL    HW129270   6.813   3.375   0.480
 9457SOL    HW229271   6.941   3.394   0.380
 9458SOL     OW29272   0.752   5.557   4.206
 9458SOL    HW129273   0.675   5.496   4.187
 9458SOL    HW229274   0.836   5.503   4.212
 9459SOL     OW29275   4.156   6.207   1.457
 9459SOL    HW129276   4.160   6.288   1.398
 9459SOL    HW229277   4.170   6.125   1.401
 9460SOL     OW29278   0.959   2.463   5.751
 9460SOL    HW129279   0.944   2.491   5.656
 9460SOL    HW229280   0.907   2.380   5.770
 9461SOL     OW29281   1.454   0.503   2.637
 9461SOL    HW129282   1.471   0.442   2.560
 9461SOL    HW229283   1.367   0.478   2.681
 9462SOL     OW29284   7.004   3.190   3.038
 9462SOL    HW129285   0.007   3.093   3.029
 9462SOL    HW229286   0.058   3.237   3.087
 9463SOL     OW29287   5.480   1.778   6.472
 9463SOL    HW129288   5.404   1.835   6.502
 9463SOL    HW229289   5.557   1.837   6.444
 9464SOL     OW29290   4.431   6.779   5.855
 9464SOL    HW129291   4.469   6.807   5.767
 9464SOL    HW229292   4.440   6.854   5.921
 9465SOL     OW29293   5.590   0.012   4.400
 9465SOL    HW129294   5.655   0.087   4.384
 9465SOL    HW229295   5.523   0.041   4.468
 9466SOL     OW29296   2.291   2.219   6.767
 9466SOL    HW129297   2.245   2.131   6.766
 9466SOL    HW229298   2.292   2.257   6.674
 9467SOL     OW29299   2.109   3.279   2.128
 9467SOL    HW129300   2.151   3.369   2.115
 9467SOL    HW229301   2.055   3.279   2.212
 9468SOL     OW29302   0.758   2.598   6.410
 9468SOL    HW129303   0.685   2.627   6.471
 9468SOL    HW229304   0.781   2.674   6.349
 9469SOL     OW29305   6.671   3.848   2.740
 9469SOL    HW129306   6.632   3.898   2.663
 9469SOL    HW229307   6.598   3.805   2.793
 9470SOL     OW29308   6.111   3.634   1.520
 9470SOL    HW129309   6.039   3.567   1.533
 9470SOL    HW229310   6.179   3.624   1.592
 9471SOL     OW29311   0.727   2.798   6.200
 9471SOL    HW129312   0.654   2.760   6.144
 9471SOL    HW229313   0.790   2.850   6.141
 9472SOL     OW29314   6.484   2.207   4.624
 9472SOL    HW129315   6.505   2.300   4.593
 9472SOL    HW229316   6.390   2.204   4.657
 9473SOL     OW29317   3.667   5.396   4.811
 9473SOL    HW129318   3.704   5.356   4.895
 9473SOL    HW229319   3.567   5.394   4.815
 9474SOL     OW29320   3.868   5.224   3.702
 9474SOL    HW129321   3.813   5.149   3.664
 9474SOL    HW229322   3.944   5.245   3.640
 9475SOL     OW29323   1.856   3.340   1.393
 9475SOL    HW129324   1.878   3.360   1.489
 9475SOL    HW229325   1.832   3.243   1.384
 9476SOL     OW29326   3.754   3.450   5.518
 9476SOL    HW129327   3.849   3.425   5.537
 9476SOL    HW229328   3.718   3.392   5.445
 9477SOL     OW29329   0.071   1.975   1.261
 9477SOL    HW129330   0.017   1.893   1.282
 9477SOL    HW229331   0.090   1.979   1.163
 9478SOL     OW29332   5.425   3.941   5.568
 9478SOL    HW129333   5.468   4.026   5.598
 9478SOL    HW229334   5.399   3.949   5.471
 9479SOL     OW29335   6.408   5.573   5.133
 9479SOL    HW129336   6.380   5.661   5.172
 9479SOL    HW229337   6.504   5.579   5.105
 9480SOL     OW29338   5.613   4.075   6.373
 9480SOL    HW129339   5.699   4.048   6.329
 9480SOL    HW229340   5.576   3.997   6.424
 9481SOL     OW29341   6.318   3.580   2.528
 9481SOL    HW129342   6.352   3.535   2.611
 9481SOL    HW229343   6.379   3.655   2.504
 9482SOL     OW29344   4.570   0.279   2.968
 9482SOL    HW129345   4.662   0.259   2.934
 9482SOL    HW229346   4.529   0.195   3.003
 9483SOL     OW29347   1.901   1.883   0.588
 9483SOL    HW129348   1.905   1.854   0.683
 9483SOL    HW229349   1.994   1.894   0.552
 9484SOL     OW29350   6.348   1.007   2.435
 9484SOL    HW129351   6.259   0.973   2.464
 9484SOL    HW229352   6.379   1.080   2.497
 9485SOL     OW29353   1.032   0.390   2.790
 9485SOL    HW129354   0.959   0.322   2.779
 9485SOL    HW229355   1.014   0.444   2.873
 9486SOL     OW29356   2.899   5.610   2.255
 9486SOL    HW129357   2.883   5.650   2.165
 9486SOL    HW229358   2.953   5.672   2.311
 9487SOL     OW29359   3.149   3.098   3.161
 9487SOL    HW129360   3.147   3.085   3.260
 9487SOL    HW229361   3.077   3.163   3.135
 9488SOL     OW29362   1.168   1.421   1.563
 9488SOL    HW129363   1.217   1.508   1.556
 9488SOL    HW229364   1.109   1.411   1.483
 9489SOL     OW29365   3.304   4.405   0.403
 9489SOL    HW129366   3.373   4.414   0.331
 9489SOL    HW229367   3.289   4.308   0.423
 9490SOL     OW29368   5.393   1.232   0.411
 9490SOL    HW129369   5.336   1.310   0.437
 9490SOL    HW229370   5.482   1.239   0.455
 9491SOL     OW29371   0.053   4.971   5.219
 9491SOL    HW129372   0.051   4.874   5.242
 9491SOL    HW229373   0.108   5.021   5.287
 9492SOL     OW29374   2.822   4.422   1.443
 9492SOL    HW129375   2.910   4.437   1.398
 9492SOL    HW229376   2.837   4.383   1.534
 9493SOL     OW29377   5.476   6.404   2.261
 9493SOL    HW129378   5.493   6.464   2.183
 9493SOL    HW229379   5.466   6.459   2.344
 9494SOL     OW29380   3.247   3.073   6.038
 9494SOL    HW129381   3.157   3.116   6.046
 9494SOL    HW229382   3.266   3.055   5.942
 9495SOL     OW29383   5.652   2.256   4.813
 9495SOL    HW129384   5.581   2.310   4.769
 9495SOL    HW229385   5.647   2.268   4.913
 9496SOL     OW29386   5.705   3.710   0.225
 9496SOL    HW129387   5.789   3.751   0.259
 9496SOL    HW229388   5.701   3.614   0.252
 9497SOL     OW29389   0.202   6.656   5.940
 9497SOL    HW129390   0.221   6.659   6.038
 9497SOL    HW229391   0.270   6.599   5.895
 9498SOL     OW29392   3.925   0.326   6.000
 9498SOL    HW129393   3.961   0.233   6.011
 9498SOL    HW229394   3.927   0.372   6.088
 9499SOL     OW29395   4.671   4.483   6.490
 9499SOL    HW129396   4.653   4.555   6.557
 9499SOL    HW229397   4.591   4.471   6.432
 9500SOL     OW29398   5.012   5.481   2.011
 9500SOL    HW129399   5.096   5.442   2.048
 9500SOL    HW229400   5.034   5.547   1.940
 9501SOL     OW29401   3.318   1.627   4.844
 9501SOL    HW129402   3.267   1.641   4.929
 9501SOL    HW229403   3.309   1.708   4.786
 9502SOL     OW29404   5.008   3.389   5.862
 9502SOL    HW129405   5.101   3.422   5.857
 9502SOL    HW229406   5.008   3.289   5.874
 9503SOL     OW29407   1.361   0.011   0.771
 9503SOL    HW129408   1.347   0.058   0.858
 9503SOL    HW229409   1.307   0.056   0.700
 9504SOL     OW29410   1.038   3.462   7.002
 9504SOL    HW129411   0.965   3.525   6.976
 9504SOL    HW229412   1.106   3.458   6.928
 9505SOL     OW29413   4.936   3.316   2.825
 9505SOL    HW129414   4.909   3.412   2.835
 9505SOL    HW229415   4.874   3.258   2.878
 9506SOL     OW29416   6.660   2.506   1.012
 9506SOL    HW129417   6.570   2.475   1.044
 9506SOL    HW229418   6.727   2.434   1.026
 9507SOL     OW29419   1.239   2.281   4.364
 9507SOL    HW129420   1.235   2.353   4.295
 9507SOL    HW229421   1.147   2.247   4.382
 9508SOL     OW29422   4.994   1.880   6.463
 9508SOL    HW129423   4.993   1.851   6.368
 9508SOL    HW229424   4.909   1.929   6.484
 9509SOL     OW29425   2.940   6.316   5.468
 9509SOL    HW129426   2.885   6.400   5.467
 9509SOL    HW229427   3.028   6.333   5.422
 9510SOL     OW29428   6.630   4.465   3.424
 9510SOL    HW129429   6.639   4.477   3.325
 9510SOL    HW229430   6.534   4.444   3.446
 9511SOL     OW29431   1.488   1.452   1.017
 9511SOL    HW129432   1.545   1.519   1.065
 9511SOL    HW229433   1.524   1.360   1.031
 9512SOL     OW29434   1.277   2.708   4.603
 9512SOL    HW129435   1.241   2.754   4.522
 9512SOL    HW229436   1.323   2.776   4.661
 9513SOL     OW29437   2.350   4.267   3.980
 9513SOL    HW129438   2.368   4.169   3.970
 9513SOL    HW229439   2.366   4.294   4.075
 9514SOL     OW29440   2.536   2.940   6.178
 9514SOL    HW129441   2.553   3.030   6.219
 9514SOL    HW229442   2.459   2.946   6.115
 9515SOL     OW29443   2.348   5.322   5.618
 9515SOL    HW129444   2.402   5.272   5.686
 9515SOL    HW229445   2.293   5.257   5.565
 9516SOL     OW29446   5.461   4.137   5.256
 9516SOL    HW129447   5.409   4.054   5.277
 9516SOL    HW229448   5.442   4.165   5.162
 9517SOL     OW29449   0.882   5.760   1.829
 9517SOL    HW129450   0.900   5.730   1.735
 9517SOL    HW229451   0.825   5.842   1.827
 9518SOL     OW29452   0.937   2.956   5.173
 9518SOL    HW129453   0.846   2.919   5.186
 9518SOL    HW229454   0.951   3.034   5.234
 9519SOL     OW29455   3.708   2.916   3.708
 9519SOL    HW129456   3.677   2.902   3.614
 9519SOL    HW229457   3.630   2.912   3.770
 9520SOL     OW29458   5.099   0.209   6.398
 9520SOL    HW129459   5.055   0.217   6.487
 9520SOL    HW229460   5.127   0.114   6.383
 9521SOL     OW29461   3.285   1.193   1.085
 9521SOL    HW129462   3.283   1.195   0.985
 9521SOL    HW229463   3.291   1.099   1.117
 9522SOL     OW29464   3.385   5.930   1.791
 9522SOL    HW129465   3.442   6.001   1.751
 9522SOL    HW229466   3.399   5.928   1.890
 9523SOL     OW29467   2.597   4.671   3.982
 9523SOL    HW129468   2.514   4.680   4.037
 9523SOL    HW229469   2.677   4.691   4.038
 9524SOL     OW29470   2.303   3.735   1.090
 9524SOL    HW129471   2.281   3.824   1.131
 9524SOL    HW229472   2.237   3.666   1.122
 9525SOL     OW29473   2.487   3.297   5.391
 9525SOL    HW129474   2.476   3.229   5.319
 9525SOL    HW229475   2.579   3.335   5.388
 9526SOL     OW29476   5.294   5.425   0.032
 9526SOL    HW129477   5.287   5.464   6.960
 9526SOL    HW229478   5.289   5.325   0.025
 9527SOL     OW29479   4.208   6.495   4.298
 9527SOL    HW129480   4.111   6.517   4.308
 9527SOL    HW229481   4.249   6.556   4.231
 9528SOL     OW29482   5.364   2.156   0.336
 9528SOL    HW129483   5.400   2.076   0.383
 9528SOL    HW229484   5.340   2.227   0.403
 9529SOL     OW29485   5.674   0.943   1.595
 9529SOL    HW129486   5.687   1.042   1.595
 9529SOL    HW229487   5.606   0.918   1.525
 9530SOL     OW29488   1.552   5.392   3.663
 9530SOL    HW129489   1.499   5.468   3.699
 9530SOL    HW229490   1.492   5.315   3.643
 9531SOL     OW29491   3.584   5.484   2.347
 9531SOL    HW129492   3.585   5.400   2.402
 9531SOL    HW229493   3.638   5.554   2.393
 9532SOL     OW29494   6.449   5.039   3.532
 9532SOL    HW129495   6.507   4.967   3.494
 9532SOL    HW229496   6.421   5.014   3.624
 9533SOL     OW29497   1.837   3.918   3.334
 9533SOL    HW129498   1.934   3.919   3.359
 9533SOL    HW229499   1.781   3.927   3.416
 9534SOL     OW29500   5.426   5.242   4.488
 9534SOL    HW129501   5.391   5.225   4.581
 9534SOL    HW229502   5.513   5.290   4.494
 9535SOL     OW29503   0.221   1.710   5.015
 9535SOL    HW129504   0.184   1.800   4.990
 9535SOL    HW229505   0.321   1.714   5.017
 9536SOL     OW29506   3.481   4.025   5.058
 9536SOL    HW129507   3.410   3.974   5.009
 9536SOL    HW229508   3.550   3.961   5.091
 9537SOL     OW29509   6.654   1.761   4.307
 9537SOL    HW129510   6.582   1.704   4.267
 9537SOL    HW229511   6.619   1.804   4.390
 9538SOL     OW29512   5.286   6.956   5.047
 9538SOL    HW129513   5.276   7.008   5.132
 9538SOL    HW229514   5.210   6.978   4.986
 9539SOL     OW29515   2.934   3.626   2.289
 9539SOL    HW129516   2.941   3.632   2.189
 9539SOL    HW229517   2.987   3.547   2.321
 9540SOL     OW29518   4.581   4.872   3.078
 9540SOL    HW129519   4.500   4.931   3.092
 9540SOL    HW229520   4.567   4.815   2.998
 9541SOL     OW29521   2.151   5.134   5.457
 9541SOL    HW129522   2.148   5.056   5.395
 9541SOL    HW229523   2.083   5.121   5.529
 9542SOL     OW29524   6.355   4.299   3.992
 9542SOL    HW129525   6.281   4.328   3.932
 9542SOL    HW229526   6.337   4.207   4.026
 9543SOL     OW29527   2.550   0.008   5.948
 9543SOL    HW129528   2.640   7.004   5.984
 9543SOL    HW229529   2.549   7.018   5.849
 9544SOL     OW29530   5.785   3.182   4.497
 9544SOL    HW129531   5.694   3.212   4.525
 9544SOL    HW229532   5.849   3.258   4.503
 9545SOL     OW29533   6.695   4.556   1.944
 9545SOL    HW129534   6.781   4.508   1.965
 9545SOL    HW229535   6.687   4.638   2.000
 9546SOL     OW29536   2.712   2.836   0.591
 9546SOL    HW129537   2.668   2.870   0.508
 9546SOL    HW229538   2.810   2.827   0.576
 9547SOL     OW29539   4.333   6.873   3.835
 9547SOL    HW129540   4.339   6.890   3.933
 9547SOL    HW229541   4.339   6.774   3.817
 9548SOL     OW29542   1.251   5.034   6.482
 9548SOL    HW129543   1.169   4.995   6.525
 9548SOL    HW229544   1.224   5.087   6.401
 9549SOL     OW29545   4.821   1.733   1.000
 9549SOL    HW129546   4.806   1.639   0.971
 9549SOL    HW229547   4.734   1.778   1.016
 9550SOL     OW29548   5.713   3.272   1.605
 9550SOL    HW129549   5.625   3.238   1.573
 9550SOL    HW229550   5.778   3.195   1.611
 9551SOL     OW29551   6.089   3.361   6.501
 9551SOL    HW129552   6.178   3.366   6.456
 9551SOL    HW229553   6.073   3.267   6.532
 9552SOL     OW29554   3.114   1.590   6.906
 9552SOL    HW129555   3.190   1.571   6.968
 9552SOL    HW229556   3.148   1.597   6.812
 9553SOL     OW29557   5.402   1.285   6.627
 9553SOL    HW129558   5.431   1.241   6.542
 9553SOL    HW229559   5.364   1.376   6.606
 9554SOL     OW29560   3.360   0.998   3.919
 9554SOL    HW129561   3.387   1.033   3.830
 9554SOL    HW229562   3.437   0.949   3.960
 9555SOL     OW29563   6.914   0.254   4.040
 9555SOL    HW129564   6.936   0.172   3.987
 9555SOL    HW229565   6.934   0.335   3.986
 9556SOL     OW29566   1.952   4.915   6.494
 9556SOL    HW129567   1.881   4.980   6.524
 9556SOL    HW229568   2.027   4.966   6.452
 9557SOL     OW29569   5.494   0.354   1.858
 9557SOL    HW129570   5.530   0.447   1.860
 9557SOL    HW229571   5.400   0.355   1.823
 9558SOL     OW29572   5.024   6.689   6.718
 9558SOL    HW129573   4.964   6.711   6.642
 9558SOL    HW229574   5.009   6.754   6.792
 9559SOL     OW29575   1.866   4.322   0.009
 9559SOL    HW129576   1.806   4.310   0.089
 9559SOL    HW229577   1.883   4.232   6.988
 9560SOL     OW29578   3.195   6.753   2.602
 9560SOL    HW129579   3.152   6.734   2.514
 9560SOL    HW229580   3.229   6.846   2.603
 9561SOL     OW29581   0.204   0.942   0.423
 9561SOL    HW129582   0.242   1.027   0.385
 9561SOL    HW229583   0.259   0.865   0.391
 9562SOL     OW29584   2.507   6.455   2.937
 9562SOL    HW129585   2.472   6.383   2.877
 9562SOL    HW229586   2.536   6.414   3.024
 9563SOL     OW29587   0.541   5.915   6.463
 9563SOL    HW129588   0.500   5.866   6.386
 9563SOL    HW229589   0.475   5.919   6.538
 9564SOL     OW29590   1.771   0.759   6.952
 9564SOL    HW129591   1.704   0.764   0.006
 9564SOL    HW229592   1.857   0.723   6.987
 9565SOL     OW29593   2.926   1.659   4.410
 9565SOL    HW129594   3.018   1.649   4.447
 9565SOL    HW229595   2.902   1.756   4.406
 9566SOL     OW29596   3.400   0.718   6.759
 9566SOL    HW129597   3.327   0.721   6.691
 9566SOL    HW229598   3.435   0.625   6.767
 9567SOL     OW29599   0.033   3.793   1.265
 9567SOL    HW129600   0.119   3.798   1.316
 9567SOL    HW229601   0.047   3.737   1.183
 9568SOL     OW29602   4.898   0.985   6.903
 9568SOL    HW129603   4.880   1.083   6.905
 9568SOL    HW229604   4.811   0.935   6.907
 9569SOL     OW29605   5.685   0.528   2.117
 9569SOL    HW129606   5.736   0.513   2.033
 9569SOL    HW229607   5.602   0.581   2.097
 9570SOL     OW29608   0.639   3.241   1.720
 9570SOL    HW129609   0.676   3.239   1.813
 9570SOL    HW229610   0.712   3.221   1.654
 9571SOL     OW29611   1.745   2.205   6.617
 9571SOL    HW129612   1.767   2.287   6.564
 9571SOL    HW229613   1.794   2.207   6.704
 9572SOL     OW29614   2.246   4.019   4.048
 9572SOL    HW129615   2.154   4.032   4.085
 9572SOL    HW229616   2.269   3.922   4.051
 9573SOL     OW29617   6.521   0.697   4.583
 9573SOL    HW129618   6.546   0.769   4.519
 9573SOL    HW229619   6.512   0.610   4.534
 9574SOL     OW29620   3.739   3.182   1.133
 9574SOL    HW129621   3.822   3.128   1.141
 9574SOL    HW229622   3.660   3.127   1.158
 9575SOL     OW29623   5.594   6.238   1.621
 9575SOL    HW129624   5.662   6.250   1.549
 9575SOL    HW229625   5.623   6.289   1.702
 9576SOL     OW29626   1.244   0.340   6.432
 9576SOL    HW129627   1.199   0.428   6.443
 9576SOL    HW229628   1.220   0.280   6.509
 9577SOL     OW29629   6.204   5.437   2.467
 9577SOL    HW129630   6.190   5.346   2.507
 9577SOL    HW229631   6.173   5.507   2.532
 9578SOL     OW29632   2.102   3.552   2.551
 9578SOL    HW129633   2.118   3.497   2.632
 9578SOL    HW229634   2.075   3.645   2.578
 9579SOL     OW29635   6.436   5.835   2.247
 9579SOL    HW129636   6.349   5.806   2.208
 9579SOL    HW229637   6.482   5.757   2.288
 9580SOL     OW29638   5.386   4.027   3.468
 9580SOL    HW129639   5.473   4.044   3.423
 9580SOL    HW229640   5.359   4.108   3.520
 9581SOL     OW29641   5.970   1.018   6.968
 9581SOL    HW129642   5.964   1.060   6.877
 9581SOL    HW229643   6.048   1.058   7.017
 9582SOL     OW29644   5.294   6.380   4.607
 9582SOL    HW129645   5.293   6.371   4.707
 9582SOL    HW229646   5.209   6.344   4.569
 9583SOL     OW29647   3.729   4.832   1.623
 9583SOL    HW129648   3.695   4.775   1.698
 9583SOL    HW229649   3.659   4.839   1.552
 9584SOL     OW29650   2.268   5.591   4.160
 9584SOL    HW129651   2.210   5.615   4.237
 9584SOL    HW229652   2.364   5.604   4.185
 9585SOL     OW29653   4.325   5.699   0.765
 9585SOL    HW129654   4.309   5.797   0.778
 9585SOL    HW229655   4.389   5.667   0.835
 9586SOL     OW29656   4.196   4.974   2.927
 9586SOL    HW129657   4.255   4.893   2.923
 9586SOL    HW229658   4.252   5.057   2.929
 9587SOL     OW29659   3.165   5.711   1.080
 9587SOL    HW129660   3.102   5.740   1.008
 9587SOL    HW229661   3.253   5.756   1.067
 9588SOL     OW29662   6.591   5.731   0.362
 9588SOL    HW129663   6.635   5.646   0.334
 9588SOL    HW229664   6.618   5.805   0.300
 9589SOL     OW29665   1.579   3.512   6.636
 9589SOL    HW129666   1.488   3.555   6.632
 9589SOL    HW229667   1.641   3.572   6.688
 9590SOL     OW29668   6.087   0.499   1.257
 9590SOL    HW129669   6.109   0.492   1.354
 9590SOL    HW229670   6.074   0.595   1.232
 9591SOL     OW29671   4.177   0.646   7.006
 9591SOL    HW129672   4.192   0.744   7.014
 9591SOL    HW229673   4.202   0.601   0.072
 9592SOL     OW29674   2.176   6.253   5.726
 9592SOL    HW129675   2.145   6.307   5.804
 9592SOL    HW229676   2.272   6.272   5.707
 9593SOL     OW29677   2.038   2.193   4.009
 9593SOL    HW129678   2.045   2.161   4.103
 9593SOL    HW229679   1.944   2.219   3.989
 9594SOL     OW29680   0.407   6.342   4.292
 9594SOL    HW129681   0.452   6.254   4.311
 9594SOL    HW229682   0.465   6.395   4.230
 9595SOL     OW29683   0.258   3.467   3.498
 9595SOL    HW129684   0.198   3.420   3.562
 9595SOL    HW229685   0.215   3.471   3.408
 9596SOL     OW29686   0.201   6.527   0.738
 9596SOL    HW129687   0.197   6.430   0.717
 9596SOL    HW229688   0.262   6.573   0.674
 9597SOL     OW29689   1.467   3.270   2.552
 9597SOL    HW129690   1.536   3.216   2.503
 9597SOL    HW229691   1.382   3.216   2.560
 9598SOL     OW29692   1.716   4.147   4.058
 9598SOL    HW129693   1.676   4.236   4.079
 9598SOL    HW229694   1.708   4.128   3.960
 9599SOL     OW29695   4.612   6.565   3.833
 9599SOL    HW129696   4.512   6.561   3.838
 9599SOL    HW229697   4.639   6.603   3.745
 9600SOL     OW29698   3.307   0.792   1.760
 9600SOL    HW129699   3.224   0.745   1.732
 9600SOL    HW229700   3.322   0.871   1.699
 9601SOL     OW29701   0.925   3.615   1.235
 9601SOL    HW129702   0.830   3.599   1.262
 9601SOL    HW229703   0.939   3.579   1.143
 9602SOL     OW29704   4.572   5.114   5.429
 9602SOL    HW129705   4.473   5.097   5.432
 9602SOL    HW229706   4.619   5.031   5.401
 9603SOL     OW29707   5.049   5.859   5.323
 9603SOL    HW129708   5.009   5.926   5.260
 9603SOL    HW229709   4.983   5.785   5.338
 9604SOL     OW29710   5.044   6.431   0.409
 9604SOL    HW129711   5.140   6.407   0.402
 9604SOL    HW229712   5.035   6.526   0.439
 9605SOL     OW29713   6.099   5.624   2.608
 9605SOL    HW129714   6.119   5.718   2.578
 9605SOL    HW229715   6.048   5.627   2.694
 9606SOL     OW29716   1.584   1.385   0.113
 9606SOL    HW129717   1.587   1.483   0.136
 9606SOL    HW229718   1.577   1.374   0.014
 9607SOL     OW29719   2.779   2.441   6.059
 9607SOL    HW129720   2.697   2.490   6.027
 9607SOL    HW229721   2.846   2.507   6.093
 9608SOL     OW29722   6.580   3.388   4.092
 9608SOL    HW129723   6.638   3.381   4.011
 9608SOL    HW229724   6.610   3.467   4.147
 9609SOL     OW29725   4.209   3.233   6.321
 9609SOL    HW129726   4.178   3.173   6.396
 9609SOL    HW229727   4.234   3.177   6.242
 9610SOL     OW29728   1.110   4.685   3.086
 9610SOL    HW129729   1.019   4.677   3.126
 9610SOL    HW229730   1.108   4.657   2.990
 9611SOL     OW29731   1.935   0.429   0.437
 9611SOL    HW129732   2.018   0.486   0.432
 9611SOL    HW229733   1.869   0.473   0.498
 9612SOL     OW29734   6.448   2.922   3.925
 9612SOL    HW129735   6.503   2.924   4.009
 9612SOL    HW229736   6.460   2.834   3.879
 9613SOL     OW29737   6.252   5.636   3.311
 9613SOL    HW129738   6.172   5.696   3.313
 9613SOL    HW229739   6.324   5.674   3.368
 9614SOL     OW29740   4.547   2.603   3.699
 9614SOL    HW129741   4.519   2.698   3.712
 9614SOL    HW229742   4.633   2.600   3.648
 9615SOL     OW29743   2.785   3.951   1.034
 9615SOL    HW129744   2.729   3.868   1.027
 9615SOL    HW229745   2.741   4.016   1.096
 9616SOL     OW29746   4.328   3.754   0.156
 9616SOL    HW129747   4.279   3.677   0.196
 9616SOL    HW229748   4.325   3.748   0.056
 9617SOL     OW29749   1.770   2.648   3.458
 9617SOL    HW129750   1.780   2.723   3.394
 9617SOL    HW229751   1.819   2.567   3.424
 9618SOL     OW29752   2.081   1.578   0.980
 9618SOL    HW129753   2.140   1.514   1.027
 9618SOL    HW229754   2.104   1.580   0.883
 9619SOL     OW29755   3.259   1.082   5.155
 9619SOL    HW129756   3.213   0.994   5.167
 9619SOL    HW229757   3.225   1.147   5.223
 9620SOL     OW29758   5.988   0.788   5.758
 9620SOL    HW129759   5.958   0.806   5.664
 9620SOL    HW229760   6.033   0.699   5.762
 9621SOL     OW29761   1.895   2.960   3.589
 9621SOL    HW129762   1.935   3.040   3.636
 9621SOL    HW229763   1.956   2.882   3.600
 9622SOL     OW29764   5.298   6.772   1.423
 9622SOL    HW129765   5.269   6.773   1.328
 9622SOL    HW229766   5.306   6.866   1.457
 9623SOL     OW29767   2.553   3.643   6.737
 9623SOL    HW129768   2.497   3.563   6.716
 9623SOL    HW229769   2.513   3.724   6.693
 9624SOL     OW29770   6.434   3.254   3.617
 9624SOL    HW129771   6.412   3.221   3.526
 9624SOL    HW229772   6.495   3.188   3.662
 9625SOL     OW29773   5.747   5.787   0.870
 9625SOL    HW129774   5.771   5.870   0.920
 9625SOL    HW229775   5.748   5.806   0.771
 9626SOL     OW29776   3.052   6.496   6.912
 9626SOL    HW129777   3.050   6.418   6.849
 9626SOL    HW229778   3.091   6.467   6.999
 9627SOL     OW29779   1.321   6.922   6.696
 9627SOL    HW129780   1.399   6.917   6.633
 9627SOL    HW229781   1.270   6.835   6.693
 9628SOL     OW29782   3.724   6.479   2.359
 9628SOL    HW129783   3.671   6.502   2.440
 9628SOL    HW229784   3.816   6.448   2.386
 9629SOL     OW29785   2.191   6.656   1.103
 9629SOL    HW129786   2.110   6.608   1.138
 9629SOL    HW229787   2.272   6.624   1.152
 9630SOL     OW29788   6.874   0.943   6.076
 9630SOL    HW129789   6.903   1.022   6.129
 9630SOL    HW229790   6.777   0.952   6.052
 9631SOL     OW29791   6.217   6.588   7.006
 9631SOL    HW129792   6.221   6.687   6.995
 9631SOL    HW229793   6.134   6.553   6.962
 9632SOL     OW29794   1.611   6.087   1.387
 9632SOL    HW129795   1.513   6.099   1.378
 9632SOL    HW229796   1.631   5.993   1.412
 9633SOL     OW29797   0.000   5.106   5.878
 9633SOL    HW129798   0.079   5.065   5.832
 9633SOL    HW229799   6.977   5.037   5.936
 9634SOL     OW29800   1.344   6.201   5.035
 9634SOL    HW129801   1.424   6.229   4.983
 9634SOL    HW229802   1.306   6.118   4.996
 9635SOL     OW29803   1.280   5.664   5.384
 9635SOL    HW129804   1.323   5.754   5.392
 9635SOL    HW229805   1.340   5.602   5.335
 9636SOL     OW29806   4.127   1.769   6.598
 9636SOL    HW129807   4.202   1.835   6.596
 9636SOL    HW229808   4.049   1.806   6.547
 9637SOL     OW29809   2.200   1.429   6.860
 9637SOL    HW129810   2.123   1.492   6.845
 9637SOL    HW229811   2.286   1.479   6.846
 9638SOL     OW29812   6.590   1.984   5.923
 9638SOL    HW129813   6.655   2.043   5.971
 9638SOL    HW229814   6.640   1.915   5.871
 9639SOL     OW29815   4.087   1.033   2.797
 9639SOL    HW129816   4.069   0.939   2.769
 9639SOL    HW229817   4.177   1.061   2.762
 9640SOL     OW29818   2.133   2.213   2.157
 9640SOL    HW129819   2.142   2.292   2.096
 9640SOL    HW229820   2.212   2.153   2.145
 9641SOL     OW29821   6.237   5.857   0.130
 9641SOL    HW129822   6.192   5.770   0.113
 9641SOL    HW229823   6.252   5.868   0.229
 9642SOL     OW29824   3.689   6.938   3.738
 9642SOL    HW129825   3.702   6.847   3.776
 9642SOL    HW229826   3.773   6.968   3.692
 9643SOL     OW29827   4.046   4.805   3.316
 9643SOL    HW129828   4.009   4.813   3.223
 9643SOL    HW229829   4.137   4.765   3.312
 9644SOL     OW29830   2.680   2.151   6.953
 9644SOL    HW129831   2.756   2.110   6.904
 9644SOL    HW229832   2.675   2.249   6.933
 9645SOL     OW29833   3.258   5.197   5.180
 9645SOL    HW129834   3.350   5.233   5.163
 9645SOL    HW229835   3.259   5.140   5.262
 9646SOL     OW29836   4.020   5.458   3.739
 9646SOL    HW129837   3.961   5.428   3.814
 9646SOL    HW229838   4.111   5.479   3.775
 9647SOL     OW29839   6.751   3.026   0.221
 9647SOL    HW129840   6.691   3.102   0.196
 9647SOL    HW229841   6.839   3.036   0.176
 9648SOL     OW29842   4.101   3.715   1.138
 9648SOL    HW129843   4.051   3.633   1.110
 9648SOL    HW229844   4.123   3.709   1.235
 9649SOL     OW29845   2.046   6.004   0.984
 9649SOL    HW129846   2.001   5.953   0.911
 9649SOL    HW229847   2.051   6.101   0.960
 9650SOL     OW29848   0.307   0.138   1.914
 9650SOL    HW129849   0.333   0.154   1.819
 9650SOL    HW229850   0.361   0.062   1.951
 9651SOL     OW29851   0.351   1.727   5.627
 9651SOL    HW129852   0.449   1.724   5.607
 9651SOL    HW229853   0.333   1.801   5.693
 9652SOL     OW29854   0.257   5.388   2.566
 9652SOL    HW129855   0.188   5.395   2.495
 9652SOL    HW229856   0.310   5.305   2.554
 9653SOL     OW29857   6.436   6.139   4.254
 9653SOL    HW129858   6.518   6.092   4.224
 9653SOL    HW229859   6.444   6.237   4.234
 9654SOL     OW29860   2.153   3.043   2.349
 9654SOL    HW129861   2.184   2.948   2.340
 9654SOL    HW229862   2.203   3.088   2.422
 9655SOL     OW29863   5.758   1.930   6.747
 9655SOL    HW129864   5.714   1.841   6.762
 9655SOL    HW229865   5.690   2.003   6.752
 9656SOL     OW29866   3.557   1.107   3.006
 9656SOL    HW129867   3.584   1.010   3.004
 9656SOL    HW229868   3.509   1.126   3.091
 9657SOL     OW29869   0.766   6.899   4.999
 9657SOL    HW129870   0.710   6.822   5.029
 9657SOL    HW229871   0.714   6.953   4.932
 9658SOL     OW29872   5.558   1.976   3.173
 9658SOL    HW129873   5.570   1.915   3.252
 9658SOL    HW229874   5.645   1.984   3.124
 9659SOL     OW29875   0.812   4.974   0.010
 9659SOL    HW129876   0.807   4.952   0.107
 9659SOL    HW229877   0.777   5.066   7.014
 9660SOL     OW29878   0.333   5.155   0.440
 9660SOL    HW129879   0.269   5.084   0.467
 9660SOL    HW229880   0.305   5.194   0.352
 9661SOL     OW29881   4.579   6.648   0.664
 9661SOL    HW129882   4.598   6.561   0.618
 9661SOL    HW229883   4.573   6.721   0.596
 9662SOL     OW29884   4.832   0.961   4.677
 9662SOL    HW129885   4.741   0.990   4.704
 9662SOL    HW229886   4.871   1.028   4.614
 9663SOL     OW29887   2.288   6.398   3.314
 9663SOL    HW129888   2.270   6.299   3.318
 9663SOL    HW229889   2.243   6.437   3.234
 9664SOL     OW29890   2.400   5.876   1.598
 9664SOL    HW129891   2.403   5.779   1.574
 9664SOL    HW229892   2.381   5.886   1.696
 9665SOL     OW29893   5.147   4.344   3.944
 9665SOL    HW129894   5.210   4.420   3.933
 9665SOL    HW229895   5.087   4.338   3.864
 9666SOL     OW29896   5.463   4.279   4.754
 9666SOL    HW129897   5.555   4.313   4.774
 9666SOL    HW229898   5.400   4.357   4.751
 9667SOL     OW29899   3.438   3.277   3.326
 9667SOL    HW129900   3.479   3.335   3.255
 9667SOL    HW229901   3.460   3.182   3.308
 9668SOL     OW29902   0.725   1.139   5.011
 9668SOL    HW129903   0.715   1.232   4.976
 9668SOL    HW229904   0.727   1.074   4.935
 9669SOL     OW29905   1.755   6.245   0.284
 9669SOL    HW129906   1.785   6.153   0.310
 9669SOL    HW229907   1.757   6.255   0.185
 9670SOL     OW29908   6.221   4.470   6.816
 9670SOL    HW129909   6.229   4.373   6.837
 9670SOL    HW229910   6.297   4.520   6.859
 9671SOL     OW29911   0.427   0.558   6.989
 9671SOL    HW129912   0.377   0.497   6.928
 9671SOL    HW229913   0.387   0.554   0.061
 9672SOL     OW29914   1.432   6.496   4.702
 9672SOL    HW129915   1.523   6.506   4.661
 9672SOL    HW229916   1.364   6.534   4.639
 9673SOL     OW29917   2.471   2.514   5.999
 9673SOL    HW129918   2.393   2.460   5.971
 9673SOL    HW229919   2.491   2.583   5.929
 9674SOL     OW29920   2.451   6.887   2.319
 9674SOL    HW129921   2.498   6.835   2.247
 9674SOL    HW229922   2.357   6.904   2.292
 9675SOL     OW29923   0.153   2.334   1.920
 9675SOL    HW129924   0.207   2.367   1.843
 9675SOL    HW229925   0.066   2.297   1.886
 9676SOL     OW29926   0.205   3.286   5.169
 9676SOL    HW129927   0.225   3.382   5.188
 9676SOL    HW229928   0.247   3.259   5.083
 9677SOL     OW29929   1.797   3.269   5.146
 9677SOL    HW129930   1.880   3.324   5.145
 9677SOL    HW229931   1.758   3.265   5.054
 9678SOL     OW29932   3.641   3.400   3.082
 9678SOL    HW129933   3.577   3.331   3.047
 9678SOL    HW229934   3.730   3.358   3.096
 9679SOL     OW29935   0.591   3.597   0.663
 9679SOL    HW129936   0.605   3.666   0.734
 9679SOL    HW229937   0.650   3.616   0.585
 9680SOL     OW29938   5.133   5.154   3.485
 9680SOL    HW129939   5.223   5.196   3.475
 9680SOL    HW229940   5.110   5.104   3.401
 9681SOL     OW29941   0.868   1.284   4.143
 9681SOL    HW129942   0.858   1.370   4.093
 9681SOL    HW229943   0.954   1.240   4.118
 9682SOL     OW29944   0.089   5.060   2.941
 9682SOL    HW129945   0.075   5.004   2.859
 9682SOL    HW229946   0.136   5.144   2.916
 9683SOL     OW29947   4.328   6.451   6.218
 9683SOL    HW129948   4.251   6.495   6.263
 9683SOL    HW229949   4.303   6.425   6.125
 9684SOL     OW29950   0.963   4.013   3.529
 9684SOL    HW129951   1.051   4.024   3.484
 9684SOL    HW229952   0.967   4.052   3.621
 9685SOL     OW29953   1.481   2.502   0.173
 9685SOL    HW129954   1.528   2.421   0.210
 9685SOL    HW229955   1.468   2.569   0.246
 9686SOL     OW29956   5.599   0.618   1.845
 9686SOL    HW129957   5.547   0.628   1.761
 9686SOL    HW229958   5.577   0.694   1.907
 9687SOL     OW29959   3.750   1.155   4.119
 9687SOL    HW129960   3.733   1.057   4.127
 9687SOL    HW229961   3.818   1.171   4.047
 9688SOL     OW29962   6.339   1.889   3.990
 9688SOL    HW129963   6.369   1.813   3.933
 9688SOL    HW229964   6.417   1.948   4.010
 9689SOL     OW29965   1.592   5.968   5.954
 9689SOL    HW129966   1.501   5.945   5.988
 9689SOL    HW229967   1.631   6.040   6.011
 9690SOL     OW29968   6.034   4.146   0.647
 9690SOL    HW129969   6.090   4.150   0.730
 9690SOL    HW229970   5.939   4.129   0.672
 9691SOL     OW29971   1.476   4.242   1.607
 9691SOL    HW129972   1.391   4.200   1.638
 9691SOL    HW229973   1.481   4.336   1.639
 9692SOL     OW29974   2.146   5.544   0.682
 9692SOL    HW129975   2.107   5.614   0.622
 9692SOL    HW229976   2.239   5.571   0.707
 9693SOL     OW29977   6.168   5.211   1.825
 9693SOL    HW129978   6.208   5.137   1.771
 9693SOL    HW229979   6.232   5.287   1.831
 9694SOL     OW29980   1.479   1.839   0.321
 9694SOL    HW129981   1.466   1.805   0.415
 9694SOL    HW229982   1.541   1.917   0.322
 9695SOL     OW29983   6.289   3.945   0.892
 9695SOL    HW129984   6.348   3.948   0.972
 9695SOL    HW229985   6.281   4.036   0.852
 9696SOL     OW29986   3.450   4.205   0.998
 9696SOL    HW129987   3.429   4.126   1.055
 9696SOL    HW229988   3.503   4.271   1.050
 9697SOL     OW29989   0.549   6.211   6.408
 9697SOL    HW129990   0.516   6.117   6.397
 9697SOL    HW229991   0.609   6.234   6.331
 9698SOL     OW29992   5.380   1.371   5.507
 9698SOL    HW129993   5.280   1.371   5.520
 9698SOL    HW229994   5.407   1.456   5.463
 9699SOL     OW29995   1.817   2.856   0.128
 9699SOL    HW129996   1.748   2.810   0.184
 9699SOL    HW229997   1.812   2.822   0.034
 9700SOL     OW29998   3.100   3.975   4.054
 9700SOL    HW129999   3.198   3.995   4.059
 9700SOL    HW230000   3.053   4.021   4.130
 9701SOL     OW30001   4.683   4.238   5.213
 9701SOL    HW130002   4.778   4.257   5.240
 9701SOL    HW230003   4.682   4.194   5.124
 9702SOL     OW30004   4.326   0.155   0.787
 9702SOL    HW130005   4.329   0.168   0.688
 9702SOL    HW230006   4.364   0.235   0.833
 9703SOL     OW30007   3.525   6.313   4.342
 9703SOL    HW130008   3.448   6.335   4.282
 9703SOL    HW230009   3.492   6.285   4.431
 9704SOL     OW30010   2.529   0.473   3.563
 9704SOL    HW130011   2.617   0.488   3.517
 9704SOL    HW230012   2.489   0.560   3.588
 9705SOL     OW30013   4.020   3.888   0.716
 9705SOL    HW130014   4.086   3.952   0.678
 9705SOL    HW230015   3.928   3.916   0.689
 9706SOL     OW30016   6.067   2.573   2.695
 9706SOL    HW130017   5.984   2.533   2.655
 9706SOL    HW230018   6.075   2.668   2.665
 9707SOL     OW30019   2.807   5.807   2.941
 9707SOL    HW130020   2.708   5.812   2.940
 9707SOL    HW230021   2.841   5.824   3.034
 9708SOL     OW30022   1.999   1.973   2.621
 9708SOL    HW130023   1.948   1.895   2.585
 9708SOL    HW230024   2.055   2.013   2.548
 9709SOL     OW30025   2.195   5.025   2.854
 9709SOL    HW130026   2.235   4.942   2.816
 9709SOL    HW230027   2.168   5.086   2.780
 9710SOL     OW30028   0.484   0.404   3.905
 9710SOL    HW130029   0.437   0.491   3.920
 9710SOL    HW230030   0.475   0.347   3.987
 9711SOL     OW30031   1.422   3.185   6.054
 9711SOL    HW130032   1.438   3.250   5.979
 9711SOL    HW230033   1.482   3.209   6.131
 9712SOL     OW30034   4.896   2.904   4.593
 9712SOL    HW130035   4.867   2.968   4.664
 9712SOL    HW230036   4.818   2.881   4.535
 9713SOL     OW30037   6.647   5.127   2.380
 9713SOL    HW130038   6.609   5.045   2.337
 9713SOL    HW230039   6.574   5.192   2.398
 9714SOL     OW30040   1.318   2.500   2.232
 9714SOL    HW130041   1.415   2.508   2.213
 9714SOL    HW230042   1.298   2.411   2.272
 9715SOL     OW30043   5.662   5.616   5.134
 9715SOL    HW130044   5.618   5.705   5.121
 9715SOL    HW230045   5.623   5.572   5.214
 9716SOL     OW30046   3.832   2.309   6.064
 9716SOL    HW130047   3.868   2.225   6.104
 9716SOL    HW230048   3.836   2.382   6.131
 9717SOL     OW30049   6.342   4.667   3.394
 9717SOL    HW130050   6.426   4.709   3.427
 9717SOL    HW230051   6.270   4.736   3.390
 9718SOL     OW30052   4.474   3.368   1.566
 9718SOL    HW130053   4.560   3.343   1.520
 9718SOL    HW230054   4.482   3.461   1.602
 9719SOL     OW30055   0.307   1.655   0.658
 9719SOL    HW130056   0.231   1.710   0.622
 9719SOL    HW230057   0.369   1.631   0.582
 9720SOL     OW30058   0.742   0.583   1.079
 9720SOL    HW130059   0.650   0.558   1.047
 9720SOL    HW230060   0.794   0.620   1.002
 9721SOL     OW30061   6.630   3.095   2.740
 9721SOL    HW130062   6.632   3.179   2.687
 9721SOL    HW230063   6.539   3.053   2.732
 9722SOL     OW30064   6.695   0.286   4.711
 9722SOL    HW130065   6.675   0.364   4.770
 9722SOL    HW230066   6.653   0.300   4.621
 9723SOL     OW30067   6.532   1.263   3.627
 9723SOL    HW130068   6.554   1.171   3.596
 9723SOL    HW230069   6.446   1.293   3.585
 9724SOL     OW30070   3.819   2.980   0.914
 9724SOL    HW130071   3.805   3.079   0.920
 9724SOL    HW230072   3.732   2.933   0.923
 9725SOL     OW30073   4.546   3.498   5.643
 9725SOL    HW130074   4.625   3.446   5.675
 9725SOL    HW230075   4.573   3.552   5.564
 9726SOL     OW30076   5.936   5.607   5.098
 9726SOL    HW130077   5.837   5.610   5.086
 9726SOL    HW230078   5.978   5.562   5.019
 9727SOL     OW30079   1.302   1.606   6.436
 9727SOL    HW130080   1.319   1.676   6.366
 9727SOL    HW230081   1.324   1.516   6.398
 9728SOL     OW30082   2.974   5.749   0.058
 9728SOL    HW130083   2.930   5.827   0.013
 9728SOL    HW230084   2.908   5.704   0.119
 9729SOL     OW30085   2.797   5.264   2.531
 9729SOL    HW130086   2.818   5.175   2.490
 9729SOL    HW230087   2.878   5.322   2.528
 9730SOL     OW30088   5.899   3.613   2.973
 9730SOL    HW130089   5.837   3.547   2.929
 9730SOL    HW230090   5.852   3.700   2.984
 9731SOL     OW30091   5.049   5.681   1.199
 9731SOL    HW130092   5.131   5.735   1.179
 9731SOL    HW230093   5.028   5.688   1.297
 9732SOL     OW30094   6.351   5.324   3.789
 9732SOL    HW130095   6.355   5.372   3.877
 9732SOL    HW230096   6.414   5.247   3.791
 9733SOL     OW30097   5.909   4.549   6.373
 9733SOL    HW130098   5.897   4.496   6.289
 9733SOL    HW230099   5.997   4.527   6.415
 9734SOL     OW30100   5.615   2.572   4.759
 9734SOL    HW130101   5.585   2.491   4.709
 9734SOL    HW230102   5.593   2.561   4.856
 9735SOL     OW30103   2.617   4.209   0.245
 9735SOL    HW130104   2.672   4.186   0.165
 9735SOL    HW230105   2.675   4.216   0.325
 9736SOL     OW30106   3.095   1.487   1.763
 9736SOL    HW130107   3.022   1.555   1.765
 9736SOL    HW230108   3.184   1.533   1.758
 9737SOL     OW30109   4.256   2.184   4.952
 9737SOL    HW130110   4.237   2.282   4.952
 9737SOL    HW230111   4.227   2.144   5.039
 9738SOL     OW30112   1.900   0.691   2.256
 9738SOL    HW130113   1.853   0.629   2.193
 9738SOL    HW230114   1.848   0.777   2.262
 9739SOL     OW30115   5.338   4.911   1.675
 9739SOL    HW130116   5.245   4.923   1.641
 9739SOL    HW230117   5.402   4.913   1.599
 9740SOL     OW30118   6.344   3.791   3.289
 9740SOL    HW130119   6.374   3.834   3.374
 9740SOL    HW230120   6.305   3.701   3.309
 9741SOL     OW30121   3.960   1.636   1.536
 9741SOL    HW130122   3.997   1.684   1.615
 9741SOL    HW230123   3.875   1.680   1.506
 9742SOL     OW30124   4.992   1.408   3.865
 9742SOL    HW130125   4.919   1.384   3.929
 9742SOL    HW230126   4.953   1.425   3.775
 9743SOL     OW30127   1.739   1.511   5.300
 9743SOL    HW130128   1.815   1.514   5.365
 9743SOL    HW230129   1.713   1.604   5.275
 9744SOL     OW30130   2.267   0.649   1.949
 9744SOL    HW130131   2.222   0.694   2.025
 9744SOL    HW230132   2.359   0.688   1.937
 9745SOL     OW30133   0.104   1.223   4.980
 9745SOL    HW130134   0.024   1.203   4.924
 9745SOL    HW230135   0.170   1.148   4.972
 9746SOL     OW30136   6.180   0.883   4.011
 9746SOL    HW130137   6.126   0.956   4.053
 9746SOL    HW230138   6.249   0.851   4.076
 9747SOL     OW30139   0.315   0.090   6.602
 9747SOL    HW130140   0.375   0.066   6.679
 9747SOL    HW230141   0.236   0.029   6.601
 9748SOL     OW30142   0.604   4.926   4.565
 9748SOL    HW130143   0.551   5.006   4.595
 9748SOL    HW230144   0.694   4.928   4.610
 9749SOL     OW30145   0.419   4.215   4.311
 9749SOL    HW130146   0.491   4.236   4.378
 9749SOL    HW230147   0.460   4.173   4.230
 9750SOL     OW30148   3.515   5.467   2.966
 9750SOL    HW130149   3.496   5.457   2.868
 9750SOL    HW230150   3.613   5.468   2.982
 9751SOL     OW30151   1.774   2.592   0.471
 9751SOL    HW130152   1.731   2.667   0.421
 9751SOL    HW230153   1.864   2.574   0.432
 9752SOL     OW30154   3.628   2.083   5.828
 9752SOL    HW130155   3.711   2.138   5.822
 9752SOL    HW230156   3.602   2.071   5.924
 9753SOL     OW30157   6.548   6.331   5.530
 9753SOL    HW130158   6.471   6.269   5.520
 9753SOL    HW230159   6.633   6.278   5.538
 9754SOL     OW30160   0.012   2.519   6.553
 9754SOL    HW130161   6.969   2.455   6.510
 9754SOL    HW230162   7.020   2.610   6.514
 9755SOL     OW30163   3.674   4.872   5.387
 9755SOL    HW130164   3.597   4.930   5.360
 9755SOL    HW230165   3.757   4.926   5.394
 9756SOL     OW30166   4.893   2.353   5.444
 9756SOL    HW130167   4.840   2.420   5.495
 9756SOL    HW230168   4.831   2.288   5.400
 9757SOL     OW30169   6.070   1.788   3.594
 9757SOL    HW130170   6.056   1.834   3.681
 9757SOL    HW230171   6.167   1.781   3.575
 9758SOL     OW30172   3.138   0.545   0.184
 9758SOL    HW130173   3.190   0.591   0.112
 9758SOL    HW230174   3.099   0.460   0.148
 9759SOL     OW30175   3.068   5.910   1.381
 9759SOL    HW130176   3.166   5.910   1.361
 9759SOL    HW230177   3.050   5.852   1.460
 9760SOL     OW30178   5.916   4.329   6.183
 9760SOL    HW130179   5.942   4.232   6.177
 9760SOL    HW230180   5.984   4.384   6.137
 9761SOL     OW30181   5.139   5.527   2.761
 9761SOL    HW130182   5.231   5.512   2.796
 9761SOL    HW230183   5.132   5.619   2.724
 9762SOL     OW30184   2.925   0.850   3.229
 9762SOL    HW130185   2.920   0.941   3.188
 9762SOL    HW230186   2.999   0.849   3.297
 9763SOL     OW30187   2.067   1.774   1.941
 9763SOL    HW130188   2.072   1.867   1.904
 9763SOL    HW230189   2.001   1.771   2.016
 9764SOL     OW30190   1.127   2.638   2.087
 9764SOL    HW130191   1.180   2.568   2.135
 9764SOL    HW230192   1.039   2.650   2.133
 9765SOL     OW30193   0.427   1.066   5.149
 9765SOL    HW130194   0.390   1.121   5.224
 9765SOL    HW230195   0.516   1.028   5.175
 9766SOL     OW30196   2.006   0.431   2.354
 9766SOL    HW130197   1.915   0.408   2.386
 9766SOL    HW230198   2.036   0.517   2.395
 9767SOL     OW30199   5.130   0.117   5.475
 9767SOL    HW130200   5.035   0.088   5.468
 9767SOL    HW230201   5.176   0.065   5.547
 9768SOL     OW30202   4.998   2.581   3.771
 9768SOL    HW130203   4.997   2.605   3.868
 9768SOL    HW230204   5.071   2.631   3.724
 9769SOL     OW30205   0.470   1.755   1.636
 9769SOL    HW130206   0.437   1.668   1.671
 9769SOL    HW230207   0.406   1.790   1.568
 9770SOL     OW30208   6.727   3.798   5.969
 9770SOL    HW130209   6.658   3.863   5.935
 9770SOL    HW230210   6.768   3.750   5.892
 9771SOL     OW30211   2.906   5.433   4.229
 9771SOL    HW130212   2.938   5.396   4.316
 9771SOL    HW230213   2.819   5.481   4.243
 9772SOL     OW30214   6.663   6.959   1.345
 9772SOL    HW130215   6.603   6.975   1.424
 9772SOL    HW230216   6.724   0.017   1.333
 9773SOL     OW30217   5.055   5.078   3.765
 9773SOL    HW130218   4.996   4.998   3.761
 9773SOL    HW230219   5.092   5.097   3.674
 9774SOL     OW30220   0.323   4.742   3.585
 9774SOL    HW130221   0.346   4.785   3.498
 9774SOL    HW230222   0.346   4.804   3.660
 9775SOL     OW30223   2.890   2.142   5.010
 9775SOL    HW130224   2.862   2.125   4.915
 9775SOL    HW230225   2.974   2.196   5.011
 9776SOL     OW30226   0.292   4.720   4.330
 9776SOL    HW130227   0.270   4.816   4.313
 9776SOL    HW230228   0.388   4.712   4.354
 9777SOL     OW30229   5.890   4.998   6.086
 9777SOL    HW130230   5.862   4.908   6.054
 9777SOL    HW230231   5.927   4.991   6.179
 9778SOL     OW30232   4.094   0.751   4.071
 9778SOL    HW130233   4.057   0.698   3.995
 9778SOL    HW230234   4.116   0.843   4.039
 9779SOL     OW30235   2.981   1.998   6.687
 9779SOL    HW130236   2.955   1.944   6.607
 9779SOL    HW230237   3.049   2.066   6.661
 9780SOL     OW30238   3.351   4.143   0.491
 9780SOL    HW130239   3.380   4.089   0.570
 9780SOL    HW230240   3.335   4.081   0.414
 9781SOL     OW30241   1.551   6.187   4.189
 9781SOL    HW130242   1.636   6.181   4.137
 9781SOL    HW230243   1.474   6.158   4.132
 9782SOL     OW30244   6.240   0.443   1.049
 9782SOL    HW130245   6.185   0.451   1.132
 9782SOL    HW230246   6.221   0.521   0.988
 9783SOL     OW30247   6.174   1.085   2.835
 9783SOL    HW130248   6.197   0.999   2.790
 9783SOL    HW230249   6.159   1.156   2.766
 9784SOL     OW30250   5.862   1.063   4.485
 9784SOL    HW130251   5.806   0.985   4.458
 9784SOL    HW230252   5.816   1.148   4.461
 9785SOL     OW30253   0.492   2.891   0.768
 9785SOL    HW130254   0.581   2.866   0.805
 9785SOL    HW230255   0.420   2.861   0.831
 9786SOL     OW30256   2.568   0.403   5.066
 9786SOL    HW130257   2.618   0.487   5.044
 9786SOL    HW230258   2.479   0.405   5.020
 9787SOL     OW30259   6.231   4.383   1.282
 9787SOL    HW130260   6.200   4.450   1.215
 9787SOL    HW230261   6.287   4.314   1.237
 9788SOL     OW30262   0.010   0.802   5.356
 9788SOL    HW130263   0.094   0.792   5.410
 9788SOL    HW230264   0.032   0.846   5.269
 9789SOL     OW30265   1.530   5.547   4.358
 9789SOL    HW130266   1.549   5.553   4.456
 9789SOL    HW230267   1.565   5.460   4.322
 9790SOL     OW30268   6.716   0.878   4.013
 9790SOL    HW130269   6.766   0.954   3.972
 9790SOL    HW230270   6.644   0.848   3.951
 9791SOL     OW30271   1.260   2.648   1.463
 9791SOL    HW130272   1.248   2.559   1.507
 9791SOL    HW230273   1.229   2.643   1.369
 9792SOL     OW30274   3.609   5.628   1.948
 9792SOL    HW130275   3.596   5.638   2.047
 9792SOL    HW230276   3.548   5.556   1.914
 9793SOL     OW30277   5.436   6.050   2.151
 9793SOL    HW130278   5.406   6.052   2.247
 9793SOL    HW230279   5.415   5.961   2.112
 9794SOL     OW30280   2.682   3.374   6.742
 9794SOL    HW130281   2.640   3.464   6.736
 9794SOL    HW230282   2.615   3.304   6.717
 9795SOL     OW30283   2.444   4.729   4.211
 9795SOL    HW130284   2.497   4.792   4.268
 9795SOL    HW230285   2.424   4.646   4.263
 9796SOL     OW30286   3.400   4.372   0.697
 9796SOL    HW130287   3.319   4.357   0.753
 9796SOL    HW230288   3.377   4.360   0.600
 9797SOL     OW30289   5.253   2.969   4.857
 9797SOL    HW130290   5.227   2.968   4.760
 9797SOL    HW230291   5.352   2.972   4.865
 9798SOL     OW30292   2.474   1.542   1.863
 9798SOL    HW130293   2.541   1.492   1.808
 9798SOL    HW230294   2.503   1.637   1.872
 9799SOL     OW30295   3.198   3.991   2.430
 9799SOL    HW130296   3.192   3.996   2.330
 9799SOL    HW230297   3.278   4.042   2.462
 9800SOL     OW30298   3.853   5.168   0.010
 9800SOL    HW130299   3.911   5.144   6.952
 9800SOL    HW230300   3.794   5.090   0.033
 9801SOL     OW30301   4.988   5.606   0.680
 9801SOL    HW130302   5.063   5.638   0.739
 9801SOL    HW230303   5.021   5.531   0.622
 9802SOL     OW30304   0.770   5.166   1.647
 9802SOL    HW130305   0.784   5.072   1.614
 9802SOL    HW230306   0.676   5.175   1.681
 9803SOL     OW30307   4.798   0.259   6.483
 9803SOL    HW130308   4.815   0.162   6.464
 9803SOL    HW230309   4.709   0.269   6.528
 9804SOL     OW30310   5.433   5.540   4.435
 9804SOL    HW130311   5.387   5.543   4.523
 9804SOL    HW230312   5.446   5.444   4.408
 9805SOL     OW30313   3.606   4.280   1.202
 9805SOL    HW130314   3.548   4.212   1.245
 9805SOL    HW230315   3.670   4.317   1.270
 9806SOL     OW30316   6.990   1.806   2.542
 9806SOL    HW130317   0.036   1.881   2.536
 9806SOL    HW230318   0.011   1.728   2.589
 9807SOL     OW30319   2.739   3.082   1.065
 9807SOL    HW130320   2.711   3.026   0.987
 9807SOL    HW230321   2.662   3.139   1.094
 9808SOL     OW30322   1.585   1.788   4.882
 9808SOL    HW130323   1.542   1.878   4.871
 9808SOL    HW230324   1.682   1.795   4.858
 9809SOL     OW30325   0.567   0.659   4.555
 9809SOL    HW130326   0.518   0.574   4.576
 9809SOL    HW230327   0.661   0.637   4.530
 9810SOL     OW30328   4.680   1.804   2.687
 9810SOL    HW130329   4.739   1.739   2.640
 9810SOL    HW230330   4.609   1.755   2.737
 9811SOL     OW30331   0.854   0.168   2.627
 9811SOL    HW130332   0.832   0.083   2.579
 9811SOL    HW230333   0.945   0.199   2.602
 9812SOL     OW30334   5.486   2.727   5.323
 9812SOL    HW130335   5.518   2.782   5.400
 9812SOL    HW230336   5.563   2.702   5.265
 9813SOL     OW30337   6.326   4.237   0.500
 9813SOL    HW130338   6.256   4.295   0.459
 9813SOL    HW230339   6.285   4.182   0.573
 9814SOL     OW30340   6.786   0.627   5.654
 9814SOL    HW130341   6.801   0.688   5.732
 9814SOL    HW230342   6.867   0.569   5.642
 9815SOL     OW30343   0.382   3.812   2.666
 9815SOL    HW130344   0.478   3.835   2.681
 9815SOL    HW230345   0.375   3.734   2.603
 9816SOL     OW30346   5.811   0.916   5.915
 9816SOL    HW130347   5.884   0.909   5.847
 9816SOL    HW230348   5.769   1.007   5.910
 9817SOL     OW30349   2.468   0.893   0.772
 9817SOL    HW130350   2.435   0.835   0.847
 9817SOL    HW230351   2.396   0.901   0.703
 9818SOL     OW30352   0.293   6.822   2.588
 9818SOL    HW130353   0.270   6.843   2.683
 9818SOL    HW230354   0.228   6.867   2.527
 9819SOL     OW30355   6.759   2.134   4.374
 9819SOL    HW130356   6.734   2.060   4.310
 9819SOL    HW230357   6.775   2.095   4.464
 9820SOL     OW30358   3.566   2.009   6.085
 9820SOL    HW130359   3.519   1.924   6.059
 9820SOL    HW230360   3.522   2.048   6.166
 9821SOL     OW30361   3.978   2.879   0.332
 9821SOL    HW130362   3.905   2.910   0.270
 9821SOL    HW230363   4.066   2.890   0.287
 9822SOL     OW30364   3.267   5.337   4.179
 9822SOL    HW130365   3.234   5.246   4.204
 9822SOL    HW230366   3.201   5.380   4.117
 9823SOL     OW30367   3.999   6.355   3.566
 9823SOL    HW130368   3.989   6.301   3.649
 9823SOL    HW230369   4.087   6.334   3.523
 9824SOL     OW30370   1.618   5.764   5.461
 9824SOL    HW130371   1.632   5.667   5.480
 9824SOL    HW230372   1.570   5.807   5.537
 9825SOL     OW30373   0.423   6.037   5.301
 9825SOL    HW130374   0.468   6.032   5.211
 9825SOL    HW230375   0.357   5.962   5.309
 9826SOL     OW30376   1.735   5.727   5.891
 9826SOL    HW130377   1.693   5.815   5.911
 9826SOL    HW230378   1.759   5.722   5.794
 9827SOL     OW30379   2.168   4.754   1.882
 9827SOL    HW130380   2.249   4.773   1.826
 9827SOL    HW230381   2.152   4.656   1.884
 9828SOL     OW30382   4.541   1.962   4.844
 9828SOL    HW130383   4.587   1.982   4.930
 9828SOL    HW230384   4.604   1.977   4.767
 9829SOL     OW30385   5.579   4.559   5.438
 9829SOL    HW130386   5.638   4.486   5.473
 9829SOL    HW230387   5.486   4.524   5.427
 9830SOL     OW30388   5.678   1.637   3.858
 9830SOL    HW130389   5.619   1.664   3.934
 9830SOL    HW230390   5.691   1.714   3.796
 9831SOL     OW30391   0.425   4.373   2.000
 9831SOL    HW130392   0.486   4.449   1.979
 9831SOL    HW230393   0.359   4.401   2.070
 9832SOL     OW30394   4.886   5.373   4.647
 9832SOL    HW130395   4.938   5.343   4.728
 9832SOL    HW230396   4.948   5.418   4.583
 9833SOL     OW30397   3.968   3.248   4.579
 9833SOL    HW130398   4.041   3.275   4.517
 9833SOL    HW230399   3.992   3.274   4.673
 9834SOL     OW30400   3.485   5.985   5.470
 9834SOL    HW130401   3.508   5.955   5.377
 9834SOL    HW230402   3.405   5.935   5.502
 9835SOL     OW30403   4.003   3.607   3.570
 9835SOL    HW130404   3.929   3.625   3.635
 9835SOL    HW230405   4.026   3.692   3.522
 9836SOL     OW30406   6.339   3.301   5.438
 9836SOL    HW130407   6.370   3.390   5.473
 9836SOL    HW230408   6.418   3.248   5.407
 9837SOL     OW30409   6.266   1.070   3.130
 9837SOL    HW130410   6.217   1.120   3.201
 9837SOL    HW230411   6.212   1.070   3.046
 9838SOL     OW30412   0.416   5.965   0.597
 9838SOL    HW130413   0.418   5.920   0.508
 9838SOL    HW230414   0.324   5.998   0.617
 9839SOL     OW30415   4.859   6.324   3.666
 9839SOL    HW130416   4.925   6.398   3.683
 9839SOL    HW230417   4.853   6.266   3.747
 9840SOL     OW30418   6.331   1.550   6.553
 9840SOL    HW130419   6.405   1.573   6.491
 9840SOL    HW230420   6.251   1.522   6.500
 9841SOL     OW30421   6.959   5.880   2.734
 9841SOL    HW130422   6.953   5.828   2.648
 9841SOL    HW230423   0.016   5.846   2.788
 9842SOL     OW30424   3.489   0.343   0.268
 9842SOL    HW130425   3.471   0.425   0.213
 9842SOL    HW230426   3.534   0.274   0.210
 9843SOL     OW30427   6.940   0.450   1.250
 9843SOL    HW130428   6.934   0.448   1.150
 9843SOL    HW230429   7.001   0.524   1.279
 9844SOL     OW30430   5.085   0.633   5.408
 9844SOL    HW130431   5.106   0.537   5.428
 9844SOL    HW230432   5.138   0.663   5.329
 9845SOL     OW30433   1.064   3.839   2.121
 9845SOL    HW130434   1.158   3.803   2.123
 9845SOL    HW230435   1.035   3.863   2.213
 9846SOL     OW30436   5.737   1.584   2.045
 9846SOL    HW130437   5.644   1.604   2.015
 9846SOL    HW230438   5.757   1.487   2.030
 9847SOL     OW30439   3.991   4.475   6.850
 9847SOL    HW130440   3.894   4.461   6.828
 9847SOL    HW230441   4.019   4.408   6.919
 9848SOL     OW30442   3.157   4.217   5.534
 9848SOL    HW130443   3.242   4.169   5.511
 9848SOL    HW230444   3.123   4.266   5.454
 9849SOL     OW30445   1.759   2.246   3.931
 9849SOL    HW130446   1.751   2.341   3.899
 9849SOL    HW230447   1.707   2.186   3.870
 9850SOL     OW30448   1.331   0.099   4.300
 9850SOL    HW130449   1.353   0.084   4.203
 9850SOL    HW230450   1.354   0.017   4.352
 9851SOL     OW30451   3.828   5.726   3.771
 9851SOL    HW130452   3.795   5.632   3.776
 9851SOL    HW230453   3.905   5.732   3.707
 9852SOL     OW30454   1.962   6.358   0.023
 9852SOL    HW130455   1.960   6.422   0.099
 9852SOL    HW230456   1.933   6.405   6.959
 9853SOL     OW30457   0.396   4.308   3.870
 9853SOL    HW130458   0.483   4.268   3.841
 9853SOL    HW230459   0.403   4.339   3.965
 9854SOL     OW30460   6.683   3.496   6.858
 9854SOL    HW130461   6.641   3.586   6.857
 9854SOL    HW230462   6.613   3.426   6.844
 9855SOL     OW30463   0.585   6.062   6.782
 9855SOL    HW130464   0.539   6.142   6.819
 9855SOL    HW230465   0.648   6.025   6.850
 9856SOL     OW30466   4.922   3.562   2.938
 9856SOL    HW130467   4.911   3.662   2.938
 9856SOL    HW230468   4.945   3.531   3.030
 9857SOL     OW30469   4.859   0.289   5.908
 9857SOL    HW130470   4.835   0.304   6.004
 9857SOL    HW230471   4.781   0.249   5.860
 9858SOL     OW30472   6.451   5.936   2.502
 9858SOL    HW130473   6.436   5.852   2.554
 9858SOL    HW230474   6.449   5.916   2.404
 9859SOL     OW30475   1.014   5.547   2.619
 9859SOL    HW130476   0.944   5.575   2.553
 9859SOL    HW230477   1.044   5.454   2.598
 9860SOL     OW30478   1.460   3.078   4.025
 9860SOL    HW130479   1.485   3.093   3.930
 9860SOL    HW230480   1.470   3.163   4.076
 9861SOL     OW30481   3.769   2.077   3.492
 9861SOL    HW130482   3.864   2.070   3.462
 9861SOL    HW230483   3.708   2.075   3.412
 9862SOL     OW30484   1.588   3.523   6.355
 9862SOL    HW130485   1.588   3.508   6.454
 9862SOL    HW230486   1.682   3.537   6.324
 9863SOL     OW30487   4.378   6.356   2.410
 9863SOL    HW130488   4.416   6.434   2.459
 9863SOL    HW230489   4.359   6.381   2.315
 9864SOL     OW30490   2.598   6.423   5.087
 9864SOL    HW130491   2.607   6.338   5.037
 9864SOL    HW230492   2.629   6.410   5.181
 9865SOL     OW30493   2.047   5.816   5.629
 9865SOL    HW130494   2.019   5.912   5.628
 9865SOL    HW230495   2.124   5.803   5.568
 9866SOL     OW30496   6.598   5.084   5.907
 9866SOL    HW130497   6.566   5.160   5.964
 9866SOL    HW230498   6.536   5.006   5.918
 9867SOL     OW30499   4.476   1.307   1.927
 9867SOL    HW130500   4.567   1.333   1.897
 9867SOL    HW230501   4.464   1.208   1.916
 9868SOL     OW30502   2.235   4.799   3.816
 9868SOL    HW130503   2.174   4.831   3.744
 9868SOL    HW230504   2.182   4.759   3.890
 9869SOL     OW30505   6.569   2.468   2.186
 9869SOL    HW130506   6.553   2.521   2.102
 9869SOL    HW230507   6.587   2.530   2.262
 9870SOL     OW30508   2.012   2.096   2.859
 9870SOL    HW130509   1.948   2.172   2.847
 9870SOL    HW230510   2.007   2.036   2.779
 9871SOL     OW30511   5.367   5.910   3.431
 9871SOL    HW130512   5.462   5.916   3.399
 9871SOL    HW230513   5.322   5.833   3.386
 9872SOL     OW30514   0.693   6.012   5.437
 9872SOL    HW130515   0.682   6.109   5.414
 9872SOL    HW230516   0.645   5.956   5.370
 9873SOL     OW30517   1.032   1.045   5.370
 9873SOL    HW130518   1.115   1.060   5.425
 9873SOL    HW230519   0.997   0.953   5.387
 9874SOL     OW30520   0.155   2.251   3.893
 9874SOL    HW130521   0.129   2.299   3.977
 9874SOL    HW230522   0.087   2.269   3.822
 9875SOL     OW30523   6.459   6.270   0.657
 9875SOL    HW130524   6.443   6.325   0.574
 9875SOL    HW230525   6.428   6.322   0.737
 9876SOL     OW30526   7.007   6.751   3.855
 9876SOL    HW130527   6.984   6.686   3.784
 9876SOL    HW230528   6.923   6.781   3.902
 9877SOL     OW30529   1.225   5.979   4.898
 9877SOL    HW130530   1.138   5.985   4.948
 9877SOL    HW230531   1.207   5.952   4.804
 9878SOL     OW30532   3.346   2.645   6.861
 9878SOL    HW130533   3.297   2.658   6.947
 9878SOL    HW230534   3.347   2.731   6.810
 9879SOL     OW30535   6.454   5.813   4.496
 9879SOL    HW130536   6.382   5.882   4.496
 9879SOL    HW230537   6.520   5.833   4.423
 9880SOL     OW30538   3.452   1.398   1.189
 9880SOL    HW130539   3.387   1.342   1.137
 9880SOL    HW230540   3.543   1.388   1.149
 9881SOL     OW30541   5.986   0.619   3.190
 9881SOL    HW130542   5.896   0.624   3.147
 9881SOL    HW230543   6.040   0.548   3.145
 9882SOL     OW30544   3.481   3.372   5.030
 9882SOL    HW130545   3.507   3.293   4.974
 9882SOL    HW230546   3.399   3.415   4.991
 9883SOL     OW30547   1.892   6.317   2.288
 9883SOL    HW130548   1.893   6.278   2.380
 9883SOL    HW230549   1.816   6.277   2.236
 9884SOL     OW30550   3.259   2.526   5.375
 9884SOL    HW130551   3.220   2.487   5.291
 9884SOL    HW230552   3.318   2.603   5.351
 9885SOL     OW30553   4.528   2.308   5.552
 9885SOL    HW130554   4.481   2.244   5.492
 9885SOL    HW230555   4.588   2.257   5.614
 9886SOL     OW30556   2.508   6.118   1.539
 9886SOL    HW130557   2.449   6.040   1.561
 9886SOL    HW230558   2.599   6.085   1.514
 9887SOL     OW30559   3.385   1.173   0.323
 9887SOL    HW130560   3.433   1.085   0.322
 9887SOL    HW230561   3.286   1.157   0.321
 9888SOL     OW30562   6.232   6.829   3.712
 9888SOL    HW130563   6.274   6.819   3.802
 9888SOL    HW230564   6.133   6.841   3.721
 9889SOL     OW30565   6.810   5.373   3.119
 9889SOL    HW130566   6.771   5.439   3.183
 9889SOL    HW230567   6.872   5.312   3.168
 9890SOL     OW30568   1.258   3.382   2.745
 9890SOL    HW130569   1.208   3.295   2.745
 9890SOL    HW230570   1.349   3.368   2.785
 9891SOL     OW30571   4.755   6.396   1.893
 9891SOL    HW130572   4.784   6.366   1.984
 9891SOL    HW230573   4.832   6.388   1.829
 9892SOL     OW30574   1.583   5.716   3.510
 9892SOL    HW130575   1.558   5.813   3.502
 9892SOL    HW230576   1.539   5.678   3.592
 9893SOL     OW30577   6.180   4.285   5.582
 9893SOL    HW130578   6.170   4.382   5.559
 9893SOL    HW230579   6.274   4.267   5.609
 9894SOL     OW30580   4.451   3.928   5.361
 9894SOL    HW130581   4.353   3.913   5.346
 9894SOL    HW230582   4.472   4.025   5.348
 9895SOL     OW30583   5.333   1.998   6.222
 9895SOL    HW130584   5.353   1.927   6.154
 9895SOL    HW230585   5.395   2.076   6.208
 9896SOL     OW30586   4.028   3.524   6.688
 9896SOL    HW130587   4.040   3.447   6.750
 9896SOL    HW230588   4.118   3.554   6.655
 9897SOL     OW30589   0.635   1.484   3.312
 9897SOL    HW130590   0.542   1.452   3.292
 9897SOL    HW230591   0.665   1.445   3.399
 9898SOL     OW30592   1.065   4.850   0.203
 9898SOL    HW130593   1.086   4.763   0.159
 9898SOL    HW230594   0.967   4.870   0.193
 9899SOL     OW30595   4.241   5.232   2.368
 9899SOL    HW130596   4.183   5.222   2.287
 9899SOL    HW230597   4.325   5.280   2.343
 9900SOL     OW30598   2.128   4.711   4.092
 9900SOL    HW130599   2.123   4.805   4.127
 9900SOL    HW230600   2.193   4.659   4.146
 9901SOL     OW30601   2.286   1.996   5.843
 9901SOL    HW130602   2.313   2.069   5.780
 9901SOL    HW230603   2.238   2.035   5.921
 9902SOL     OW30604   4.457   3.867   6.696
 9902SOL    HW130605   4.529   3.815   6.742
 9902SOL    HW230606   4.461   3.849   6.597
 9903SOL     OW30607   3.124   1.596   1.435
 9903SOL    HW130608   3.174   1.538   1.370
 9903SOL    HW230609   3.188   1.643   1.495
 9904SOL     OW30610   0.282   6.589   2.418
 9904SOL    HW130611   0.315   6.513   2.473
 9904SOL    HW230612   0.250   6.662   2.479
 9905SOL     OW30613   2.049   6.901   5.732
 9905SOL    HW130614   2.112   6.883   5.808
 9905SOL    HW230615   2.079   6.850   5.652
 9906SOL     OW30616   3.312   3.853   6.051
 9906SOL    HW130617   3.248   3.859   5.975
 9906SOL    HW230618   3.379   3.780   6.034
 9907SOL     OW30619   1.360   6.904   2.810
 9907SOL    HW130620   1.350   6.809   2.782
 9907SOL    HW230621   1.276   6.935   2.854
 9908SOL     OW30622   6.223   3.241   5.714
 9908SOL    HW130623   6.245   3.268   5.620
 9908SOL    HW230624   6.167   3.311   5.757
 9909SOL     OW30625   3.372   6.602   2.453
 9909SOL    HW130626   3.366   6.635   2.358
 9909SOL    HW230627   3.326   6.667   2.514
 9910SOL     OW30628   0.888   5.369   0.792
 9910SOL    HW130629   0.810   5.345   0.850
 9910SOL    HW230630   0.854   5.407   0.705
 9911SOL     OW30631   3.756   4.875   2.909
 9911SOL    HW130632   3.684   4.824   2.863
 9911SOL    HW230633   3.725   4.968   2.927
 9912SOL     OW30634   4.667   6.977   0.956
 9912SOL    HW130635   4.573   6.955   0.929
 9912SOL    HW230636   4.666   0.029   1.025
 9913SOL     OW30637   5.093   2.501   3.033
 9913SOL    HW130638   5.006   2.504   2.985
 9913SOL    HW230639   5.081   2.454   3.120
 9914SOL     OW30640   2.525   5.649   4.623
 9914SOL    HW130641   2.428   5.633   4.636
 9914SOL    HW230642   2.577   5.594   4.688
 9915SOL     OW30643   6.302   4.166   4.466
 9915SOL    HW130644   6.335   4.229   4.396
 9915SOL    HW230645   6.379   4.126   4.515
 9916SOL     OW30646   2.975   3.881   0.338
 9916SOL    HW130647   2.988   3.888   0.437
 9916SOL    HW230648   2.900   3.941   0.310
 9917SOL     OW30649   2.118   3.030   4.703
 9917SOL    HW130650   2.176   3.101   4.742
 9917SOL    HW230651   2.164   2.941   4.709
 9918SOL     OW30652   2.407   0.720   4.236
 9918SOL    HW130653   2.468   0.673   4.172
 9918SOL    HW230654   2.461   0.779   4.295
 9919SOL     OW30655   0.835   5.376   1.919
 9919SOL    HW130656   0.815   5.334   1.831
 9919SOL    HW230657   0.803   5.318   1.993
 9920SOL     OW30658   4.403   6.918   2.709
 9920SOL    HW130659   4.346   6.836   2.703
 9920SOL    HW230660   4.387   6.964   2.796
 9921SOL     OW30661   4.944   0.371   2.652
 9921SOL    HW130662   4.897   0.429   2.584
 9921SOL    HW230663   5.018   0.424   2.695
 9922SOL     OW30664   5.160   2.539   2.095
 9922SOL    HW130665   5.224   2.500   2.162
 9922SOL    HW230666   5.173   2.496   2.006
 9923SOL     OW30667   5.854   0.541   6.703
 9923SOL    HW130668   5.927   0.597   6.665
 9923SOL    HW230669   5.841   0.563   6.799
 9924SOL     OW30670   5.186   1.088   4.065
 9924SOL    HW130671   5.188   1.100   3.966
 9924SOL    HW230672   5.131   1.160   4.106
 9925SOL     OW30673   3.693   2.105   4.656
 9925SOL    HW130674   3.781   2.133   4.695
 9925SOL    HW230675   3.695   2.006   4.638
 9926SOL     OW30676   1.821   0.868   5.446
 9926SOL    HW130677   1.756   0.944   5.457
 9926SOL    HW230678   1.854   0.866   5.352
 9927SOL     OW30679   0.819   2.871   3.005
 9927SOL    HW130680   0.901   2.854   2.950
 9927SOL    HW230681   0.738   2.848   2.951
 9928SOL     OW30682   6.961   3.192   2.258
 9928SOL    HW130683   0.021   3.145   2.295
 9928SOL    HW230684   6.973   3.291   2.269
 9929SOL     OW30685   0.550   5.030   5.319
 9929SOL    HW130686   0.489   5.108   5.316
 9929SOL    HW230687   0.618   5.044   5.391
 9930SOL     OW30688   6.729   5.452   6.029
 9930SOL    HW130689   6.775   5.530   6.070
 9930SOL    HW230690   6.733   5.374   6.092
 9931SOL     OW30691   1.956   4.994   6.856
 9931SOL    HW130692   2.037   4.942   6.829
 9931SOL    HW230693   1.907   4.945   6.928
 9932SOL     OW30694   2.337   2.645   1.050
 9932SOL    HW130695   2.354   2.547   1.062
 9932SOL    HW230696   2.352   2.693   1.136
 9933SOL     OW30697   0.937   1.341   2.674
 9933SOL    HW130698   0.915   1.268   2.740
 9933SOL    HW230699   0.899   1.317   2.585
 9934SOL     OW30700   5.137   0.370   6.162
 9934SOL    HW130701   5.074   0.447   6.158
 9934SOL    HW230702   5.121   0.317   6.245
 9935SOL     OW30703   2.644   2.980   0.829
 9935SOL    HW130704   2.659   2.942   0.737
 9935SOL    HW230705   2.594   2.913   0.885
 9936SOL     OW30706   4.961   6.310   0.138
 9936SOL    HW130707   4.905   6.366   0.078
 9936SOL    HW230708   4.987   6.362   0.219
 9937SOL     OW30709   1.609   6.635   3.796
 9937SOL    HW130710   1.560   6.575   3.860
 9937SOL    HW230711   1.707   6.612   3.799
 9938SOL     OW30712   6.852   1.274   3.543
 9938SOL    HW130713   6.813   1.346   3.601
 9938SOL    HW230714   6.946   1.297   3.519
 9939SOL     OW30715   2.520   3.770   1.339
 9939SOL    HW130716   2.538   3.797   1.244
 9939SOL    HW230717   2.506   3.853   1.394
 9940SOL     OW30718   0.251   0.403   3.547
 9940SOL    HW130719   0.343   0.372   3.570
 9940SOL    HW230720   0.211   0.451   3.625
 9941SOL     OW30721   5.542   3.596   0.851
 9941SOL    HW130722   5.632   3.639   0.857
 9941SOL    HW230723   5.543   3.526   0.779
 9942SOL     OW30724   6.401   5.705   2.659
 9942SOL    HW130725   6.439   5.675   2.746
 9942SOL    HW230726   6.303   5.685   2.657
 9943SOL     OW30727   1.722   3.901   5.378
 9943SOL    HW130728   1.637   3.951   5.393
 9943SOL    HW230729   1.702   3.816   5.330
 9944SOL     OW30730   2.317   5.462   6.647
 9944SOL    HW130731   2.327   5.477   6.549
 9944SOL    HW230732   2.348   5.544   6.697
 9945SOL     OW30733   6.504   3.294   6.799
 9945SOL    HW130734   6.574   3.233   6.837
 9945SOL    HW230735   6.414   3.252   6.812
 9946SOL     OW30736   5.033   2.552   1.684
 9946SOL    HW130737   5.011   2.479   1.748
 9946SOL    HW230738   5.097   2.616   1.727
 9947SOL     OW30739   1.264   1.066   2.859
 9947SOL    HW130740   1.237   1.155   2.897
 9947SOL    HW230741   1.293   1.079   2.764
 9948SOL     OW30742   5.888   0.861   5.533
 9948SOL    HW130743   5.860   0.956   5.543
 9948SOL    HW230744   5.829   0.803   5.590
 9949SOL     OW30745   6.410   3.498   2.775
 9949SOL    HW130746   6.442   3.568   2.838
 9949SOL    HW230747   6.464   3.415   2.786
 9950SOL     OW30748   4.473   5.094   6.013
 9950SOL    HW130749   4.516   5.142   6.089
 9950SOL    HW230750   4.446   5.160   5.943
 9951SOL     OW30751   0.415   2.359   3.193
 9951SOL    HW130752   0.407   2.293   3.118
 9951SOL    HW230753   0.402   2.312   3.280
 9952SOL     OW30754   1.225   4.940   1.392
 9952SOL    HW130755   1.252   4.918   1.485
 9952SOL    HW230756   1.170   4.865   1.354
 9953SOL     OW30757   6.328   4.564   4.549
 9953SOL    HW130758   6.255   4.499   4.530
 9953SOL    HW230759   6.404   4.517   4.593
 9954SOL     OW30760   4.114   1.391   1.134
 9954SOL    HW130761   4.093   1.315   1.194
 9954SOL    HW230762   4.164   1.357   1.054
 9955SOL     OW30763   6.076   4.899   0.907
 9955SOL    HW130764   6.060   4.820   0.848
 9955SOL    HW230765   6.026   4.887   0.993
 9956SOL     OW30766   1.588   3.233   3.577
 9956SOL    HW130767   1.551   3.150   3.617
 9956SOL    HW230768   1.594   3.304   3.647
 9957SOL     OW30769   5.151   6.965   0.183
 9957SOL    HW130770   5.158   6.869   0.210
 9957SOL    HW230771   5.235   7.013   0.210
 9958SOL     OW30772   5.848   6.033   6.041
 9958SOL    HW130773   5.938   6.028   6.083
 9958SOL    HW230774   5.853   6.088   5.957
 9959SOL     OW30775   5.883   4.578   0.046
 9959SOL    HW130776   5.808   4.546   7.009
 9959SOL    HW230777   5.919   4.664   0.008
 9960SOL     OW30778   6.738   0.573   6.748
 9960SOL    HW130779   6.698   0.629   6.675
 9960SOL    HW230780   6.798   0.630   6.804
 9961SOL     OW30781   3.028   6.001   0.668
 9961SOL    HW130782   3.102   6.024   0.605
 9961SOL    HW230783   3.028   6.065   0.745
 9962SOL     OW30784   3.408   0.685   1.486
 9962SOL    HW130785   3.489   0.738   1.460
 9962SOL    HW230786   3.437   0.596   1.523
 9963SOL     OW30787   1.001   0.523   6.213
 9963SOL    HW130788   0.987   0.621   6.230
 9963SOL    HW230789   0.967   0.471   6.291
 9964SOL     OW30790   4.543   5.035   5.135
 9964SOL    HW130791   4.519   5.022   5.231
 9964SOL    HW230792   4.623   4.979   5.113
 9965SOL     OW30793   2.816   4.758   4.462
 9965SOL    HW130794   2.874   4.819   4.517
 9965SOL    HW230795   2.760   4.701   4.522
 9966SOL     OW30796   3.321   6.008   2.652
 9966SOL    HW130797   3.396   6.050   2.703
 9966SOL    HW230798   3.235   6.025   2.700
 9967SOL     OW30799   0.471   0.417   2.853
 9967SOL    HW130800   0.395   0.405   2.916
 9967SOL    HW230801   0.475   0.512   2.822
 9968SOL     OW30802   4.501   6.799   6.511
 9968SOL    HW130803   4.419   6.854   6.528
 9968SOL    HW230804   4.476   6.704   6.493
 9969SOL     OW30805   0.005   5.669   3.278
 9969SOL    HW130806   0.035   5.732   3.207
 9969SOL    HW230807   6.947   5.708   3.327
 9970SOL     OW30808   6.663   3.230   2.189
 9970SOL    HW130809   6.742   3.173   2.213
 9970SOL    HW230810   6.595   3.174   2.141
 9971SOL     OW30811   0.174   5.158   4.529
 9971SOL    HW130812   0.136   5.177   4.620
 9971SOL    HW230813   0.274   5.165   4.533
 9972SOL     OW30814   2.708   4.594   5.943
 9972SOL    HW130815   2.725   4.498   5.921
 9972SOL    HW230816   2.705   4.606   6.042
 9973SOL     OW30817   3.046   1.951   2.797
 9973SOL    HW130818   3.010   1.866   2.759
 9973SOL    HW230819   3.140   1.965   2.765
 9974SOL     OW30820   0.937   2.491   3.014
 9974SOL    HW130821   0.982   2.402   3.007
 9974SOL    HW230822   0.840   2.477   3.035
 9975SOL     OW30823   2.467   4.379   6.291
 9975SOL    HW130824   2.420   4.307   6.241
 9975SOL    HW230825   2.422   4.467   6.274
 9976SOL     OW30826   3.907   6.308   5.182
 9976SOL    HW130827   3.953   6.372   5.243
 9976SOL    HW230828   3.974   6.243   5.145
 9977SOL     OW30829   4.358   0.625   5.235
 9977SOL    HW130830   4.339   0.674   5.320
 9977SOL    HW230831   4.452   0.590   5.237
 9978SOL     OW30832   0.041   2.843   0.025
 9978SOL    HW130833   0.029   2.749   7.012
 9978SOL    HW230834   0.139   2.864   0.030
 9979SOL     OW30835   3.715   3.769   4.437
 9979SOL    HW130836   3.635   3.715   4.465
 9979SOL    HW230837   3.705   3.796   4.342
 9980SOL     OW30838   0.754   0.796   0.134
 9980SOL    HW130839   0.814   0.872   0.110
 9980SOL    HW230840   0.719   0.809   0.227
 9981SOL     OW30841   5.446   0.743   0.121
 9981SOL    HW130842   5.492   0.669   0.170
 9981SOL    HW230843   5.348   0.735   0.134
 9982SOL     OW30844   2.705   2.394   4.359
 9982SOL    HW130845   2.733   2.353   4.446
 9982SOL    HW230846   2.773   2.371   4.288
 9983SOL     OW30847   0.552   3.248   2.139
 9983SOL    HW130848   0.528   3.152   2.128
 9983SOL    HW230849   0.622   3.273   2.072
 9984SOL     OW30850   0.605   4.713   1.090
 9984SOL    HW130851   0.606   4.787   1.158
 9984SOL    HW230852   0.511   4.683   1.075
 9985SOL     OW30853   4.729   4.725   0.164
 9985SOL    HW130854   4.811   4.722   0.220
 9985SOL    HW230855   4.738   4.662   0.087
 9986SOL     OW30856   5.184   5.006   0.521
 9986SOL    HW130857   5.132   5.086   0.551
 9986SOL    HW230858   5.204   4.948   0.600
 9987SOL     OW30859   5.098   2.105   1.242
 9987SOL    HW130860   5.011   2.075   1.203
 9987SOL    HW230861   5.097   2.089   1.341
 9988SOL     OW30862   6.128   6.510   3.470
 9988SOL    HW130863   6.211   6.494   3.524
 9988SOL    HW230864   6.138   6.594   3.417
 9989SOL     OW30865   6.606   5.532   1.959
 9989SOL    HW130866   6.613   5.619   1.911
 9989SOL    HW230867   6.697   5.503   1.989
 9990SOL     OW30868   0.197   6.161   3.331
 9990SOL    HW130869   0.231   6.221   3.258
 9990SOL    HW230870   0.246   6.181   3.416
 9991SOL     OW30871   2.194   4.354   2.293
 9991SOL    HW130872   2.111   4.380   2.242
 9991SOL    HW230873   2.270   4.413   2.265
 9992SOL     OW30874   2.547   5.303   0.423
 9992SOL    HW130875   2.589   5.272   0.508
 9992SOL    HW230876   2.493   5.385   0.441
 9993SOL     OW30877   4.405   0.148   4.842
 9993SOL    HW130878   4.313   0.109   4.845
 9993SOL    HW230879   4.405   0.237   4.888
 9994SOL     OW30880   6.236   5.304   4.816
 9994SOL    HW130881   6.224   5.260   4.905
 9994SOL    HW230882   6.247   5.233   4.746
 9995SOL     OW30883   4.363   1.852   6.088
 9995SOL    HW130884   4.277   1.899   6.071
 9995SOL    HW230885   4.346   1.768   6.141
 9996SOL     OW30886   2.767   4.390   1.110
 9996SOL    HW130887   2.805   4.394   1.202
 9996SOL    HW230888   2.796   4.470   1.058
 9997SOL     OW30889   6.724   1.402   3.122
 9997SOL    HW130890   6.640   1.380   3.072
 9997SOL    HW230891   6.778   1.467   3.068
 9998SOL     OW30892   5.017   4.044   2.378
 9998SOL    HW130893   5.050   4.122   2.430
 9998SOL    HW230894   4.936   4.070   2.326
 9999SOL     OW30895   0.495   6.973   4.648
 9999SOL    HW130896   0.422   0.020   4.632
 9999SOL    HW230897   0.571   7.017   4.694
10000SOL     OW30898   4.532   2.239   1.350
10000SOL    HW130899   4.613   2.276   1.303
10000SOL    HW230900   4.474   2.192   1.285
10001SOL     OW30901   4.155   6.141   1.721
10001SOL    HW130902   4.163   6.170   1.626
10001SOL    HW230903   4.084   6.072   1.729
10002SOL     OW30904   2.317   6.779   2.068
10002SOL    HW130905   2.370   6.701   2.101
10002SOL    HW230906   2.376   6.837   2.012
10003SOL     OW30907   1.562   1.292   2.618
10003SOL    HW130908   1.512   1.206   2.622
10003SOL    HW230909   1.580   1.317   2.523
10004SOL     OW30910   0.266   3.959   3.776
10004SOL    HW130911   0.312   3.966   3.687
10004SOL    HW230912   0.244   4.050   3.809
10005SOL     OW30913   2.558   5.717   3.343
10005SOL    HW130914   2.613   5.635   3.355
10005SOL    HW230915   2.475   5.711   3.400
10006SOL     OW30916   5.390   1.607   5.288
10006SOL    HW130917   5.303   1.589   5.241
10006SOL    HW230918   5.466   1.584   5.227
10007SOL     OW30919   1.575   5.199   3.958
10007SOL    HW130920   1.641   5.145   4.009
10007SOL    HW230921   1.576   5.172   3.862
10008SOL     OW30922   4.601   0.912   6.022
10008SOL    HW130923   4.528   0.849   6.047
10008SOL    HW230924   4.630   0.894   5.928
10009SOL     OW30925   0.778   5.012   2.372
10009SOL    HW130926   0.793   5.102   2.412
10009SOL    HW230927   0.736   5.022   2.282
10010SOL     OW30928   1.957   4.280   1.430
10010SOL    HW130929   1.883   4.213   1.445
10010SOL    HW230930   1.933   4.339   1.353
10011SOL     OW30931   2.887   2.957   0.266
10011SOL    HW130932   2.911   3.041   0.313
10011SOL    HW230933   2.789   2.938   0.279
10012SOL     OW30934   5.416   1.928   3.591
10012SOL    HW130935   5.371   1.978   3.665
10012SOL    HW230936   5.441   1.991   3.518
10013SOL     OW30937   0.697   6.553   4.418
10013SOL    HW130938   0.667   6.506   4.335
10013SOL    HW230939   0.628   6.620   4.445
10014SOL     OW30940   1.164   0.871   3.328
10014SOL    HW130941   1.158   0.961   3.286
10014SOL    HW230942   1.106   0.869   3.410
10015SOL     OW30943   3.912   6.932   6.441
10015SOL    HW130944   3.890   6.972   6.352
10015SOL    HW230945   3.954   6.843   6.428
10016SOL     OW30946   2.518   1.304   4.521
10016SOL    HW130947   2.563   1.277   4.435
10016SOL    HW230948   2.513   1.225   4.582
10017SOL     OW30949   3.089   1.518   2.673
10017SOL    HW130950   3.106   1.553   2.581
10017SOL    HW230951   3.007   1.561   2.711
10018SOL     OW30952   0.079   3.861   5.394
10018SOL    HW130953   0.017   3.936   5.414
10018SOL    HW230954   0.026   3.781   5.366
10019SOL     OW30955   7.018   2.029   1.972
10019SOL    HW130956   6.984   2.090   1.900
10019SOL    HW230957   0.095   2.008   1.954
10020SOL     OW30958   6.869   1.136   2.202
10020SOL    HW130959   6.947   1.078   2.181
10020SOL    HW230960   6.834   1.113   2.293
10021SOL     OW30961   0.767   3.237   1.960
10021SOL    HW130962   0.818   3.152   1.972
10021SOL    HW230963   0.830   3.311   1.935
10022SOL     OW30964   1.331   6.385   5.819
10022SOL    HW130965   1.422   6.362   5.851
10022SOL    HW230966   1.305   6.475   5.854
10023SOL     OW30967   0.077   1.694   6.000
10023SOL    HW130968   0.147   1.624   6.013
10023SOL    HW230969   0.100   1.775   6.055
10024SOL     OW30970   2.080   4.376   2.897
10024SOL    HW130971   2.085   4.475   2.914
10024SOL    HW230972   1.984   4.347   2.903
10025SOL     OW30973   0.944   3.098   1.215
10025SOL    HW130974   1.035   3.056   1.212
10025SOL    HW230975   0.930   3.152   1.132
10026SOL     OW30976   5.616   1.064   5.260
10026SOL    HW130977   5.703   1.105   5.288
10026SOL    HW230978   5.541   1.118   5.298
10027SOL     OW30979   3.440   1.716   5.162
10027SOL    HW130980   3.444   1.623   5.126
10027SOL    HW230981   3.433   1.781   5.086
10028SOL     OW30982   4.380   6.967   2.057
10028SOL    HW130983   4.382   0.030   2.001
10028SOL    HW230984   4.473   6.935   2.073
10029SOL     OW30985   0.041   4.589   4.364
10029SOL    HW130986   0.002   4.525   4.299
10029SOL    HW230987   0.118   4.637   4.322
10030SOL     OW30988   2.573   0.194   4.449
10030SOL    HW130989   2.597   0.179   4.545
10030SOL    HW230990   2.491   0.250   4.443
10031SOL     OW30991   2.115   6.184   2.855
10031SOL    HW130992   2.096   6.139   2.767
10031SOL    HW230993   2.140   6.116   2.923
10032SOL     OW30994   3.340   5.911   4.823
10032SOL    HW130995   3.261   5.864   4.863
10032SOL    HW230996   3.410   5.844   4.801
10033SOL     OW30997   3.456   1.160   4.998
10033SOL    HW130998   3.497   1.083   4.950
10033SOL    HW230999   3.375   1.129   5.048
10034SOL     OW31000   2.459   1.201   2.622
10034SOL    HW131001   2.412   1.277   2.577
10034SOL    HW231002   2.555   1.223   2.634
10035SOL     OW31003   6.714   2.995   2.409
10035SOL    HW131004   6.756   3.081   2.436
10035SOL    HW231005   6.690   2.941   2.490
10036SOL     OW31006   1.154   1.253   6.881
10036SOL    HW131007   1.160   1.316   6.804
10036SOL    HW231008   1.110   1.298   6.959
10037SOL     OW31009   5.569   6.403   6.305
10037SOL    HW131010   5.481   6.408   6.352
10037SOL    HW231011   5.616   6.491   6.313
10038SOL     OW31012   4.517   6.541   6.404
10038SOL    HW131013   4.613   6.540   6.378
10038SOL    HW231014   4.463   6.497   6.333
10039SOL     OW31015   0.338   5.966   2.046
10039SOL    HW131016   0.323   5.999   1.953
10039SOL    HW231017   0.264   6.000   2.105
10040SOL     OW31018   2.358   0.163   0.558
10040SOL    HW131019   2.284   0.167   0.625
10040SOL    HW231020   2.424   0.093   0.584
10041SOL     OW31021   5.582   5.442   4.918
10041SOL    HW131022   5.626   5.497   4.989
10041SOL    HW231023   5.484   5.434   4.938
10042SOL     OW31024   6.434   0.590   5.348
10042SOL    HW131025   6.400   0.497   5.360
10042SOL    HW231026   6.417   0.643   5.431
10043SOL     OW31027   0.670   0.700   3.834
10043SOL    HW131028   0.605   0.770   3.806
10043SOL    HW231029   0.673   0.695   3.934
10044SOL     OW31030   3.111   1.871   0.331
10044SOL    HW131031   3.039   1.866   0.261
10044SOL    HW231032   3.158   1.959   0.324
10045SOL     OW31033   4.348   6.757   4.632
10045SOL    HW131034   4.292   6.786   4.554
10045SOL    HW231035   4.305   6.786   4.717
10046SOL     OW31036   6.204   2.472   1.578
10046SOL    HW131037   6.138   2.420   1.525
10046SOL    HW231038   6.183   2.570   1.570
10047SOL     OW31039   0.388   2.153   3.372
10047SOL    HW131040   0.407   2.130   3.467
10047SOL    HW231041   0.375   2.069   3.319
10048SOL     OW31042   3.602   2.585   1.727
10048SOL    HW131043   3.667   2.638   1.671
10048SOL    HW231044   3.653   2.523   1.786
10049SOL     OW31045   1.961   6.341   4.487
10049SOL    HW131046   1.987   6.326   4.392
10049SOL    HW231047   1.953   6.440   4.504
10050SOL     OW31048   5.488   1.471   4.397
10050SOL    HW131049   5.526   1.389   4.441
10050SOL    HW231050   5.491   1.460   4.298
10051SOL     OW31051   6.384   1.922   0.041
10051SOL    HW131052   6.336   1.984   0.103
10051SOL    HW231053   6.316   1.868   7.010
10052SOL     OW31054   1.226   4.343   1.869
10052SOL    HW131055   1.135   4.354   1.909
10052SOL    HW231056   1.224   4.270   1.801
10053SOL     OW31057   3.180   6.576   3.212
10053SOL    HW131058   3.202   6.674   3.208
10053SOL    HW231059   3.193   6.535   3.122
10054SOL     OW31060   4.463   5.716   4.176
10054SOL    HW131061   4.496   5.810   4.180
10054SOL    HW231062   4.539   5.655   4.154
10055SOL     OW31063   6.647   3.264   6.434
10055SOL    HW131064   6.692   3.211   6.505
10055SOL    HW231065   6.638   3.359   6.463
10056SOL     OW31066   6.689   4.838   1.980
10056SOL    HW131067   6.695   4.918   2.040
10056SOL    HW231068   6.600   4.837   1.934
10057SOL     OW31069   2.526   2.158   3.703
10057SOL    HW131070   2.621   2.167   3.730
10057SOL    HW231071   2.467   2.176   3.782
10058SOL     OW31072   0.877   4.257   3.890
10058SOL    HW131073   0.956   4.209   3.852
10058SOL    HW231074   0.878   4.352   3.861
10059SOL     OW31075   5.803   6.786   1.463
10059SOL    HW131076   5.794   6.791   1.364
10059SOL    HW231077   5.750   6.709   1.498
10060SOL     OW31078   2.181   2.751   2.352
10060SOL    HW131079   2.261   2.695   2.329
10060SOL    HW231080   2.098   2.704   2.324
10061SOL     OW31081   6.233   1.970   4.653
10061SOL    HW131082   6.211   2.068   4.655
10061SOL    HW231083   6.183   1.923   4.727
10062SOL     OW31084   5.968   5.577   3.421
10062SOL    HW131085   5.899   5.644   3.447
10062SOL    HW231086   5.936   5.485   3.446
10063SOL     OW31087   1.056   2.759   2.915
10063SOL    HW131088   1.150   2.741   2.884
10063SOL    HW231089   1.020   2.678   2.960
10064SOL     OW31090   5.624   6.234   4.866
10064SOL    HW131091   5.593   6.162   4.804
10064SOL    HW231092   5.660   6.193   4.950
10065SOL     OW31093   0.455   6.545   3.235
10065SOL    HW131094   0.455   6.565   3.333
10065SOL    HW231095   0.369   6.500   3.211
10066SOL     OW31096   0.617   0.578   3.571
10066SOL    HW131097   0.585   0.649   3.509
10066SOL    HW231098   0.638   0.619   3.660
10067SOL     OW31099   4.623   6.819   3.473
10067SOL    HW131100   4.634   6.911   3.434
10067SOL    HW231101   4.611   6.826   3.572
10068SOL     OW31102   5.057   3.766   5.752
10068SOL    HW131103   4.959   3.762   5.731
10068SOL    HW231104   5.108   3.715   5.683
10069SOL     OW31105   4.734   1.192   3.697
10069SOL    HW131106   4.734   1.292   3.703
10069SOL    HW231107   4.696   1.164   3.609
10070SOL     OW31108   0.948   6.737   4.588
10070SOL    HW131109   0.854   6.702   4.588
10070SOL    HW231110   0.971   6.770   4.679
10071SOL     OW31111   5.291   5.359   5.131
10071SOL    HW131112   5.192   5.352   5.136
10071SOL    HW231113   5.330   5.270   5.106
10072SOL     OW31114   1.068   6.796   3.765
10072SOL    HW131115   1.122   6.738   3.826
10072SOL    HW231116   1.129   6.846   3.704
10073SOL     OW31117   0.526   5.032   6.792
10073SOL    HW131118   0.432   5.015   6.822
10073SOL    HW231119   0.575   4.945   6.785
10074SOL     OW31120   2.428   6.582   5.656
10074SOL    HW131121   2.399   6.498   5.702
10074SOL    HW231122   2.429   6.657   5.722
10075SOL     OW31123   1.693   2.501   3.879
10075SOL    HW131124   1.783   2.545   3.879
10075SOL    HW231125   1.635   2.543   3.949
10076SOL     OW31126   5.320   0.362   4.592
10076SOL    HW131127   5.416   0.333   4.597
10076SOL    HW231128   5.276   0.317   4.515
10077SOL     OW31129   3.520   1.139   6.696
10077SOL    HW131130   3.588   1.207   6.669
10077SOL    HW231131   3.486   1.092   6.614
10078SOL     OW31132   5.697   6.398   5.300
10078SOL    HW131133   5.602   6.392   5.271
10078SOL    HW231134   5.732   6.306   5.320
10079SOL     OW31135   6.600   3.261   6.103
10079SOL    HW131136   6.664   3.207   6.047
10079SOL    HW231137   6.646   3.291   6.186
10080SOL     OW31138   1.411   2.455   6.396
10080SOL    HW131139   1.383   2.549   6.375
10080SOL    HW231140   1.337   2.408   6.444
10081SOL     OW31141   0.476   1.215   6.847
10081SOL    HW131142   0.547   1.209   6.777
10081SOL    HW231143   0.428   1.127   6.853
10082SOL     OW31144   6.383   1.134   0.739
10082SOL    HW131145   6.322   1.057   0.756
10082SOL    HW231146   6.449   1.141   0.814
10083SOL     OW31147   5.041   1.094   4.467
10083SOL    HW131148   5.061   1.010   4.416
10083SOL    HW231149   5.072   1.173   4.413
10084SOL     OW31150   2.428   0.902   6.219
10084SOL    HW131151   2.498   0.862   6.161
10084SOL    HW231152   2.338   0.891   6.177
10085SOL     OW31153   0.741   5.578   2.506
10085SOL    HW131154   0.781   5.610   2.420
10085SOL    HW231155   0.706   5.657   2.557
10086SOL     OW31156   6.449   3.759   2.337
10086SOL    HW131157   6.467   3.841   2.391
10086SOL    HW231158   6.426   3.785   2.243
10087SOL     OW31159   1.665   0.173   3.739
10087SOL    HW131160   1.667   0.179   3.839
10087SOL    HW231161   1.586   0.224   3.704
10088SOL     OW31162   6.744   0.244   5.173
10088SOL    HW131163   6.678   0.313   5.201
10088SOL    HW231164   6.829   0.256   5.224
10089SOL     OW31165   1.636   3.151   2.365
10089SOL    HW131166   1.721   3.113   2.329
10089SOL    HW231167   1.588   3.081   2.417
10090SOL     OW31168   0.507   4.340   1.589
10090SOL    HW131169   0.534   4.296   1.675
10090SOL    HW231170   0.539   4.285   1.512
10091SOL     OW31171   0.527   2.287   4.287
10091SOL    HW131172   0.592   2.211   4.286
10091SOL    HW231173   0.541   2.345   4.207
10092SOL     OW31174   1.802   3.341   4.757
10092SOL    HW131175   1.817   3.247   4.787
10092SOL    HW231176   1.833   3.352   4.662
10093SOL     OW31177   6.893   5.035   6.185
10093SOL    HW131178   6.969   5.062   6.244
10093SOL    HW231179   6.875   4.938   6.197
10094SOL     OW31180   1.596   1.076   1.902
10094SOL    HW131181   1.589   1.175   1.902
10094SOL    HW231182   1.650   1.045   1.824
10095SOL     OW31183   0.670   1.014   6.109
10095SOL    HW131184   0.727   1.092   6.082
10095SOL    HW231185   0.596   1.002   6.043
10096SOL     OW31186   0.615   4.542   1.945
10096SOL    HW131187   0.643   4.532   1.849
10096SOL    HW231188   0.619   4.638   1.972
10097SOL     OW31189   0.998   2.544   6.514
10097SOL    HW131190   1.051   2.627   6.529
10097SOL    HW231191   0.902   2.567   6.502
10098SOL     OW31192   3.222   4.737   6.601
10098SOL    HW131193   3.163   4.789   6.539
10098SOL    HW231194   3.188   4.643   6.608
10099SOL     OW31195   6.549   4.444   4.636
10099SOL    HW131196   6.563   4.439   4.735
10099SOL    HW231197   6.618   4.504   4.595
10100SOL     OW31198   5.504   0.781   5.527
10100SOL    HW131199   5.418   0.765   5.574
10100SOL    HW231200   5.580   0.755   5.587
10101SOL     OW31201   0.005   4.637   2.028
10101SOL    HW131202   0.080   4.571   2.031
10101SOL    HW231203   6.992   4.654   2.121
10102SOL     OW31204   4.099   1.159   3.071
10102SOL    HW131205   4.086   1.098   2.993
10102SOL    HW231206   4.034   1.137   3.143
10103SOL     OW31207   2.643   1.883   0.133
10103SOL    HW131208   2.596   1.941   0.200
10103SOL    HW231209   2.742   1.888   0.148
10104SOL     OW31210   1.856   5.713   5.084
10104SOL    HW131211   1.919   5.751   5.151
10104SOL    HW231212   1.787   5.657   5.130
10105SOL     OW31213   3.039   0.460   6.514
10105SOL    HW131214   3.050   0.361   6.515
10105SOL    HW231215   2.986   0.488   6.435
10106SOL     OW31216   5.620   5.591   0.249
10106SOL    HW131217   5.718   5.596   0.268
10106SOL    HW231218   5.605   5.545   0.162
10107SOL     OW31219   5.662   0.702   6.022
10107SOL    HW131220   5.716   0.780   5.991
10107SOL    HW231221   5.619   0.724   6.110
10108SOL     OW31222   5.771   6.411   6.907
10108SOL    HW131223   5.777   6.316   6.877
10108SOL    HW231224   5.710   6.461   6.846
10109SOL     OW31225   4.774   5.194   3.341
10109SOL    HW131226   4.731   5.204   3.431
10109SOL    HW231227   4.772   5.098   3.313
10110SOL     OW31228   3.368   1.640   5.823
10110SOL    HW131229   3.435   1.696   5.775
10110SOL    HW231230   3.330   1.691   5.899
10111SOL     OW31231   0.712   2.694   2.682
10111SOL    HW131232   0.657   2.637   2.743
10111SOL    HW231233   0.652   2.747   2.622
10112SOL     OW31234   3.986   4.090   6.257
10112SOL    HW131235   3.912   4.038   6.298
10112SOL    HW231236   3.962   4.187   6.257
10113SOL     OW31237   3.444   6.469   7.012
10113SOL    HW131238   3.469   6.538   0.059
10113SOL    HW231239   3.461   6.504   6.920
10114SOL     OW31240   3.993   1.845   1.111
10114SOL    HW131241   3.994   1.761   1.165
10114SOL    HW231242   3.907   1.894   1.127
10115SOL     OW31243   0.963   1.869   3.834
10115SOL    HW131244   0.948   1.814   3.916
10115SOL    HW231245   0.885   1.930   3.821
10116SOL     OW31246   0.799   0.951   1.055
10116SOL    HW131247   0.800   0.964   0.956
10116SOL    HW231248   0.706   0.927   1.084
10117SOL     OW31249   5.158   0.604   5.864
10117SOL    HW131250   5.206   0.646   5.787
10117SOL    HW231251   5.071   0.567   5.831
10118SOL     OW31252   6.640   4.781   2.909
10118SOL    HW131253   6.682   4.853   2.854
10118SOL    HW231254   6.610   4.820   2.996
10119SOL     OW31255   2.629   6.978   5.419
10119SOL    HW131256   2.633   0.055   5.395
10119SOL    HW231257   2.577   6.929   5.349
10120SOL     OW31258   6.118   2.633   3.753
10120SOL    HW131259   6.159   2.673   3.835
10120SOL    HW231260   6.176   2.650   3.674
10121SOL     OW31261   6.279   5.038   4.016
10121SOL    HW131262   6.348   5.054   4.086
10121SOL    HW231263   6.202   5.099   4.031
10122SOL     OW31264   5.477   3.010   0.251
10122SOL    HW131265   5.468   3.078   0.324
10122SOL    HW231266   5.574   2.994   0.232
10123SOL     OW31267   0.134   6.774   0.300
10123SOL    HW131268   0.154   6.758   0.204
10123SOL    HW231269   0.062   6.711   0.330
10124SOL     OW31270   3.001   4.260   0.630
10124SOL    HW131271   3.066   4.327   0.666
10124SOL    HW231272   2.972   4.199   0.704
10125SOL     OW31273   1.104   0.235   1.306
10125SOL    HW131274   1.015   0.270   1.276
10125SOL    HW231275   1.128   0.275   1.394
10126SOL     OW31276   5.879   5.013   0.250
10126SOL    HW131277   5.802   4.976   0.302
10126SOL    HW231278   5.956   5.030   0.312
10127SOL     OW31279   3.491   4.604   5.323
10127SOL    HW131280   3.496   4.507   5.350
10127SOL    HW231281   3.563   4.655   5.369
10128SOL     OW31282   0.200   2.147   1.492
10128SOL    HW131283   0.173   2.091   1.413
10128SOL    HW231284   0.261   2.220   1.462
10129SOL     OW31285   5.395   2.416   3.132
10129SOL    HW131286   5.350   2.479   3.069
10129SOL    HW231287   5.345   2.413   3.219
10130SOL     OW31288   6.945   5.049   2.145
10130SOL    HW131289   6.913   4.960   2.177
10130SOL    HW231290   6.934   5.055   2.046
10131SOL     OW31291   6.459   0.768   0.943
10131SOL    HW131292   6.512   0.685   0.960
10131SOL    HW231293   6.479   0.836   1.013
10132SOL     OW31294   2.934   0.006   2.596
10132SOL    HW131295   2.903   6.949   2.540
10132SOL    HW231296   2.895   7.018   2.688
10133SOL     OW31297   4.892   5.327   3.136
10133SOL    HW131298   4.870   5.265   3.061
10133SOL    HW231299   4.869   5.283   3.223
10134SOL     OW31300   0.261   1.360   2.322
10134SOL    HW131301   0.253   1.446   2.372
10134SOL    HW231302   0.241   1.284   2.383
10135SOL     OW31303   3.310   5.956   3.030
10135SOL    HW131304   3.377   6.002   2.972
10135SOL    HW231305   3.357   5.892   3.090
10136SOL     OW31306   6.374   6.919   2.086
10136SOL    HW131307   6.383   7.010   2.044
10136SOL    HW231308   6.283   6.911   2.127
10137SOL     OW31309   5.745   4.872   4.551
10137SOL    HW131310   5.676   4.809   4.586
10137SOL    HW231311   5.724   4.896   4.457
10138SOL     OW31312   5.602   2.350   6.694
10138SOL    HW131313   5.580   2.301   6.610
10138SOL    HW231314   5.677   2.304   6.741
10139SOL     OW31315   3.844   3.079   3.378
10139SOL    HW131316   3.901   3.112   3.453
10139SOL    HW231317   3.798   2.994   3.405
10140SOL     OW31318   0.387   4.563   5.558
10140SOL    HW131319   0.293   4.595   5.571
10140SOL    HW231320   0.425   4.604   5.475
10141SOL     OW31321   2.071   0.608   4.106
10141SOL    HW131322   2.074   0.700   4.066
10141SOL    HW231323   2.030   0.544   4.041
10142SOL     OW31324   5.339   5.996   4.697
10142SOL    HW131325   5.395   5.913   4.694
10142SOL    HW231326   5.370   6.060   4.628
10143SOL     OW31327   5.320   6.143   1.101
10143SOL    HW131328   5.229   6.155   1.060
10143SOL    HW231329   5.328   6.050   1.135
10144SOL     OW31330   2.971   5.132   3.486
10144SOL    HW131331   3.025   5.138   3.570
10144SOL    HW231332   2.873   5.133   3.510
10145SOL     OW31333   2.925   6.243   6.018
10145SOL    HW131334   2.934   6.159   5.965
10145SOL    HW231335   3.014   6.269   6.055
10146SOL     OW31336   4.917   4.692   4.671
10146SOL    HW131337   4.971   4.613   4.641
10146SOL    HW231338   4.884   4.742   4.592
10147SOL     OW31339   5.304   5.240   4.752
10147SOL    HW131340   5.349   5.172   4.809
10147SOL    HW231341   5.252   5.303   4.811
10148SOL     OW31342   5.547   5.110   0.866
10148SOL    HW131343   5.461   5.152   0.837
10148SOL    HW231344   5.608   5.099   0.788
10149SOL     OW31345   3.781   3.629   0.922
10149SOL    HW131346   3.748   3.723   0.926
10149SOL    HW231347   3.876   3.629   0.890
10150SOL     OW31348   4.883   4.730   1.447
10150SOL    HW131349   4.923   4.752   1.536
10150SOL    HW231350   4.956   4.717   1.380
10151SOL     OW31351   1.318   6.523   5.461
10151SOL    HW131352   1.404   6.567   5.487
10151SOL    HW231353   1.299   6.447   5.523
10152SOL     OW31354   0.391   5.117   3.564
10152SOL    HW131355   0.462   5.157   3.622
10152SOL    HW231356   0.389   5.166   3.477
10153SOL     OW31357   5.467   6.850   3.673
10153SOL    HW131358   5.437   6.770   3.724
10153SOL    HW231359   5.505   6.918   3.736
10154SOL     OW31360   6.471   5.575   5.517
10154SOL    HW131361   6.384   5.560   5.470
10154SOL    HW231362   6.504   5.489   5.555
10155SOL     OW31363   4.145   1.498   6.478
10155SOL    HW131364   4.103   1.477   6.389
10155SOL    HW231365   4.126   1.593   6.502
10156SOL     OW31366   5.831   0.178   2.403
10156SOL    HW131367   5.887   0.199   2.484
10156SOL    HW231368   5.822   0.079   2.394
10157SOL     OW31369   5.187   0.795   6.071
10157SOL    HW131370   5.137   0.719   6.029
10157SOL    HW231371   5.272   0.811   6.020
10158SOL     OW31372   4.261   3.842   6.394
10158SOL    HW131373   4.222   3.921   6.441
10158SOL    HW231374   4.209   3.824   6.311
10159SOL     OW31375   1.351   1.318   6.344
10159SOL    HW131376   1.390   1.286   6.431
10159SOL    HW231377   1.253   1.300   6.343
10160SOL     OW31378   0.831   5.754   3.354
10160SOL    HW131379   0.785   5.819   3.294
10160SOL    HW231380   0.925   5.786   3.371
10161SOL     OW31381   2.564   5.837   5.572
10161SOL    HW131382   2.633   5.893   5.617
10161SOL    HW231383   2.482   5.891   5.555
10162SOL     OW31384   3.327   1.957   0.001
10162SOL    HW131385   3.236   1.929   6.989
10162SOL    HW231386   3.393   1.942   6.947
10163SOL     OW31387   6.446   2.835   5.530
10163SOL    HW131388   6.437   2.901   5.456
10163SOL    HW231389   6.375   2.765   5.521
10164SOL     OW31390   0.608   2.619   5.690
10164SOL    HW131391   0.633   2.549   5.623
10164SOL    HW231392   0.655   2.601   5.776
10165SOL     OW31393   6.839   1.996   3.484
10165SOL    HW131394   6.841   2.084   3.435
10165SOL    HW231395   6.761   1.994   3.546
10166SOL     OW31396   1.216   0.899   2.305
10166SOL    HW131397   1.242   0.803   2.293
10166SOL    HW231398   1.270   0.956   2.243
10167SOL     OW31399   4.471   0.814   0.362
10167SOL    HW131400   4.412   0.737   0.386
10167SOL    HW231401   4.498   0.863   0.445
10168SOL     OW31402   6.794   4.080   4.387
10168SOL    HW131403   6.871   4.116   4.335
10168SOL    HW231404   6.721   4.149   4.391
10169SOL     OW31405   6.374   4.362   4.258
10169SOL    HW131406   6.351   4.337   4.164
10169SOL    HW231407   6.349   4.457   4.274
10170SOL     OW31408   1.603   4.100   4.586
10170SOL    HW131409   1.664   4.063   4.516
10170SOL    HW231410   1.565   4.025   4.640
10171SOL     OW31411   6.075   3.546   6.161
10171SOL    HW131412   6.092   3.452   6.130
10171SOL    HW231413   5.978   3.559   6.177
10172SOL     OW31414   4.866   1.779   3.294
10172SOL    HW131415   4.946   1.741   3.249
10172SOL    HW231416   4.895   1.849   3.360
10173SOL     OW31417   2.149   1.584   2.339
10173SOL    HW131418   2.228   1.603   2.280
10173SOL    HW231419   2.065   1.605   2.289
10174SOL     OW31420   6.302   4.715   1.206
10174SOL    HW131421   6.333   4.714   1.111
10174SOL    HW231422   6.369   4.764   1.262
10175SOL     OW31423   6.197   2.221   6.129
10175SOL    HW131424   6.232   2.301   6.081
10175SOL    HW231425   6.274   2.166   6.162
10176SOL     OW31426   2.436   4.399   0.180
10176SOL    HW131427   2.507   4.329   0.184
10176SOL    HW231428   2.401   4.416   0.272
10177SOL     OW31429   1.534   0.094   6.129
10177SOL    HW131430   1.563   0.189   6.140
10177SOL    HW231431   1.450   0.091   6.073
10178SOL     OW31432   5.602   2.334   4.406
10178SOL    HW131433   5.527   2.344   4.340
10178SOL    HW231434   5.675   2.279   4.365
10179SOL     OW31435   1.446   3.312   6.921
10179SOL    HW131436   1.390   3.385   6.882
10179SOL    HW231437   1.417   3.293   7.014
10180SOL     OW31438   2.635   6.273   5.350
10180SOL    HW131439   2.580   6.210   5.406
10180SOL    HW231440   2.684   6.336   5.411
10181SOL     OW31441   5.396   3.174   1.051
10181SOL    HW131442   5.329   3.185   0.978
10181SOL    HW231443   5.473   3.119   1.017
10182SOL     OW31444   5.387   1.111   0.747
10182SOL    HW131445   5.470   1.086   0.796
10182SOL    HW231446   5.308   1.095   0.805
10183SOL     OW31447   1.409   2.099   6.595
10183SOL    HW131448   1.481   2.030   6.593
10183SOL    HW231449   1.447   2.188   6.569
10184SOL     OW31450   4.410   0.712   6.013
10184SOL    HW131451   4.364   0.673   5.933
10184SOL    HW231452   4.476   0.646   6.049
10185SOL     OW31453   4.962   0.347   6.911
10185SOL    HW131454   5.026   0.393   6.849
10185SOL    HW231455   5.008   0.268   6.953
10186SOL     OW31456   4.353   2.299   3.257
10186SOL    HW131457   4.315   2.328   3.170
10186SOL    HW231458   4.346   2.199   3.265
10187SOL     OW31459   1.028   2.159   2.096
10187SOL    HW131460   1.014   2.184   2.001
10187SOL    HW231461   0.941   2.166   2.145
10188SOL     OW31462   3.397   5.593   1.233
10188SOL    HW131463   3.487   5.604   1.191
10188SOL    HW231464   3.339   5.538   1.173
10189SOL     OW31465   1.293   6.695   4.925
10189SOL    HW131466   1.274   6.604   4.887
10189SOL    HW231467   1.352   6.685   5.005
10190SOL     OW31468   5.577   2.681   0.343
10190SOL    HW131469   5.592   2.701   0.246
10190SOL    HW231470   5.562   2.767   0.392
10191SOL     OW31471   6.502   4.439   0.021
10191SOL    HW131472   6.418   4.388   0.039
10191SOL    HW231473   6.480   4.536   0.010
10192SOL     OW31474   3.178   1.238   6.295
10192SOL    HW131475   3.246   1.291   6.345
10192SOL    HW231476   3.139   1.294   6.222
10193SOL     OW31477   4.551   3.871   0.320
10193SOL    HW131478   4.475   3.807   0.320
10193SOL    HW231479   4.623   3.838   0.380
10194SOL     OW31480   5.272   3.522   5.882
10194SOL    HW131481   5.341   3.542   5.951
10194SOL    HW231482   5.202   3.593   5.883
10195SOL     OW31483   6.564   4.100   1.783
10195SOL    HW131484   6.598   4.193   1.769
10195SOL    HW231485   6.471   4.092   1.748
10196SOL     OW31486   0.811   1.906   4.900
10196SOL    HW131487   0.895   1.941   4.860
10196SOL    HW231488   0.750   1.982   4.923
10197SOL     OW31489   5.752   0.845   6.500
10197SOL    HW131490   5.831   0.839   6.561
10197SOL    HW231491   5.700   0.760   6.505
10198SOL     OW31492   3.926   7.015   3.639
10198SOL    HW131493   3.957   6.927   3.676
10198SOL    HW231494   3.973   0.070   3.686
10199SOL     OW31495   0.934   2.537   5.472
10199SOL    HW131496   0.941   2.637   5.472
10199SOL    HW231497   1.018   2.499   5.434
10200SOL     OW31498   5.693   2.470   1.314
10200SOL    HW131499   5.602   2.433   1.295
10200SOL    HW231500   5.684   2.550   1.374
10201SOL     OW31501   1.017   3.504   0.999
10201SOL    HW131502   1.098   3.498   0.941
10201SOL    HW231503   0.964   3.420   0.991
10202SOL     OW31504   4.070   0.611   4.561
10202SOL    HW131505   4.165   0.621   4.592
10202SOL    HW231506   4.034   0.701   4.538
10203SOL     OW31507   6.464   2.909   4.730
10203SOL    HW131508   6.449   2.891   4.633
10203SOL    HW231509   6.377   2.905   4.779
10204SOL     OW31510   5.848   5.460   6.261
10204SOL    HW131511   5.772   5.412   6.216
10204SOL    HW231512   5.935   5.429   6.222
10205SOL     OW31513   1.408   0.814   5.888
10205SOL    HW131514   1.322   0.847   5.848
10205SOL    HW231515   1.426   0.865   5.973
10206SOL     OW31516   1.482   0.847   4.681
10206SOL    HW131517   1.383   0.841   4.692
10206SOL    HW231518   1.527   0.818   4.766
10207SOL     OW31519   2.068   2.391   5.201
10207SOL    HW131520   2.009   2.433   5.270
10207SOL    HW231521   2.102   2.304   5.235
10208SOL     OW31522   6.602   5.296   5.573
10208SOL    HW131523   6.681   5.276   5.631
10208SOL    HW231524   6.634   5.321   5.481
10209SOL     OW31525   0.108   0.029   5.379
10209SOL    HW131526   0.015   0.002   5.402
10209SOL    HW231527   0.107   0.122   5.342
10210SOL     OW31528   3.046   6.837   1.878
10210SOL    HW131529   2.976   6.907   1.865
10210SOL    HW231530   3.003   6.747   1.884
10211SOL     OW31531   5.350   5.981   5.905
10211SOL    HW131532   5.274   6.031   5.862
10211SOL    HW231533   5.325   5.958   6.000
10212SOL     OW31534   0.420   0.847   6.690
10212SOL    HW131535   0.480   0.820   6.765
10212SOL    HW231536   0.414   0.771   6.624
10213SOL     OW31537   6.425   1.512   1.038
10213SOL    HW131538   6.399   1.579   1.108
10213SOL    HW231539   6.468   1.559   0.961
10214SOL     OW31540   0.871   2.247   0.360
10214SOL    HW131541   0.926   2.310   0.305
10214SOL    HW231542   0.836   2.173   0.303
10215SOL     OW31543   3.299   3.250   2.255
10215SOL    HW131544   3.350   3.335   2.240
10215SOL    HW231545   3.201   3.270   2.261
10216SOL     OW31546   0.492   6.286   2.102
10216SOL    HW131547   0.406   6.247   2.135
10216SOL    HW231548   0.563   6.215   2.102
10217SOL     OW31549   3.724   1.303   4.637
10217SOL    HW131550   3.696   1.283   4.543
10217SOL    HW231551   3.643   1.319   4.693
10218SOL     OW31552   1.511   2.979   2.513
10218SOL    HW131553   1.477   2.910   2.449
10218SOL    HW231554   1.524   2.936   2.603
10219SOL     OW31555   6.549   6.073   3.319
10219SOL    HW131556   6.614   6.044   3.249
10219SOL    HW231557   6.457   6.043   3.294
10220SOL     OW31558   3.562   2.800   0.702
10220SOL    HW131559   3.579   2.794   0.604
10220SOL    HW231560   3.540   2.894   0.727
10221SOL     OW31561   0.853   5.023   4.117
10221SOL    HW131562   0.885   5.102   4.064
10221SOL    HW231563   0.835   4.947   4.055
10222SOL     OW31564   3.089   3.504   4.447
10222SOL    HW131565   3.028   3.459   4.382
10222SOL    HW231566   3.180   3.463   4.440
10223SOL     OW31567   0.926   6.133   0.886
10223SOL    HW131568   0.883   6.076   0.815
10223SOL    HW231569   0.867   6.211   0.906
10224SOL     OW31570   6.013   4.179   2.918
10224SOL    HW131571   6.090   4.191   2.855
10224SOL    HW231572   5.935   4.142   2.868
10225SOL     OW31573   2.306   4.091   5.659
10225SOL    HW131574   2.316   4.101   5.560
10225SOL    HW231575   2.302   3.993   5.682
10226SOL     OW31576   5.114   2.858   0.120
10226SOL    HW131577   5.017   2.848   0.142
10226SOL    HW231578   5.137   2.955   0.111
10227SOL     OW31579   5.389   3.479   1.051
10227SOL    HW131580   5.429   3.518   0.968
10227SOL    HW231581   5.411   3.381   1.056
10228SOL     OW31582   5.248   0.801   0.595
10228SOL    HW131583   5.246   0.889   0.548
10228SOL    HW231584   5.330   0.751   0.568
10229SOL     OW31585   6.962   3.272   5.136
10229SOL    HW131586   6.963   3.200   5.067
10229SOL    HW231587   0.037   3.297   5.159
10230SOL     OW31588   0.272   6.443   1.955
10230SOL    HW131589   0.336   6.376   1.993
10230SOL    HW231590   0.263   6.427   1.856
10231SOL     OW31591   0.688   5.382   2.709
10231SOL    HW131592   0.729   5.449   2.647
10231SOL    HW231593   0.737   5.384   2.796
10232SOL     OW31594   5.190   4.748   3.903
10232SOL    HW131595   5.123   4.697   3.956
10232SOL    HW231596   5.195   4.843   3.936
10233SOL     OW31597   3.141   3.940   5.823
10233SOL    HW131598   3.130   4.032   5.787
10233SOL    HW231599   3.062   3.884   5.799
10234SOL     OW31600   0.511   1.310   2.233
10234SOL    HW131601   0.574   1.384   2.256
10234SOL    HW231602   0.418   1.335   2.262
10235SOL     OW31603   1.480   0.927   3.477
10235SOL    HW131604   1.540   0.910   3.399
10235SOL    HW231605   1.455   1.024   3.479
10236SOL     OW31606   2.161   6.901   2.245
10236SOL    HW131607   2.067   6.918   2.215
10236SOL    HW231608   2.213   6.859   2.170
10237SOL     OW31609   0.352   3.450   4.839
10237SOL    HW131610   0.286   3.497   4.781
10237SOL    HW231611   0.444   3.484   4.821
10238SOL     OW31612   3.016   6.891   1.496
10238SOL    HW131613   2.951   6.823   1.529
10238SOL    HW231614   2.993   6.981   1.535
10239SOL     OW31615   0.720   2.107   4.320
10239SOL    HW131616   0.734   2.061   4.232
10239SOL    HW231617   0.680   2.043   4.385
10240SOL     OW31618   1.966   6.619   0.751
10240SOL    HW131619   1.989   6.606   0.847
10240SOL    HW231620   1.889   6.683   0.743
10241SOL     OW31621   4.101   3.036   1.367
10241SOL    HW131622   4.083   3.133   1.356
10241SOL    HW231623   4.111   2.994   1.277
10242SOL     OW31624   0.100   3.000   6.780
10242SOL    HW131625   0.163   2.952   6.841
10242SOL    HW231626   0.149   3.072   6.731
10243SOL     OW31627   2.639   5.637   1.278
10243SOL    HW131628   2.675   5.573   1.346
10243SOL    HW231629   2.704   5.646   1.203
10244SOL     OW31630   2.422   5.010   1.717
10244SOL    HW131631   2.475   4.998   1.801
10244SOL    HW231632   2.382   4.923   1.691
10245SOL     OW31633   4.857   4.223   0.952
10245SOL    HW131634   4.817   4.236   1.043
10245SOL    HW231635   4.809   4.280   0.886
10246SOL     OW31636   3.214   3.010   4.377
10246SOL    HW131637   3.297   3.066   4.375
10246SOL    HW231638   3.239   2.914   4.365
10247SOL     OW31639   0.730   2.840   3.939
10247SOL    HW131640   0.684   2.899   4.005
10247SOL    HW231641   0.754   2.753   3.982
10248SOL     OW31642   1.094   1.086   4.277
10248SOL    HW131643   1.009   1.033   4.269
10248SOL    HW231644   1.121   1.119   4.186
10249SOL     OW31645   2.735   4.904   6.038
10249SOL    HW131646   2.688   4.864   5.960
10249SOL    HW231647   2.814   4.956   6.006
10250SOL     OW31648   4.017   2.485   0.624
10250SOL    HW131649   4.008   2.417   0.697
10250SOL    HW231650   3.948   2.557   0.636
10251SOL     OW31651   1.636   0.587   4.442
10251SOL    HW131652   1.555   0.557   4.492
10251SOL    HW231653   1.609   0.647   4.367
10252SOL     OW31654   5.513   4.549   6.145
10252SOL    HW131655   5.559   4.623   6.194
10252SOL    HW231656   5.580   4.496   6.093
10253SOL     OW31657   3.317   5.986   6.592
10253SOL    HW131658   3.284   6.072   6.631
10253SOL    HW231659   3.282   5.909   6.645
10254SOL     OW31660   5.943   1.771   5.834
10254SOL    HW131661   5.878   1.806   5.767
10254SOL    HW231662   5.922   1.676   5.854
10255SOL     OW31663   4.067   4.418   1.622
10255SOL    HW131664   4.158   4.442   1.655
10255SOL    HW231665   4.007   4.499   1.629
10256SOL     OW31666   3.806   1.168   3.694
10256SOL    HW131667   3.895   1.125   3.676
10256SOL    HW231668   3.776   1.217   3.612
10257SOL     OW31669   3.850   5.849   3.053
10257SOL    HW131670   3.889   5.764   3.090
10257SOL    HW231671   3.917   5.891   2.991
10258SOL     OW31672   2.126   1.337   2.100
10258SOL    HW131673   2.226   1.335   2.101
10258SOL    HW231674   2.094   1.379   2.016
10259SOL     OW31675   1.964   4.061   4.143
10259SOL    HW131676   1.869   4.079   4.118
10259SOL    HW231677   1.973   4.062   4.243
10260SOL     OW31678   0.548   0.630   3.093
10260SOL    HW131679   0.624   0.625   3.158
10260SOL    HW231680   0.467   0.586   3.132
10261SOL     OW31681   0.120   3.816   0.659
10261SOL    HW131682   0.139   3.880   0.734
10261SOL    HW231683   0.173   3.733   0.673
10262SOL     OW31684   4.224   1.509   0.463
10262SOL    HW131685   4.257   1.436   0.403
10262SOL    HW231686   4.236   1.597   0.418
10263SOL     OW31687   5.837   0.718   2.399
10263SOL    HW131688   5.756   0.707   2.456
10263SOL    HW231689   5.870   0.628   2.370
10264SOL     OW31690   6.614   0.130   6.722
10264SOL    HW131691   6.677   0.198   6.686
10264SOL    HW231692   6.638   0.040   6.687
10265SOL     OW31693   2.199   1.984   0.766
10265SOL    HW131694   2.289   2.025   0.782
10265SOL    HW231695   2.206   1.884   0.774
10266SOL     OW31696   2.507   3.421   1.682
10266SOL    HW131697   2.544   3.504   1.640
10266SOL    HW231698   2.427   3.444   1.738
10267SOL     OW31699   5.698   0.591   1.118
10267SOL    HW131700   5.644   0.615   1.199
10267SOL    HW231701   5.740   0.674   1.080
10268SOL     OW31702   3.761   6.289   1.954
10268SOL    HW131703   3.680   6.233   1.939
10268SOL    HW231704   3.795   6.323   1.866
10269SOL     OW31705   2.882   2.117   0.677
10269SOL    HW131706   2.980   2.112   0.695
10269SOL    HW231707   2.867   2.160   0.588
10270SOL     OW31708   3.227   0.531   3.292
10270SOL    HW131709   3.286   0.608   3.267
10270SOL    HW231710   3.253   0.451   3.239
10271SOL     OW31711   1.628   1.862   6.256
10271SOL    HW131712   1.689   1.891   6.329
10271SOL    HW231713   1.681   1.837   6.175
10272SOL     OW31714   6.173   0.308   4.497
10272SOL    HW131715   6.112   0.382   4.469
10272SOL    HW231716   6.241   0.344   4.561
10273SOL     OW31717   2.350   5.274   3.977
10273SOL    HW131718   2.306   5.295   4.064
10273SOL    HW231719   2.299   5.201   3.931
10274SOL     OW31720   1.114   4.845   5.337
10274SOL    HW131721   1.078   4.862   5.429
10274SOL    HW231722   1.208   4.812   5.343
10275SOL     OW31723   6.639   0.791   2.141
10275SOL    HW131724   6.712   0.731   2.173
10275SOL    HW231725   6.636   0.873   2.197
10276SOL     OW31726   3.760   5.343   5.073
10276SOL    HW131727   3.824   5.419   5.062
10276SOL    HW231728   3.811   5.258   5.083
10277SOL     OW31729   1.027   5.625   4.023
10277SOL    HW131730   0.931   5.603   4.003
10277SOL    HW231731   1.050   5.590   4.114
10278SOL     OW31732   6.544   0.092   5.314
10278SOL    HW131733   6.641   0.112   5.329
10278SOL    HW231734   6.488   0.144   5.378
10279SOL     OW31735   1.518   6.431   3.962
10279SOL    HW131736   1.586   6.390   4.023
10279SOL    HW231737   1.430   6.386   3.976
10280SOL     OW31738   6.610   4.644   0.200
10280SOL    HW131739   6.582   4.555   0.163
10280SOL    HW231740   6.677   4.630   0.273
10281SOL     OW31741   6.268   1.279   3.555
10281SOL    HW131742   6.251   1.205   3.620
10281SOL    HW231743   6.211   1.358   3.579
10282SOL     OW31744   4.957   3.413   3.189
10282SOL    HW131745   4.986   3.394   3.283
10282SOL    HW231746   4.881   3.353   3.165
10283SOL     OW31747   1.377   2.713   1.027
10283SOL    HW131748   1.334   2.662   0.953
10283SOL    HW231749   1.436   2.784   0.989
10284SOL     OW31750   0.096   3.840   4.316
10284SOL    HW131751   0.095   3.866   4.220
10284SOL    HW231752   0.176   3.880   4.361
10285SOL     OW31753   5.972   6.382   5.558
10285SOL    HW131754   5.909   6.449   5.598
10285SOL    HW231755   5.942   6.290   5.584
10286SOL     OW31756   2.976   1.676   3.411
10286SOL    HW131757   3.016   1.587   3.431
10286SOL    HW231758   3.048   1.739   3.381
10287SOL     OW31759   2.220   5.894   3.302
10287SOL    HW131760   2.179   5.803   3.305
10287SOL    HW231761   2.245   5.917   3.208
10288SOL     OW31762   4.061   6.520   5.241
10288SOL    HW131763   4.071   6.606   5.292
10288SOL    HW231764   4.032   6.540   5.147
10289SOL     OW31765   3.108   5.541   6.962
10289SOL    HW131766   3.051   5.469   6.924
10289SOL    HW231767   3.053   5.600   0.001
10290SOL     OW31768   3.742   2.802   1.896
10290SOL    HW131769   3.748   2.763   1.988
10290SOL    HW231770   3.676   2.749   1.842
10291SOL     OW31771   2.374   1.605   2.175
10291SOL    HW131772   2.400   1.587   2.080
10291SOL    HW231773   2.440   1.668   2.217
10292SOL     OW31774   6.645   6.875   5.642
10292SOL    HW131775   6.614   6.781   5.629
10292SOL    HW231776   6.736   6.886   5.603
10293SOL     OW31777   1.362   4.506   4.723
10293SOL    HW131778   1.350   4.537   4.629
10293SOL    HW231779   1.436   4.439   4.727
10294SOL     OW31780   3.363   1.144   1.960
10294SOL    HW131781   3.356   1.149   2.059
10294SOL    HW231782   3.444   1.092   1.934
10295SOL     OW31783   1.182   1.955   6.584
10295SOL    HW131784   1.143   1.920   6.499
10295SOL    HW231785   1.274   1.990   6.566
10296SOL     OW31786   6.083   1.158   5.704
10296SOL    HW131787   5.987   1.182   5.692
10296SOL    HW231788   6.135   1.241   5.727
10297SOL     OW31789   3.246   1.277   7.014
10297SOL    HW131790   3.296   1.190   0.002
10297SOL    HW231791   3.202   1.298   0.081
10298SOL     OW31792   0.271   2.458   2.447
10298SOL    HW131793   0.262   2.403   2.530
10298SOL    HW231794   0.368   2.463   2.421
10299SOL     OW31795   4.436   0.064   3.106
10299SOL    HW131796   4.490   7.015   3.058
10299SOL    HW231797   4.340   0.035   3.110
10300SOL     OW31798   1.253   4.103   1.723
10300SOL    HW131799   1.302   4.030   1.771
10300SOL    HW231800   1.156   4.080   1.718
10301SOL     OW31801   3.812   0.608   6.997
10301SOL    HW131802   3.903   0.642   7.019
10301SOL    HW231803   3.790   0.632   6.902
10302SOL     OW31804   2.914   6.155   5.193
10302SOL    HW131805   2.999   6.156   5.141
10302SOL    HW231806   2.909   6.238   5.250
10303SOL     OW31807   0.403   5.384   4.501
10303SOL    HW131808   0.333   5.441   4.544
10303SOL    HW231809   0.392   5.386   4.402
10304SOL     OW31810   5.990   6.443   0.828
10304SOL    HW131811   5.918   6.499   0.788
10304SOL    HW231812   5.954   6.353   0.853
10305SOL     OW31813   3.466   4.155   5.826
10305SOL    HW131814   3.403   4.201   5.888
10305SOL    HW231815   3.508   4.077   5.873
10306SOL     OW31816   3.752   0.547   1.069
10306SOL    HW131817   3.679   0.601   1.027
10306SOL    HW231818   3.791   0.485   1.001
10307SOL     OW31819   2.223   0.400   5.668
10307SOL    HW131820   2.143   0.341   5.660
10307SOL    HW231821   2.222   0.447   5.756
10308SOL     OW31822   2.856   4.766   2.202
10308SOL    HW131823   2.767   4.783   2.244
10308SOL    HW231824   2.844   4.711   2.119
10309SOL     OW31825   0.304   0.994   4.914
10309SOL    HW131826   0.343   0.932   4.847
10309SOL    HW231827   0.371   1.013   4.986
10310SOL     OW31828   2.007   4.113   5.574
10310SOL    HW131829   2.093   4.141   5.614
10310SOL    HW231830   1.983   4.174   5.498
10311SOL     OW31831   4.851   5.620   6.801
10311SOL    HW131832   4.850   5.520   6.805
10311SOL    HW231833   4.899   5.656   6.881
10312SOL     OW31834   4.582   0.360   2.087
10312SOL    HW131835   4.497   0.400   2.122
10312SOL    HW231836   4.561   0.296   2.013
10313SOL     OW31837   5.396   6.696   3.136
10313SOL    HW131838   5.473   6.637   3.108
10313SOL    HW231839   5.426   6.756   3.210
10314SOL     OW31840   0.514   6.993   1.277
10314SOL    HW131841   0.564   6.946   1.204
10314SOL    HW231842   0.417   6.994   1.255
10315SOL     OW31843   5.629   5.316   3.678
10315SOL    HW131844   5.543   5.333   3.725
10315SOL    HW231845   5.667   5.402   3.644
10316SOL     OW31846   0.207   1.926   6.798
10316SOL    HW131847   0.291   1.976   6.777
10316SOL    HW231848   0.140   1.989   6.837
10317SOL     OW31849   3.756   5.835   4.995
10317SOL    HW131850   3.792   5.928   4.984
10317SOL    HW231851   3.780   5.781   4.914
10318SOL     OW31852   6.689   0.102   0.050
10318SOL    HW131853   6.722   0.098   0.145
10318SOL    HW231854   6.759   0.146   7.013
10319SOL     OW31855   0.624   4.171   3.774
10319SOL    HW131856   0.613   4.085   3.723
10319SOL    HW231857   0.717   4.205   3.764
10320SOL     OW31858   0.510   6.412   3.800
10320SOL    HW131859   0.503   6.324   3.752
10320SOL    HW231860   0.514   6.486   3.732
10321SOL     OW31861   5.134   2.630   2.468
10321SOL    HW131862   5.164   2.566   2.397
10321SOL    HW231863   5.210   2.691   2.491
10322SOL     OW31864   4.571   4.511   4.835
10322SOL    HW131865   4.574   4.580   4.763
10322SOL    HW231866   4.491   4.527   4.893
10323SOL     OW31867   0.902   4.242   5.909
10323SOL    HW131868   0.845   4.264   5.988
10323SOL    HW231869   0.846   4.200   5.838
10324SOL     OW31870   3.036   3.463   1.755
10324SOL    HW131871   3.029   3.399   1.832
10324SOL    HW231872   3.049   3.411   1.670
10325SOL     OW31873   6.590   5.674   3.815
10325SOL    HW131874   6.662   5.620   3.771
10325SOL    HW231875   6.501   5.643   3.784
10326SOL     OW31876   5.392   3.550   6.703
10326SOL    HW131877   5.309   3.518   6.657
10326SOL    HW231878   5.375   3.638   6.746
10327SOL     OW31879   1.902   4.433   1.225
10327SOL    HW131880   1.977   4.496   1.204
10327SOL    HW231881   1.826   4.485   1.264
10328SOL     OW31882   5.685   2.066   2.574
10328SOL    HW131883   5.672   2.035   2.479
10328SOL    HW231884   5.782   2.081   2.591
10329SOL     OW31885   3.817   1.917   2.976
10329SOL    HW131886   3.830   1.844   2.909
10329SOL    HW231887   3.744   1.978   2.946
10330SOL     OW31888   5.075   0.933   1.805
10330SOL    HW131889   5.091   0.948   1.707
10330SOL    HW231890   5.008   0.861   1.818
10331SOL     OW31891   6.193   5.491   5.937
10331SOL    HW131892   6.237   5.426   5.875
10331SOL    HW231893   6.257   5.516   6.010
10332SOL     OW31894   1.780   1.144   6.360
10332SOL    HW131895   1.680   1.145   6.351
10332SOL    HW231896   1.819   1.096   6.281
10333SOL     OW31897   1.230   4.103   4.139
10333SOL    HW131898   1.149   4.045   4.150
10333SOL    HW231899   1.200   4.199   4.129
10334SOL     OW31900   3.456   1.055   3.482
10334SOL    HW131901   3.362   1.023   3.497
10334SOL    HW231902   3.500   1.068   3.571
10335SOL     OW31903   0.777   2.250   5.122
10335SOL    HW131904   0.818   2.309   5.052
10335SOL    HW231905   0.847   2.220   5.186
10336SOL     OW31906   5.216   0.019   3.479
10336SOL    HW131907   5.241   6.963   3.419
10336SOL    HW231908   5.133   7.015   3.529
10337SOL     OW31909   6.396   5.584   6.973
10337SOL    HW131910   6.461   5.526   6.923
10337SOL    HW231911   6.394   5.675   6.933
10338SOL     OW31912   1.433   6.431   1.816
10338SOL    HW131913   1.527   6.408   1.791
10338SOL    HW231914   1.424   6.432   1.915
10339SOL     OW31915   6.052   2.628   6.036
10339SOL    HW131916   6.125   2.690   6.064
10339SOL    HW231917   6.091   2.544   5.999
10340SOL     OW31918   2.605   3.420   6.417
10340SOL    HW131919   2.606   3.482   6.339
10340SOL    HW231920   2.542   3.455   6.486
10341SOL     OW31921   2.074   3.525   3.141
10341SOL    HW131922   2.120   3.437   3.136
10341SOL    HW231923   2.099   3.581   3.062
10342SOL     OW31924   0.274   1.015   4.119
10342SOL    HW131925   0.318   1.100   4.150
10342SOL    HW231926   0.344   0.953   4.083
10343SOL     OW31927   3.398   5.603   2.160
10343SOL    HW131928   3.387   5.524   2.101
10343SOL    HW231929   3.456   5.579   2.238
10344SOL     OW31930   4.155   5.847   5.982
10344SOL    HW131931   4.130   5.863   5.887
10344SOL    HW231932   4.254   5.852   5.992
10345SOL     OW31933   1.872   3.556   4.333
10345SOL    HW131934   1.893   3.649   4.363
10345SOL    HW231935   1.952   3.519   4.285
10346SOL     OW31936   6.840   5.961   0.054
10346SOL    HW131937   6.743   5.946   0.075
10346SOL    HW231938   6.876   6.033   0.114
10347SOL     OW31939   4.837   1.742   4.433
10347SOL    HW131940   4.902   1.676   4.394
10347SOL    HW231941   4.746   1.726   4.393
10348SOL     OW31942   6.381   4.437   0.738
10348SOL    HW131943   6.393   4.403   0.645
10348SOL    HW231944   6.466   4.481   0.769
10349SOL     OW31945   1.014   0.035   6.429
10349SOL    HW131946   1.069   0.091   6.489
10349SOL    HW231947   1.022   0.068   6.335
10350SOL     OW31948   2.949   6.902   6.049
10350SOL    HW131949   3.045   6.874   6.056
10350SOL    HW231950   2.896   6.830   6.004
10351SOL     OW31951   4.198   5.308   6.694
10351SOL    HW131952   4.137   5.386   6.708
10351SOL    HW231953   4.247   5.318   6.608
10352SOL     OW31954   3.196   3.921   6.294
10352SOL    HW131955   3.210   3.898   6.197
10352SOL    HW231956   3.268   3.984   6.324
10353SOL     OW31957   0.970   2.981   4.633
10353SOL    HW131958   0.953   2.897   4.583
10353SOL    HW231959   0.920   2.979   4.720
10354SOL     OW31960   5.284   1.729   1.476
10354SOL    HW131961   5.299   1.791   1.399
10354SOL    HW231962   5.231   1.776   1.547
10355SOL     OW31963   1.389   5.042   2.814
10355SOL    HW131964   1.371   5.091   2.899
10355SOL    HW231965   1.402   4.945   2.834
10356SOL     OW31966   0.384   2.566   4.501
10356SOL    HW131967   0.286   2.570   4.520
10356SOL    HW231968   0.422   2.658   4.500
10357SOL     OW31969   2.570   2.280   0.323
10357SOL    HW131970   2.554   2.297   0.226
10357SOL    HW231971   2.570   2.181   0.340
10358SOL     OW31972   0.198   1.415   2.059
10358SOL    HW131973   0.220   1.404   2.156
10358SOL    HW231974   0.259   1.356   2.005
10359SOL     OW31975   0.574   1.389   1.278
10359SOL    HW131976   0.658   1.389   1.333
10359SOL    HW231977   0.535   1.481   1.278
10360SOL     OW31978   0.020   5.949   3.145
10360SOL    HW131979   6.940   5.940   3.145
10360SOL    HW231980   0.044   6.046   3.149
10361SOL     OW31981   1.646   4.957   1.522
10361SOL    HW131982   1.718   4.910   1.575
10361SOL    HW231983   1.610   5.033   1.576
10362SOL     OW31984   1.528   5.313   4.587
10362SOL    HW131985   1.437   5.355   4.584
10362SOL    HW231986   1.561   5.300   4.493
10363SOL     OW31987   6.144   0.428   3.340
10363SOL    HW131988   6.051   0.465   3.349
10363SOL    HW231989   6.185   0.461   3.254
10364SOL     OW31990   1.441   4.492   1.273
10364SOL    HW131991   1.536   4.499   1.304
10364SOL    HW231992   1.402   4.405   1.302
10365SOL     OW31993   4.491   6.168   6.971
10365SOL    HW131994   4.425   6.237   6.941
10365SOL    HW231995   4.583   6.205   6.962
10366SOL     OW31996   3.660   6.701   3.905
10366SOL    HW131997   3.713   6.663   3.980
10366SOL    HW231998   3.671   6.644   3.823
10367SOL     OW31999   6.614   2.164   3.224
10367SOL    HW132000   6.696   2.179   3.279
10367SOL    HW232001   6.533   2.185   3.279
10368SOL     OW32002   2.780   0.179   0.963
10368SOL    HW132003   2.815   0.087   0.973
10368SOL    HW232004   2.683   0.181   0.990
10369SOL     OW32005   4.492   3.043   0.262
10369SOL    HW132006   4.467   2.951   0.290
10369SOL    HW232007   4.591   3.056   0.275
10370SOL     OW32008   3.958   0.620   5.324
10370SOL    HW132009   3.997   0.681   5.256
10370SOL    HW232010   3.895   0.672   5.382
10371SOL     OW32011   5.142   6.526   5.751
10371SOL    HW132012   5.142   6.489   5.844
10371SOL    HW232013   5.233   6.559   5.728
10372SOL     OW32014   1.146   0.522   3.490
10372SOL    HW132015   1.174   0.458   3.561
10372SOL    HW232016   1.186   0.612   3.508
10373SOL     OW32017   1.391   5.503   4.960
10373SOL    HW132018   1.321   5.520   5.029
10373SOL    HW232019   1.361   5.428   4.901
10374SOL     OW32020   2.773   2.243   4.591
10374SOL    HW132021   2.864   2.235   4.631
10374SOL    HW232022   2.705   2.203   4.652
10375SOL     OW32023   0.114   1.791   0.525
10375SOL    HW132024   0.081   1.751   0.440
10375SOL    HW232025   0.073   1.881   0.538
10376SOL     OW32026   6.420   0.702   3.443
10376SOL    HW132027   6.438   0.788   3.395
10376SOL    HW232028   6.465   0.627   3.394
10377SOL     OW32029   0.532   6.737   4.525
10377SOL    HW132030   0.523   6.826   4.569
10377SOL    HW232031   0.442   6.697   4.511
10378SOL     OW32032   6.524   6.889   5.889
10378SOL    HW132033   6.588   6.895   5.812
10378SOL    HW232034   6.511   6.793   5.914
10379SOL     OW32035   4.900   1.603   4.686
10379SOL    HW132036   4.945   1.519   4.656
10379SOL    HW232037   4.898   1.669   4.611
10380SOL     OW32038   4.530   0.809   3.599
10380SOL    HW132039   4.587   0.730   3.576
10380SOL    HW232040   4.522   0.869   3.520
10381SOL     OW32041   4.394   5.312   4.950
10381SOL    HW132042   4.390   5.375   4.872
10381SOL    HW232043   4.485   5.316   4.991
10382SOL     OW32044   1.826   5.997   0.390
10382SOL    HW132045   1.902   5.945   0.351
10382SOL    HW232046   1.832   5.996   0.490
10383SOL     OW32047   5.685   2.600   6.819
10383SOL    HW132048   5.704   2.653   6.736
10383SOL    HW232049   5.652   2.509   6.794
10384SOL     OW32050   6.316   0.668   6.795
10384SOL    HW132051   6.373   0.630   6.868
10384SOL    HW232052   6.221   0.642   6.812
10385SOL     OW32053   5.811   2.271   6.855
10385SOL    HW132054   5.899   2.235   6.824
10385SOL    HW232055   5.780   2.220   6.934
10386SOL     OW32056   6.712   2.073   6.273
10386SOL    HW132057   6.691   1.978   6.298
10386SOL    HW232058   6.630   2.116   6.234
10387SOL     OW32059   2.024   3.982   2.609
10387SOL    HW132060   2.005   4.073   2.571
10387SOL    HW232061   2.101   3.941   2.560
10388SOL     OW32062   1.668   5.085   2.460
10388SOL    HW132063   1.751   5.095   2.515
10388SOL    HW232064   1.665   4.994   2.419
10389SOL     OW32065   0.665   5.223   3.634
10389SOL    HW132066   0.749   5.220   3.688
10389SOL    HW232067   0.682   5.185   3.543
10390SOL     OW32068   2.138   3.443   3.452
10390SOL    HW132069   2.125   3.414   3.547
10390SOL    HW232070   2.081   3.387   3.392
10391SOL     OW32071   3.711   6.192   5.007
10391SOL    HW132072   3.764   6.259   5.058
10391SOL    HW232073   3.773   6.137   4.951
10392SOL     OW32074   6.598   5.295   6.702
10392SOL    HW132075   6.614   5.364   6.772
10392SOL    HW232076   6.684   5.248   6.680
10393SOL     OW32077   1.100   1.137   4.012
10393SOL    HW132078   1.142   1.206   3.953
10393SOL    HW232079   1.143   1.048   3.995
10394SOL     OW32080   3.011   6.668   0.406
10394SOL    HW132081   2.922   6.711   0.418
10394SOL    HW232082   2.999   6.574   0.374
10395SOL     OW32083   1.259   1.422   4.882
10395SOL    HW132084   1.237   1.333   4.842
10395SOL    HW232085   1.338   1.462   4.835
10396SOL     OW32086   0.868   6.615   4.906
10396SOL    HW132087   0.891   6.520   4.888
10396SOL    HW232088   0.772   6.621   4.933
10397SOL     OW32089   4.205   2.012   2.432
10397SOL    HW132090   4.182   1.946   2.360
10397SOL    HW232091   4.138   2.086   2.431
10398SOL     OW32092   6.736   3.741   2.011
10398SOL    HW132093   6.800   3.676   1.970
10398SOL    HW232094   6.716   3.713   2.105
10399SOL     OW32095   6.126   2.760   5.655
10399SOL    HW132096   6.087   2.776   5.746
10399SOL    HW232097   6.078   2.817   5.588
10400SOL     OW32098   1.638   4.852   1.974
10400SOL    HW132099   1.663   4.830   1.880
10400SOL    HW232100   1.582   4.934   1.976
10401SOL     OW32101   0.817   5.423   0.524
10401SOL    HW132102   0.732   5.436   0.473
10401SOL    HW232103   0.852   5.331   0.509
10402SOL     OW32104   0.990   2.205   4.438
10402SOL    HW132105   0.964   2.222   4.533
10402SOL    HW232106   0.924   2.247   4.376
10403SOL     OW32107   4.717   1.117   2.202
10403SOL    HW132108   4.780   1.087   2.273
10403SOL    HW232109   4.752   1.090   2.113
10404SOL     OW32110   0.183   6.861   4.008
10404SOL    HW132111   0.127   6.930   4.053
10404SOL    HW232112   0.125   6.806   3.948
10405SOL     OW32113   2.054   6.492   6.478
10405SOL    HW132114   1.996   6.561   6.523
10405SOL    HW232115   2.009   6.403   6.481
10406SOL     OW32116   1.964   5.940   5.897
10406SOL    HW132117   1.890   5.985   5.847
10406SOL    HW232118   2.012   5.876   5.837
10407SOL     OW32119   2.074   1.318   6.235
10407SOL    HW132120   1.984   1.323   6.192
10407SOL    HW232121   2.063   1.297   6.332
10408SOL     OW32122   4.180   6.057   3.438
10408SOL    HW132123   4.085   6.026   3.442
10408SOL    HW232124   4.188   6.133   3.373
10409SOL     OW32125   6.666   4.551   2.562
10409SOL    HW132126   6.591   4.558   2.628
10409SOL    HW232127   6.682   4.455   2.540
10410SOL     OW32128   5.810   6.289   0.500
10410SOL    HW132129   5.908   6.299   0.519
10410SOL    HW232130   5.772   6.220   0.561
10411SOL     OW32131   1.556   4.591   2.386
10411SOL    HW132132   1.567   4.492   2.392
10411SOL    HW232133   1.459   4.614   2.387
10412SOL     OW32134   0.048   2.114   6.594
10412SOL    HW132135   0.071   2.183   6.663
10412SOL    HW232136   7.008   2.045   6.634
10413SOL     OW32137   0.324   1.902   5.821
10413SOL    HW132138   0.239   1.938   5.861
10413SOL    HW232139   0.395   1.972   5.827
10414SOL     OW32140   5.419   6.429   4.930
10414SOL    HW132141   5.498   6.369   4.916
10414SOL    HW232142   5.335   6.374   4.923
10415SOL     OW32143   0.113   5.559   2.962
10415SOL    HW132144   0.171   5.635   2.990
10415SOL    HW232145   0.023   5.593   2.935
10416SOL     OW32146   4.671   6.956   0.101
10416SOL    HW132147   4.630   0.027   0.104
10416SOL    HW232148   4.733   6.950   0.022
10417SOL     OW32149   4.025   5.044   4.457
10417SOL    HW132150   4.052   4.974   4.391
10417SOL    HW232151   4.011   5.131   4.409
10418SOL     OW32152   6.529   3.748   6.877
10418SOL    HW132153   6.582   3.811   6.934
10418SOL    HW232154   6.446   3.721   6.926
10419SOL     OW32155   1.888   0.698   4.457
10419SOL    HW132156   1.796   0.659   4.446
10419SOL    HW232157   1.955   0.623   4.461
10420SOL     OW32158   5.762   3.347   4.793
10420SOL    HW132159   5.844   3.388   4.832
10420SOL    HW232160   5.754   3.252   4.823
10421SOL     OW32161   1.318   4.463   4.053
10421SOL    HW132162   1.229   4.423   4.076
10421SOL    HW232163   1.332   4.456   3.954
10422SOL     OW32164   5.624   3.100   5.409
10422SOL    HW132165   5.696   3.170   5.406
10422SOL    HW232166   5.554   3.126   5.475
10423SOL     OW32167   2.738   5.409   3.949
10423SOL    HW132168   2.753   5.496   3.902
10423SOL    HW232169   2.791   5.407   4.033
10424SOL     OW32170   4.015   1.300   1.778
10424SOL    HW132171   4.062   1.237   1.840
10424SOL    HW232172   4.050   1.392   1.792
10425SOL     OW32173   1.356   3.969   0.563
10425SOL    HW132174   1.400   3.880   0.572
10425SOL    HW232175   1.326   3.983   0.468
10426SOL     OW32176   6.053   2.364   6.450
10426SOL    HW132177   6.143   2.406   6.449
10426SOL    HW232178   6.040   2.310   6.367
10427SOL     OW32179   6.012   0.888   3.040
10427SOL    HW132180   6.015   0.982   3.007
10427SOL    HW232181   5.950   0.883   3.119
10428SOL     OW32182   1.637   6.559   4.882
10428SOL    HW132183   1.613   6.551   4.979
10428SOL    HW232184   1.554   6.565   4.828
10429SOL     OW32185   2.021   3.935   1.764
10429SOL    HW132186   2.090   3.974   1.704
10429SOL    HW232187   2.060   3.860   1.817
10430SOL     OW32188   3.589   0.158   4.701
10430SOL    HW132189   3.559   0.083   4.642
10430SOL    HW232190   3.651   0.122   4.771
10431SOL     OW32191   4.083   1.639   4.080
10431SOL    HW132192   3.992   1.680   4.079
10431SOL    HW232193   4.120   1.640   4.173
10432SOL     OW32194   1.350   5.334   0.235
10432SOL    HW132195   1.291   5.256   0.211
10432SOL    HW232196   1.294   5.405   0.277
10433SOL     OW32197   4.136   6.420   3.834
10433SOL    HW132198   4.175   6.395   3.923
10433SOL    HW232199   4.067   6.352   3.808
10434SOL     OW32200   4.133   1.264   6.215
10434SOL    HW132201   4.113   1.361   6.223
10434SOL    HW232202   4.154   1.242   6.120
10435SOL     OW32203   2.356   1.632   1.528
10435SOL    HW132204   2.304   1.643   1.613
10435SOL    HW232205   2.439   1.579   1.546
10436SOL     OW32206   1.108   3.447   4.676
10436SOL    HW132207   1.098   3.396   4.762
10436SOL    HW232208   1.188   3.507   4.683
10437SOL     OW32209   6.760   6.157   5.485
10437SOL    HW132210   6.812   6.084   5.530
10437SOL    HW232211   6.749   6.135   5.388
10438SOL     OW32212   6.972   6.104   6.555
10438SOL    HW132213   6.935   6.124   6.646
10438SOL    HW232214   6.908   6.136   6.485
10439SOL     OW32215   6.156   5.708   4.771
10439SOL    HW132216   6.230   5.641   4.769
10439SOL    HW232217   6.165   5.765   4.853
10440SOL     OW32218   5.727   2.473   1.056
10440SOL    HW132219   5.635   2.501   1.028
10440SOL    HW232220   5.737   2.485   1.154
10441SOL     OW32221   4.658   2.074   6.750
10441SOL    HW132222   4.576   2.042   6.799
10441SOL    HW232223   4.740   2.039   6.795
10442SOL     OW32224   2.685   1.714   5.058
10442SOL    HW132225   2.628   1.652   5.004
10442SOL    HW232226   2.716   1.667   5.141
10443SOL     OW32227   0.761   0.488   0.718
10443SOL    HW132228   0.661   0.496   0.724
10443SOL    HW232229   0.788   0.393   0.731
10444SOL     OW32230   4.472   4.862   3.580
10444SOL    HW132231   4.493   4.929   3.651
10444SOL    HW232232   4.423   4.785   3.621
10445SOL     OW32233   0.809   3.084   3.543
10445SOL    HW132234   0.772   2.998   3.578
10445SOL    HW232235   0.764   3.161   3.588
10446SOL     OW32236   2.432   4.836   5.280
10446SOL    HW132237   2.418   4.934   5.271
10446SOL    HW232238   2.462   4.798   5.193
10447SOL     OW32239   0.967   2.075   3.081
10447SOL    HW132240   0.892   2.026   3.125
10447SOL    HW232241   0.937   2.109   2.992
10448SOL     OW32242   1.684   6.057   2.393
10448SOL    HW132243   1.672   5.960   2.417
10448SOL    HW232244   1.733   6.104   2.467
10449SOL     OW32245   3.834   4.957   4.648
10449SOL    HW132246   3.743   4.935   4.613
10449SOL    HW232247   3.893   4.986   4.573
10450SOL     OW32248   0.720   1.593   4.332
10450SOL    HW132249   0.625   1.565   4.318
10450SOL    HW232250   0.747   1.574   4.427
10451SOL     OW32251   3.211   2.117   3.994
10451SOL    HW132252   3.303   2.097   3.959
10451SOL    HW232253   3.150   2.137   3.917
10452SOL     OW32254   6.770   2.828   4.602
10452SOL    HW132255   6.773   2.901   4.534
10452SOL    HW232256   6.685   2.833   4.653
10453SOL     OW32257   4.211   5.709   4.283
10453SOL    HW132258   4.293   5.727   4.228
10453SOL    HW232259   4.132   5.700   4.224
10454SOL     OW32260   6.625   0.974   6.891
10454SOL    HW132261   6.534   0.984   6.930
10454SOL    HW232262   6.618   0.949   6.795
10455SOL     OW32263   0.512   6.043   2.590
10455SOL    HW132264   0.453   6.003   2.520
10455SOL    HW232265   0.569   6.114   2.550
10456SOL     OW32266   1.269   5.413   5.920
10456SOL    HW132267   1.346   5.476   5.906
10456SOL    HW232268   1.244   5.370   5.834
10457SOL     OW32269   4.399   1.541   6.702
10457SOL    HW132270   4.323   1.513   6.760
10457SOL    HW232271   4.401   1.484   6.620
10458SOL     OW32272   1.560   6.513   6.827
10458SOL    HW132273   1.504   6.593   6.851
10458SOL    HW232274   1.510   6.456   6.762
10459SOL     OW32275   6.245   5.770   1.162
10459SOL    HW132276   6.148   5.752   1.147
10459SOL    HW232277   6.262   5.868   1.153
10460SOL     OW32278   6.169   0.947   0.397
10460SOL    HW132279   6.268   0.961   0.394
10460SOL    HW232280   6.139   0.896   0.316
10461SOL     OW32281   6.805   4.327   6.292
10461SOL    HW132282   6.756   4.316   6.379
10461SOL    HW232283   6.893   4.371   6.309
10462SOL     OW32284   2.963   3.951   6.496
10462SOL    HW132285   3.019   3.957   6.413
10462SOL    HW232286   3.018   3.976   6.575
10463SOL     OW32287   5.238   2.881   6.264
10463SOL    HW132288   5.215   2.804   6.205
10463SOL    HW232289   5.221   2.856   6.360
10464SOL     OW32290   6.341   4.522   1.774
10464SOL    HW132291   6.303   4.502   1.684
10464SOL    HW232292   6.286   4.592   1.819
10465SOL     OW32293   5.702   4.785   1.322
10465SOL    HW132294   5.743   4.703   1.283
10465SOL    HW232295   5.747   4.809   1.408
10466SOL     OW32296   5.938   3.917   5.892
10466SOL    HW132297   5.996   3.969   5.829
10466SOL    HW232298   5.895   3.842   5.842
10467SOL     OW32299   0.128   2.339   6.767
10467SOL    HW132300   0.190   2.392   6.824
10467SOL    HW232301   0.097   2.394   6.689
10468SOL     OW32302   1.464   4.484   4.436
10468SOL    HW132303   1.481   4.386   4.425
10468SOL    HW232304   1.533   4.535   4.385
10469SOL     OW32305   1.134   1.561   4.053
10469SOL    HW132306   1.066   1.614   4.103
10469SOL    HW232307   1.220   1.613   4.050
10470SOL     OW32308   2.199   4.078   2.199
10470SOL    HW132309   2.218   4.170   2.233
10470SOL    HW232310   2.123   4.081   2.135
10471SOL     OW32311   2.301   5.428   6.367
10471SOL    HW132312   2.371   5.496   6.345
10471SOL    HW232313   2.270   5.384   6.283
10472SOL     OW32314   4.099   5.314   6.398
10472SOL    HW132315   4.196   5.334   6.400
10472SOL    HW232316   4.048   5.390   6.439
10473SOL     OW32317   6.240   4.679   0.617
10473SOL    HW132318   6.269   4.586   0.639
10473SOL    HW232319   6.162   4.676   0.554
10474SOL     OW32320   6.594   6.900   5.030
10474SOL    HW132321   6.609   6.991   4.991
10474SOL    HW232322   6.507   6.899   5.079
10475SOL     OW32323   0.629   5.390   1.431
10475SOL    HW132324   0.529   5.392   1.438
10475SOL    HW232325   0.666   5.332   1.503
10476SOL     OW32326   4.873   6.504   1.105
10476SOL    HW132327   4.853   6.571   1.034
10476SOL    HW232328   4.801   6.507   1.175
10477SOL     OW32329   0.137   5.624   3.935
10477SOL    HW132330   0.166   5.711   3.894
10477SOL    HW232331   0.117   5.559   3.862
10478SOL     OW32332   0.071   0.864   6.381
10478SOL    HW132333   0.137   0.790   6.396
10478SOL    HW232334   6.999   0.831   6.401
10479SOL     OW32335   0.738   3.340   2.353
10479SOL    HW132336   0.685   3.292   2.284
10479SOL    HW232337   0.777   3.423   2.314
10480SOL     OW32338   2.733   0.740   2.927
10480SOL    HW132339   2.675   0.683   2.986
10480SOL    HW232340   2.702   0.835   2.933
10481SOL     OW32341   6.594   1.601   1.527
10481SOL    HW132342   6.626   1.626   1.618
10481SOL    HW232343   6.559   1.683   1.481
10482SOL     OW32344   5.391   2.952   3.840
10482SOL    HW132345   5.390   2.968   3.742
10482SOL    HW232346   5.327   3.014   3.885
10483SOL     OW32347   5.787   0.155   0.076
10483SOL    HW132348   5.770   0.078   0.015
10483SOL    HW232349   5.716   0.225   0.060
10484SOL     OW32350   6.699   0.972   1.789
10484SOL    HW132351   6.674   0.878   1.811
10484SOL    HW232352   6.676   1.031   1.866
10485SOL     OW32353   5.165   3.344   4.739
10485SOL    HW132354   5.248   3.302   4.776
10485SOL    HW232355   5.183   3.374   4.645
10486SOL     OW32356   5.063   2.688   2.724
10486SOL    HW132357   5.092   2.629   2.650
10486SOL    HW232358   4.974   2.657   2.759
10487SOL     OW32359   4.900   6.919   2.428
10487SOL    HW132360   4.930   7.014   2.440
10487SOL    HW232361   4.807   6.909   2.463
10488SOL     OW32362   3.783   3.937   0.041
10488SOL    HW132363   3.763   4.001   0.115
10488SOL    HW232364   3.820   3.852   0.080
10489SOL     OW32365   1.963   5.230   5.242
10489SOL    HW132366   2.012   5.155   5.287
10489SOL    HW232367   1.912   5.194   5.165
10490SOL     OW32368   6.536   0.358   4.173
10490SOL    HW132369   6.451   0.305   4.177
10490SOL    HW232370   6.558   0.392   4.265
10491SOL     OW32371   6.973   4.868   4.946
10491SOL    HW132372   7.009   4.779   4.918
10491SOL    HW232373   0.015   4.908   5.014
10492SOL     OW32374   4.019   4.173   6.005
10492SOL    HW132375   4.027   4.126   6.092
10492SOL    HW232376   3.925   4.162   5.970
10493SOL     OW32377   3.417   1.499   0.648
10493SOL    HW132378   3.502   1.480   0.600
10493SOL    HW232379   3.429   1.482   0.746
10494SOL     OW32380   5.573   1.957   5.433
10494SOL    HW132381   5.558   2.027   5.503
10494SOL    HW232382   5.668   1.924   5.438
10495SOL     OW32383   1.375   0.147   7.004
10495SOL    HW132384   1.408   0.132   0.077
10495SOL    HW232385   1.427   0.089   6.941
10496SOL     OW32386   6.164   0.577   5.487
10496SOL    HW132387   6.170   0.618   5.578
10496SOL    HW232388   6.207   0.487   5.487
10497SOL     OW32389   1.132   1.761   6.818
10497SOL    HW132390   1.130   1.789   6.722
10497SOL    HW232391   1.041   1.772   6.858
10498SOL     OW32392   3.013   4.391   5.990
10498SOL    HW132393   3.024   4.470   6.051
10498SOL    HW232394   2.974   4.423   5.903
10499SOL     OW32395   3.067   5.399   3.361
10499SOL    HW132396   3.112   5.484   3.334
10499SOL    HW232397   3.040   5.348   3.279
10500SOL     OW32398   1.881   1.993   6.795
10500SOL    HW132399   1.980   1.987   6.783
10500SOL    HW232400   1.857   2.084   6.828
10501SOL     OW32401   1.073   2.775   3.383
10501SOL    HW132402   1.037   2.718   3.456
10501SOL    HW232403   1.083   2.869   3.416
10502SOL     OW32404   2.952   5.530   5.101
10502SOL    HW132405   3.050   5.531   5.121
10502SOL    HW232406   2.937   5.496   5.008
10503SOL     OW32407   2.956   3.327   5.399
10503SOL    HW132408   2.915   3.407   5.443
10503SOL    HW232409   2.884   3.266   5.367
10504SOL     OW32410   2.341   3.261   1.371
10504SOL    HW132411   2.354   3.225   1.463
10504SOL    HW232412   2.319   3.358   1.375
10505SOL     OW32413   0.279   6.999   1.131
10505SOL    HW132414   0.222   6.939   1.188
10505SOL    HW232415   0.223   0.016   1.056
10506SOL     OW32416   0.292   3.809   5.180
10506SOL    HW132417   0.361   3.865   5.133
10506SOL    HW232418   0.237   3.867   5.240
10507SOL     OW32419   1.907   0.310   3.718
10507SOL    HW132420   2.004   0.286   3.717
10507SOL    HW232421   1.853   0.228   3.736
10508SOL     OW32422   5.308   3.517   2.457
10508SOL    HW132423   5.261   3.558   2.379
10508SOL    HW232424   5.251   3.446   2.497
10509SOL     OW32425   2.164   0.748   6.187
10509SOL    HW132426   2.189   0.696   6.269
10509SOL    HW232427   2.151   0.844   6.211
10510SOL     OW32428   6.030   6.733   6.637
10510SOL    HW132429   5.944   6.701   6.597
10510SOL    HW232430   6.099   6.739   6.565
10511SOL     OW32431   0.456   2.057   0.737
10511SOL    HW132432   0.534   2.110   0.772
10511SOL    HW232433   0.385   2.119   0.704
10512SOL     OW32434   3.396   6.602   6.216
10512SOL    HW132435   3.420   6.531   6.283
10512SOL    HW232436   3.325   6.661   6.255
10513SOL     OW32437   0.013   1.914   0.251
10513SOL    HW132438   0.025   1.870   0.162
10513SOL    HW232439   6.945   1.961   0.253
10514SOL     OW32440   6.793   3.170   1.421
10514SOL    HW132441   6.730   3.093   1.420
10514SOL    HW232442   6.809   3.199   1.515
10515SOL     OW32443   6.147   2.738   4.478
10515SOL    HW132444   6.184   2.830   4.489
10515SOL    HW232445   6.223   2.673   4.469
10516SOL     OW32446   3.033   6.863   0.742
10516SOL    HW132447   2.952   6.881   0.685
10516SOL    HW232448   3.111   6.913   0.704
10517SOL     OW32449   6.826   2.384   2.880
10517SOL    HW132450   6.889   2.309   2.903
10517SOL    HW232451   6.735   2.363   2.916
10518SOL     OW32452   0.377   6.417   2.639
10518SOL    HW132453   0.467   6.373   2.644
10518SOL    HW232454   0.363   6.474   2.721
10519SOL     OW32455   3.487   3.661   5.361
10519SOL    HW132456   3.450   3.753   5.376
10519SOL    HW232457   3.416   3.601   5.326
10520SOL     OW32458   3.426   4.656   6.296
10520SOL    HW132459   3.495   4.643   6.367
10520SOL    HW232460   3.348   4.595   6.314
10521SOL     OW32461   6.167   5.489   2.218
10521SOL    HW132462   6.166   5.455   2.312
10521SOL    HW232463   6.078   5.472   2.175
10522SOL     OW32464   6.529   0.034   1.756
10522SOL    HW132465   6.587   0.096   1.703
10522SOL    HW232466   6.499   0.080   1.840
10523SOL     OW32467   0.127   5.711   6.359
10523SOL    HW132468   0.206   5.676   6.307
10523SOL    HW232469   0.155   5.790   6.412
10524SOL     OW32470   4.987   0.552   4.490
10524SOL    HW132471   5.074   0.592   4.519
10524SOL    HW232472   5.003   0.484   4.418
10525SOL     OW32473   3.168   6.172   5.054
10525SOL    HW132474   3.245   6.149   5.113
10525SOL    HW232475   3.199   6.181   4.959
10526SOL     OW32476   5.369   0.062   2.232
10526SOL    HW132477   5.297   7.020   2.263
10526SOL    HW232478   5.330   0.154   2.220
10527SOL     OW32479   1.750   2.733   4.678
10527SOL    HW132480   1.699   2.816   4.701
10527SOL    HW232481   1.688   2.665   4.641
10528SOL     OW32482   6.345   4.616   5.537
10528SOL    HW132483   6.406   4.694   5.527
10528SOL    HW232484   6.395   4.531   5.519
10529SOL     OW32485   0.198   6.092   4.864
10529SOL    HW132486   0.253   6.159   4.816
10529SOL    HW232487   0.255   6.014   4.889
10530SOL     OW32488   2.348   1.898   5.139
10530SOL    HW132489   2.339   1.993   5.170
10530SOL    HW232490   2.331   1.894   5.041
10531SOL     OW32491   1.353   2.010   5.462
10531SOL    HW132492   1.444   1.981   5.494
10531SOL    HW232493   1.329   1.961   5.379
10532SOL     OW32494   3.484   3.005   5.173
10532SOL    HW132495   3.412   3.071   5.148
10532SOL    HW232496   3.511   2.954   5.092
10533SOL     OW32497   2.646   1.334   6.287
10533SOL    HW132498   2.732   1.291   6.315
10533SOL    HW232499   2.649   1.432   6.307
10534SOL     OW32500   5.877   5.675   1.164
10534SOL    HW132501   5.914   5.767   1.177
10534SOL    HW232502   5.782   5.673   1.194
10535SOL     OW32503   0.494   1.411   1.987
10535SOL    HW132504   0.505   1.509   2.002
10535SOL    HW232505   0.476   1.366   2.075
10536SOL     OW32506   5.356   5.985   3.871
10536SOL    HW132507   5.326   5.891   3.885
10536SOL    HW232508   5.437   6.003   3.927
10537SOL     OW32509   7.016   5.490   1.318
10537SOL    HW132510   6.986   5.585   1.320
10537SOL    HW232511   6.959   5.438   1.255
10538SOL     OW32512   4.564   4.203   6.833
10538SOL    HW132513   4.536   4.209   6.737
10538SOL    HW232514   4.486   4.174   6.888
10539SOL     OW32515   0.953   3.666   5.346
10539SOL    HW132516   0.986   3.671   5.441
10539SOL    HW232517   0.935   3.758   5.311
10540SOL     OW32518   2.678   0.769   0.314
10540SOL    HW132519   2.704   0.852   0.363
10540SOL    HW232520   2.647   0.700   0.379
10541SOL     OW32521   4.486   2.080   0.288
10541SOL    HW132522   4.431   2.146   0.339
10541SOL    HW232523   4.544   2.029   0.352
10542SOL     OW32524   1.288   2.131   0.402
10542SOL    HW132525   1.244   2.146   0.313
10542SOL    HW232526   1.362   2.064   0.391
10543SOL     OW32527   2.779   0.912   5.028
10543SOL    HW132528   2.764   0.930   5.125
10543SOL    HW232529   2.847   0.976   4.993
10544SOL     OW32530   6.861   2.302   1.432
10544SOL    HW132531   6.791   2.352   1.381
10544SOL    HW232532   6.878   2.214   1.387
10545SOL     OW32533   5.044   0.733   3.209
10545SOL    HW132534   5.020   0.819   3.254
10545SOL    HW232535   5.140   0.712   3.228
10546SOL     OW32536   4.192   1.301   5.326
10546SOL    HW132537   4.184   1.370   5.254
10546SOL    HW232538   4.266   1.237   5.302
10547SOL     OW32539   4.113   0.301   1.578
10547SOL    HW132540   4.024   0.347   1.571
10547SOL    HW232541   4.099   0.206   1.605
10548SOL     OW32542   4.114   4.820   5.458
10548SOL    HW132543   4.178   4.745   5.445
10548SOL    HW232544   4.057   4.802   5.539
10549SOL     OW32545   1.459   1.340   1.621
10549SOL    HW132546   1.373   1.373   1.582
10549SOL    HW232547   1.499   1.271   1.560
10550SOL     OW32548   5.392   0.052   4.609
10550SOL    HW132549   5.307   0.104   4.603
10550SOL    HW232550   5.372   6.980   4.645
10551SOL     OW32551   1.377   2.705   6.006
10551SOL    HW132552   1.322   2.710   6.089
10551SOL    HW232553   1.331   2.646   5.939
10552SOL     OW32554   3.256   1.920   4.817
10552SOL    HW132555   3.224   1.960   4.902
10552SOL    HW232556   3.179   1.903   4.756
10553SOL     OW32557   3.048   5.016   5.974
10553SOL    HW132558   3.107   5.036   5.895
10553SOL    HW232559   3.043   5.096   6.033
10554SOL     OW32560   6.397   4.305   6.152
10554SOL    HW132561   6.417   4.213   6.119
10554SOL    HW232562   6.478   4.363   6.143
10555SOL     OW32563   3.597   2.778   0.992
10555SOL    HW132564   3.546   2.843   1.048
10555SOL    HW232565   3.548   2.761   0.907
10556SOL     OW32566   1.624   3.504   4.368
10556SOL    HW132567   1.724   3.501   4.372
10556SOL    HW232568   1.594   3.506   4.273
10557SOL     OW32569   5.637   1.470   3.333
10557SOL    HW132570   5.554   1.504   3.288
10557SOL    HW232571   5.709   1.458   3.264
10558SOL     OW32572   5.382   5.623   4.996
10558SOL    HW132573   5.364   5.611   4.898
10558SOL    HW232574   5.318   5.566   5.048
10559SOL     OW32575   4.590   2.460   1.076
10559SOL    HW132576   4.654   2.418   1.140
10559SOL    HW232577   4.567   2.553   1.107
10560SOL     OW32578   0.183   3.154   4.310
10560SOL    HW132579   0.277   3.152   4.276
10560SOL    HW232580   0.158   3.063   4.344
10561SOL     OW32581   3.020   4.114   6.022
10561SOL    HW132582   3.014   4.213   6.010
10561SOL    HW232583   3.116   4.086   6.025
10562SOL     OW32584   3.212   1.318   0.547
10562SOL    HW132585   3.122   1.351   0.575
10562SOL    HW232586   3.280   1.391   0.559
10563SOL     OW32587   1.235   1.739   3.214
10563SOL    HW132588   1.291   1.726   3.296
10563SOL    HW232589   1.256   1.668   3.148
10564SOL     OW32590   6.983   2.452   2.210
10564SOL    HW132591   6.961   2.460   2.307
10564SOL    HW232592   6.982   2.543   2.168
10565SOL     OW32593   5.096   1.583   4.897
10565SOL    HW132594   5.041   1.579   4.813
10565SOL    HW232595   5.038   1.616   4.972
10566SOL     OW32596   4.130   5.544   0.064
10566SOL    HW132597   4.035   5.515   0.055
10566SOL    HW232598   4.171   5.501   0.144
10567SOL     OW32599   2.022   5.187   4.169
10567SOL    HW132600   2.113   5.214   4.201
10567SOL    HW232601   1.969   5.269   4.146
10568SOL     OW32602   3.843   1.716   2.795
10568SOL    HW132603   3.768   1.651   2.801
10568SOL    HW232604   3.901   1.693   2.717
10569SOL     OW32605   5.924   2.849   3.514
10569SOL    HW132606   5.972   2.927   3.552
10569SOL    HW232607   5.846   2.825   3.572
10570SOL     OW32608   0.990   4.085   1.801
10570SOL    HW132609   0.939   4.169   1.784
10570SOL    HW232610   0.926   4.012   1.824
10571SOL     OW32611   6.144   6.820   4.952
10571SOL    HW132612   6.051   6.796   4.924
10571SOL    HW232613   6.195   6.855   4.873
10572SOL     OW32614   6.399   3.122   1.634
10572SOL    HW132615   6.339   3.085   1.563
10572SOL    HW232616   6.473   3.058   1.652
10573SOL     OW32617   6.422   4.512   6.565
10573SOL    HW132618   6.331   4.506   6.524
10573SOL    HW232619   6.445   4.608   6.581
10574SOL     OW32620   0.693   2.044   3.505
10574SOL    HW132621   0.788   2.018   3.484
10574SOL    HW232622   0.641   1.962   3.529
10575SOL     OW32623   0.841   6.915   6.130
10575SOL    HW132624   0.805   6.896   6.221
10575SOL    HW232625   0.869   7.011   6.125
10576SOL     OW32626   1.226   5.451   3.394
10576SOL    HW132627   1.186   5.525   3.342
10576SOL    HW232628   1.324   5.447   3.377
10577SOL     OW32629   0.354   3.213   5.561
10577SOL    HW132630   0.377   3.124   5.522
10577SOL    HW232631   0.387   3.217   5.656
10578SOL     OW32632   5.641   1.011   5.580
10578SOL    HW132633   5.577   0.938   5.554
10578SOL    HW232634   5.687   1.046   5.499
10579SOL     OW32635   4.970   6.989   1.377
10579SOL    HW132636   4.992   6.941   1.462
10579SOL    HW232637   4.934   6.924   1.310
10580SOL     OW32638   6.745   6.242   0.510
10580SOL    HW132639   6.676   6.235   0.582
10580SOL    HW232640   6.700   6.253   0.422
10581SOL     OW32641   4.918   2.012   3.780
10581SOL    HW132642   4.927   2.037   3.877
10581SOL    HW232643   4.879   2.088   3.730
10582SOL     OW32644   3.379   4.821   0.001
10582SOL    HW132645   3.370   4.865   6.931
10582SOL    HW232646   3.370   4.722   7.010
10583SOL     OW32647   4.496   1.051   1.816
10583SOL    HW132648   4.424   0.990   1.784
10583SOL    HW232649   4.540   1.095   1.738
10584SOL     OW32650   6.101   0.142   1.344
10584SOL    HW132651   6.051   0.082   1.281
10584SOL    HW232652   6.197   0.146   1.317
10585SOL     OW32653   2.315   4.589   6.230
10585SOL    HW132654   2.315   4.663   6.163
10585SOL    HW232655   2.221   4.562   6.251
10586SOL     OW32656   4.874   1.628   0.262
10586SOL    HW132657   4.839   1.573   0.186
10586SOL    HW232658   4.951   1.683   0.231
10587SOL     OW32659   6.098   3.127   0.326
10587SOL    HW132660   6.071   3.045   0.376
10587SOL    HW232661   6.059   3.125   0.234
10588SOL     OW32662   1.508   5.045   3.443
10588SOL    HW132663   1.521   5.096   3.358
10588SOL    HW232664   1.469   4.956   3.422
10589SOL     OW32665   5.986   1.459   4.373
10589SOL    HW132666   6.057   1.393   4.346
10589SOL    HW232667   5.899   1.412   4.382
10590SOL     OW32668   1.575   0.776   4.923
10590SOL    HW132669   1.526   0.711   4.981
10590SOL    HW232670   1.672   0.751   4.919
10591SOL     OW32671   1.746   2.665   0.954
10591SOL    HW132672   1.746   2.618   0.866
10591SOL    HW232673   1.724   2.600   1.026
10592SOL     OW32674   5.995   1.500   6.555
10592SOL    HW132675   5.896   1.483   6.558
10592SOL    HW232676   6.013   1.594   6.582
10593SOL     OW32677   1.538   5.111   1.924
10593SOL    HW132678   1.602   5.179   1.960
10593SOL    HW232679   1.467   5.157   1.871
10594SOL     OW32680   0.787   1.235   4.390
10594SOL    HW132681   0.812   1.277   4.303
10594SOL    HW232682   0.687   1.230   4.397
10595SOL     OW32683   2.625   5.376   5.456
10595SOL    HW132684   2.690   5.348   5.385
10595SOL    HW232685   2.646   5.468   5.486
10596SOL     OW32686   3.102   0.648   2.124
10596SOL    HW132687   3.019   0.679   2.170
10596SOL    HW232688   3.156   0.728   2.097
10597SOL     OW32689   2.211   0.488   3.643
10597SOL    HW132690   2.297   0.476   3.693
10597SOL    HW232691   2.201   0.584   3.617
10598SOL     OW32692   1.906   1.340   0.033
10598SOL    HW132693   1.860   1.295   6.977
10598SOL    HW232694   1.968   1.275   0.078
10599SOL     OW32695   5.141   0.389   6.729
10599SOL    HW132696   5.240   0.391   6.716
10599SOL    HW232697   5.095   0.402   6.641
10600SOL     OW32698   1.578   1.925   5.566
10600SOL    HW132699   1.642   1.910   5.642
10600SOL    HW232700   1.629   1.926   5.480
10601SOL     OW32701   3.779   5.964   5.533
10601SOL    HW132702   3.799   6.022   5.612
10601SOL    HW232703   3.682   5.941   5.532
10602SOL     OW32704   4.824   0.715   0.996
10602SOL    HW132705   4.797   0.773   0.919
10602SOL    HW232706   4.750   0.712   1.063
10603SOL     OW32707   0.797   5.084   4.905
10603SOL    HW132708   0.863   5.025   4.953
10603SOL    HW232709   0.788   5.053   4.811
10604SOL     OW32710   6.923   4.322   5.323
10604SOL    HW132711   6.939   4.395   5.257
10604SOL    HW232712   7.006   4.306   5.377
10605SOL     OW32713   1.903   5.201   6.201
10605SOL    HW132714   1.853   5.246   6.275
10605SOL    HW232715   1.839   5.149   6.144
10606SOL     OW32716   0.815   0.679   2.822
10606SOL    HW132717   0.886   0.734   2.864
10606SOL    HW232718   0.806   0.592   2.871
10607SOL     OW32719   5.909   4.874   6.677
10607SOL    HW132720   5.981   4.832   6.733
10607SOL    HW232721   5.908   4.972   6.693
10608SOL     OW32722   6.029   0.540   2.788
10608SOL    HW132723   6.048   0.501   2.698
10608SOL    HW232724   5.973   0.622   2.777
10609SOL     OW32725   3.779   6.556   2.866
10609SOL    HW132726   3.729   6.591   2.787
10609SOL    HW232727   3.769   6.620   2.943
10610SOL     OW32728   1.966   4.156   4.403
10610SOL    HW132729   1.915   4.239   4.379
10610SOL    HW232730   1.968   4.146   4.502
10611SOL     OW32731   5.101   2.439   6.131
10611SOL    HW132732   5.072   2.533   6.149
10611SOL    HW232733   5.130   2.396   6.216
10612SOL     OW32734   1.622   6.889   1.084
10612SOL    HW132735   1.662   6.901   1.175
10612SOL    HW232736   1.574   6.801   1.081
10613SOL     OW32737   0.428   6.785   6.635
10613SOL    HW132738   0.424   6.846   6.715
10613SOL    HW232739   0.466   6.697   6.663
10614SOL     OW32740   6.484   0.890   3.878
10614SOL    HW132741   6.436   0.822   3.823
10614SOL    HW232742   6.423   0.966   3.899
10615SOL     OW32743   6.594   5.961   5.624
10615SOL    HW132744   6.529   5.904   5.674
10615SOL    HW232745   6.545   6.024   5.564
10616SOL     OW32746   2.515   5.879   0.830
10616SOL    HW132747   2.502   5.929   0.915
10616SOL    HW232748   2.606   5.896   0.794
10617SOL     OW32749   6.884   1.908   6.682
10617SOL    HW132750   6.861   1.875   6.773
10617SOL    HW232751   6.934   1.838   6.632
10618SOL     OW32752   6.477   3.681   1.321
10618SOL    HW132753   6.405   3.611   1.313
10618SOL    HW232754   6.565   3.642   1.293
10619SOL     OW32755   0.430   4.321   3.246
10619SOL    HW132756   0.369   4.327   3.325
10619SOL    HW232757   0.391   4.259   3.178
10620SOL     OW32758   1.242   5.284   4.214
10620SOL    HW132759   1.326   5.313   4.169
10620SOL    HW232760   1.222   5.189   4.189
10621SOL     OW32761   2.952   6.355   0.586
10621SOL    HW132762   2.953   6.444   0.632
10621SOL    HW232763   3.045   6.320   0.579
10622SOL     OW32764   4.516   1.820   1.044
10622SOL    HW132765   4.421   1.848   1.026
10622SOL    HW232766   4.535   1.831   1.142
10623SOL     OW32767   6.832   1.003   4.426
10623SOL    HW132768   6.753   1.065   4.418
10623SOL    HW232769   6.915   1.053   4.404
10624SOL     OW32770   2.889   1.521   4.155
10624SOL    HW132771   2.810   1.580   4.137
10624SOL    HW232772   2.914   1.527   4.251
10625SOL     OW32773   0.788   3.067   0.019
10625SOL    HW132774   0.855   2.994   0.011
10625SOL    HW232775   0.833   3.156   0.008
10626SOL     OW32776   5.867   1.832   2.001
10626SOL    HW132777   5.814   1.756   1.962
10626SOL    HW232778   5.963   1.821   1.978
10627SOL     OW32779   6.246   5.975   4.311
10627SOL    HW132780   6.241   5.985   4.411
10627SOL    HW232781   6.328   6.023   4.278
10628SOL     OW32782   6.969   5.492   5.655
10628SOL    HW132783   7.007   5.578   5.689
10628SOL    HW232784   6.869   5.493   5.666
10629SOL     OW32785   2.588   4.815   6.478
10629SOL    HW132786   2.497   4.855   6.467
10629SOL    HW232787   2.654   4.867   6.424
10630SOL     OW32788   6.632   1.016   2.322
10630SOL    HW132789   6.535   1.031   2.304
10630SOL    HW232790   6.643   0.979   2.414
10631SOL     OW32791   1.059   6.820   4.866
10631SOL    HW132792   1.150   6.786   4.892
10631SOL    HW232793   0.989   6.764   4.910
10632SOL     OW32794   0.280   3.123   6.200
10632SOL    HW132795   0.267   3.185   6.277
10632SOL    HW232796   0.198   3.124   6.142
10633SOL     OW32797   0.502   5.094   0.980
10633SOL    HW132798   0.463   5.152   0.908
10633SOL    HW232799   0.459   5.115   1.067
10634SOL     OW32800   3.958   6.340   2.465
10634SOL    HW132801   4.028   6.406   2.438
10634SOL    HW232802   3.986   6.248   2.437
10635SOL     OW32803   1.413   0.956   1.672
10635SOL    HW132804   1.490   0.902   1.706
10635SOL    HW232805   1.443   1.010   1.593
10636SOL     OW32806   5.503   1.349   0.962
10636SOL    HW132807   5.522   1.442   0.932
10636SOL    HW232808   5.569   1.286   0.922
10637SOL     OW32809   3.301   4.358   5.976
10637SOL    HW132810   3.218   4.396   5.935
10637SOL    HW232811   3.366   4.432   5.994
10638SOL     OW32812   6.796   0.094   6.008
10638SOL    HW132813   6.805   0.138   5.918
10638SOL    HW232814   6.838   0.004   6.005
10639SOL     OW32815   3.503   1.890   4.922
10639SOL    HW132816   3.410   1.905   4.890
10639SOL    HW232817   3.542   1.977   4.953
10640SOL     OW32818   4.372   5.948   0.818
10640SOL    HW132819   4.345   6.003   0.897
10640SOL    HW232820   4.472   5.950   0.809
10641SOL     OW32821   3.644   1.077   6.396
10641SOL    HW132822   3.678   1.164   6.362
10641SOL    HW232823   3.603   1.025   6.320
10642SOL     OW32824   0.183   4.724   0.200
10642SOL    HW132825   0.180   4.645   0.261
10642SOL    HW232826   0.261   4.716   0.138
10643SOL     OW32827   4.094   3.367   5.773
10643SOL    HW132828   4.177   3.355   5.828
10643SOL    HW232829   4.116   3.421   5.692
10644SOL     OW32830   3.960   1.419   4.701
10644SOL    HW132831   3.875   1.369   4.685
10644SOL    HW232832   3.943   1.517   4.687
10645SOL     OW32833   2.169   0.066   5.062
10645SOL    HW132834   2.127   7.018   5.001
10645SOL    HW232835   2.237   0.119   5.011
10646SOL     OW32836   1.356   4.469   6.829
10646SOL    HW132837   1.373   4.502   6.922
10646SOL    HW232838   1.309   4.540   6.777
10647SOL     OW32839   0.124   6.035   0.848
10647SOL    HW132840   0.094   6.110   0.908
10647SOL    HW232841   0.049   5.970   0.836
10648SOL     OW32842   4.635   5.079   6.624
10648SOL    HW132843   4.715   5.115   6.673
10648SOL    HW232844   4.553   5.094   6.680
10649SOL     OW32845   0.119   4.163   6.154
10649SOL    HW132846   0.129   4.255   6.116
10649SOL    HW232847   0.030   4.125   6.127
10650SOL     OW32848   3.190   0.815   5.086
10650SOL    HW132849   3.100   0.820   5.128
10650SOL    HW232850   3.232   0.727   5.108
10651SOL     OW32851   2.720   0.339   5.642
10651SOL    HW132852   2.752   0.322   5.735
10651SOL    HW232853   2.758   0.426   5.610
10652SOL     OW32854   3.646   1.547   0.505
10652SOL    HW132855   3.743   1.539   0.483
10652SOL    HW232856   3.592   1.496   0.438
10653SOL     OW32857   5.910   3.629   4.253
10653SOL    HW132858   5.976   3.671   4.191
10653SOL    HW232859   5.821   3.623   4.208
10654SOL     OW32860   4.637   0.849   1.899
10654SOL    HW132861   4.573   0.774   1.914
10654SOL    HW232862   4.586   0.934   1.890
10655SOL     OW32863   2.908   5.302   1.006
10655SOL    HW132864   2.990   5.342   1.047
10655SOL    HW232865   2.846   5.271   1.078
10656SOL     OW32866   6.229   2.568   6.940
10656SOL    HW132867   6.305   2.506   6.959
10656SOL    HW232868   6.184   2.593   0.007
10657SOL     OW32869   6.369   0.191   1.306
10657SOL    HW132870   6.435   0.181   1.232
10657SOL    HW232871   6.376   0.113   1.368
10658SOL     OW32872   0.470   6.402   4.676
10658SOL    HW132873   0.460   6.372   4.581
10658SOL    HW232874   0.457   6.501   4.682
10659SOL     OW32875   4.731   0.826   0.777
10659SOL    HW132876   4.680   0.741   0.763
10659SOL    HW232877   4.816   0.823   0.725
10660SOL     OW32878   5.550   5.656   5.957
10660SOL    HW132879   5.557   5.557   5.967
10660SOL    HW232880   5.630   5.700   5.999
10661SOL     OW32881   0.597   0.543   2.365
10661SOL    HW132882   0.599   0.460   2.421
10661SOL    HW232883   0.667   0.606   2.396
10662SOL     OW32884   6.176   1.777   6.951
10662SOL    HW132885   6.137   1.691   6.982
10662SOL    HW232886   6.111   1.851   6.968
10663SOL     OW32887   0.374   1.856   0.891
10663SOL    HW132888   0.408   1.931   0.834
10663SOL    HW232889   0.377   1.770   0.839
10664SOL     OW32890   2.171   5.270   6.169
10664SOL    HW132891   2.174   5.364   6.135
10664SOL    HW232892   2.076   5.241   6.180
10665SOL     OW32893   5.406   0.954   6.653
10665SOL    HW132894   5.350   0.971   6.733
10665SOL    HW232895   5.373   0.871   6.607
10666SOL     OW32896   0.392   7.005   0.254
10666SOL    HW132897   0.345   6.985   0.167
10666SOL    HW232898   0.484   6.967   0.251
10667SOL     OW32899   3.042   2.428   5.688
10667SOL    HW132900   2.943   2.443   5.695
10667SOL    HW232901   3.086   2.514   5.663
10668SOL     OW32902   2.528   0.903   6.490
10668SOL    HW132903   2.582   0.984   6.511
10668SOL    HW232904   2.484   0.914   6.401
10669SOL     OW32905   1.266   6.480   6.471
10669SOL    HW132906   1.171   6.448   6.467
10669SOL    HW232907   1.268   6.579   6.486
10670SOL     OW32908   6.527   4.070   4.589
10670SOL    HW132909   6.595   4.065   4.662
10670SOL    HW232910   6.569   4.110   4.507
10671SOL     OW32911   1.893   2.424   3.028
10671SOL    HW132912   1.863   2.387   3.116
10671SOL    HW232913   1.864   2.519   3.020
10672SOL     OW32914   6.988   2.502   0.724
10672SOL    HW132915   0.020   2.544   0.799
10672SOL    HW232916   6.891   2.522   0.736
10673SOL     OW32917   3.407   3.722   4.497
10673SOL    HW132918   3.403   3.674   4.585
10673SOL    HW232919   3.363   3.667   4.427
10674SOL     OW32920   3.846   1.391   2.491
10674SOL    HW132921   3.877   1.327   2.561
10674SOL    HW232922   3.769   1.350   2.441
10675SOL     OW32923   0.928   1.019   5.856
10675SOL    HW132924   0.864   1.093   5.878
10675SOL    HW232925   0.926   0.950   5.928
10676SOL     OW32926   6.781   0.321   6.623
10676SOL    HW132927   6.801   0.331   6.526
10676SOL    HW232928   6.769   0.411   6.665
10677SOL     OW32929   5.998   1.072   0.871
10677SOL    HW132930   5.992   1.096   0.774
10677SOL    HW232931   6.088   1.032   0.889
10678SOL     OW32932   1.853   5.106   3.543
10678SOL    HW132933   1.833   5.201   3.523
10678SOL    HW232934   1.911   5.067   3.471
10679SOL     OW32935   5.691   4.797   3.653
10679SOL    HW132936   5.778   4.757   3.682
10679SOL    HW232937   5.682   4.890   3.688
10680SOL     OW32938   0.909   2.553   3.851
10680SOL    HW132939   0.998   2.580   3.889
10680SOL    HW232940   0.901   2.587   3.757
10681SOL     OW32941   0.510   2.407   6.736
10681SOL    HW132942   0.433   2.453   6.780
10681SOL    HW232943   0.476   2.348   6.663
10682SOL     OW32944   6.471   1.831   2.991
10682SOL    HW132945   6.390   1.876   3.028
10682SOL    HW232946   6.476   1.737   3.026
10683SOL     OW32947   1.406   0.347   4.109
10683SOL    HW132948   1.409   0.288   4.189
10683SOL    HW232949   1.318   0.395   4.105
10684SOL     OW32950   5.182   5.733   0.426
10684SOL    HW132951   5.244   5.718   0.349
10684SOL    HW232952   5.157   5.646   0.468
10685SOL     OW32953   6.295   2.411   2.489
10685SOL    HW132954   6.241   2.363   2.557
10685SOL    HW232955   6.368   2.350   2.455
10686SOL     OW32956   4.143   4.858   0.796
10686SOL    HW132957   4.209   4.873   0.723
10686SOL    HW232958   4.097   4.944   0.818
10687SOL     OW32959   6.597   5.513   1.249
10687SOL    HW132960   6.665   5.585   1.236
10687SOL    HW232961   6.583   5.463   1.163
10688SOL     OW32962   0.127   5.255   1.010
10688SOL    HW132963   0.203   5.320   1.018
10688SOL    HW232964   0.086   5.263   0.919
10689SOL     OW32965   0.853   7.013   1.208
10689SOL    HW132966   0.789   0.069   1.223
10689SOL    HW232967   0.820   6.932   1.256
10690SOL     OW32968   4.817   6.621   3.521
10690SOL    HW132969   4.759   6.540   3.533
10690SOL    HW232970   4.760   6.701   3.509
10691SOL     OW32971   6.305   1.481   1.706
10691SOL    HW132972   6.229   1.455   1.647
10691SOL    HW232973   6.314   1.580   1.707
10692SOL     OW32974   6.313   6.559   3.783
10692SOL    HW132975   6.241   6.606   3.832
10692SOL    HW232976   6.336   6.474   3.831
10693SOL     OW32977   5.209   2.735   3.617
10693SOL    HW132978   5.232   2.772   3.527
10693SOL    HW232979   5.290   2.694   3.658
10694SOL     OW32980   2.665   6.633   0.349
10694SOL    HW132981   2.684   6.702   0.280
10694SOL    HW232982   2.594   6.666   0.411
10695SOL     OW32983   5.342   2.886   5.511
10695SOL    HW132984   5.411   2.839   5.565
10695SOL    HW232985   5.251   2.870   5.549
10696SOL     OW32986   6.428   7.008   1.509
10696SOL    HW132987   6.361   6.936   1.493
10696SOL    HW232988   6.452   7.010   1.606
10697SOL     OW32989   1.913   6.363   2.745
10697SOL    HW132990   1.872   6.448   2.777
10697SOL    HW232991   2.000   6.348   2.791
10698SOL     OW32992   3.094   6.973   4.524
10698SOL    HW132993   3.110   6.917   4.443
10698SOL    HW232994   3.047   0.038   4.497
10699SOL     OW32995   1.972   2.655   3.626
10699SOL    HW132996   1.896   2.655   3.562
10699SOL    HW232997   1.971   2.570   3.680
10700SOL     OW32998   0.964   2.057   2.617
10700SOL    HW132999   1.033   2.123   2.590
10700SOL    HW233000   0.908   2.095   2.691
10701SOL     OW33001   3.012   0.144   1.581
10701SOL    HW133002   2.940   0.144   1.511
10701SOL    HW233003   3.028   0.238   1.611
10702SOL     OW33004   4.960   2.487   0.995
10702SOL    HW133005   4.888   2.426   0.963
10702SOL    HW233006   4.922   2.554   1.058
10703SOL     OW33007   3.649   2.852   4.302
10703SOL    HW133008   3.619   2.863   4.397
10703SOL    HW233009   3.721   2.783   4.298
10704SOL     OW33010   5.773   6.091   1.993
10704SOL    HW133011   5.697   6.042   1.951
10704SOL    HW233012   5.738   6.153   2.063
10705SOL     OW33013   1.412   3.233   6.539
10705SOL    HW133014   1.384   3.316   6.586
10705SOL    HW233015   1.334   3.172   6.528
10706SOL     OW33016   2.999   3.129   1.135
10706SOL    HW133017   2.999   3.042   1.186
10706SOL    HW233018   2.906   3.150   1.106
10707SOL     OW33019   6.106   0.111   6.372
10707SOL    HW133020   6.062   0.201   6.374
10707SOL    HW233021   6.181   0.108   6.438
10708SOL     OW33022   4.988   1.262   1.476
10708SOL    HW133023   4.936   1.246   1.559
10708SOL    HW233024   5.029   1.353   1.479
10709SOL     OW33025   0.764   0.323   6.140
10709SOL    HW133026   0.834   0.261   6.104
10709SOL    HW233027   0.803   0.414   6.154
10710SOL     OW33028   6.582   6.385   3.678
10710SOL    HW133029   6.636   6.331   3.614
10710SOL    HW233030   6.545   6.466   3.631
10711SOL     OW33031   2.272   4.632   5.379
10711SOL    HW133032   2.344   4.694   5.349
10711SOL    HW233033   2.186   4.658   5.335
10712SOL     OW33034   3.479   1.606   6.262
10712SOL    HW133035   3.554   1.641   6.318
10712SOL    HW233036   3.516   1.565   6.178
10713SOL     OW33037   1.965   6.980   0.681
10713SOL    HW133038   1.950   0.047   0.633
10713SOL    HW233039   1.894   6.968   0.750
10714SOL     OW33040   6.188   5.922   4.578
10714SOL    HW133041   6.192   5.834   4.625
10714SOL    HW233042   6.100   5.966   4.596
10715SOL     OW33043   5.906   0.781   2.789
10715SOL    HW133044   5.811   0.785   2.760
10715SOL    HW233045   5.912   0.807   2.886
10716SOL     OW33046   0.277   0.828   1.885
10716SOL    HW133047   0.357   0.860   1.936
10716SOL    HW233048   0.194   0.856   1.933
10717SOL     OW33049   0.055   6.598   2.280
10717SOL    HW133050   0.149   6.590   2.312
10717SOL    HW233051   0.030   6.517   2.228
10718SOL     OW33052   0.976   4.162   5.102
10718SOL    HW133053   1.022   4.224   5.039
10718SOL    HW233054   0.907   4.213   5.154
10719SOL     OW33055   3.946   6.136   2.093
10719SOL    HW133056   3.895   6.106   2.173
10719SOL    HW233057   3.895   6.208   2.046
10720SOL     OW33058   0.167   3.610   6.553
10720SOL    HW133059   0.113   3.545   6.498
10720SOL    HW233060   0.262   3.610   6.520
10721SOL     OW33061   5.506   2.015   4.371
10721SOL    HW133062   5.552   2.063   4.445
10721SOL    HW233063   5.518   1.916   4.382
10722SOL     OW33064   0.257   5.304   0.216
10722SOL    HW133065   0.258   5.385   0.273
10722SOL    HW233066   0.195   5.318   0.139
10723SOL     OW33067   6.368   4.209   6.616
10723SOL    HW133068   6.315   4.245   6.539
10723SOL    HW233069   6.446   4.156   6.582
10724SOL     OW33070   3.708   0.001   5.552
10724SOL    HW133071   3.647   6.942   5.559
10724SOL    HW233072   3.716   0.030   5.457
10725SOL     OW33073   0.614   6.672   5.039
10725SOL    HW133074   0.601   6.583   4.996
10725SOL    HW233075   0.561   6.675   5.124
10726SOL     OW33076   6.963   0.703   3.528
10726SOL    HW133077   6.971   0.761   3.609
10726SOL    HW233078   6.948   0.608   3.556
10727SOL     OW33079   4.690   6.844   6.268
10727SOL    HW133080   4.613   6.845   6.332
10727SOL    HW233081   4.738   6.757   6.274
10728SOL     OW33082   5.831   5.318   4.002
10728SOL    HW133083   5.733   5.318   3.985
10728SOL    HW233084   5.849   5.332   4.099
10729SOL     OW33085   6.399   3.534   3.932
10729SOL    HW133086   6.440   3.525   3.842
10729SOL    HW233087   6.431   3.461   3.992
10730SOL     OW33088   1.269   6.313   4.462
10730SOL    HW133089   1.256   6.215   4.446
10730SOL    HW233090   1.340   6.326   4.531
10731SOL     OW33091   5.066   5.924   6.448
10731SOL    HW133092   4.997   5.919   6.520
10731SOL    HW233093   5.135   5.853   6.462
10732SOL     OW33094   6.762   6.173   2.283
10732SOL    HW133095   6.837   6.161   2.219
10732SOL    HW233096   6.775   6.112   2.362
10733SOL     OW33097   0.428   1.817   6.137
10733SOL    HW133098   0.479   1.903   6.131
10733SOL    HW233099   0.330   1.836   6.137
10734SOL     OW33100   0.601   0.926   4.443
10734SOL    HW133101   0.506   0.954   4.454
10734SOL    HW233102   0.606   0.826   4.439
10735SOL     OW33103   0.154   0.711   2.219
10735SOL    HW133104   0.140   0.648   2.142
10735SOL    HW233105   0.252   0.723   2.236
10736SOL     OW33106   6.234   5.902   3.746
10736SOL    HW133107   6.186   5.951   3.819
10736SOL    HW233108   6.314   5.954   3.718
10737SOL     OW33109   0.007   0.633   1.703
10737SOL    HW133110   0.034   0.727   1.682
10737SOL    HW233111   6.937   0.615   1.663
10738SOL     OW33112   2.466   6.796   1.690
10738SOL    HW133113   2.393   6.776   1.625
10738SOL    HW233114   2.555   6.782   1.645
10739SOL     OW33115   4.858   3.005   4.297
10739SOL    HW133116   4.862   3.024   4.199
10739SOL    HW233117   4.774   2.956   4.318
10740SOL     OW33118   3.057   0.214   5.841
10740SOL    HW133119   3.004   0.157   5.778
10740SOL    HW233120   3.144   0.169   5.862
10741SOL     OW33121   1.148   2.676   3.811
10741SOL    HW133122   1.218   2.668   3.883
10741SOL    HW233123   1.189   2.721   3.731
10742SOL     OW33124   7.019   0.392   2.004
10742SOL    HW133125   6.929   0.405   2.046
10742SOL    HW233126   0.070   0.404   2.074
10743SOL     OW33127   3.680   1.934   5.355
10743SOL    HW133128   3.692   1.836   5.374
10743SOL    HW233129   3.627   1.976   5.429
10744SOL     OW33130   2.622   1.504   1.624
10744SOL    HW133131   2.700   1.442   1.611
10744SOL    HW233132   2.649   1.598   1.603
10745SOL     OW33133   2.462   5.560   1.607
10745SOL    HW133134   2.496   5.594   1.519
10745SOL    HW233135   2.457   5.460   1.604
10746SOL     OW33136   1.962   5.620   6.017
10746SOL    HW133137   1.872   5.641   5.977
10746SOL    HW233138   2.032   5.624   5.945
10747SOL     OW33139   0.288   0.719   4.696
10747SOL    HW133140   0.349   0.707   4.618
10747SOL    HW233141   0.305   0.647   4.764
10748SOL     OW33142   2.803   6.456   2.467
10748SOL    HW133143   2.737   6.532   2.469
10748SOL    HW233144   2.754   6.369   2.468
10749SOL     OW33145   5.962   4.524   2.068
10749SOL    HW133146   5.908   4.528   2.152
10749SOL    HW233147   5.909   4.478   1.997
10750SOL     OW33148   4.221   2.193   4.211
10750SOL    HW133149   4.282   2.125   4.253
10750SOL    HW233150   4.151   2.220   4.277
10751SOL     OW33151   6.412   6.310   3.871
10751SOL    HW133152   6.431   6.333   3.966
10751SOL    HW233153   6.481   6.354   3.812
10752SOL     OW33154   0.182   6.543   6.735
10752SOL    HW133155   0.239   6.482   6.680
10752SOL    HW233156   0.155   6.622   6.679
10753SOL     OW33157   5.520   6.856   4.987
10753SOL    HW133158   5.432   6.902   5.002
10753SOL    HW233159   5.537   6.793   5.063
10754SOL     OW33160   0.548   5.736   2.201
10754SOL    HW133161   0.538   5.745   2.102
10754SOL    HW233162   0.645   5.726   2.224
10755SOL     OW33163   0.362   2.354   1.696
10755SOL    HW133164   0.348   2.338   1.599
10755SOL    HW233165   0.378   2.451   1.712
10756SOL     OW33166   0.893   0.269   6.745
10756SOL    HW133167   0.943   0.337   6.799
10756SOL    HW233168   0.908   0.178   6.783
10757SOL     OW33169   6.510   3.079   2.024
10757SOL    HW133170   6.462   2.993   2.036
10757SOL    HW233171   6.457   3.139   1.963
10758SOL     OW33172   1.122   1.788   0.445
10758SOL    HW133173   1.154   1.843   0.367
10758SOL    HW233174   1.046   1.731   0.417
10759SOL     OW33175   2.938   3.705   4.705
10759SOL    HW133176   2.973   3.627   4.758
10759SOL    HW233177   2.942   3.684   4.608
10760SOL     OW33178   0.619   5.132   0.128
10760SOL    HW133179   0.531   5.111   0.087
10760SOL    HW233180   0.615   5.114   0.226
10761SOL     OW33181   1.776   1.230   6.042
10761SOL    HW133182   1.706   1.272   6.100
10761SOL    HW233183   1.787   1.285   5.959
10762SOL     OW33184   1.492   6.810   0.422
10762SOL    HW133185   1.523   6.836   0.514
10762SOL    HW233186   1.570   6.777   0.369
10763SOL     OW33187   4.865   1.097   2.771
10763SOL    HW133188   4.847   1.168   2.703
10763SOL    HW233189   4.889   1.140   2.858
10764SOL     OW33190   5.040   5.641   4.984
10764SOL    HW133191   4.965   5.654   4.919
10764SOL    HW233192   5.003   5.635   5.077
10765SOL     OW33193   0.690   2.245   0.733
10765SOL    HW133194   0.657   2.329   0.689
10765SOL    HW233195   0.743   2.191   0.668
10766SOL     OW33196   2.335   5.425   5.972
10766SOL    HW133197   2.385   5.446   5.887
10766SOL    HW233198   2.241   5.402   5.950
10767SOL     OW33199   1.491   5.140   6.610
10767SOL    HW133200   1.408   5.097   6.575
10767SOL    HW233201   1.471   5.234   6.636
10768SOL     OW33202   5.501   6.230   6.908
10768SOL    HW133203   5.483   6.141   6.950
10768SOL    HW233204   5.514   6.299   6.979
10769SOL     OW33205   3.035   3.760   4.394
10769SOL    HW133206   3.059   3.667   4.422
10769SOL    HW233207   2.976   3.757   4.315
10770SOL     OW33208   5.219   0.335   3.379
10770SOL    HW133209   5.140   0.281   3.350
10770SOL    HW233210   5.243   0.311   3.473
10771SOL     OW33211   4.482   5.900   6.026
10771SOL    HW133212   4.486   5.935   6.119
10771SOL    HW233213   4.482   5.978   5.962
10772SOL     OW33214   4.916   4.437   2.645
10772SOL    HW133215   4.930   4.503   2.571
10772SOL    HW233216   4.975   4.460   2.722
10773SOL     OW33217   0.659   4.131   0.420
10773SOL    HW133218   0.680   4.175   0.507
10773SOL    HW233219   0.682   4.194   0.345
10774SOL     OW33220   0.622   3.318   0.720
10774SOL    HW133221   0.605   3.411   0.687
10774SOL    HW233222   0.550   3.291   0.784
10775SOL     OW33223   1.991   4.238   0.410
10775SOL    HW133224   2.027   4.271   0.497
10775SOL    HW233225   2.067   4.215   0.349
10776SOL     OW33226   0.663   3.052   3.175
10776SOL    HW133227   0.713   3.120   3.228
10776SOL    HW233228   0.726   3.004   3.114
10777SOL     OW33229   1.206   0.222   1.028
10777SOL    HW133230   1.159   0.245   1.112
10777SOL    HW233231   1.302   0.200   1.048
10778SOL     OW33232   4.743   0.388   3.821
10778SOL    HW133233   4.756   0.319   3.892
10778SOL    HW233234   4.656   0.372   3.775
10779SOL     OW33235   5.695   2.771   5.763
10779SOL    HW133236   5.618   2.817   5.807
10779SOL    HW233237   5.663   2.684   5.724
10780SOL     OW33238   1.379   4.789   5.352
10780SOL    HW133239   1.387   4.885   5.380
10780SOL    HW233240   1.446   4.770   5.280
10781SOL     OW33241   5.961   2.224   6.232
10781SOL    HW133242   5.911   2.137   6.226
10781SOL    HW233243   6.050   2.214   6.188
10782SOL     OW33244   1.251   2.759   5.223
10782SOL    HW133245   1.316   2.727   5.154
10782SOL    HW233246   1.219   2.681   5.277
10783SOL     OW33247   1.461   3.661   3.371
10783SOL    HW133248   1.397   3.680   3.297
10783SOL    HW233249   1.494   3.567   3.363
10784SOL     OW33250   4.925   5.348   3.816
10784SOL    HW133251   4.976   5.266   3.840
10784SOL    HW233252   4.945   5.421   3.882
10785SOL     OW33253   1.816   5.261   1.602
10785SOL    HW133254   1.822   5.225   1.509
10785SOL    HW233255   1.793   5.358   1.599
10786SOL     OW33256   5.253   1.384   2.305
10786SOL    HW133257   5.333   1.440   2.324
10786SOL    HW233258   5.231   1.388   2.207
10787SOL     OW33259   3.556   1.928   3.604
10787SOL    HW133260   3.635   1.969   3.559
10787SOL    HW233261   3.573   1.830   3.617
10788SOL     OW33262   1.652   3.512   0.173
10788SOL    HW133263   1.682   3.602   0.141
10788SOL    HW233264   1.604   3.465   0.099
10789SOL     OW33265   6.877   1.668   2.328
10789SOL    HW133266   6.950   1.652   2.261
10789SOL    HW233267   6.911   1.725   2.402
10790SOL     OW33268   6.850   2.063   5.605
10790SOL    HW133269   6.909   2.136   5.572
10790SOL    HW233270   6.905   1.981   5.624
10791SOL     OW33271   1.943   2.630   3.927
10791SOL    HW133272   1.926   2.717   3.973
10791SOL    HW233273   2.034   2.596   3.952
10792SOL     OW33274   3.707   0.774   2.607
10792SOL    HW133275   3.668   0.855   2.650
10792SOL    HW233276   3.663   0.757   2.519
10793SOL     OW33277   3.179   1.588   4.548
10793SOL    HW133278   3.239   1.649   4.496
10793SOL    HW233279   3.208   1.494   4.535
10794SOL     OW33280   4.896   2.903   6.644
10794SOL    HW133281   4.821   2.969   6.647
10794SOL    HW233282   4.973   2.938   6.699
10795SOL     OW33283   6.376   3.224   3.341
10795SOL    HW133284   6.282   3.256   3.333
10795SOL    HW233285   6.437   3.287   3.293
10796SOL     OW33286   0.511   1.536   6.045
10796SOL    HW133287   0.604   1.519   6.076
10796SOL    HW233288   0.491   1.634   6.051
10797SOL     OW33289   5.452   4.908   6.735
10797SOL    HW133290   5.356   4.906   6.763
10797SOL    HW233291   5.464   4.976   6.662
10798SOL     OW33292   1.751   6.518   0.558
10798SOL    HW133293   1.845   6.483   0.556
10798SOL    HW233294   1.741   6.584   0.633
10799SOL     OW33295   3.191   0.476   2.424
10799SOL    HW133296   3.107   0.522   2.454
10799SOL    HW233297   3.270   0.520   2.466
10800SOL     OW33298   1.930   0.198   5.109
10800SOL    HW133299   1.893   0.121   5.162
10800SOL    HW233300   2.026   0.182   5.090
10801SOL     OW33301   2.663   5.940   6.742
10801SOL    HW133302   2.573   5.959   6.781
10801SOL    HW233303   2.686   6.011   6.675
10802SOL     OW33304   0.731   4.628   4.219
10802SOL    HW133305   0.662   4.657   4.286
10802SOL    HW233306   0.694   4.636   4.127
10803SOL     OW33307   6.905   3.820   4.923
10803SOL    HW133308   6.984   3.787   4.975
10803SOL    HW233309   6.832   3.752   4.929
10804SOL     OW33310   3.834   4.542   0.995
10804SOL    HW133311   3.855   4.487   0.914
10804SOL    HW233312   3.836   4.483   1.076
10805SOL     OW33313   3.961   6.271   0.326
10805SOL    HW133314   3.878   6.224   0.295
10805SOL    HW233315   3.936   6.353   0.377
10806SOL     OW33316   5.586   3.411   6.240
10806SOL    HW133317   5.519   3.394   6.312
10806SOL    HW233318   5.676   3.381   6.270
10807SOL     OW33319   5.214   2.301   4.636
10807SOL    HW133320   5.164   2.255   4.562
10807SOL    HW233321   5.151   2.362   4.686
10808SOL     OW33322   0.635   1.967   6.675
10808SOL    HW133323   0.678   1.960   6.764
10808SOL    HW233324   0.704   1.961   6.603
10809SOL     OW33325   1.344   1.091   2.587
10809SOL    HW133326   1.324   1.130   2.497
10809SOL    HW233327   1.328   0.992   2.585
10810SOL     OW33328   2.140   0.999   6.296
10810SOL    HW133329   2.198   1.080   6.287
10810SOL    HW233330   2.058   1.010   6.240
10811SOL     OW33331   4.142   5.783   6.932
10811SOL    HW133332   4.169   5.851   7.000
10811SOL    HW233333   4.143   5.692   6.973
10812SOL     OW33334   6.446   2.986   2.335
10812SOL    HW133335   6.397   3.044   2.400
10812SOL    HW233336   6.544   3.000   2.345
10813SOL     OW33337   3.238   6.431   2.152
10813SOL    HW133338   3.168   6.428   2.223
10813SOL    HW233339   3.314   6.370   2.178
10814SOL     OW33340   1.598   6.455   4.281
10814SOL    HW133341   1.577   6.357   4.276
10814SOL    HW233342   1.674   6.475   4.218
10815SOL     OW33343   5.358   2.016   5.279
10815SOL    HW133344   5.366   1.990   5.183
10815SOL    HW233345   5.440   1.986   5.328
10816SOL     OW33346   2.137   1.645   1.718
10816SOL    HW133347   2.139   1.696   1.804
10816SOL    HW233348   2.085   1.561   1.730
10817SOL     OW33349   3.325   1.663   1.771
10817SOL    HW133350   3.407   1.705   1.733
10817SOL    HW233351   3.263   1.734   1.803
10818SOL     OW33352   4.819   3.520   6.408
10818SOL    HW133353   4.746   3.451   6.411
10818SOL    HW233354   4.857   3.532   6.499
10819SOL     OW33355   1.487   4.033   5.412
10819SOL    HW133356   1.424   3.957   5.395
10819SOL    HW233357   1.463   4.109   5.352
10820SOL     OW33358   0.619   5.896   4.527
10820SOL    HW133359   0.590   5.830   4.597
10820SOL    HW233360   0.562   5.885   4.446
10821SOL     OW33361   0.770   0.867   6.704
10821SOL    HW133362   0.705   0.841   6.775
10821SOL    HW233363   0.860   0.880   6.745
10822SOL     OW33364   0.782   4.164   6.690
10822SOL    HW133365   0.838   4.083   6.675
10822SOL    HW233366   0.728   4.183   6.607
10823SOL     OW33367   2.077   2.652   0.740
10823SOL    HW133368   2.127   2.566   0.741
10823SOL    HW233369   2.077   2.692   0.832
10824SOL     OW33370   5.459   1.352   4.142
10824SOL    HW133371   5.515   1.376   4.063
10824SOL    HW233372   5.369   1.395   4.133
10825SOL     OW33373   2.957   1.103   2.576
10825SOL    HW133374   2.884   1.145   2.631
10825SOL    HW233375   3.032   1.167   2.564
10826SOL     OW33376   6.897   3.322   1.232
10826SOL    HW133377   6.833   3.335   1.156
10826SOL    HW233378   6.853   3.268   1.303
10827SOL     OW33379   0.710   2.590   4.398
10827SOL    HW133380   0.784   2.527   4.373
10827SOL    HW233381   0.680   2.571   4.492
10828SOL     OW33382   2.381   4.998   0.326
10828SOL    HW133383   2.289   5.029   0.304
10828SOL    HW233384   2.439   5.077   0.345
10829SOL     OW33385   2.341   4.167   1.961
10829SOL    HW133386   2.294   4.126   2.039
10829SOL    HW233387   2.335   4.106   1.882
10830SOL     OW33388   6.092   0.793   3.391
10830SOL    HW133389   6.182   0.757   3.415
10830SOL    HW233390   6.061   0.750   3.306
10831SOL     OW33391   5.399   2.500   1.798
10831SOL    HW133392   5.484   2.470   1.840
10831SOL    HW233393   5.326   2.435   1.819
10832SOL     OW33394   0.576   2.948   2.870
10832SOL    HW133395   0.566   2.913   2.776
10832SOL    HW233396   0.601   3.044   2.867
10833SOL     OW33397   3.312   6.845   4.229
10833SOL    HW133398   3.382   6.879   4.166
10833SOL    HW233399   3.230   6.903   4.221
10834SOL     OW33400   6.989   1.180   6.213
10834SOL    HW133401   0.024   1.211   6.136
10834SOL    HW233402   6.961   1.258   6.269
10835SOL     OW33403   0.845   2.030   0.947
10835SOL    HW133404   0.776   2.075   1.004
10835SOL    HW233405   0.833   2.058   0.852
10836SOL     OW33406   0.849   2.670   1.134
10836SOL    HW133407   0.803   2.583   1.116
10836SOL    HW233408   0.939   2.652   1.173
10837SOL     OW33409   0.570   5.865   0.789
10837SOL    HW133410   0.528   5.917   0.715
10837SOL    HW233411   0.664   5.842   0.763
10838SOL     OW33412   6.265   6.465   0.776
10838SOL    HW133413   6.319   6.549   0.772
10838SOL    HW233414   6.169   6.489   0.794
10839SOL     OW33415   2.004   1.827   6.470
10839SOL    HW133416   2.032   1.754   6.532
10839SOL    HW233417   2.082   1.857   6.416
10840SOL     OW33418   2.117   0.076   2.427
10840SOL    HW133419   2.119   0.000   2.361
10840SOL    HW233420   2.080   0.158   2.382
10841SOL     OW33421   4.478   3.547   0.633
10841SOL    HW133422   4.439   3.576   0.720
10841SOL    HW233423   4.568   3.505   0.650
10842SOL     OW33424   5.834   2.115   1.677
10842SOL    HW133425   5.866   2.040   1.619
10842SOL    HW233426   5.857   2.202   1.633
10843SOL     OW33427   0.399   2.091   1.764
10843SOL    HW133428   0.438   2.058   1.678
10843SOL    HW233429   0.383   2.189   1.757
10844SOL     OW33430   5.111   0.589   4.022
10844SOL    HW133431   5.145   0.517   3.960
10844SOL    HW233432   5.058   0.547   4.096
10845SOL     OW33433   2.200   3.130   1.107
10845SOL    HW133434   2.273   3.197   1.119
10845SOL    HW233435   2.202   3.065   1.183
10846SOL     OW33436   3.394   2.850   1.608
10846SOL    HW133437   3.372   2.794   1.688
10846SOL    HW233438   3.493   2.867   1.605
10847SOL     OW33439   4.709   2.184   5.311
10847SOL    HW133440   4.632   2.246   5.327
10847SOL    HW233441   4.695   2.136   5.225
10848SOL     OW33442   1.480   0.933   6.892
10848SOL    HW133443   1.545   0.882   6.834
10848SOL    HW233444   1.486   0.900   6.986
10849SOL     OW33445   1.597   4.851   4.162
10849SOL    HW133446   1.602   4.831   4.259
10849SOL    HW233447   1.529   4.792   4.118
10850SOL     OW33448   5.481   0.967   1.977
10850SOL    HW133449   5.425   0.924   1.906
10850SOL    HW233450   5.514   1.056   1.945
10851SOL     OW33451   4.450   2.982   6.860
10851SOL    HW133452   4.540   3.001   6.819
10851SOL    HW233453   4.452   2.892   6.904
10852SOL     OW33454   6.356   0.564   6.005
10852SOL    HW133455   6.263   0.582   6.037
10852SOL    HW233456   6.417   0.635   6.040
10853SOL     OW33457   3.493   0.715   4.450
10853SOL    HW133458   3.456   0.640   4.395
10853SOL    HW233459   3.458   0.707   4.544
10854SOL     OW33460   6.090   0.104   0.417
10854SOL    HW133461   5.992   0.118   0.402
10854SOL    HW233462   6.105   0.068   0.510
10855SOL     OW33463   0.297   5.950   1.403
10855SOL    HW133464   0.279   5.982   1.310
10855SOL    HW233465   0.390   5.915   1.409
10856SOL     OW33466   5.596   6.412   6.686
10856SOL    HW133467   5.513   6.467   6.687
10856SOL    HW233468   5.587   6.336   6.751
10857SOL     OW33469   6.439   6.801   4.766
10857SOL    HW133470   6.472   6.855   4.844
10857SOL    HW233471   6.517   6.761   4.719
10858SOL     OW33472   2.070   2.127   0.008
10858SOL    HW133473   2.111   2.037   0.020
10858SOL    HW233474   2.142   2.196   7.019
10859SOL     OW33475   2.451   5.437   2.744
10859SOL    HW133476   2.448   5.337   2.734
10859SOL    HW233477   2.545   5.469   2.732
10860SOL     OW33478   5.907   2.007   1.082
10860SOL    HW133479   5.828   1.973   1.132
10860SOL    HW233480   5.880   2.031   0.989
10861SOL     OW33481   1.747   4.165   1.565
10861SOL    HW133482   1.742   4.068   1.590
10861SOL    HW233483   1.654   4.203   1.561
10862SOL     OW33484   3.568   4.327   5.330
10862SOL    HW133485   3.627   4.373   5.263
10862SOL    HW233486   3.617   4.251   5.372
10863SOL     OW33487   1.732   0.465   3.110
10863SOL    HW133488   1.671   0.514   3.048
10863SOL    HW233489   1.827   0.487   3.087
10864SOL     OW33490   2.958   3.647   2.002
10864SOL    HW133491   2.936   3.623   1.907
10864SOL    HW233492   3.051   3.618   2.023
10865SOL     OW33493   3.073   2.150   2.545
10865SOL    HW133494   3.026   2.062   2.543
10865SOL    HW233495   3.056   2.200   2.461
10866SOL     OW33496   0.734   3.356   4.422
10866SOL    HW133497   0.775   3.265   4.417
10866SOL    HW233498   0.783   3.411   4.489
10867SOL     OW33499   4.441   3.227   0.088
10867SOL    HW133500   4.401   3.196   0.002
10867SOL    HW233501   4.461   3.147   0.146
10868SOL     OW33502   1.141   6.980   5.168
10868SOL    HW133503   1.214   6.934   5.218
10868SOL    HW233504   1.052   6.948   5.202
10869NA      NA33505   0.152   1.078   6.390
10870NA      NA33506   4.593   4.722   5.298
10871NA      NA33507   0.875   4.826   2.728
10872NA      NA33508   6.011   3.483   3.345
10873NA      NA33509   4.032   2.711   5.495
10874NA      NA33510   2.224   4.556   6.827
10875NA      NA33511   1.676   5.520   0.356
10876NA      NA33512   4.177   4.912   1.805
10877NA      NA33513   5.146   3.869   1.294
10878NA      NA33514   3.678   1.771   0.628
10879NA      NA33515   5.332   6.550   1.527
10880NA      NA33516   2.309   6.965   5.206
10881NA      NA33517   4.116   4.967   2.705
10882NA      NA33518   4.137   4.554   6.670
   7.01984   7.01984   7.01984
