Generated by trjconv : CNT in water t=  39.00000
33518
    1C        C    1   2.839   2.768   4.746
    1C        C    2   2.893   2.719   4.867
    1C        C    3   2.842   2.774   4.985
    1C        C    4   2.846   2.771   4.260
    1C        C    5   2.899   2.723   4.382
    1C        C    6   2.845   2.771   4.504
    1C        C    7   3.014   2.645   4.625
    1C        C    8   2.896   2.721   4.625
    1C        C    9   3.075   2.605   4.746
    1C        C   10   3.003   2.631   4.865
    1C        C   11   3.179   2.489   4.974
    1C        C   12   3.059   2.561   4.973
    1C        C   13   2.851   2.768   3.773
    1C        C   14   2.901   2.721   3.896
    1C        C   15   2.849   2.774   4.016
    1C        C   16   3.012   2.639   4.139
    1C        C   17   2.896   2.720   4.138
    1C        C   18   3.079   2.609   4.260
    1C        C   19   3.018   2.647   4.381
    1C        C   20   3.205   2.548   4.506
    1C        C   21   3.077   2.609   4.504
    1C        C   22   3.275   2.525   4.626
    1C        C   23   3.206   2.549   4.747
    1C        C   24   3.414   2.488   4.865
    1C        C   25   3.271   2.503   4.865
    1C        C   26   3.489   2.482   4.983
    1C        C   27   2.852   2.770   3.282
    1C        C   28   2.906   2.726   3.405
    1C        C   29   2.853   2.772   3.528
    1C        C   30   3.019   2.640   3.648
    1C        C   31   2.904   2.723   3.650
    1C        C   32   3.077   2.605   3.772
    1C        C   33   3.015   2.638   3.895
    1C        C   34   3.205   2.547   4.019
    1C        C   35   3.075   2.604   4.018
    1C        C   36   3.275   2.527   4.140
    1C        C   37   3.209   2.556   4.261
    1C        C   38   3.413   2.506   4.384
    1C        C   39   3.274   2.530   4.384
    1C        C   40   3.486   2.503   4.505
    1C        C   41   3.414   2.502   4.626
    1C        C   42   3.631   2.481   4.743
    1C        C   43   3.489   2.483   4.744
    1C        C   44   3.705   2.489   4.863
    1C        C   45   3.628   2.481   4.979
    1C        C   46   2.842   2.758   2.794
    1C        C   47   2.894   2.709   2.916
    1C        C   48   2.844   2.761   3.038
    1C        C   49   3.016   2.637   3.161
    1C        C   50   2.901   2.719   3.160
    1C        C   51   3.078   2.604   3.283
    1C        C   52   3.016   2.636   3.406
    1C        C   53   3.208   2.543   3.528
    1C        C   54   3.078   2.598   3.527
    1C        C   55   3.273   2.526   3.652
    1C        C   56   3.207   2.550   3.775
    1C        C   57   3.414   2.508   3.894
    1C        C   58   3.274   2.527   3.897
    1C        C   59   3.485   2.505   4.016
    1C        C   60   3.416   2.510   4.139
    1C        C   61   3.625   2.496   4.261
    1C        C   62   3.484   2.499   4.262
    1C        C   63   3.701   2.504   4.380
    1C        C   64   3.627   2.504   4.500
    1C        C   65   3.834   2.545   4.621
    1C        C   66   3.700   2.499   4.621
    1C        C   67   3.904   2.561   4.742
    1C        C   68   3.841   2.528   4.864
    1C        C   69   4.053   2.586   4.975
    1C        C   70   3.926   2.527   4.976
    1C        C   71   2.824   2.736   2.307
    1C        C   72   2.885   2.693   2.427
    1C        C   73   2.830   2.745   2.547
    1C        C   74   2.999   2.622   2.674
    1C        C   75   2.885   2.706   2.671
    1C        C   76   3.069   2.588   2.792
    1C        C   77   3.014   2.633   2.914
    1C        C   78   3.205   2.547   3.036
    1C        C   79   3.077   2.605   3.037
    1C        C   80   3.272   2.524   3.159
    1C        C   81   3.205   2.543   3.282
    1C        C   82   3.412   2.498   3.404
    1C        C   83   3.274   2.524   3.404
    1C        C   84   3.481   2.491   3.527
    1C        C   85   3.413   2.506   3.650
    1C        C   86   3.626   2.508   3.768
    1C        C   87   3.485   2.503   3.772
    1C        C   88   3.694   2.518   3.891
    1C        C   89   3.626   2.509   4.015
    1C        C   90   3.830   2.551   4.137
    1C        C   91   3.695   2.512   4.138
    1C        C   92   3.900   2.573   4.258
    1C        C   93   3.838   2.538   4.380
    1C        C   94   4.032   2.629   4.499
    1C        C   95   3.905   2.567   4.501
    1C        C   96   4.093   2.667   4.620
    1C        C   97   4.030   2.627   4.740
    1C        C   98   4.194   2.764   4.861
    1C        C   99   4.101   2.656   4.860
    1C        C  100   4.213   2.843   4.975
    1C        C  101   2.817   2.731   2.068
    1C        C  102   2.986   2.591   2.191
    1C        C  103   2.874   2.681   2.186
    1C        C  104   3.060   2.570   2.311
    1C        C  105   3.002   2.615   2.431
    1C        C  106   3.199   2.538   2.551
    1C        C  107   3.067   2.589   2.554
    1C        C  108   3.270   2.526   2.672
    1C        C  109   3.199   2.534   2.794
    1C        C  110   3.411   2.501   2.915
    1C        C  111   3.271   2.520   2.914
    1C        C  112   3.481   2.489   3.037
    1C        C  113   3.411   2.502   3.160
    1C        C  114   3.624   2.499   3.277
    1C        C  115   3.483   2.496   3.282
    1C        C  116   3.692   2.508   3.401
    1C        C  117   3.622   2.501   3.523
    1C        C  118   3.831   2.549   3.646
    1C        C  119   3.694   2.514   3.644
    1C        C  120   3.897   2.571   3.769
    1C        C  121   3.832   2.550   3.893
    1C        C  122   4.026   2.635   4.013
    1C        C  123   3.898   2.574   4.015
    1C        C  124   4.089   2.672   4.134
    1C        C  125   4.024   2.639   4.255
    1C        C  126   4.195   2.765   4.376
    1C        C  127   4.089   2.671   4.376
    1C        C  128   4.242   2.818   4.498
    1C        C  129   4.194   2.765   4.620
    1C        C  130   4.335   2.930   4.738
    1C        C  131   4.249   2.817   4.740
    1C        C  132   4.361   3.000   4.858
    1C        C  133   4.284   2.962   4.969
    1C        C  134   3.172   2.477   2.079
    1C        C  135   3.037   2.515   2.082
    1C        C  136   3.259   2.481   2.189
    1C        C  137   3.192   2.517   2.308
    1C        C  138   3.402   2.478   2.428
    1C        C  139   3.264   2.506   2.430
    1C        C  140   3.478   2.489   2.547
    1C        C  141   3.410   2.504   2.669
    1C        C  142   3.621   2.497   2.792
    1C        C  143   3.480   2.495   2.792
    1C        C  144   3.694   2.507   2.913
    1C        C  145   3.622   2.491   3.033
    1C        C  146   3.829   2.541   3.157
    1C        C  147   3.694   2.500   3.154
    1C        C  148   3.897   2.569   3.278
    1C        C  149   3.831   2.537   3.398
    1C        C  150   4.020   2.631   3.521
    1C        C  151   3.894   2.566   3.521
    1C        C  152   4.077   2.672   3.644
    1C        C  153   4.021   2.638   3.769
    1C        C  154   4.192   2.764   3.888
    1C        C  155   4.083   2.674   3.890
    1C        C  156   4.247   2.811   4.010
    1C        C  157   4.201   2.759   4.133
    1C        C  158   4.337   2.923   4.252
    1C        C  159   4.249   2.812   4.255
    1C        C  160   4.369   2.988   4.374
    1C        C  161   4.322   2.934   4.496
    1C        C  162   4.436   3.116   4.617
    1C        C  163   4.369   2.991   4.616
    1C        C  164   4.466   3.182   4.738
    1C        C  165   4.439   3.117   4.860
    1C        C  166   4.510   3.317   4.972
    1C        C  167   4.476   3.182   4.979
    1C        C  168   3.470   2.429   2.074
    1C        C  169   3.395   2.445   2.192
    1C        C  170   3.616   2.464   2.306
    1C        C  171   3.474   2.457   2.309
    1C        C  172   3.691   2.480   2.424
    1C        C  173   3.620   2.484   2.546
    1C        C  174   3.825   2.535   2.666
    1C        C  175   3.689   2.496   2.668
    1C        C  176   3.892   2.563   2.787
    1C        C  177   3.831   2.541   2.913
    1C        C  178   4.021   2.630   3.032
    1C        C  179   3.898   2.561   3.035
    1C        C  180   4.087   2.661   3.153
    1C        C  181   4.027   2.624   3.276
    1C        C  182   4.194   2.751   3.399
    1C        C  183   4.084   2.662   3.399
    1C        C  184   4.242   2.803   3.521
    1C        C  185   4.190   2.757   3.644
    1C        C  186   4.337   2.915   3.763
    1C        C  187   4.245   2.807   3.764
    1C        C  188   4.379   2.975   3.884
    1C        C  189   4.332   2.923   4.006
    1C        C  190   4.444   3.103   4.127
    1C        C  191   4.372   2.982   4.129
    1C        C  192   4.467   3.172   4.249
    1C        C  193   4.436   3.112   4.373
    1C        C  194   4.505   3.313   4.490
    1C        C  195   4.468   3.177   4.494
    1C        C  196   4.523   3.383   4.612
    1C        C  197   4.509   3.318   4.736
    1C        C  198   4.557   3.531   4.852
    1C        C  199   4.536   3.390   4.855
    1C        C  200   4.591   3.620   4.959
    1C        C  201   3.610   2.424   2.072
    1C        C  202   3.823   2.515   2.184
    1C        C  203   3.689   2.466   2.184
    1C        C  204   3.896   2.542   2.303
    1C        C  205   3.826   2.521   2.424
    1C        C  206   4.021   2.617   2.541
    1C        C  207   3.893   2.557   2.544
    1C        C  208   4.081   2.657   2.663
    1C        C  209   4.020   2.623   2.786
    1C        C  210   4.195   2.746   2.910
    1C        C  211   4.079   2.665   2.907
    1C        C  212   4.251   2.793   3.030
    1C        C  213   4.199   2.747   3.153
    1C        C  214   4.333   2.909   3.272
    1C        C  215   4.246   2.798   3.276
    1C        C  216   4.368   2.972   3.393
    1C        C  217   4.332   2.912   3.516
    1C        C  218   4.434   3.097   3.638
    1C        C  219   4.374   2.969   3.638
    1C        C  220   4.462   3.165   3.759
    1C        C  221   4.442   3.101   3.883
    1C        C  222   4.504   3.305   4.004
    1C        C  223   4.470   3.168   4.004
    1C        C  224   4.513   3.380   4.124
    1C        C  225   4.499   3.310   4.246
    1C        C  226   4.516   3.522   4.366
    1C        C  227   4.518   3.381   4.366
    1C        C  228   4.516   3.593   4.488
    1C        C  229   4.531   3.524   4.610
    1C        C  230   4.499   3.737   4.726
    1C        C  231   4.537   3.600   4.728
    1C        C  232   4.490   3.813   4.844
    1C        C  233   4.542   3.751   4.959
    1C        C  234   4.014   2.615   2.061
    1C        C  235   3.890   2.552   2.066
    1C        C  236   4.082   2.651   2.179
    1C        C  237   4.021   2.609   2.299
    1C        C  238   4.201   2.730   2.422
    1C        C  239   4.083   2.651   2.419
    1C        C  240   4.252   2.783   2.543
    1C        C  241   4.194   2.741   2.665
    1C        C  242   4.336   2.900   2.783
    1C        C  243   4.248   2.789   2.786
    1C        C  244   4.379   2.957   2.905
    1C        C  245   4.342   2.902   3.029
    1C        C  246   4.434   3.095   3.146
    1C        C  247   4.378   2.965   3.150
    1C        C  248   4.456   3.161   3.269
    1C        C  249   4.429   3.100   3.393
    1C        C  250   4.496   3.300   3.515
    1C        C  251   4.456   3.165   3.516
    1C        C  252   4.507   3.373   3.636
    1C        C  253   4.497   3.302   3.758
    1C        C  254   4.518   3.512   3.875
    1C        C  255   4.514   3.371   3.880
    1C        C  256   4.519   3.587   3.995
    1C        C  257   4.518   3.521   4.120
    1C        C  258   4.486   3.730   4.242
    1C        C  259   4.510   3.591   4.243
    1C        C  260   4.471   3.801   4.364
    1C        C  261   4.493   3.733   4.486
    1C        C  262   4.429   3.939   4.601
    1C        C  263   4.478   3.807   4.605
    1C        C  264   4.396   4.005   4.722
    1C        C  265   4.428   3.940   4.843
    1C        C  266   4.314   4.127   4.953
    1C        C  267   4.389   4.010   4.958
    1C        C  268   4.262   2.772   2.060
    1C        C  269   4.200   2.729   2.178
    1C        C  270   4.344   2.886   2.298
    1C        C  271   4.253   2.777   2.300
    1C        C  272   4.380   2.952   2.418
    1C        C  273   4.341   2.893   2.540
    1C        C  274   4.447   3.078   2.661
    1C        C  275   4.381   2.953   2.661
    1C        C  276   4.470   3.150   2.780
    1C        C  277   4.445   3.082   2.902
    1C        C  278   4.499   3.290   3.023
    1C        C  279   4.469   3.152   3.022
    1C        C  280   4.511   3.362   3.144
    1C        C  281   4.494   3.297   3.269
    1C        C  282   4.510   3.508   3.388
    1C        C  283   4.510   3.366   3.391
    1C        C  284   4.509   3.582   3.508
    1C        C  285   4.516   3.514   3.631
    1C        C  286   4.488   3.723   3.752
    1C        C  287   4.515   3.584   3.754
    1C        C  288   4.471   3.792   3.874
    1C        C  289   4.492   3.725   3.997
    1C        C  290   4.423   3.928   4.114
    1C        C  291   4.471   3.795   4.118
    1C        C  292   4.391   3.995   4.234
    1C        C  293   4.421   3.933   4.358
    1C        C  294   4.323   4.122   4.477
    1C        C  295   4.395   4.001   4.479
    1C        C  296   4.280   4.185   4.596
    1C        C  297   4.322   4.126   4.718
    1C        C  298   4.197   4.312   4.837
    1C        C  299   4.281   4.195   4.835
    1C        C  300   4.166   4.401   4.944
    1C        C  301   4.349   2.880   2.063
    1C        C  302   4.469   3.067   2.175
    1C        C  303   4.396   2.944   2.179
    1C        C  304   4.482   3.140   2.296
    1C        C  305   4.450   3.075   2.418
    1C        C  306   4.505   3.282   2.536
    1C        C  307   4.476   3.143   2.538
    1C        C  308   4.511   3.357   2.655
    1C        C  309   4.504   3.287   2.778
    1C        C  310   4.521   3.500   2.898
    1C        C  311   4.513   3.359   2.900
    1C        C  312   4.510   3.571   3.019
    1C        C  313   4.508   3.503   3.143
    1C        C  314   4.483   3.715   3.262
    1C        C  315   4.504   3.575   3.264
    1C        C  316   4.468   3.785   3.384
    1C        C  317   4.483   3.721   3.509
    1C        C  318   4.425   3.927   3.627
    1C        C  319   4.470   3.793   3.630
    1C        C  320   4.391   3.990   3.749
    1C        C  321   4.419   3.923   3.870
    1C        C  322   4.316   4.110   3.993
    1C        C  323   4.392   3.991   3.991
    1C        C  324   4.275   4.171   4.113
    1C        C  325   4.322   4.118   4.236
    1C        C  326   4.185   4.284   4.353
    1C        C  327   4.282   4.181   4.355
    1C        C  328   4.134   4.338   4.473
    1C        C  329   4.188   4.292   4.596
    1C        C  330   4.028   4.441   4.707
    1C        C  331   4.139   4.352   4.714
    1C        C  332   3.973   4.498   4.824
    1C        C  333   4.055   4.485   4.938
    1C        C  334   4.553   3.264   2.062
    1C        C  335   4.533   3.125   2.062
    1C        C  336   4.542   3.348   2.174
    1C        C  337   4.516   3.278   2.294
    1C        C  338   4.525   3.493   2.408
    1C        C  339   4.518   3.352   2.414
    1C        C  340   4.521   3.566   2.529
    1C        C  341   4.516   3.498   2.652
    1C        C  342   4.490   3.707   2.772
    1C        C  343   4.517   3.569   2.774
    1C        C  344   4.475   3.780   2.892
    1C        C  345   4.491   3.711   3.015
    1C        C  346   4.423   3.913   3.136
    1C        C  347   4.470   3.779   3.136
    1C        C  348   4.392   3.979   3.257
    1C        C  349   4.425   3.919   3.381
    1C        C  350   4.317   4.103   3.503
    1C        C  351   4.397   3.987   3.502
    1C        C  352   4.278   4.167   3.623
    1C        C  353   4.321   4.112   3.746
    1C        C  354   4.179   4.267   3.866
    1C        C  355   4.276   4.165   3.869
    1C        C  356   4.120   4.315   3.986
    1C        C  357   4.180   4.275   4.108
    1C        C  358   4.009   4.399   4.230
    1C        C  359   4.130   4.326   4.230
    1C        C  360   3.952   4.447   4.350
    1C        C  361   4.020   4.421   4.471
    1C        C  362   3.827   4.523   4.589
    1C        C  363   3.956   4.464   4.589
    1C        C  364   3.762   4.550   4.711
    1C        C  365   3.839   4.543   4.829
    1C        C  366   3.628   4.594   4.946
    1C        C  367   3.766   4.572   4.944
    1C        C  368   4.518   3.564   2.050
    1C        C  369   4.533   3.489   2.168
    1C        C  370   4.498   3.703   2.286
    1C        C  371   4.521   3.564   2.286
    1C        C  372   4.483   3.776   2.406
    1C        C  373   4.496   3.705   2.527
    1C        C  374   4.419   3.904   2.647
    1C        C  375   4.475   3.775   2.648
    1C        C  376   4.392   3.972   2.768
    1C        C  377   4.426   3.912   2.891
    1C        C  378   4.323   4.097   3.011
    1C        C  379   4.398   3.978   3.013
    1C        C  380   4.277   4.152   3.133
    1C        C  381   4.317   4.099   3.257
    1C        C  382   4.179   4.260   3.377
    1C        C  383   4.276   4.158   3.379
    1C        C  384   4.126   4.308   3.499
    1C        C  385   4.179   4.267   3.623
    1C        C  386   4.005   4.391   3.741
    1C        C  387   4.122   4.311   3.745
    1C        C  388   3.944   4.431   3.861
    1C        C  389   4.003   4.393   3.984
    1C        C  390   3.816   4.487   4.108
    1C        C  391   3.945   4.430   4.108
    1C        C  392   3.749   4.518   4.229
    1C        C  393   3.826   4.511   4.347
    1C        C  394   3.617   4.556   4.473
    1C        C  395   3.757   4.538   4.467
    1C        C  396   3.545   4.562   4.594
    1C        C  397   3.621   4.563   4.713
    1C        C  398   3.409   4.547   4.840
    1C        C  399   3.548   4.572   4.834
    1C        C  400   3.340   4.515   4.958
    1C        C  401   4.509   3.703   2.050
    1C        C  402   4.447   3.913   2.164
    1C        C  403   4.489   3.778   2.166
    1C        C  404   4.410   3.976   2.285
    1C        C  405   4.429   3.907   2.406
    1C        C  406   4.330   4.098   2.525
    1C        C  407   4.394   3.972   2.526
    1C        C  408   4.279   4.148   2.647
    1C        C  409   4.319   4.093   2.771
    1C        C  410   4.176   4.254   2.889
    1C        C  411   4.276   4.154   2.891
    1C        C  412   4.122   4.296   3.013
    1C        C  413   4.176   4.251   3.135
    1C        C  414   4.001   4.377   3.251
    1C        C  415   4.119   4.299   3.255
    1C        C  416   3.940   4.412   3.373
    1C        C  417   4.006   4.383   3.495
    1C        C  418   3.813   4.474   3.618
    1C        C  419   3.944   4.421   3.617
    1C        C  420   3.745   4.501   3.739
    1C        C  421   3.813   4.483   3.862
    1C        C  422   3.609   4.533   3.985
    1C        C  423   3.748   4.504   3.986
    1C        C  424   3.539   4.539   4.107
    1C        C  425   3.609   4.536   4.230
    1C        C  426   3.400   4.540   4.353
    1C        C  427   3.541   4.548   4.354
    1C        C  428   3.332   4.540   4.477
    1C        C  429   3.404   4.555   4.598
    1C        C  430   3.196   4.511   4.721
    1C        C  431   3.335   4.540   4.720
    1C        C  432   3.125   4.497   4.843
    1C        C  433   3.202   4.496   4.960
    1C        C  434   4.376   4.119   2.051
    1C        C  435   4.435   3.992   2.049
    1C        C  436   4.298   4.161   2.163
    1C        C  437   4.334   4.097   2.285
    1C        C  438   4.184   4.253   2.402
    1C        C  439   4.287   4.157   2.404
    1C        C  440   4.123   4.293   2.523
    1C        C  441   4.176   4.245   2.645
    1C        C  442   4.000   4.367   2.764
    1C        C  443   4.122   4.294   2.765
    1C        C  444   3.943   4.411   2.886
    1C        C  445   4.001   4.370   3.008
    1C        C  446   3.810   4.467   3.132
    1C        C  447   3.939   4.409   3.128
    1C        C  448   3.745   4.491   3.255
    1C        C  449   3.813   4.473   3.378
    1C        C  450   3.604   4.524   3.495
    1C        C  451   3.743   4.499   3.498
    1C        C  452   3.538   4.541   3.619
    1C        C  453   3.609   4.538   3.741
    1C        C  454   3.397   4.541   3.864
    1C        C  455   3.538   4.542   3.863
    1C        C  456   3.326   4.532   3.987
    1C        C  457   3.398   4.536   4.108
    1C        C  458   3.191   4.502   4.236
    1C        C  459   3.330   4.524   4.231
    1C        C  460   3.126   4.486   4.360
    1C        C  461   3.193   4.515   4.481
    1C        C  462   2.995   4.433   4.603
    1C        C  463   3.122   4.494   4.601
    1C        C  464   2.932   4.396   4.724
    1C        C  465   2.991   4.447   4.844
    1C        C  466   2.799   4.342   4.960
    1C        C  467   2.909   4.429   4.960
    1C        C  468   4.116   4.281   2.039
    1C        C  469   4.179   4.240   2.158
    1C        C  470   4.003   4.363   2.277
    1C        C  471   4.123   4.288   2.279
    1C        C  472   3.942   4.403   2.398
    1C        C  473   4.006   4.372   2.520
    1C        C  474   3.810   4.456   2.641
    1C        C  475   3.940   4.401   2.641
    1C        C  476   3.746   4.483   2.764
    1C        C  477   3.814   4.467   2.887
    1C        C  478   3.606   4.513   3.007
    1C        C  479   3.745   4.488   3.008
    1C        C  480   3.534   4.522   3.129
    1C        C  481   3.606   4.514   3.250
    1C        C  482   3.394   4.529   3.377
    1C        C  483   3.535   4.524   3.372
    1C        C  484   3.324   4.531   3.500
    1C        C  485   3.397   4.540   3.620
    1C        C  486   3.189   4.499   3.743
    1C        C  487   3.326   4.532   3.742
    1C        C  488   3.125   4.475   3.867
    1C        C  489   3.189   4.497   3.991
    1C        C  490   2.995   4.420   4.116
    1C        C  491   3.122   4.483   4.114
    1C        C  492   2.938   4.383   4.240
    1C        C  493   3.000   4.421   4.361
    1C        C  494   2.834   4.292   4.482
    1C        C  495   2.936   4.390   4.483
    1C        C  496   2.776   4.253   4.604
    1C        C  497   2.818   4.311   4.726
    1C        C  498   2.661   4.168   4.842
    1C        C  499   2.754   4.274   4.846
    1C        C  500   2.591   4.122   4.955
    1C        C  501   4.000   4.358   2.036
    1C        C  502   3.814   4.463   2.157
    1C        C  503   3.942   4.402   2.156
    1C        C  504   3.743   4.476   2.278
    1C        C  505   3.811   4.457   2.400
    1C        C  506   3.604   4.509   2.519
    1C        C  507   3.743   4.486   2.521
    1C        C  508   3.534   4.518   2.642
    1C        C  509   3.608   4.514   2.762
    1C        C  510   3.396   4.519   2.887
    1C        C  511   3.537   4.522   2.884
    1C        C  512   3.324   4.515   3.009
    1C        C  513   3.393   4.523   3.132
    1C        C  514   3.186   4.490   3.252
    1C        C  515   3.323   4.524   3.255
    1C        C  516   3.121   4.468   3.375
    1C        C  517   3.186   4.497   3.497
    1C        C  518   2.996   4.412   3.627
    1C        C  519   3.122   4.476   3.621
    1C        C  520   2.939   4.371   3.750
    1C        C  521   2.999   4.411   3.872
    1C        C  522   2.830   4.286   3.995
    1C        C  523   2.937   4.378   3.994
    1C        C  524   2.784   4.233   4.118
    1C        C  525   2.830   4.292   4.238
    1C        C  526   2.691   4.133   4.364
    1C        C  527   2.783   4.241   4.361
    1C        C  528   2.652   4.074   4.486
    1C        C  529   2.690   4.140   4.605
    1C        C  530   2.582   3.960   4.731
    1C        C  531   2.641   4.089   4.727
    1C        C  532   2.538   3.902   4.853
    1C        C  533   2.527   3.998   4.959
    1C        C  534   3.616   4.550   2.041
    1C        C  535   3.752   4.515   2.043
    1C        C  536   3.534   4.537   2.157
    1C        C  537   3.605   4.510   2.276
    1C        C  538   3.392   4.515   2.400
    1C        C  539   3.533   4.514   2.398
    1C        C  540   3.323   4.504   2.523
    1C        C  541   3.393   4.516   2.645
    1C        C  542   3.184   4.482   2.766
    1C        C  543   3.323   4.509   2.767
    1C        C  544   3.114   4.467   2.887
    1C        C  545   3.185   4.490   3.007
    1C        C  546   2.992   4.404   3.133
    1C        C  547   3.118   4.469   3.130
    1C        C  548   2.935   4.364   3.256
    1C        C  549   2.995   4.403   3.378
    1C        C  550   2.831   4.282   3.502
    1C        C  551   2.939   4.373   3.504
    1C        C  552   2.783   4.230   3.624
    1C        C  553   2.832   4.280   3.747
    1C        C  554   2.696   4.124   3.874
    1C        C  555   2.786   4.233   3.872
    1C        C  556   2.653   4.066   3.996
    1C        C  557   2.694   4.125   4.118
    1C        C  558   2.587   3.948   4.245
    1C        C  559   2.651   4.074   4.242
    1C        C  560   2.562   3.881   4.367
    1C        C  561   2.593   3.946   4.488
    1C        C  562   2.525   3.750   4.614
    1C        C  563   2.558   3.887   4.612
    1C        C  564   2.519   3.681   4.737
    1C        C  565   2.527   3.760   4.855
    1C        C  566   2.534   3.547   4.979
    1C        C  567   2.522   3.686   4.973
    1C        C  568   3.327   4.475   2.044
    1C        C  569   3.393   4.515   2.161
    1C        C  570   3.180   4.474   2.280
    1C        C  571   3.316   4.514   2.280
    1C        C  572   3.112   4.458   2.403
    1C        C  573   3.183   4.483   2.522
    1C        C  574   2.985   4.408   2.647
    1C        C  575   3.114   4.465   2.644
    1C        C  576   2.923   4.370   2.769
    1C        C  577   2.986   4.407   2.890
    1C        C  578   2.823   4.274   3.013
    1C        C  579   2.927   4.369   3.013
    1C        C  580   2.777   4.222   3.137
    1C        C  581   2.829   4.271   3.259
    1C        C  582   2.695   4.112   3.382
    1C        C  583   2.781   4.225   3.383
    1C        C  584   2.658   4.055   3.506
    1C        C  585   2.697   4.117   3.627
    1C        C  586   2.596   3.938   3.757
    1C        C  587   2.656   4.065   3.752
    1C        C  588   2.568   3.873   3.880
    1C        C  589   2.595   3.938   4.002
    1C        C  590   2.533   3.738   4.126
    1C        C  591   2.563   3.876   4.125
    1C        C  592   2.524   3.672   4.250
    1C        C  593   2.530   3.744   4.371
    1C        C  594   2.509   3.534   4.498
    1C        C  595   2.516   3.675   4.494
    1C        C  596   2.517   3.463   4.619
    1C        C  597   2.522   3.539   4.739
    1C        C  598   2.530   3.329   4.860
    1C        C  599   2.531   3.470   4.862
    1C        C  600   2.532   3.254   4.979
    1C        C  601   3.195   4.436   2.042
    1C        C  602   2.983   4.389   2.158
    1C        C  603   3.117   4.438   2.158
    1C        C  604   2.925   4.356   2.284
    1C        C  605   2.986   4.393   2.406
    1C        C  606   2.820   4.264   2.528
    1C        C  607   2.924   4.361   2.529
    1C        C  608   2.766   4.219   2.651
    1C        C  609   2.818   4.276   2.769
    1C        C  610   2.687   4.110   2.893
    1C        C  611   2.773   4.222   2.892
    1C        C  612   2.649   4.051   3.016
    1C        C  613   2.686   4.114   3.137
    1C        C  614   2.591   3.927   3.263
    1C        C  615   2.652   4.054   3.261
    1C        C  616   2.565   3.867   3.388
    1C        C  617   2.595   3.929   3.511
    1C        C  618   2.531   3.733   3.637
    1C        C  619   2.569   3.869   3.637
    1C        C  620   2.514   3.666   3.760
    1C        C  621   2.529   3.737   3.881
    1C        C  622   2.505   3.528   4.006
    1C        C  623   2.522   3.668   4.004
    1C        C  624   2.510   3.459   4.129
    1C        C  625   2.514   3.531   4.250
    1C        C  626   2.539   3.325   4.378
    1C        C  627   2.516   3.465   4.375
    1C        C  628   2.558   3.252   4.498
    1C        C  629   2.542   3.324   4.618
    1C        C  630   2.592   3.120   4.741
    1C        C  631   2.547   3.255   4.741
    1C        C  632   2.617   3.054   4.865
    1C        C  633   2.565   3.118   4.982
    1C        C  634   2.787   4.297   2.049
    1C        C  635   2.890   4.392   2.049
    1C        C  636   2.750   4.229   2.166
    1C        C  637   2.808   4.275   2.285
    1C        C  638   2.677   4.108   2.408
    1C        C  639   2.766   4.218   2.407
    1C        C  640   2.637   4.050   2.530
    1C        C  641   2.678   4.109   2.652
    1C        C  642   2.584   3.919   2.775
    1C        C  643   2.644   4.047   2.774
    1C        C  644   2.557   3.855   2.898
    1C        C  645   2.585   3.925   3.018
    1C        C  646   2.526   3.723   3.145
    1C        C  647   2.566   3.859   3.142
    1C        C  648   2.517   3.658   3.271
    1C        C  649   2.530   3.730   3.391
    1C        C  650   2.505   3.522   3.518
    1C        C  651   2.518   3.663   3.515
    1C        C  652   2.511   3.452   3.640
    1C        C  653   2.506   3.525   3.761
    1C        C  654   2.537   3.318   3.888
    1C        C  655   2.505   3.456   3.884
    1C        C  656   2.557   3.253   4.012
    1C        C  657   2.539   3.321   4.135
    1C        C  658   2.612   3.123   4.258
    1C        C  659   2.561   3.254   4.258
    1C        C  660   2.644   3.059   4.380
    1C        C  661   2.605   3.119   4.501
    1C        C  662   2.709   2.935   4.626
    1C        C  663   2.632   3.053   4.623
    1C        C  664   2.747   2.877   4.749
    1C        C  665   2.695   2.934   4.868
    1C        C  666   2.741   2.869   4.984
    1C        C  667   2.685   4.021   2.056
    1C        C  668   2.681   4.106   2.168
    1C        C  669   2.580   3.916   2.290
    1C        C  670   2.633   4.048   2.287
    1C        C  671   2.556   3.848   2.412
    1C        C  672   2.581   3.920   2.531
    1C        C  673   2.516   3.718   2.656
    1C        C  674   2.559   3.852   2.653
    1C        C  675   2.507   3.648   2.779
    1C        C  676   2.524   3.718   2.900
    1C        C  677   2.503   3.511   3.031
    1C        C  678   2.509   3.652   3.025
    1C        C  679   2.509   3.442   3.154
    1C        C  680   2.509   3.517   3.274
    1C        C  681   2.532   3.310   3.400
    1C        C  682   2.506   3.449   3.397
    1C        C  683   2.551   3.244   3.523
    1C        C  684   2.534   3.312   3.645
    1C        C  685   2.610   3.116   3.771
    1C        C  686   2.556   3.246   3.768
    1C        C  687   2.643   3.054   3.893
    1C        C  688   2.606   3.120   4.012
    1C        C  689   2.718   2.941   4.137
    1C        C  690   2.639   3.058   4.135
    1C        C  691   2.755   2.879   4.258
    1C        C  692   2.716   2.938   4.381
    1C        C  693   2.754   2.879   4.504
    1C        C  694   2.628   3.894   2.058
    1C        C  695   2.534   3.701   2.175
    1C        C  696   2.576   3.836   2.174
    1C        C  697   2.511   3.634   2.297
    1C        C  698   2.525   3.711   2.415
    1C        C  699   2.491   3.502   2.541
    1C        C  700   2.502   3.643   2.537
    1C        C  701   2.503   3.434   2.665
    1C        C  702   2.504   3.507   2.786
    1C        C  703   2.529   3.300   2.910
    1C        C  704   2.507   3.440   2.910
    1C        C  705   2.546   3.230   3.032
    1C        C  706   2.529   3.302   3.153
    1C        C  707   2.601   3.108   3.278
    1C        C  708   2.547   3.239   3.278
    1C        C  709   2.639   3.052   3.402
    1C        C  710   2.604   3.113   3.524
    1C        C  711   2.717   2.935   3.647
    1C        C  712   2.639   3.053   3.648
    1C        C  713   2.761   2.877   3.768
    1C        C  714   2.719   2.935   3.890
    1C        C  715   2.758   2.882   4.015
    1C        C  716   2.446   3.501   2.061
    1C        C  717   2.486   3.635   2.061
    1C        C  718   2.465   3.421   2.178
    1C        C  719   2.485   3.495   2.298
    1C        C  720   2.518   3.289   2.424
    1C        C  721   2.487   3.427   2.422
    1C        C  722   2.537   3.221   2.546
    1C        C  723   2.521   3.294   2.666
    1C        C  724   2.591   3.096   2.789
    1C        C  725   2.543   3.229   2.789
    1C        C  726   2.619   3.033   2.912
    1C        C  727   2.592   3.097   3.035
    1C        C  728   2.704   2.920   3.159
    1C        C  729   2.626   3.037   3.159
    1C        C  730   2.755   2.873   3.282
    1C        C  731   2.713   2.931   3.403
    1C        C  732   2.755   2.873   3.525
    1C        C  733   2.485   3.196   2.070
    1C        C  734   2.490   3.280   2.182
    1C        C  735   2.581   3.084   2.302
    1C        C  736   2.528   3.216   2.304
    1C        C  737   2.616   3.021   2.423
    1C        C  738   2.589   3.089   2.544
    1C        C  739   2.699   2.912   2.669
    1C        C  740   2.628   3.034   2.668
    1C        C  741   2.745   2.861   2.792
    1C        C  742   2.701   2.918   2.914
    1C        C  743   2.747   2.864   3.036
    1C        C  744   2.549   3.073   2.068
    1C        C  745   2.682   2.895   2.181
    1C        C  746   2.604   3.013   2.182
    1C        C  747   2.727   2.840   2.303
    1C        C  748   2.685   2.899   2.424
    1C        C  749   2.737   2.851   2.547
    1C        C  750   2.731   2.840   2.062
    1C        C  751   3.668   2.323   1.980
    1C        O  752   3.695   2.209   2.024
    1C        O  753   3.644   2.336   1.842
    1C        C  754   4.605   3.047   1.959
    1C        O  755   4.555   3.016   1.847
    1C        O  756   4.722   2.972   1.978
    1C        C  757   4.435   4.220   1.961
    1C        O  758   4.533   4.294   1.991
    1C        O  759   4.420   4.214   1.822
    1C        C  760   3.589   4.637   1.924
    1C        O  761   3.630   4.756   1.923
    1C        O  762   3.556   4.588   1.797
    1C        C  763   2.871   4.505   1.956
    1C        O  764   2.910   4.494   1.837
    1C        O  765   2.759   4.589   1.957
    1C        C  766   2.336   3.474   1.966
    1C        O  767   2.366   3.419   1.857
    1C        O  768   2.199   3.483   1.995
    1C        C  769   4.703   3.587   5.050
    1C        O  770   4.677   3.592   5.174
    1C        O  771   4.841   3.585   5.025
    1C        C  772   4.261   4.439   5.052
    1C        O  773   4.249   4.418   5.176
    1C        O  774   4.369   4.525   5.030
    1C        C  775   4.148   2.497   5.046
    1C        O  776   4.137   2.371   5.048
    1C        O  777   4.190   2.550   5.169
    1C        C  778   2.890   4.552   5.041
    1C        O  779   2.785   4.618   5.019
    1C        O  780   2.912   4.544   5.179
    1C        C  781   2.478   3.042   5.074
    1C        O  782   2.379   2.973   5.035
    1C        O  783   2.494   3.048   5.212
    1C        C  784   2.402   3.987   5.037
    1C        O  785   2.295   4.039   4.994
    1C        O  786   2.396   4.001   5.176
    1C        C  787   2.953   2.405   2.029
    1C        O  788   2.927   2.408   1.905
    1C        O  789   2.869   2.316   2.095
    1C        C  790   3.199   2.393   5.085
    1C        O  791   3.159   2.274   5.077
    1C        O  792   3.198   2.447   5.214
    1C        H  793   4.267   3.033   5.047
    1C        H  794   4.212   2.798   5.072
    1C        H  795   4.466   3.144   5.078
    1C        H  796   4.576   3.345   5.052
    1C        H  797   4.589   3.813   5.033
    1C        H  798   4.369   3.951   5.045
    1C        H  799   4.266   4.155   5.044
    1C        H  800   4.049   4.559   5.015
    1C        H  801   3.810   4.557   5.041
    1C        H  802   3.579   4.647   5.025
    1C        H  803   3.395   4.509   5.049
    1C        H  804   3.151   4.543   5.041
    1C        H  805   3.914   2.446   5.044
    1C        H  806   3.679   2.451   5.068
    1C        H  807   3.044   2.612   5.066
    1C        H  808   3.445   2.497   5.079
    1C        H  809   2.898   2.767   5.076
    1C        H  810   2.694   2.898   5.076
    1C        H  811   2.471   3.296   5.056
    1C        H  812   2.568   3.499   5.068
    1C        H  813   2.477   3.724   5.063
    1C        H  814   2.596   4.179   5.045
    1C        H  815   2.749   4.335   5.054
    1C        H  816   2.745   2.907   1.980
    1C        H  817   2.845   2.687   1.975
    1C        H  818   3.215   2.474   1.982
    1C        H  819   3.419   2.390   1.989
    1C        H  820   3.873   2.486   1.984
    1C        H  821   4.074   2.580   1.980
    1C        H  822   4.233   2.745   1.961
    1C        H  823   4.316   2.944   1.984
    1C        H  824   4.571   3.310   1.967
    1C        H  825   4.455   3.519   1.977
    1C        H  826   4.480   3.745   1.956
    1C        H  827   3.808   4.516   1.952
    1C        H  828   3.953   4.362   1.940
    1C        H  829   4.172   4.260   1.951
    1C        H  830   4.492   3.965   1.962
    1C        H  831   2.646   3.836   1.969
    1C        H  832   2.750   4.048   1.975
    1C        H  833   2.716   4.304   1.969
    1C        H  834   3.378   4.483   1.950
    1C        H  835   3.172   4.351   1.981
    1C        H  836   2.564   3.029   1.971
    1C        H  837   2.427   3.221   1.983
    1C        H  838   2.457   3.693   1.976
    2V3OU   H29  839   2.805   3.543   0.993
    2V3OU   C27  840   2.785   3.506   1.097
    2V3OU   H27  841   2.729   3.574   1.165
    2V3OU   H28  842   2.730   3.409   1.091
    2V3OU   O11  843   2.911   3.473   1.158
    2V3OU   C15  844   2.920   3.395   1.271
    2V3OU   C13  845   3.051   3.374   1.320
    2V3OU   C14  846   3.070   3.264   1.405
    2V3OU   C16  847   2.966   3.182   1.449
    2V3OU    H6  848   2.990   3.100   1.518
    2V3OU   C12  849   3.210   3.233   1.441
    2V3OU    O2  850   3.232   3.123   1.497
    2V3OU   C10  851   3.324   3.310   1.390
    2V3OU    C8  852   3.455   3.271   1.414
    2V3OU   O10  853   3.488   3.152   1.473
    2V3OU   H26  854   3.402   3.107   1.479
    2V3OU    C6  855   3.565   3.352   1.371
    2V3OU    C5  856   3.536   3.467   1.300
    2V3OU    C4  857   3.703   3.297   1.374
    2V3OU    H4  858   3.720   3.227   1.462
    2V3OU    H5  859   3.713   3.227   1.286
    2V3OU    C2  860   3.817   3.399   1.376
    2V3OU    O6  861   3.804   3.475   1.497
    2V3OU   H21  862   3.763   3.557   1.465
    2V3OU    C3  863   3.783   3.494   1.260
    2V3OU    H2  864   3.866   3.567   1.244
    2V3OU    H3  865   3.784   3.434   1.165
    2V3OU   C25  866   3.952   3.330   1.359
    2V3OU    O7  867   4.000   3.294   1.252
    2V3OU   C26  868   4.031   3.291   1.483
    2V3OU   H22  869   4.075   3.384   1.529
    2V3OU   H23  870   4.120   3.229   1.454
    2V3OU    O8  871   3.961   3.211   1.576
    2V3OU   H24  872   3.926   3.271   1.643
    2V3OU    C1  873   3.648   3.562   1.271
    2V3OU    H1  874   3.629   3.616   1.174
    2V3OU    O3  875   3.662   3.654   1.380
    2V3OU   C19  876   3.623   3.791   1.367
    2V3OU    H9  877   3.521   3.794   1.320
    2V3OU    O4  878   3.715   3.847   1.276
    2V3OU   C20  879   3.847   3.877   1.323
    2V3OU   H10  880   3.893   3.775   1.343
    2V3OU   C24  881   3.612   3.853   1.507
    2V3OU   H16  882   3.547   3.787   1.569
    2V3OU   H17  883   3.563   3.953   1.496
    2V3OU   C23  884   3.754   3.878   1.560
    2V3OU   H15  885   3.798   3.775   1.579
    2V3OU    N1  886   3.737   3.957   1.680
    2V3OU   H19  887   3.806   3.924   1.745
    2V3OU   H20  888   3.646   3.932   1.714
    2V3OU   C21  889   3.846   3.950   1.457
    2V3OU   H11  890   3.952   3.926   1.489
    2V3OU    O5  891   3.829   4.090   1.466
    2V3OU   H18  892   3.778   4.105   1.547
    2V3OU   C22  893   3.913   3.950   1.207
    2V3OU   H12  894   3.863   4.049   1.187
    2V3OU   H13  895   3.900   3.892   1.112
    2V3OU   H14  896   4.023   3.963   1.225
    2V3OU   C11  897   3.159   3.472   1.300
    2V3OU    O1  898   3.138   3.587   1.256
    2V3OU    C9  899   3.300   3.428   1.314
    2V3OU    C7  900   3.403   3.508   1.267
    2V3OU    O9  901   3.384   3.607   1.172
    2V3OU   H25  902   3.289   3.621   1.184
    2V3OU   C17  903   2.816   3.311   1.315
    2V3OU    H7  904   2.714   3.348   1.313
    2V3OU   C18  905   2.838   3.204   1.400
    2V3OU    H8  906   2.753   3.144   1.438
    3SOL     OW  907   0.676   3.933   0.581
    3SOL    HW1  908   0.589   3.914   0.625
    3SOL    HW2  909   0.714   4.018   0.617
    4SOL     OW  910   5.459   1.112   2.485
    4SOL    HW1  911   5.490   1.205   2.465
    4SOL    HW2  912   5.530   1.064   2.537
    5SOL     OW  913   3.756   3.032   1.092
    5SOL    HW1  914   3.789   3.000   1.181
    5SOL    HW2  915   3.668   3.079   1.104
    6SOL     OW  916   2.730   2.433   0.600
    6SOL    HW1  917   2.632   2.455   0.610
    6SOL    HW2  918   2.783   2.517   0.608
    7SOL     OW  919   6.000   0.893   1.647
    7SOL    HW1  920   5.954   0.950   1.580
    7SOL    HW2  921   6.081   0.851   1.606
    8SOL     OW  922   3.108   1.759   3.586
    8SOL    HW1  923   3.018   1.720   3.605
    8SOL    HW2  924   3.151   1.709   3.511
    9SOL     OW  925   0.116   4.150   5.721
    9SOL    HW1  926   0.142   4.222   5.786
    9SOL    HW2  927   0.020   4.159   5.698
   10SOL     OW  928   0.487   4.209   0.675
   10SOL    HW1  929   0.464   4.248   0.764
   10SOL    HW2  930   0.580   4.171   0.679
   11SOL     OW  931   4.273   6.731   6.742
   11SOL    HW1  932   4.336   6.654   6.730
   11SOL    HW2  933   4.179   6.698   6.738
   12SOL     OW  934   5.599   6.259   2.223
   12SOL    HW1  935   5.652   6.334   2.262
   12SOL    HW2  936   5.509   6.256   2.265
   13SOL     OW  937   1.643   0.135   3.456
   13SOL    HW1  938   1.692   0.048   3.464
   13SOL    HW2  939   1.702   0.202   3.412
   14SOL     OW  940   3.053   0.078   2.880
   14SOL    HW1  941   3.131   0.129   2.843
   14SOL    HW2  942   3.019   0.015   2.810
   15SOL     OW  943   2.539   6.621   6.351
   15SOL    HW1  944   2.535   6.718   6.372
   15SOL    HW2  945   2.631   6.596   6.322
   16SOL     OW  946   6.428   1.796   6.645
   16SOL    HW1  947   6.519   1.798   6.686
   16SOL    HW2  948   6.379   1.880   6.667
   17SOL     OW  949   4.513   6.124   2.993
   17SOL    HW1  950   4.417   6.100   3.008
   17SOL    HW2  951   4.551   6.165   3.076
   18SOL     OW  952   1.604   1.375   0.375
   18SOL    HW1  953   1.623   1.340   0.283
   18SOL    HW2  954   1.652   1.319   0.442
   19SOL     OW  955   0.829   6.987   1.530
   19SOL    HW1  956   0.907   6.942   1.574
   19SOL    HW2  957   0.859   0.008   1.444
   20SOL     OW  958   3.329   0.741   4.272
   20SOL    HW1  959   3.347   0.666   4.335
   20SOL    HW2  960   3.414   0.765   4.224
   21SOL     OW  961   2.865   2.807   1.632
   21SOL    HW1  962   2.894   2.726   1.683
   21SOL    HW2  963   2.906   2.807   1.541
   22SOL     OW  964   0.980   1.189   5.204
   22SOL    HW1  965   0.891   1.208   5.163
   22SOL    HW2  966   0.971   1.118   5.274
   23SOL     OW  967   3.044   5.838   4.518
   23SOL    HW1  968   2.979   5.791   4.577
   23SOL    HW2  969   3.080   5.919   4.565
   24SOL     OW  970   4.113   1.338   4.816
   24SOL    HW1  971   4.095   1.351   4.719
   24SOL    HW2  972   4.034   1.371   4.869
   25SOL     OW  973   2.434   5.029   1.025
   25SOL    HW1  974   2.506   4.970   1.061
   25SOL    HW2  975   2.359   4.972   0.990
   26SOL     OW  976   5.916   0.895   3.000
   26SOL    HW1  977   5.996   0.954   3.014
   26SOL    HW2  978   5.942   0.818   2.941
   27SOL     OW  979   5.999   6.794   2.142
   27SOL    HW1  980   6.081   6.838   2.102
   27SOL    HW2  981   6.022   6.702   2.171
   28SOL     OW  982   3.130   0.266   0.751
   28SOL    HW1  983   3.112   0.342   0.689
   28SOL    HW2  984   3.132   0.180   0.699
   29SOL     OW  985   4.020   2.847   1.779
   29SOL    HW1  986   3.921   2.834   1.790
   29SOL    HW2  987   4.058   2.769   1.729
   30SOL     OW  988   4.077   1.352   5.220
   30SOL    HW1  989   4.004   1.405   5.175
   30SOL    HW2  990   4.057   1.254   5.211
   31SOL     OW  991   0.484   1.198   5.033
   31SOL    HW1  992   0.492   1.110   4.987
   31SOL    HW2  993   0.465   1.184   5.130
   32SOL     OW  994   0.015   1.794   1.907
   32SOL    HW1  995   0.064   1.842   1.979
   32SOL    HW2  996   6.965   1.853   1.870
   33SOL     OW  997   1.808   2.195   5.447
   33SOL    HW1  998   1.754   2.113   5.467
   33SOL    HW2  999   1.829   2.242   5.533
   34SOL     OW 1000   0.872   0.449   4.709
   34SOL    HW1 1001   0.791   0.485   4.663
   34SOL    HW2 1002   0.931   0.403   4.642
   35SOL     OW 1003   3.672   1.961   6.235
   35SOL    HW1 1004   3.749   2.024   6.229
   35SOL    HW2 1005   3.631   1.967   6.326
   36SOL     OW 1006   0.979   1.717   5.854
   36SOL    HW1 1007   0.957   1.676   5.765
   36SOL    HW2 1008   0.956   1.815   5.852
   37SOL     OW 1009   2.399   6.399   0.789
   37SOL    HW1 1010   2.477   6.374   0.732
   37SOL    HW2 1011   2.315   6.366   0.746
   38SOL     OW 1012   6.845   6.338   1.626
   38SOL    HW1 1013   6.773   6.269   1.631
   38SOL    HW2 1014   6.846   6.379   1.535
   39SOL     OW 1015   0.013   2.501   5.989
   39SOL    HW1 1016   0.091   2.531   6.045
   39SOL    HW2 1017   6.984   2.582   5.958
   40SOL     OW 1018   6.816   0.838   1.425
   40SOL    HW1 1019   6.861   0.751   1.446
   40SOL    HW2 1020   6.717   0.825   1.428
   41SOL     OW 1021   1.159   0.809   6.095
   41SOL    HW1 1022   1.229   0.864   6.048
   41SOL    HW2 1023   1.164   0.715   6.063
   42SOL     OW 1024   3.913   6.926   0.689
   42SOL    HW1 1025   3.893   6.939   0.592
   42SOL    HW2 1026   3.998   6.874   0.699
   43SOL     OW 1027   5.020   5.748   5.228
   43SOL    HW1 1028   5.090   5.683   5.200
   43SOL    HW2 1029   4.958   5.704   5.293
   44SOL     OW 1030   0.468   3.237   6.689
   44SOL    HW1 1031   0.400   3.303   6.657
   44SOL    HW2 1032   0.445   3.209   6.782
   45SOL     OW 1033   2.793   0.408   1.456
   45SOL    HW1 1034   2.836   0.434   1.543
   45SOL    HW2 1035   2.704   0.367   1.474
   46SOL     OW 1036   1.249   5.141   4.079
   46SOL    HW1 1037   1.257   5.043   4.098
   46SOL    HW2 1038   1.246   5.192   4.165
   47SOL     OW 1039   5.287   4.605   2.926
   47SOL    HW1 1040   5.247   4.536   2.866
   47SOL    HW2 1041   5.256   4.589   3.020
   48SOL     OW 1042   0.786   1.251   5.481
   48SOL    HW1 1043   0.721   1.271   5.555
   48SOL    HW2 1044   0.754   1.173   5.428
   49SOL     OW 1045   5.672   2.793   0.415
   49SOL    HW1 1046   5.702   2.858   0.485
   49SOL    HW2 1047   5.592   2.830   0.367
   50SOL     OW 1048   0.053   3.586   4.889
   50SOL    HW1 1049   7.006   3.581   4.817
   50SOL    HW2 1050   0.095   3.677   4.888
   51SOL     OW 1051   2.864   5.567   2.902
   51SOL    HW1 1052   2.954   5.523   2.893
   51SOL    HW2 1053   2.806   5.538   2.826
   52SOL     OW 1054   0.664   2.180   1.555
   52SOL    HW1 1055   0.684   2.082   1.550
   52SOL    HW2 1056   0.743   2.229   1.592
   53SOL     OW 1057   4.953   6.403   4.148
   53SOL    HW1 1058   5.032   6.461   4.169
   53SOL    HW2 1059   4.985   6.312   4.120
   54SOL     OW 1060   4.852   5.361   5.812
   54SOL    HW1 1061   4.888   5.354   5.905
   54SOL    HW2 1062   4.890   5.441   5.767
   55SOL     OW 1063   3.406   2.261   0.713
   55SOL    HW1 1064   3.307   2.254   0.699
   55SOL    HW2 1065   3.424   2.300   0.803
   56SOL     OW 1066   0.690   6.750   1.507
   56SOL    HW1 1067   0.712   6.734   1.604
   56SOL    HW2 1068   0.748   6.824   1.473
   57SOL     OW 1069   5.753   1.446   1.203
   57SOL    HW1 1070   5.808   1.428   1.121
   57SOL    HW2 1071   5.813   1.446   1.283
   58SOL     OW 1072   0.105   0.086   6.383
   58SOL    HW1 1073   0.175   0.067   6.451
   58SOL    HW2 1074   0.021   0.038   6.407
   59SOL     OW 1075   0.854   0.222   4.845
   59SOL    HW1 1076   0.830   0.308   4.799
   59SOL    HW2 1077   0.916   0.242   4.922
   60SOL     OW 1078   5.093   6.988   4.862
   60SOL    HW1 1079   5.146   6.904   4.848
   60SOL    HW2 1080   5.013   6.967   4.918
   61SOL     OW 1081   4.184   0.148   5.008
   61SOL    HW1 1082   4.220   0.075   4.950
   61SOL    HW2 1083   4.087   0.161   4.986
   62SOL     OW 1084   3.096   1.385   4.857
   62SOL    HW1 1085   3.039   1.313   4.898
   62SOL    HW2 1086   3.036   1.458   4.822
   63SOL     OW 1087   6.960   3.578   3.731
   63SOL    HW1 1088   6.875   3.597   3.780
   63SOL    HW2 1089   0.010   3.639   3.764
   64SOL     OW 1090   0.398   2.401   5.143
   64SOL    HW1 1091   0.424   2.494   5.118
   64SOL    HW2 1092   0.370   2.398   5.238
   65SOL     OW 1093   0.451   3.448   5.650
   65SOL    HW1 1094   0.549   3.431   5.661
   65SOL    HW2 1095   0.438   3.538   5.607
   66SOL     OW 1096   2.703   0.978   1.086
   66SOL    HW1 1097   2.624   0.930   1.048
   66SOL    HW2 1098   2.775   0.913   1.107
   67SOL     OW 1099   4.478   5.572   3.966
   67SOL    HW1 1100   4.418   5.507   4.013
   67SOL    HW2 1101   4.572   5.560   3.999
   68SOL     OW 1102   5.326   2.719   6.630
   68SOL    HW1 1103   5.275   2.760   6.705
   68SOL    HW2 1104   5.375   2.638   6.663
   69SOL     OW 1105   2.369   2.851   5.707
   69SOL    HW1 1106   2.421   2.929   5.672
   69SOL    HW2 1107   2.300   2.883   5.771
   70SOL     OW 1108   6.204   6.188   2.038
   70SOL    HW1 1109   6.278   6.171   2.103
   70SOL    HW2 1110   6.234   6.162   1.946
   71SOL     OW 1111   2.149   3.478   2.896
   71SOL    HW1 1112   2.109   3.523   2.817
   71SOL    HW2 1113   2.204   3.544   2.948
   72SOL     OW 1114   3.253   5.507   3.892
   72SOL    HW1 1115   3.201   5.482   3.974
   72SOL    HW2 1116   3.349   5.522   3.917
   73SOL     OW 1117   3.619   2.250   6.419
   73SOL    HW1 1118   3.687   2.184   6.450
   73SOL    HW2 1119   3.601   2.236   6.322
   74SOL     OW 1120   5.274   6.546   6.300
   74SOL    HW1 1121   5.355   6.493   6.275
   74SOL    HW2 1122   5.295   6.643   6.298
   75SOL     OW 1123   3.743   5.033   5.414
   75SOL    HW1 1124   3.736   5.003   5.319
   75SOL    HW2 1125   3.817   5.100   5.422
   76SOL     OW 1126   2.624   2.805   1.196
   76SOL    HW1 1127   2.679   2.738   1.247
   76SOL    HW2 1128   2.684   2.879   1.166
   77SOL     OW 1129   5.270   4.823   6.458
   77SOL    HW1 1130   5.364   4.797   6.436
   77SOL    HW2 1131   5.234   4.762   6.529
   78SOL     OW 1132   6.584   6.194   6.314
   78SOL    HW1 1133   6.610   6.174   6.219
   78SOL    HW2 1134   6.516   6.267   6.315
   79SOL     OW 1135   3.334   6.801   0.061
   79SOL    HW1 1136   3.402   6.864   0.098
   79SOL    HW2 1137   3.264   6.852   0.012
   80SOL     OW 1138   0.000   0.986   4.047
   80SOL    HW1 1139   0.005   1.080   4.083
   80SOL    HW2 1140   7.013   0.989   3.948
   81SOL     OW 1141   1.541   0.171   4.210
   81SOL    HW1 1142   1.611   0.201   4.145
   81SOL    HW2 1143   1.574   0.091   4.260
   82SOL     OW 1144   6.792   4.436   5.797
   82SOL    HW1 1145   6.815   4.465   5.704
   82SOL    HW2 1146   6.797   4.515   5.858
   83SOL     OW 1147   6.905   6.971   6.480
   83SOL    HW1 1148   6.910   6.920   6.566
   83SOL    HW2 1149   6.838   0.022   6.488
   84SOL     OW 1150   6.239   3.349   1.823
   84SOL    HW1 1151   6.147   3.354   1.786
   84SOL    HW2 1152   6.281   3.262   1.797
   85SOL     OW 1153   0.942   1.491   5.206
   85SOL    HW1 1154   1.019   1.528   5.258
   85SOL    HW2 1155   0.956   1.394   5.191
   86SOL     OW 1156   2.206   1.093   4.977
   86SOL    HW1 1157   2.225   1.034   4.898
   86SOL    HW2 1158   2.119   1.140   4.962
   87SOL     OW 1159   4.626   0.078   1.436
   87SOL    HW1 1160   4.540   0.104   1.480
   87SOL    HW2 1161   4.699   0.138   1.468
   88SOL     OW 1162   5.658   0.641   0.247
   88SOL    HW1 1163   5.689   0.651   0.341
   88SOL    HW2 1164   5.571   0.591   0.245
   89SOL     OW 1165   2.427   1.690   5.841
   89SOL    HW1 1166   2.406   1.744   5.760
   89SOL    HW2 1167   2.431   1.750   5.921
   90SOL     OW 1168   6.631   5.966   3.654
   90SOL    HW1 1169   6.588   5.892   3.604
   90SOL    HW2 1170   6.583   6.052   3.635
   91SOL     OW 1171   4.306   5.020   4.768
   91SOL    HW1 1172   4.306   4.925   4.799
   91SOL    HW2 1173   4.323   5.023   4.670
   92SOL     OW 1174   3.287   6.567   1.366
   92SOL    HW1 1175   3.316   6.610   1.451
   92SOL    HW2 1176   3.189   6.582   1.352
   93SOL     OW 1177   3.470   4.632   5.916
   93SOL    HW1 1178   3.506   4.545   5.950
   93SOL    HW2 1179   3.371   4.634   5.929
   94SOL     OW 1180   2.551   6.404   1.736
   94SOL    HW1 1181   2.468   6.451   1.707
   94SOL    HW2 1182   2.631   6.457   1.709
   95SOL     OW 1183   6.329   0.116   5.120
   95SOL    HW1 1184   6.404   0.173   5.152
   95SOL    HW2 1185   6.283   0.161   5.044
   96SOL     OW 1186   1.726   6.940   5.178
   96SOL    HW1 1187   1.753   6.904   5.088
   96SOL    HW2 1188   1.654   6.883   5.216
   97SOL     OW 1189   6.070   2.944   4.791
   97SOL    HW1 1190   6.099   2.886   4.867
   97SOL    HW2 1191   6.133   3.022   4.784
   98SOL     OW 1192   5.877   1.955   5.882
   98SOL    HW1 1193   5.858   2.028   5.947
   98SOL    HW2 1194   5.801   1.890   5.883
   99SOL     OW 1195   4.052   2.350   1.035
   99SOL    HW1 1196   3.956   2.373   1.052
   99SOL    HW2 1197   4.066   2.252   1.048
  100SOL     OW 1198   6.148   4.814   6.814
  100SOL    HW1 1199   6.158   4.908   6.783
  100SOL    HW2 1200   6.217   4.794   6.884
  101SOL     OW 1201   0.923   6.551   4.140
  101SOL    HW1 1202   0.943   6.545   4.238
  101SOL    HW2 1203   0.915   6.459   4.102
  102SOL     OW 1204   4.626   0.556   3.322
  102SOL    HW1 1205   4.706   0.527   3.376
  102SOL    HW2 1206   4.544   0.554   3.379
  103SOL     OW 1207   3.381   1.813   1.743
  103SOL    HW1 1208   3.332   1.779   1.663
  103SOL    HW2 1209   3.319   1.869   1.799
  104SOL     OW 1210   6.912   5.779   2.056
  104SOL    HW1 1211   6.907   5.830   1.970
  104SOL    HW2 1212   6.992   5.810   2.107
  105SOL     OW 1213   5.147   1.464   5.910
  105SOL    HW1 1214   5.101   1.377   5.892
  105SOL    HW2 1215   5.169   1.471   6.007
  106SOL     OW 1216   3.513   6.489   0.518
  106SOL    HW1 1217   3.464   6.517   0.436
  106SOL    HW2 1218   3.497   6.556   0.591
  107SOL     OW 1219   2.367   3.020   1.062
  107SOL    HW1 1220   2.403   3.096   1.116
  107SOL    HW2 1221   2.388   2.934   1.109
  108SOL     OW 1222   4.913   4.257   5.071
  108SOL    HW1 1223   4.930   4.253   5.170
  108SOL    HW2 1224   4.815   4.247   5.054
  109SOL     OW 1225   5.847   0.676   1.488
  109SOL    HW1 1226   5.916   0.737   1.527
  109SOL    HW2 1227   5.831   0.600   1.551
  110SOL     OW 1228   2.968   6.082   4.948
  110SOL    HW1 1229   3.064   6.052   4.950
  110SOL    HW2 1230   2.921   6.048   5.029
  111SOL     OW 1231   3.468   1.249   3.461
  111SOL    HW1 1232   3.462   1.169   3.521
  111SOL    HW2 1233   3.376   1.277   3.434
  112SOL     OW 1234   6.767   0.950   6.650
  112SOL    HW1 1235   6.831   0.920   6.720
  112SOL    HW2 1236   6.779   1.048   6.633
  113SOL     OW 1237   0.067   6.464   3.820
  113SOL    HW1 1238   0.067   6.560   3.791
  113SOL    HW2 1239   0.021   6.408   3.751
  114SOL     OW 1240   1.279   6.751   0.024
  114SOL    HW1 1241   1.315   6.786   6.960
  114SOL    HW2 1242   1.301   6.815   0.097
  115SOL     OW 1243   5.482   1.004   5.501
  115SOL    HW1 1244   5.535   1.003   5.417
  115SOL    HW2 1245   5.385   0.989   5.480
  116SOL     OW 1246   5.880   4.522   2.653
  116SOL    HW1 1247   5.798   4.567   2.620
  116SOL    HW2 1248   5.930   4.583   2.714
  117SOL     OW 1249   1.270   6.686   6.214
  117SOL    HW1 1250   1.287   6.765   6.274
  117SOL    HW2 1251   1.358   6.651   6.180
  118SOL     OW 1252   2.137   0.343   2.808
  118SOL    HW1 1253   2.188   0.426   2.832
  118SOL    HW2 1254   2.041   0.355   2.834
  119SOL     OW 1255   6.674   2.535   6.365
  119SOL    HW1 1256   6.658   2.528   6.267
  119SOL    HW2 1257   6.740   2.465   6.393
  120SOL     OW 1258   5.673   6.691   1.361
  120SOL    HW1 1259   5.677   6.688   1.261
  120SOL    HW2 1260   5.664   6.598   1.397
  121SOL     OW 1261   2.545   3.398   5.717
  121SOL    HW1 1262   2.632   3.391   5.667
  121SOL    HW2 1263   2.499   3.309   5.716
  122SOL     OW 1264   0.457   3.105   4.468
  122SOL    HW1 1265   0.502   3.194   4.468
  122SOL    HW2 1266   0.439   3.076   4.562
  123SOL     OW 1267   0.773   1.939   1.582
  123SOL    HW1 1268   0.813   1.954   1.492
  123SOL    HW2 1269   0.693   1.879   1.573
  124SOL     OW 1270   5.030   3.468   0.865
  124SOL    HW1 1271   5.074   3.383   0.895
  124SOL    HW2 1272   4.941   3.448   0.827
  125SOL     OW 1273   2.076   3.579   1.748
  125SOL    HW1 1274   2.141   3.560   1.821
  125SOL    HW2 1275   1.987   3.601   1.788
  126SOL     OW 1276   3.850   4.513   0.776
  126SOL    HW1 1277   3.837   4.502   0.874
  126SOL    HW2 1278   3.771   4.476   0.727
  127SOL     OW 1279   1.156   5.138   5.854
  127SOL    HW1 1280   1.224   5.194   5.808
  127SOL    HW2 1281   1.155   5.047   5.813
  128SOL     OW 1282   4.443   2.732   1.195
  128SOL    HW1 1283   4.408   2.819   1.230
  128SOL    HW2 1284   4.500   2.689   1.264
  129SOL     OW 1285   2.426   3.816   6.497
  129SOL    HW1 1286   2.460   3.832   6.404
  129SOL    HW2 1287   2.400   3.903   6.539
  130SOL     OW 1288   2.020   2.583   4.774
  130SOL    HW1 1289   2.007   2.484   4.772
  130SOL    HW2 1290   2.079   2.610   4.698
  131SOL     OW 1291   5.400   1.801   2.500
  131SOL    HW1 1292   5.413   1.885   2.553
  131SOL    HW2 1293   5.397   1.823   2.403
  132SOL     OW 1294   0.149   2.608   2.087
  132SOL    HW1 1295   0.128   2.630   2.183
  132SOL    HW2 1296   0.198   2.522   2.082
  133SOL     OW 1297   6.842   5.439   2.464
  133SOL    HW1 1298   6.851   5.481   2.554
  133SOL    HW2 1299   6.760   5.474   2.420
  134SOL     OW 1300   0.883   3.689   2.188
  134SOL    HW1 1301   0.899   3.656   2.281
  134SOL    HW2 1302   0.819   3.628   2.141
  135SOL     OW 1303   4.030   1.441   4.140
  135SOL    HW1 1304   4.087   1.504   4.088
  135SOL    HW2 1305   4.051   1.450   4.238
  136SOL     OW 1306   4.693   5.023   5.480
  136SOL    HW1 1307   4.698   4.948   5.414
  136SOL    HW2 1308   4.646   5.100   5.438
  137SOL     OW 1309   3.380   0.744   5.627
  137SOL    HW1 1310   3.293   0.792   5.614
  137SOL    HW2 1311   3.429   0.785   5.704
  138SOL     OW 1312   5.940   4.703   5.119
  138SOL    HW1 1313   5.843   4.679   5.129
  138SOL    HW2 1314   5.996   4.622   5.136
  139SOL     OW 1315   2.827   6.021   5.436
  139SOL    HW1 1316   2.822   5.923   5.459
  139SOL    HW2 1317   2.918   6.055   5.457
  140SOL     OW 1318   6.480   4.558   4.480
  140SOL    HW1 1319   6.497   4.588   4.574
  140SOL    HW2 1320   6.401   4.607   4.443
  141SOL     OW 1321   1.229   2.098   2.313
  141SOL    HW1 1322   1.200   2.142   2.228
  141SOL    HW2 1323   1.158   2.108   2.382
  142SOL     OW 1324   1.592   5.514   1.736
  142SOL    HW1 1325   1.541   5.440   1.694
  142SOL    HW2 1326   1.674   5.478   1.781
  143SOL     OW 1327   5.191   4.386   1.870
  143SOL    HW1 1328   5.243   4.349   1.793
  143SOL    HW2 1329   5.103   4.340   1.876
  144SOL     OW 1330   2.504   6.253   1.006
  144SOL    HW1 1331   2.488   6.307   0.924
  144SOL    HW2 1332   2.536   6.162   0.980
  145SOL     OW 1333   6.584   5.010   0.794
  145SOL    HW1 1334   6.643   4.962   0.729
  145SOL    HW2 1335   6.490   4.981   0.780
  146SOL     OW 1336   6.347   5.074   0.638
  146SOL    HW1 1337   6.250   5.096   0.639
  146SOL    HW2 1338   6.400   5.157   0.618
  147SOL     OW 1339   5.711   2.613   1.043
  147SOL    HW1 1340   5.739   2.695   1.093
  147SOL    HW2 1341   5.697   2.636   0.947
  148SOL     OW 1342   1.059   5.381   5.704
  148SOL    HW1 1343   1.060   5.477   5.731
  148SOL    HW2 1344   1.084   5.373   5.607
  149SOL     OW 1345   3.163   1.160   6.050
  149SOL    HW1 1346   3.067   1.188   6.045
  149SOL    HW2 1347   3.190   1.117   5.964
  150SOL     OW 1348   0.322   5.705   5.923
  150SOL    HW1 1349   0.262   5.730   5.846
  150SOL    HW2 1350   0.347   5.788   5.973
  151SOL     OW 1351   3.826   0.817   1.511
  151SOL    HW1 1352   3.892   0.755   1.553
  151SOL    HW2 1353   3.837   0.909   1.549
  152SOL     OW 1354   3.355   1.269   4.711
  152SOL    HW1 1355   3.274   1.290   4.766
  152SOL    HW2 1356   3.328   1.216   4.631
  153SOL     OW 1357   1.501   0.344   3.111
  153SOL    HW1 1358   1.406   0.343   3.082
  153SOL    HW2 1359   1.506   0.371   3.208
  154SOL     OW 1360   6.049   2.057   2.997
  154SOL    HW1 1361   5.973   2.091   2.943
  154SOL    HW2 1362   6.013   2.012   3.080
  155SOL     OW 1363   0.409   1.499   2.727
  155SOL    HW1 1364   0.407   1.400   2.738
  155SOL    HW2 1365   0.318   1.531   2.698
  156SOL     OW 1366   0.461   2.307   1.677
  156SOL    HW1 1367   0.525   2.242   1.635
  156SOL    HW2 1368   0.406   2.261   1.746
  157SOL     OW 1369   5.961   3.085   2.541
  157SOL    HW1 1370   6.009   3.164   2.579
  157SOL    HW2 1371   5.873   3.075   2.586
  158SOL     OW 1372   1.456   1.818   3.930
  158SOL    HW1 1373   1.428   1.751   3.862
  158SOL    HW2 1374   1.409   1.905   3.913
  159SOL     OW 1375   4.928   3.404   2.439
  159SOL    HW1 1376   4.918   3.368   2.346
  159SOL    HW2 1377   4.876   3.489   2.448
  160SOL     OW 1378   6.270   4.523   5.812
  160SOL    HW1 1379   6.224   4.602   5.854
  160SOL    HW2 1380   6.362   4.515   5.849
  161SOL     OW 1381   3.456   4.688   5.620
  161SOL    HW1 1382   3.380   4.622   5.620
  161SOL    HW2 1383   3.482   4.707   5.715
  162SOL     OW 1384   4.689   6.134   2.232
  162SOL    HW1 1385   4.760   6.064   2.228
  162SOL    HW2 1386   4.681   6.169   2.326
  163SOL     OW 1387   5.182   0.446   1.864
  163SOL    HW1 1388   5.118   0.373   1.887
  163SOL    HW2 1389   5.140   0.534   1.887
  164SOL     OW 1390   6.265   3.060   1.334
  164SOL    HW1 1391   6.319   3.113   1.399
  164SOL    HW2 1392   6.283   3.093   1.241
  165SOL     OW 1393   5.947   4.222   6.318
  165SOL    HW1 1394   5.936   4.302   6.259
  165SOL    HW2 1395   5.914   4.141   6.271
  166SOL     OW 1396   1.509   0.473   1.364
  166SOL    HW1 1397   1.503   0.558   1.313
  166SOL    HW2 1398   1.426   0.419   1.350
  167SOL     OW 1399   6.825   3.012   0.508
  167SOL    HW1 1400   6.767   2.931   0.511
  167SOL    HW2 1401   6.772   3.090   0.474
  168SOL     OW 1402   2.698   5.474   1.467
  168SOL    HW1 1403   2.741   5.440   1.551
  168SOL    HW2 1404   2.669   5.396   1.411
  169SOL     OW 1405   1.374   7.016   1.589
  169SOL    HW1 1406   1.297   0.000   1.525
  169SOL    HW2 1407   1.459   7.010   1.537
  170SOL     OW 1408   0.508   1.478   3.030
  170SOL    HW1 1409   0.511   1.489   2.931
  170SOL    HW2 1410   0.594   1.438   3.062
  171SOL     OW 1411   3.458   3.807   0.677
  171SOL    HW1 1412   3.478   3.709   0.669
  171SOL    HW2 1413   3.512   3.846   0.752
  172SOL     OW 1414   6.904   3.085   1.402
  172SOL    HW1 1415   6.876   3.022   1.330
  172SOL    HW2 1416   7.001   3.109   1.390
  173SOL     OW 1417   0.258   6.190   5.628
  173SOL    HW1 1418   0.209   6.276   5.615
  173SOL    HW2 1419   0.351   6.199   5.592
  174SOL     OW 1420   2.357   5.835   3.432
  174SOL    HW1 1421   2.337   5.900   3.505
  174SOL    HW2 1422   2.442   5.787   3.451
  175SOL     OW 1423   0.669   5.557   2.783
  175SOL    HW1 1424   0.738   5.611   2.733
  175SOL    HW2 1425   0.579   5.595   2.766
  176SOL     OW 1426   3.054   5.333   0.675
  176SOL    HW1 1427   2.982   5.321   0.607
  176SOL    HW2 1428   3.142   5.339   0.629
  177SOL     OW 1429   4.468   2.480   3.356
  177SOL    HW1 1430   4.462   2.385   3.325
  177SOL    HW2 1431   4.405   2.536   3.302
  178SOL     OW 1432   5.349   4.539   5.541
  178SOL    HW1 1433   5.382   4.445   5.537
  178SOL    HW2 1434   5.249   4.539   5.554
  179SOL     OW 1435   3.201   0.054   1.063
  179SOL    HW1 1436   3.198   0.092   1.155
  179SOL    HW2 1437   3.143   0.108   1.003
  180SOL     OW 1438   1.391   2.463   6.807
  180SOL    HW1 1439   1.374   2.438   6.712
  180SOL    HW2 1440   1.378   2.561   6.818
  181SOL     OW 1441   3.006   3.227   4.599
  181SOL    HW1 1442   3.005   3.287   4.679
  181SOL    HW2 1443   2.940   3.153   4.612
  182SOL     OW 1444   4.669   2.698   4.934
  182SOL    HW1 1445   4.738   2.766   4.960
  182SOL    HW2 1446   4.712   2.607   4.929
  183SOL     OW 1447   5.752   1.710   2.250
  183SOL    HW1 1448   5.747   1.620   2.206
  183SOL    HW2 1449   5.834   1.758   2.218
  184SOL     OW 1450   0.525   4.556   3.149
  184SOL    HW1 1451   0.458   4.629   3.144
  184SOL    HW2 1452   0.478   4.467   3.147
  185SOL     OW 1453   2.543   3.459   6.446
  185SOL    HW1 1454   2.585   3.386   6.501
  185SOL    HW2 1455   2.466   3.498   6.496
  186SOL     OW 1456   6.144   6.265   3.674
  186SOL    HW1 1457   6.178   6.179   3.636
  186SOL    HW2 1458   6.079   6.307   3.611
  187SOL     OW 1459   5.627   0.553   4.115
  187SOL    HW1 1460   5.726   0.546   4.124
  187SOL    HW2 1461   5.592   0.471   4.070
  188SOL     OW 1462   5.980   2.296   4.503
  188SOL    HW1 1463   6.047   2.287   4.577
  188SOL    HW2 1464   5.908   2.359   4.531
  189SOL     OW 1465   1.696   4.352   2.729
  189SOL    HW1 1466   1.677   4.259   2.696
  189SOL    HW2 1467   1.692   4.416   2.652
  190SOL     OW 1468   2.998   1.189   6.942
  190SOL    HW1 1469   3.073   1.123   6.952
  190SOL    HW2 1470   3.018   1.252   6.867
  191SOL     OW 1471   4.301   6.190   6.066
  191SOL    HW1 1472   4.305   6.163   6.162
  191SOL    HW2 1473   4.205   6.198   6.037
  192SOL     OW 1474   6.809   0.357   0.748
  192SOL    HW1 1475   6.800   0.274   0.693
  192SOL    HW2 1476   6.775   0.436   0.696
  193SOL     OW 1477   5.566   4.400   6.913
  193SOL    HW1 1478   5.655   4.440   6.890
  193SOL    HW2 1479   5.579   4.306   6.945
  194SOL     OW 1480   4.479   6.975   4.601
  194SOL    HW1 1481   4.568   7.002   4.640
  194SOL    HW2 1482   4.472   7.009   4.507
  195SOL     OW 1483   6.625   5.376   3.612
  195SOL    HW1 1484   6.692   5.388   3.685
  195SOL    HW2 1485   6.551   5.318   3.645
  196SOL     OW 1486   1.164   1.153   0.958
  196SOL    HW1 1487   1.194   1.209   0.880
  196SOL    HW2 1488   1.133   1.213   1.032
  197SOL     OW 1489   2.029   0.975   0.714
  197SOL    HW1 1490   2.052   1.063   0.755
  197SOL    HW2 1491   2.043   0.902   0.781
  198SOL     OW 1492   2.696   1.295   4.282
  198SOL    HW1 1493   2.663   1.385   4.256
  198SOL    HW2 1494   2.726   1.245   4.201
  199SOL     OW 1495   0.895   1.624   4.469
  199SOL    HW1 1496   0.896   1.713   4.422
  199SOL    HW2 1497   0.882   1.551   4.402
  200SOL     OW 1498   6.295   2.234   7.019
  200SOL    HW1 1499   6.296   2.250   0.095
  200SOL    HW2 1500   6.296   2.321   6.970
  201SOL     OW 1501   0.301   1.099   6.662
  201SOL    HW1 1502   0.401   1.098   6.662
  201SOL    HW2 1503   0.268   1.036   6.592
  202SOL     OW 1504   5.068   0.214   0.596
  202SOL    HW1 1505   5.154   0.174   0.627
  202SOL    HW2 1506   4.999   0.142   0.588
  203SOL     OW 1507   6.338   2.833   6.147
  203SOL    HW1 1508   6.327   2.775   6.228
  203SOL    HW2 1509   6.429   2.819   6.108
  204SOL     OW 1510   6.181   0.681   5.174
  204SOL    HW1 1511   6.193   0.591   5.131
  204SOL    HW2 1512   6.216   0.752   5.113
  205SOL     OW 1513   1.956   3.883   2.503
  205SOL    HW1 1514   1.886   3.826   2.545
  205SOL    HW2 1515   2.033   3.893   2.566
  206SOL     OW 1516   0.024   3.166   0.635
  206SOL    HW1 1517   7.017   3.149   0.730
  206SOL    HW2 1518   6.966   3.163   0.575
  207SOL     OW 1519   6.109   2.619   4.750
  207SOL    HW1 1520   6.129   2.676   4.830
  207SOL    HW2 1521   6.011   2.617   4.734
  208SOL     OW 1522   0.877   3.383   5.297
  208SOL    HW1 1523   0.956   3.386   5.237
  208SOL    HW2 1524   0.900   3.331   5.379
  209SOL     OW 1525   6.619   4.467   3.041
  209SOL    HW1 1526   6.624   4.370   3.016
  209SOL    HW2 1527   6.666   4.521   2.971
  210SOL     OW 1528   4.633   3.051   0.257
  210SOL    HW1 1529   4.676   3.127   0.306
  210SOL    HW2 1530   4.696   2.974   0.252
  211SOL     OW 1531   1.458   1.321   2.111
  211SOL    HW1 1532   1.379   1.315   2.173
  211SOL    HW2 1533   1.445   1.397   2.048
  212SOL     OW 1534   1.812   3.918   1.884
  212SOL    HW1 1535   1.773   3.883   1.799
  212SOL    HW2 1536   1.784   4.013   1.897
  213SOL     OW 1537   1.270   4.915   0.781
  213SOL    HW1 1538   1.185   4.880   0.743
  213SOL    HW2 1539   1.274   5.014   0.769
  214SOL     OW 1540   5.439   0.038   2.190
  214SOL    HW1 1541   5.512   0.084   2.240
  214SOL    HW2 1542   5.426   0.083   2.102
  215SOL     OW 1543   2.266   5.196   2.839
  215SOL    HW1 1544   2.309   5.110   2.867
  215SOL    HW2 1545   2.225   5.241   2.918
  216SOL     OW 1546   1.556   6.134   3.006
  216SOL    HW1 1547   1.509   6.053   3.044
  216SOL    HW2 1548   1.509   6.216   3.038
  217SOL     OW 1549   0.949   4.735   5.521
  217SOL    HW1 1550   0.867   4.707   5.471
  217SOL    HW2 1551   0.988   4.655   5.567
  218SOL     OW 1552   2.456   1.790   5.178
  218SOL    HW1 1553   2.362   1.822   5.179
  218SOL    HW2 1554   2.459   1.694   5.150
  219SOL     OW 1555   4.330   2.338   1.451
  219SOL    HW1 1556   4.308   2.368   1.358
  219SOL    HW2 1557   4.413   2.385   1.481
  220SOL     OW 1558   3.492   6.705   1.234
  220SOL    HW1 1559   3.554   6.669   1.303
  220SOL    HW2 1560   3.401   6.664   1.246
  221SOL     OW 1561   5.185   4.792   1.943
  221SOL    HW1 1562   5.126   4.808   2.022
  221SOL    HW2 1563   5.168   4.862   1.873
  222SOL     OW 1564   1.977   4.430   6.454
  222SOL    HW1 1565   1.936   4.513   6.492
  222SOL    HW2 1566   2.063   4.452   6.409
  223SOL     OW 1567   6.369   2.725   5.116
  223SOL    HW1 1568   6.390   2.628   5.108
  223SOL    HW2 1569   6.453   2.778   5.111
  224SOL     OW 1570   3.197   1.909   5.476
  224SOL    HW1 1571   3.141   1.965   5.415
  224SOL    HW2 1572   3.238   1.968   5.546
  225SOL     OW 1573   3.954   6.581   6.063
  225SOL    HW1 1574   3.969   6.641   6.141
  225SOL    HW2 1575   4.041   6.537   6.037
  226SOL     OW 1576   1.637   2.792   6.813
  226SOL    HW1 1577   1.709   2.733   6.850
  226SOL    HW2 1578   1.670   2.838   6.730
  227SOL     OW 1579   1.636   3.626   1.043
  227SOL    HW1 1580   1.685   3.539   1.040
  227SOL    HW2 1581   1.701   3.701   1.040
  228SOL     OW 1582   0.627   0.358   2.155
  228SOL    HW1 1583   0.723   0.377   2.138
  228SOL    HW2 1584   0.581   0.339   2.068
  229SOL     OW 1585   3.798   6.957   6.278
  229SOL    HW1 1586   3.831   6.866   6.301
  229SOL    HW2 1587   3.705   6.950   6.241
  230SOL     OW 1588   5.816   5.642   5.402
  230SOL    HW1 1589   5.770   5.684   5.480
  230SOL    HW2 1590   5.868   5.562   5.433
  231SOL     OW 1591   5.481   1.828   6.710
  231SOL    HW1 1592   5.577   1.820   6.683
  231SOL    HW2 1593   5.466   1.780   6.796
  232SOL     OW 1594   0.974   1.307   5.798
  232SOL    HW1 1595   0.982   1.354   5.710
  232SOL    HW2 1596   1.030   1.353   5.866
  233SOL     OW 1597   3.372   1.680   3.035
  233SOL    HW1 1598   3.330   1.597   3.071
  233SOL    HW2 1599   3.413   1.732   3.109
  234SOL     OW 1600   5.080   0.688   0.610
  234SOL    HW1 1601   5.015   0.754   0.573
  234SOL    HW2 1602   5.035   0.599   0.620
  235SOL     OW 1603   4.785   2.977   2.755
  235SOL    HW1 1604   4.751   2.902   2.697
  235SOL    HW2 1605   4.804   3.057   2.697
  236SOL     OW 1606   4.279   4.344   6.119
  236SOL    HW1 1607   4.346   4.376   6.051
  236SOL    HW2 1608   4.196   4.399   6.111
  237SOL     OW 1609   6.040   3.572   2.791
  237SOL    HW1 1610   5.950   3.536   2.765
  237SOL    HW2 1611   6.096   3.586   2.709
  238SOL     OW 1612   6.093   2.001   0.607
  238SOL    HW1 1613   6.056   1.908   0.610
  238SOL    HW2 1614   6.063   2.052   0.687
  239SOL     OW 1615   1.071   3.223   0.227
  239SOL    HW1 1616   1.063   3.172   0.312
  239SOL    HW2 1617   1.069   3.159   0.150
  240SOL     OW 1618   4.884   3.464   3.820
  240SOL    HW1 1619   4.799   3.427   3.857
  240SOL    HW2 1620   4.957   3.396   3.833
  241SOL     OW 1621   2.376   1.912   4.167
  241SOL    HW1 1622   2.409   1.999   4.129
  241SOL    HW2 1623   2.453   1.863   4.209
  242SOL     OW 1624   3.786   3.359   2.702
  242SOL    HW1 1625   3.751   3.303   2.777
  242SOL    HW2 1626   3.712   3.415   2.665
  243SOL     OW 1627   3.920   2.781   6.398
  243SOL    HW1 1628   4.014   2.813   6.414
  243SOL    HW2 1629   3.873   2.772   6.486
  244SOL     OW 1630   4.871   3.249   4.625
  244SOL    HW1 1631   4.963   3.211   4.621
  244SOL    HW2 1632   4.865   3.316   4.699
  245SOL     OW 1633   3.667   0.874   3.186
  245SOL    HW1 1634   3.636   0.865   3.091
  245SOL    HW2 1635   3.590   0.858   3.248
  246SOL     OW 1636   6.486   1.355   2.428
  246SOL    HW1 1637   6.493   1.259   2.453
  246SOL    HW2 1638   6.529   1.370   2.339
  247SOL     OW 1639   1.508   1.539   1.928
  247SOL    HW1 1640   1.539   1.598   1.853
  247SOL    HW2 1641   1.447   1.591   1.988
  248SOL     OW 1642   2.631   2.969   1.690
  248SOL    HW1 1643   2.712   2.913   1.671
  248SOL    HW2 1644   2.581   2.984   1.605
  249SOL     OW 1645   4.659   6.422   4.826
  249SOL    HW1 1646   4.604   6.342   4.851
  249SOL    HW2 1647   4.722   6.443   4.901
  250SOL     OW 1648   4.384   2.399   0.607
  250SOL    HW1 1649   4.350   2.398   0.701
  250SOL    HW2 1650   4.309   2.382   0.543
  251SOL     OW 1651   3.717   4.632   5.277
  251SOL    HW1 1652   3.776   4.652   5.355
  251SOL    HW2 1653   3.625   4.666   5.295
  252SOL     OW 1654   6.699   6.948   5.474
  252SOL    HW1 1655   6.739   6.857   5.482
  252SOL    HW2 1656   6.709   6.997   5.561
  253SOL     OW 1657   4.171   6.323   6.319
  253SOL    HW1 1658   4.132   6.333   6.228
  253SOL    HW2 1659   4.123   6.251   6.368
  254SOL     OW 1660   6.217   2.122   5.604
  254SOL    HW1 1661   6.293   2.058   5.595
  254SOL    HW2 1662   6.183   2.121   5.698
  255SOL     OW 1663   0.973   4.013   6.754
  255SOL    HW1 1664   0.916   4.089   6.783
  255SOL    HW2 1665   1.062   4.047   6.722
  256SOL     OW 1666   5.468   2.304   5.161
  256SOL    HW1 1667   5.458   2.403   5.166
  256SOL    HW2 1668   5.392   2.266   5.107
  257SOL     OW 1669   5.020   6.505   2.276
  257SOL    HW1 1670   5.035   6.603   2.273
  257SOL    HW2 1671   4.925   6.487   2.304
  258SOL     OW 1672   1.811   3.220   6.354
  258SOL    HW1 1673   1.861   3.163   6.288
  258SOL    HW2 1674   1.834   3.316   6.339
  259SOL     OW 1675   3.913   6.892   3.599
  259SOL    HW1 1676   3.924   6.941   3.513
  259SOL    HW2 1677   3.818   6.898   3.630
  260SOL     OW 1678   3.897   5.321   2.902
  260SOL    HW1 1679   3.912   5.223   2.916
  260SOL    HW2 1680   3.932   5.371   2.981
  261SOL     OW 1681   4.421   5.212   0.182
  261SOL    HW1 1682   4.326   5.182   0.182
  261SOL    HW2 1683   4.481   5.133   0.187
  262SOL     OW 1684   0.737   4.364   6.509
  262SOL    HW1 1685   0.671   4.375   6.583
  262SOL    HW2 1686   0.788   4.279   6.522
  263SOL     OW 1687   0.949   6.819   4.170
  263SOL    HW1 1688   1.014   6.847   4.240
  263SOL    HW2 1689   0.943   6.720   4.168
  264SOL     OW 1690   6.167   3.780   6.267
  264SOL    HW1 1691   6.144   3.863   6.318
  264SOL    HW2 1692   6.153   3.796   6.170
  265SOL     OW 1693   6.616   0.324   3.516
  265SOL    HW1 1694   6.674   0.252   3.479
  265SOL    HW2 1695   6.618   0.322   3.616
  266SOL     OW 1696   3.443   0.883   5.852
  266SOL    HW1 1697   3.393   0.811   5.899
  266SOL    HW2 1698   3.501   0.933   5.917
  267SOL     OW 1699   2.077   0.209   3.975
  267SOL    HW1 1700   2.103   0.124   3.929
  267SOL    HW2 1701   1.982   0.204   4.003
  268SOL     OW 1702   3.024   2.396   1.187
  268SOL    HW1 1703   3.121   2.375   1.178
  268SOL    HW2 1704   2.988   2.355   1.270
  269SOL     OW 1705   4.346   2.154   0.387
  269SOL    HW1 1706   4.337   2.246   0.348
  269SOL    HW2 1707   4.426   2.109   0.347
  270SOL     OW 1708   5.668   0.942   6.955
  270SOL    HW1 1709   5.696   0.892   6.873
  270SOL    HW2 1710   5.572   0.923   6.975
  271SOL     OW 1711   0.610   3.575   6.510
  271SOL    HW1 1712   0.578   3.506   6.445
  271SOL    HW2 1713   0.691   3.620   6.473
  272SOL     OW 1714   3.410   5.610   3.392
  272SOL    HW1 1715   3.387   5.703   3.366
  272SOL    HW2 1716   3.355   5.583   3.471
  273SOL     OW 1717   1.749   4.837   6.297
  273SOL    HW1 1718   1.837   4.808   6.258
  273SOL    HW2 1719   1.691   4.873   6.225
  274SOL     OW 1720   5.245   2.666   3.680
  274SOL    HW1 1721   5.173   2.622   3.627
  274SOL    HW2 1722   5.330   2.666   3.628
  275SOL     OW 1723   6.314   6.394   1.047
  275SOL    HW1 1724   6.339   6.350   1.134
  275SOL    HW2 1725   6.220   6.368   1.023
  276SOL     OW 1726   0.546   0.566   5.018
  276SOL    HW1 1727   0.534   0.662   5.040
  276SOL    HW2 1728   0.643   0.542   5.023
  277SOL     OW 1729   2.190   4.286   0.858
  277SOL    HW1 1730   2.131   4.247   0.928
  277SOL    HW2 1731   2.170   4.384   0.848
  278SOL     OW 1732   0.709   3.216   2.546
  278SOL    HW1 1733   0.707   3.193   2.449
  278SOL    HW2 1734   0.631   3.173   2.592
  279SOL     OW 1735   6.427   1.407   3.794
  279SOL    HW1 1736   6.416   1.507   3.789
  279SOL    HW2 1737   6.346   1.363   3.756
  280SOL     OW 1738   1.690   4.954   2.227
  280SOL    HW1 1739   1.757   4.944   2.300
  280SOL    HW2 1740   1.604   4.910   2.255
  281SOL     OW 1741   2.365   4.772   1.265
  281SOL    HW1 1742   2.443   4.802   1.210
  281SOL    HW2 1743   2.395   4.750   1.357
  282SOL     OW 1744   2.761   1.621   6.087
  282SOL    HW1 1745   2.844   1.641   6.138
  282SOL    HW2 1746   2.777   1.543   6.026
  283SOL     OW 1747   3.475   2.367   5.984
  283SOL    HW1 1748   3.382   2.396   6.006
  283SOL    HW2 1749   3.477   2.268   5.970
  284SOL     OW 1750   1.073   3.935   4.294
  284SOL    HW1 1751   1.070   3.867   4.221
  284SOL    HW2 1752   1.011   3.907   4.368
  285SOL     OW 1753   4.652   5.147   4.192
  285SOL    HW1 1754   4.619   5.225   4.245
  285SOL    HW2 1755   4.674   5.072   4.255
  286SOL     OW 1756   2.981   3.508   6.986
  286SOL    HW1 1757   3.054   3.440   6.993
  286SOL    HW2 1758   3.008   3.581   6.924
  287SOL     OW 1759   1.498   2.701   0.316
  287SOL    HW1 1760   1.492   2.670   0.221
  287SOL    HW2 1761   1.532   2.795   0.318
  288SOL     OW 1762   4.778   3.390   0.764
  288SOL    HW1 1763   4.739   3.299   0.775
  288SOL    HW2 1764   4.707   3.454   0.737
  289SOL     OW 1765   3.765   5.488   6.315
  289SOL    HW1 1766   3.865   5.486   6.325
  289SOL    HW2 1767   3.723   5.502   6.404
  290SOL     OW 1768   1.656   1.134   4.628
  290SOL    HW1 1769   1.702   1.056   4.586
  290SOL    HW2 1770   1.604   1.184   4.558
  291SOL     OW 1771   6.099   2.289   2.741
  291SOL    HW1 1772   6.140   2.285   2.833
  291SOL    HW2 1773   6.167   2.322   2.676
  292SOL     OW 1774   2.892   0.223   4.007
  292SOL    HW1 1775   2.949   0.165   3.949
  292SOL    HW2 1776   2.920   0.319   3.996
  293SOL     OW 1777   3.371   4.943   3.384
  293SOL    HW1 1778   3.326   4.878   3.446
  293SOL    HW2 1779   3.429   5.005   3.436
  294SOL     OW 1780   4.732   0.858   0.633
  294SOL    HW1 1781   4.694   0.930   0.574
  294SOL    HW2 1782   4.692   0.770   0.607
  295SOL     OW 1783   6.039   6.789   3.196
  295SOL    HW1 1784   6.011   6.877   3.159
  295SOL    HW2 1785   5.960   6.728   3.200
  296SOL     OW 1786   2.497   2.316   3.217
  296SOL    HW1 1787   2.591   2.337   3.190
  296SOL    HW2 1788   2.444   2.288   3.137
  297SOL     OW 1789   1.778   5.364   2.260
  297SOL    HW1 1790   1.878   5.367   2.255
  297SOL    HW2 1791   1.750   5.321   2.346
  298SOL     OW 1792   6.739   4.627   0.899
  298SOL    HW1 1793   6.823   4.663   0.858
  298SOL    HW2 1794   6.675   4.602   0.827
  299SOL     OW 1795   5.751   2.431   4.572
  299SOL    HW1 1796   5.782   2.509   4.625
  299SOL    HW2 1797   5.731   2.354   4.633
  300SOL     OW 1798   6.815   6.936   2.016
  300SOL    HW1 1799   6.815   6.960   2.113
  300SOL    HW2 1800   6.724   6.953   1.977
  301SOL     OW 1801   4.472   2.566   5.624
  301SOL    HW1 1802   4.419   2.638   5.670
  301SOL    HW2 1803   4.544   2.608   5.569
  302SOL     OW 1804   0.905   6.055   3.774
  302SOL    HW1 1805   0.827   6.010   3.732
  302SOL    HW2 1806   0.967   5.986   3.812
  303SOL     OW 1807   6.207   6.765   3.000
  303SOL    HW1 1808   6.155   6.757   2.915
  303SOL    HW2 1809   6.144   6.784   3.076
  304SOL     OW 1810   3.572   6.851   3.594
  304SOL    HW1 1811   3.639   6.778   3.587
  304SOL    HW2 1812   3.563   6.878   3.690
  305SOL     OW 1813   1.588   4.237   1.085
  305SOL    HW1 1814   1.646   4.247   1.166
  305SOL    HW2 1815   1.493   4.255   1.110
  306SOL     OW 1816   1.984   0.515   3.767
  306SOL    HW1 1817   1.940   0.566   3.841
  306SOL    HW2 1818   2.074   0.484   3.796
  307SOL     OW 1819   3.272   0.164   1.690
  307SOL    HW1 1820   3.255   0.081   1.744
  307SOL    HW2 1821   3.328   0.227   1.744
  308SOL     OW 1822   0.944   4.672   3.821
  308SOL    HW1 1823   0.984   4.760   3.848
  308SOL    HW2 1824   1.013   4.616   3.776
  309SOL     OW 1825   3.196   4.881   5.134
  309SOL    HW1 1826   3.256   4.894   5.055
  309SOL    HW2 1827   3.245   4.832   5.206
  310SOL     OW 1828   1.394   5.364   6.090
  310SOL    HW1 1829   1.319   5.332   6.147
  310SOL    HW2 1830   1.459   5.416   6.145
  311SOL     OW 1831   6.905   0.589   1.523
  311SOL    HW1 1832   6.941   0.499   1.500
  311SOL    HW2 1833   6.980   0.651   1.543
  312SOL     OW 1834   3.813   1.094   5.649
  312SOL    HW1 1835   3.752   1.160   5.692
  312SOL    HW2 1836   3.759   1.020   5.608
  313SOL     OW 1837   0.387   4.547   0.589
  313SOL    HW1 1838   0.376   4.512   0.496
  313SOL    HW2 1839   0.323   4.501   0.650
  314SOL     OW 1840   3.295   6.181   1.587
  314SOL    HW1 1841   3.261   6.095   1.550
  314SOL    HW2 1842   3.219   6.246   1.596
  315SOL     OW 1843   1.092   3.658   2.692
  315SOL    HW1 1844   1.026   3.602   2.742
  315SOL    HW2 1845   1.166   3.684   2.753
  316SOL     OW 1846   2.092   3.266   4.795
  316SOL    HW1 1847   2.024   3.212   4.846
  316SOL    HW2 1848   2.171   3.209   4.776
  317SOL     OW 1849   6.477   1.094   0.100
  317SOL    HW1 1850   6.542   1.038   0.151
  317SOL    HW2 1851   6.520   1.180   0.074
  318SOL     OW 1852   2.850   4.476   1.178
  318SOL    HW1 1853   2.918   4.546   1.198
  318SOL    HW2 1854   2.843   4.414   1.256
  319SOL     OW 1855   1.570   0.070   6.662
  319SOL    HW1 1856   1.582   0.169   6.665
  319SOL    HW2 1857   1.634   0.031   6.595
  320SOL     OW 1858   5.672   3.181   0.782
  320SOL    HW1 1859   5.748   3.243   0.797
  320SOL    HW2 1860   5.665   3.117   0.859
  321SOL     OW 1861   2.078   1.273   2.442
  321SOL    HW1 1862   2.130   1.317   2.369
  321SOL    HW2 1863   2.100   1.176   2.446
  322SOL     OW 1864   3.351   2.287   5.626
  322SOL    HW1 1865   3.296   2.205   5.643
  322SOL    HW2 1866   3.376   2.291   5.530
  323SOL     OW 1867   0.316   4.488   1.924
  323SOL    HW1 1868   0.299   4.573   1.974
  323SOL    HW2 1869   0.336   4.414   1.988
  324SOL     OW 1870   0.629   2.875   4.363
  324SOL    HW1 1871   0.568   2.954   4.374
  324SOL    HW2 1872   0.683   2.863   4.446
  325SOL     OW 1873   2.180   2.073   3.066
  325SOL    HW1 1874   2.150   2.005   3.000
  325SOL    HW2 1875   2.205   2.158   3.019
  326SOL     OW 1876   1.891   4.170   5.268
  326SOL    HW1 1877   1.881   4.254   5.320
  326SOL    HW2 1878   1.813   4.160   5.206
  327SOL     OW 1879   5.945   4.868   6.287
  327SOL    HW1 1880   6.024   4.882   6.348
  327SOL    HW2 1881   5.940   4.772   6.261
  328SOL     OW 1882   3.790   5.763   2.134
  328SOL    HW1 1883   3.730   5.754   2.214
  328SOL    HW2 1884   3.864   5.827   2.156
  329SOL     OW 1885   3.699   4.023   2.804
  329SOL    HW1 1886   3.751   4.081   2.866
  329SOL    HW2 1887   3.741   4.024   2.714
  330SOL     OW 1888   2.773   1.964   2.198
  330SOL    HW1 1889   2.868   1.956   2.170
  330SOL    HW2 1890   2.718   1.995   2.121
  331SOL     OW 1891   5.659   4.130   5.548
  331SOL    HW1 1892   5.640   4.197   5.476
  331SOL    HW2 1893   5.725   4.169   5.613
  332SOL     OW 1894   4.361   1.984   3.310
  332SOL    HW1 1895   4.299   1.948   3.241
  332SOL    HW2 1896   4.419   2.056   3.270
  333SOL     OW 1897   4.663   6.071   0.477
  333SOL    HW1 1898   4.705   6.031   0.395
  333SOL    HW2 1899   4.570   6.099   0.456
  334SOL     OW 1900   5.176   6.293   2.750
  334SOL    HW1 1901   5.149   6.357   2.678
  334SOL    HW2 1902   5.252   6.237   2.718
  335SOL     OW 1903   3.484   6.872   2.917
  335SOL    HW1 1904   3.562   6.895   2.975
  335SOL    HW2 1905   3.465   6.949   2.855
  336SOL     OW 1906   3.503   0.263   4.735
  336SOL    HW1 1907   3.602   0.273   4.736
  336SOL    HW2 1908   3.460   0.353   4.748
  337SOL     OW 1909   0.059   4.540   2.104
  337SOL    HW1 1910   7.003   4.602   2.102
  337SOL    HW2 1911   0.033   4.452   2.064
  338SOL     OW 1912   2.310   1.974   1.654
  338SOL    HW1 1913   2.263   2.016   1.732
  338SOL    HW2 1914   2.302   1.875   1.660
  339SOL     OW 1915   4.570   1.413   3.165
  339SOL    HW1 1916   4.586   1.364   3.079
  339SOL    HW2 1917   4.471   1.412   3.185
  340SOL     OW 1918   4.861   4.153   4.590
  340SOL    HW1 1919   4.787   4.107   4.542
  340SOL    HW2 1920   4.864   4.122   4.685
  341SOL     OW 1921   4.441   4.959   5.597
  341SOL    HW1 1922   4.538   4.976   5.580
  341SOL    HW2 1923   4.418   4.989   5.690
  342SOL     OW 1924   5.592   4.046   0.254
  342SOL    HW1 1925   5.658   3.979   0.222
  342SOL    HW2 1926   5.504   4.001   0.272
  343SOL     OW 1927   2.432   0.799   2.257
  343SOL    HW1 1928   2.382   0.738   2.317
  343SOL    HW2 1929   2.513   0.833   2.304
  344SOL     OW 1930   4.262   6.419   0.260
  344SOL    HW1 1931   4.355   6.413   0.224
  344SOL    HW2 1932   4.265   6.425   0.360
  345SOL     OW 1933   1.586   1.322   5.763
  345SOL    HW1 1934   1.486   1.318   5.769
  345SOL    HW2 1935   1.624   1.229   5.770
  346SOL     OW 1936   3.532   0.956   4.656
  346SOL    HW1 1937   3.489   1.008   4.582
  346SOL    HW2 1938   3.585   1.018   4.713
  347SOL     OW 1939   4.510   6.453   5.790
  347SOL    HW1 1940   4.523   6.511   5.870
  347SOL    HW2 1941   4.502   6.357   5.820
  348SOL     OW 1942   2.322   6.163   2.859
  348SOL    HW1 1943   2.272   6.176   2.773
  348SOL    HW2 1944   2.415   6.199   2.850
  349SOL     OW 1945   2.919   5.001   2.203
  349SOL    HW1 1946   3.001   4.995   2.258
  349SOL    HW2 1947   2.926   4.939   2.125
  350SOL     OW 1948   4.510   3.242   0.817
  350SOL    HW1 1949   4.491   3.152   0.777
  350SOL    HW2 1950   4.544   3.230   0.910
  351SOL     OW 1951   3.265   1.668   0.466
  351SOL    HW1 1952   3.295   1.709   0.380
  351SOL    HW2 1953   3.192   1.724   0.506
  352SOL     OW 1954   2.905   1.987   6.107
  352SOL    HW1 1955   2.845   1.968   6.184
  352SOL    HW2 1956   2.862   1.953   6.023
  353SOL     OW 1957   1.886   6.982   1.261
  353SOL    HW1 1958   1.967   6.991   1.203
  353SOL    HW2 1959   1.912   6.993   1.357
  354SOL     OW 1960   5.151   0.261   2.344
  354SOL    HW1 1961   5.167   0.332   2.275
  354SOL    HW2 1962   5.053   0.243   2.350
  355SOL     OW 1963   1.197   1.036   2.187
  355SOL    HW1 1964   1.114   1.091   2.195
  355SOL    HW2 1965   1.249   1.041   2.272
  356SOL     OW 1966   3.696   0.198   2.998
  356SOL    HW1 1967   3.610   0.238   3.031
  356SOL    HW2 1968   3.688   0.180   2.900
  357SOL     OW 1969   1.384   4.913   5.444
  357SOL    HW1 1970   1.383   4.869   5.533
  357SOL    HW2 1971   1.292   4.909   5.404
  358SOL     OW 1972   5.218   1.219   3.040
  358SOL    HW1 1973   5.175   1.269   2.965
  358SOL    HW2 1974   5.184   1.125   3.042
  359SOL     OW 1975   0.568   1.871   0.502
  359SOL    HW1 1976   0.533   1.797   0.559
  359SOL    HW2 1977   0.508   1.884   0.423
  360SOL     OW 1978   5.136   0.275   0.342
  360SOL    HW1 1979   5.211   0.219   0.306
  360SOL    HW2 1980   5.128   0.259   0.440
  361SOL     OW 1981   3.321   0.871   2.869
  361SOL    HW1 1982   3.297   0.949   2.926
  361SOL    HW2 1983   3.299   0.891   2.774
  362SOL     OW 1984   2.809   3.971   1.166
  362SOL    HW1 1985   2.718   3.999   1.195
  362SOL    HW2 1986   2.856   3.927   1.243
  363SOL     OW 1987   4.431   4.565   3.575
  363SOL    HW1 1988   4.365   4.615   3.631
  363SOL    HW2 1989   4.484   4.503   3.634
  364SOL     OW 1990   2.354   5.854   6.107
  364SOL    HW1 1991   2.439   5.803   6.098
  364SOL    HW2 1992   2.276   5.795   6.084
  365SOL     OW 1993   4.586   0.136   3.055
  365SOL    HW1 1994   4.611   0.051   3.008
  365SOL    HW2 1995   4.486   0.141   3.062
  366SOL     OW 1996   5.229   1.450   0.331
  366SOL    HW1 1997   5.221   1.397   0.415
  366SOL    HW2 1998   5.282   1.533   0.349
  367SOL     OW 1999   4.500   2.106   2.531
  367SOL    HW1 2000   4.523   2.065   2.442
  367SOL    HW2 2001   4.423   2.169   2.519
  368SOL     OW 2002   0.876   5.193   5.180
  368SOL    HW1 2003   0.918   5.118   5.131
  368SOL    HW2 2004   0.907   5.194   5.275
  369SOL     OW 2005   0.783   3.780   1.478
  369SOL    HW1 2006   0.771   3.681   1.480
  369SOL    HW2 2007   0.863   3.805   1.532
  370SOL     OW 2008   3.689   1.648   6.598
  370SOL    HW1 2009   3.722   1.742   6.593
  370SOL    HW2 2010   3.626   1.630   6.522
  371SOL     OW 2011   3.362   3.064   6.302
  371SOL    HW1 2012   3.319   3.126   6.367
  371SOL    HW2 2013   3.292   3.006   6.260
  372SOL     OW 2014   2.166   5.365   0.141
  372SOL    HW1 2015   2.196   5.284   0.193
  372SOL    HW2 2016   2.105   5.336   0.067
  373SOL     OW 2017   6.164   6.912   6.450
  373SOL    HW1 2018   6.182   6.818   6.480
  373SOL    HW2 2019   6.085   6.949   6.498
  374SOL     OW 2020   4.558   0.957   1.364
  374SOL    HW1 2021   4.520   1.002   1.283
  374SOL    HW2 2022   4.596   0.868   1.338
  375SOL     OW 2023   6.643   4.141   0.788
  375SOL    HW1 2024   6.739   4.127   0.762
  375SOL    HW2 2025   6.620   4.080   0.864
  376SOL     OW 2026   1.942   4.025   4.896
  376SOL    HW1 2027   1.937   4.111   4.948
  376SOL    HW2 2028   1.997   3.959   4.947
  377SOL     OW 2029   5.147   1.482   4.677
  377SOL    HW1 2030   5.186   1.393   4.700
  377SOL    HW2 2031   5.218   1.542   4.641
  378SOL     OW 2032   5.656   2.123   5.061
  378SOL    HW1 2033   5.574   2.180   5.066
  378SOL    HW2 2034   5.732   2.177   5.024
  379SOL     OW 2035   6.463   2.741   1.328
  379SOL    HW1 2036   6.562   2.729   1.340
  379SOL    HW2 2037   6.424   2.786   1.408
  380SOL     OW 2038   1.173   2.138   0.365
  380SOL    HW1 2039   1.208   2.231   0.351
  380SOL    HW2 2040   1.188   2.084   0.282
  381SOL     OW 2041   4.642   5.423   0.152
  381SOL    HW1 2042   4.679   5.418   0.059
  381SOL    HW2 2043   4.565   5.360   0.160
  382SOL     OW 2044   2.746   5.146   0.240
  382SOL    HW1 2045   2.655   5.105   0.232
  382SOL    HW2 2046   2.758   5.215   0.168
  383SOL     OW 2047   6.599   1.772   0.502
  383SOL    HW1 2048   6.515   1.733   0.466
  383SOL    HW2 2049   6.593   1.778   0.602
  384SOL     OW 2050   0.934   5.644   5.275
  384SOL    HW1 2051   1.021   5.597   5.262
  384SOL    HW2 2052   0.866   5.608   5.211
  385SOL     OW 2053   4.456   5.334   1.831
  385SOL    HW1 2054   4.544   5.310   1.872
  385SOL    HW2 2055   4.457   5.307   1.734
  386SOL     OW 2056   2.741   6.009   4.249
  386SOL    HW1 2057   2.649   5.977   4.225
  386SOL    HW2 2058   2.776   6.067   4.175
  387SOL     OW 2059   6.655   0.259   5.734
  387SOL    HW1 2060   6.726   0.191   5.749
  387SOL    HW2 2061   6.663   0.296   5.641
  388SOL     OW 2062   0.310   1.642   4.218
  388SOL    HW1 2063   0.296   1.628   4.317
  388SOL    HW2 2064   0.321   1.740   4.200
  389SOL     OW 2065   4.864   3.643   2.150
  389SOL    HW1 2066   4.855   3.602   2.059
  389SOL    HW2 2067   4.876   3.742   2.140
  390SOL     OW 2068   3.898   2.845   6.971
  390SOL    HW1 2069   3.842   2.926   6.949
  390SOL    HW2 2070   3.839   2.765   6.980
  391SOL     OW 2071   4.058   3.758   3.984
  391SOL    HW1 2072   4.051   3.846   4.030
  391SOL    HW2 2073   4.119   3.697   4.036
  392SOL     OW 2074   1.965   3.839   1.627
  392SOL    HW1 2075   2.014   3.844   1.540
  392SOL    HW2 2076   2.006   3.767   1.683
  393SOL     OW 2077   1.234   5.704   1.576
  393SOL    HW1 2078   1.222   5.803   1.580
  393SOL    HW2 2079   1.252   5.676   1.481
  394SOL     OW 2080   6.243   1.137   6.088
  394SOL    HW1 2081   6.275   1.225   6.054
  394SOL    HW2 2082   6.187   1.093   6.017
  395SOL     OW 2083   6.063   4.512   6.803
  395SOL    HW1 2084   6.102   4.591   6.756
  395SOL    HW2 2085   6.048   4.438   6.738
  396SOL     OW 2086   0.830   1.001   1.357
  396SOL    HW1 2087   0.865   0.923   1.306
  396SOL    HW2 2088   0.770   0.969   1.430
  397SOL     OW 2089   4.677   2.388   4.711
  397SOL    HW1 2090   4.713   2.337   4.789
  397SOL    HW2 2091   4.581   2.363   4.697
  398SOL     OW 2092   0.275   1.641   2.984
  398SOL    HW1 2093   0.196   1.585   2.959
  398SOL    HW2 2094   0.353   1.581   3.005
  399SOL     OW 2095   5.705   6.002   3.213
  399SOL    HW1 2096   5.662   5.993   3.123
  399SOL    HW2 2097   5.802   6.027   3.201
  400SOL     OW 2098   6.863   6.302   3.092
  400SOL    HW1 2099   6.779   6.251   3.110
  400SOL    HW2 2100   6.866   6.384   3.148
  401SOL     OW 2101   1.075   5.951   4.877
  401SOL    HW1 2102   1.050   6.024   4.941
  401SOL    HW2 2103   1.030   5.866   4.905
  402SOL     OW 2104   5.864   1.165   3.827
  402SOL    HW1 2105   5.853   1.100   3.752
  402SOL    HW2 2106   5.867   1.116   3.914
  403SOL     OW 2107   2.771   1.815   5.000
  403SOL    HW1 2108   2.735   1.878   5.070
  403SOL    HW2 2109   2.817   1.867   4.929
  404SOL     OW 2110   3.023   5.125   3.725
  404SOL    HW1 2111   3.014   5.225   3.727
  404SOL    HW2 2112   2.946   5.086   3.674
  405SOL     OW 2113   2.792   4.755   3.870
  405SOL    HW1 2114   2.734   4.751   3.952
  405SOL    HW2 2115   2.887   4.766   3.897
  406SOL     OW 2116   0.497   6.815   6.406
  406SOL    HW1 2117   0.513   6.721   6.375
  406SOL    HW2 2118   0.580   6.852   6.445
  407SOL     OW 2119   2.154   3.751   4.277
  407SOL    HW1 2120   2.090   3.828   4.274
  407SOL    HW2 2121   2.169   3.724   4.373
  408SOL     OW 2122   2.636   2.388   2.190
  408SOL    HW1 2123   2.719   2.365   2.138
  408SOL    HW2 2124   2.662   2.417   2.282
  409SOL     OW 2125   0.126   2.822   2.322
  409SOL    HW1 2126   0.224   2.836   2.306
  409SOL    HW2 2127   0.078   2.819   2.235
  410SOL     OW 2128   1.830   3.126   1.909
  410SOL    HW1 2129   1.850   3.217   1.871
  410SOL    HW2 2130   1.902   3.062   1.883
  411SOL     OW 2131   0.083   1.556   0.938
  411SOL    HW1 2132   0.136   1.628   0.894
  411SOL    HW2 2133   7.008   1.569   0.918
  412SOL     OW 2134   1.605   4.752   2.800
  412SOL    HW1 2135   1.570   4.787   2.887
  412SOL    HW2 2136   1.606   4.826   2.732
  413SOL     OW 2137   6.209   4.942   2.144
  413SOL    HW1 2138   6.227   4.980   2.053
  413SOL    HW2 2139   6.111   4.946   2.163
  414SOL     OW 2140   2.455   6.881   3.180
  414SOL    HW1 2141   2.368   6.930   3.181
  414SOL    HW2 2142   2.517   6.921   3.248
  415SOL     OW 2143   5.793   2.755   0.012
  415SOL    HW1 2144   5.835   2.715   0.093
  415SOL    HW2 2145   5.723   2.821   0.039
  416SOL     OW 2146   6.004   3.113   6.556
  416SOL    HW1 2147   6.084   3.070   6.516
  416SOL    HW2 2148   5.970   3.184   6.494
  417SOL     OW 2149   2.177   2.813   5.502
  417SOL    HW1 2150   2.248   2.816   5.573
  417SOL    HW2 2151   2.193   2.735   5.442
  418SOL     OW 2152   3.763   6.053   6.263
  418SOL    HW1 2153   3.669   6.054   6.228
  418SOL    HW2 2154   3.809   6.138   6.236
  419SOL     OW 2155   5.392   0.945   0.023
  419SOL    HW1 2156   5.391   0.995   0.110
  419SOL    HW2 2157   5.363   0.850   0.039
  420SOL     OW 2158   3.526   6.848   1.022
  420SOL    HW1 2159   3.522   6.798   1.108
  420SOL    HW2 2160   3.585   6.799   0.958
  421SOL     OW 2161   4.767   4.063   2.922
  421SOL    HW1 2162   4.731   4.071   2.829
  421SOL    HW2 2163   4.818   4.146   2.945
  422SOL     OW 2164   3.954   1.980   1.806
  422SOL    HW1 2165   4.047   2.017   1.814
  422SOL    HW2 2166   3.919   1.958   1.897
  423SOL     OW 2167   3.269   1.427   6.309
  423SOL    HW1 2168   3.178   1.398   6.339
  423SOL    HW2 2169   3.281   1.524   6.328
  424SOL     OW 2170   1.721   3.898   4.789
  424SOL    HW1 2171   1.802   3.946   4.821
  424SOL    HW2 2172   1.748   3.811   4.747
  425SOL     OW 2173   3.328   1.645   0.164
  425SOL    HW1 2174   3.400   1.582   0.137
  425SOL    HW2 2175   3.245   1.625   0.112
  426SOL     OW 2176   2.261   2.348   3.665
  426SOL    HW1 2177   2.174   2.299   3.662
  426SOL    HW2 2178   2.295   2.362   3.572
  427SOL     OW 2179   4.442   1.561   4.072
  427SOL    HW1 2180   4.357   1.587   4.026
  427SOL    HW2 2181   4.517   1.618   4.038
  428SOL     OW 2182   1.882   1.870   6.400
  428SOL    HW1 2183   1.856   1.926   6.321
  428SOL    HW2 2184   1.850   1.776   6.387
  429SOL     OW 2185   6.847   6.549   3.267
  429SOL    HW1 2186   6.757   6.579   3.235
  429SOL    HW2 2187   6.904   6.630   3.286
  430SOL     OW 2188   2.319   1.393   3.575
  430SOL    HW1 2189   2.258   1.344   3.512
  430SOL    HW2 2190   2.273   1.406   3.662
  431SOL     OW 2191   2.478   1.093   1.761
  431SOL    HW1 2192   2.381   1.072   1.777
  431SOL    HW2 2193   2.491   1.192   1.761
  432SOL     OW 2194   4.989   1.791   1.255
  432SOL    HW1 2195   4.987   1.714   1.191
  432SOL    HW2 2196   5.082   1.827   1.263
  433SOL     OW 2197   2.385   4.762   0.291
  433SOL    HW1 2198   2.428   4.676   0.261
  433SOL    HW2 2199   2.333   4.746   0.375
  434SOL     OW 2200   3.800   5.715   2.570
  434SOL    HW1 2201   3.809   5.643   2.639
  434SOL    HW2 2202   3.774   5.800   2.615
  435SOL     OW 2203   2.827   2.598   6.271
  435SOL    HW1 2204   2.834   2.544   6.186
  435SOL    HW2 2205   2.873   2.549   6.345
  436SOL     OW 2206   5.138   6.510   2.569
  436SOL    HW1 2207   5.164   6.442   2.500
  436SOL    HW2 2208   5.167   6.601   2.539
  437SOL     OW 2209   6.778   0.736   5.550
  437SOL    HW1 2210   6.855   0.674   5.537
  437SOL    HW2 2211   6.809   0.831   5.546
  438SOL     OW 2212   0.651   4.113   2.226
  438SOL    HW1 2213   0.598   4.093   2.143
  438SOL    HW2 2214   0.728   4.171   2.202
  439SOL     OW 2215   0.363   0.627   6.201
  439SOL    HW1 2216   0.426   0.701   6.226
  439SOL    HW2 2217   0.394   0.542   6.243
  440SOL     OW 2218   3.589   1.705   1.231
  440SOL    HW1 2219   3.581   1.606   1.239
  440SOL    HW2 2220   3.547   1.735   1.145
  441SOL     OW 2221   0.638   4.489   2.454
  441SOL    HW1 2222   0.680   4.570   2.413
  441SOL    HW2 2223   0.559   4.516   2.509
  442SOL     OW 2224   3.574   2.903   4.670
  442SOL    HW1 2225   3.486   2.895   4.623
  442SOL    HW2 2226   3.648   2.887   4.604
  443SOL     OW 2227   4.638   2.564   2.895
  443SOL    HW1 2228   4.585   2.606   2.969
  443SOL    HW2 2229   4.734   2.594   2.901
  444SOL     OW 2230   3.852   2.455   1.178
  444SOL    HW1 2231   3.770   2.489   1.132
  444SOL    HW2 2232   3.833   2.444   1.276
  445SOL     OW 2233   2.437   5.563   3.227
  445SOL    HW1 2234   2.495   5.591   3.304
  445SOL    HW2 2235   2.418   5.643   3.169
  446SOL     OW 2236   6.605   6.892   0.693
  446SOL    HW1 2237   6.517   6.846   0.686
  446SOL    HW2 2238   6.637   6.887   0.788
  447SOL     OW 2239   6.024   3.597   6.839
  447SOL    HW1 2240   6.061   3.675   6.789
  447SOL    HW2 2241   5.982   3.533   6.774
  448SOL     OW 2242   3.466   6.467   3.913
  448SOL    HW1 2243   3.483   6.422   3.825
  448SOL    HW2 2244   3.517   6.420   3.985
  449SOL     OW 2245   0.537   4.064   4.674
  449SOL    HW1 2246   0.625   4.095   4.708
  449SOL    HW2 2247   0.464   4.098   4.733
  450SOL     OW 2248   6.681   3.810   2.907
  450SOL    HW1 2249   6.609   3.791   2.840
  450SOL    HW2 2250   6.645   3.868   2.980
  451SOL     OW 2251   2.152   1.980   0.057
  451SOL    HW1 2252   2.067   1.982   0.110
  451SOL    HW2 2253   2.135   2.016   6.988
  452SOL     OW 2254   4.027   5.369   1.583
  452SOL    HW1 2255   3.947   5.354   1.524
  452SOL    HW2 2256   4.034   5.293   1.648
  453SOL     OW 2257   4.607   0.455   0.133
  453SOL    HW1 2258   4.600   0.429   0.037
  453SOL    HW2 2259   4.516   0.476   0.169
  454SOL     OW 2260   6.661   2.949   3.906
  454SOL    HW1 2261   6.690   2.948   4.002
  454SOL    HW2 2262   6.733   2.990   3.850
  455SOL     OW 2263   5.433   5.186   0.073
  455SOL    HW1 2264   5.379   5.261   0.035
  455SOL    HW2 2265   5.482   5.217   0.154
  456SOL     OW 2266   1.755   0.577   3.172
  456SOL    HW1 2267   1.804   0.635   3.237
  456SOL    HW2 2268   1.744   0.485   3.210
  457SOL     OW 2269   3.076   5.910   0.055
  457SOL    HW1 2270   3.134   5.897   0.135
  457SOL    HW2 2271   3.013   5.833   0.046
  458SOL     OW 2272   3.115   1.370   3.668
  458SOL    HW1 2273   3.106   1.436   3.743
  458SOL    HW2 2274   3.027   1.324   3.655
  459SOL     OW 2275   2.678   0.861   3.492
  459SOL    HW1 2276   2.707   0.788   3.554
  459SOL    HW2 2277   2.758   0.898   3.445
  460SOL     OW 2278   0.877   1.554   6.813
  460SOL    HW1 2279   0.861   1.647   6.848
  460SOL    HW2 2280   0.830   1.542   6.726
  461SOL     OW 2281   1.360   6.870   5.358
  461SOL    HW1 2282   1.444   6.838   5.402
  461SOL    HW2 2283   1.299   6.910   5.426
  462SOL     OW 2284   3.579   3.939   5.064
  462SOL    HW1 2285   3.577   4.027   5.016
  462SOL    HW2 2286   3.518   3.943   5.143
  463SOL     OW 2287   5.250   6.319   3.066
  463SOL    HW1 2288   5.330   6.258   3.074
  463SOL    HW2 2289   5.202   6.298   2.981
  464SOL     OW 2290   4.513   6.192   4.842
  464SOL    HW1 2291   4.453   6.186   4.762
  464SOL    HW2 2292   4.484   6.124   4.910
  465SOL     OW 2293   0.283   5.056   0.289
  465SOL    HW1 2294   0.232   5.010   0.361
  465SOL    HW2 2295   0.360   4.999   0.261
  466SOL     OW 2296   3.633   4.908   4.428
  466SOL    HW1 2297   3.720   4.891   4.382
  466SOL    HW2 2298   3.642   4.886   4.525
  467SOL     OW 2299   6.651   6.854   1.708
  467SOL    HW1 2300   6.742   6.819   1.732
  467SOL    HW2 2301   6.590   6.777   1.691
  468SOL     OW 2302   2.579   6.037   6.284
  468SOL    HW1 2303   2.640   6.053   6.206
  468SOL    HW2 2304   2.486   6.066   6.259
  469SOL     OW 2305   3.408   4.638   5.312
  469SOL    HW1 2306   3.434   4.644   5.409
  469SOL    HW2 2307   3.313   4.609   5.305
  470SOL     OW 2308   2.053   5.075   2.237
  470SOL    HW1 2309   2.112   5.031   2.305
  470SOL    HW2 2310   2.002   5.005   2.187
  471SOL     OW 2311   1.758   1.800   4.360
  471SOL    HW1 2312   1.668   1.843   4.361
  471SOL    HW2 2313   1.776   1.760   4.270
  472SOL     OW 2314   5.301   4.166   5.972
  472SOL    HW1 2315   5.238   4.093   5.998
  472SOL    HW2 2316   5.386   4.157   6.024
  473SOL     OW 2317   5.624   3.166   2.011
  473SOL    HW1 2318   5.545   3.227   2.021
  473SOL    HW2 2319   5.596   3.072   2.032
  474SOL     OW 2320   4.787   5.356   3.240
  474SOL    HW1 2321   4.838   5.372   3.324
  474SOL    HW2 2322   4.690   5.373   3.257
  475SOL     OW 2323   4.566   1.380   0.444
  475SOL    HW1 2324   4.607   1.380   0.535
  475SOL    HW2 2325   4.638   1.392   0.375
  476SOL     OW 2326   1.205   2.871   0.317
  476SOL    HW1 2327   1.114   2.907   0.297
  476SOL    HW2 2328   1.265   2.886   0.238
  477SOL     OW 2329   6.544   5.513   3.401
  477SOL    HW1 2330   6.454   5.470   3.393
  477SOL    HW2 2331   6.595   5.470   3.476
  478SOL     OW 2332   6.071   5.133   2.489
  478SOL    HW1 2333   6.154   5.086   2.519
  478SOL    HW2 2334   6.007   5.139   2.566
  479SOL     OW 2335   3.317   3.782   2.790
  479SOL    HW1 2336   3.276   3.723   2.860
  479SOL    HW2 2337   3.416   3.779   2.799
  480SOL     OW 2338   0.499   0.863   1.495
  480SOL    HW1 2339   0.466   0.850   1.588
  480SOL    HW2 2340   0.467   0.950   1.460
  481SOL     OW 2341   5.988   6.028   0.756
  481SOL    HW1 2342   5.951   6.120   0.748
  481SOL    HW2 2343   6.086   6.029   0.733
  482SOL     OW 2344   3.848   4.929   2.467
  482SOL    HW1 2345   3.775   4.908   2.402
  482SOL    HW2 2346   3.863   5.028   2.470
  483SOL     OW 2347   6.313   0.510   4.166
  483SOL    HW1 2348   6.407   0.534   4.143
  483SOL    HW2 2349   6.252   0.586   4.143
  484SOL     OW 2350   2.466   4.783   3.120
  484SOL    HW1 2351   2.443   4.859   3.181
  484SOL    HW2 2352   2.554   4.744   3.146
  485SOL     OW 2353   4.666   2.623   0.778
  485SOL    HW1 2354   4.624   2.607   0.689
  485SOL    HW2 2355   4.765   2.636   0.767
  486SOL     OW 2356   6.176   6.219   5.139
  486SOL    HW1 2357   6.081   6.194   5.156
  486SOL    HW2 2358   6.189   6.236   5.041
  487SOL     OW 2359   0.131   0.431   6.565
  487SOL    HW1 2360   0.052   0.396   6.514
  487SOL    HW2 2361   0.213   0.424   6.508
  488SOL     OW 2362   1.870   5.707   3.265
  488SOL    HW1 2363   1.779   5.678   3.235
  488SOL    HW2 2364   1.875   5.699   3.365
  489SOL     OW 2365   2.655   4.664   5.468
  489SOL    HW1 2366   2.620   4.719   5.543
  489SOL    HW2 2367   2.754   4.679   5.458
  490SOL     OW 2368   1.257   3.415   5.372
  490SOL    HW1 2369   1.175   3.469   5.351
  490SOL    HW2 2370   1.243   3.320   5.343
  491SOL     OW 2371   5.795   3.706   0.981
  491SOL    HW1 2372   5.810   3.680   0.885
  491SOL    HW2 2373   5.876   3.754   1.015
  492SOL     OW 2374   1.519   2.243   5.658
  492SOL    HW1 2375   1.470   2.237   5.571
  492SOL    HW2 2376   1.605   2.294   5.645
  493SOL     OW 2377   1.581   5.752   3.596
  493SOL    HW1 2378   1.678   5.759   3.618
  493SOL    HW2 2379   1.558   5.818   3.524
  494SOL     OW 2380   2.856   0.541   3.520
  494SOL    HW1 2381   2.861   0.501   3.612
  494SOL    HW2 2382   2.946   0.576   3.495
  495SOL     OW 2383   3.944   4.785   0.008
  495SOL    HW1 2384   3.849   4.802   7.005
  495SOL    HW2 2385   3.947   4.723   0.087
  496SOL     OW 2386   4.784   1.253   3.166
  496SOL    HW1 2387   4.710   1.306   3.207
  496SOL    HW2 2388   4.843   1.216   3.238
  497SOL     OW 2389   4.705   2.877   1.105
  497SOL    HW1 2390   4.716   2.778   1.093
  497SOL    HW2 2391   4.618   2.906   1.066
  498SOL     OW 2392   0.654   0.210   1.373
  498SOL    HW1 2393   0.574   0.166   1.414
  498SOL    HW2 2394   0.628   0.254   1.287
  499SOL     OW 2395   2.706   6.960   6.696
  499SOL    HW1 2396   2.754   6.894   6.638
  499SOL    HW2 2397   2.621   6.919   6.728
  500SOL     OW 2398   5.985   1.760   6.806
  500SOL    HW1 2399   6.018   1.725   6.893
  500SOL    HW2 2400   6.016   1.701   6.732
  501SOL     OW 2401   1.570   2.268   4.528
  501SOL    HW1 2402   1.669   2.254   4.537
  501SOL    HW2 2403   1.523   2.224   4.605
  502SOL     OW 2404   2.215   3.215   6.915
  502SOL    HW1 2405   2.172   3.136   6.960
  502SOL    HW2 2406   2.285   3.183   6.851
  503SOL     OW 2407   4.109   4.758   1.296
  503SOL    HW1 2408   4.035   4.816   1.330
  503SOL    HW2 2409   4.074   4.702   1.220
  504SOL     OW 2410   6.626   0.259   0.024
  504SOL    HW1 2411   6.571   0.323   0.077
  504SOL    HW2 2412   6.719   0.293   0.016
  505SOL     OW 2413   6.401   3.684   5.716
  505SOL    HW1 2414   6.410   3.779   5.745
  505SOL    HW2 2415   6.317   3.673   5.663
  506SOL     OW 2416   2.571   5.723   1.911
  506SOL    HW1 2417   2.508   5.677   1.974
  506SOL    HW2 2418   2.664   5.692   1.929
  507SOL     OW 2419   3.091   6.873   3.126
  507SOL    HW1 2420   3.148   6.954   3.113
  507SOL    HW2 2421   2.995   6.896   3.106
  508SOL     OW 2422   0.607   5.454   3.447
  508SOL    HW1 2423   0.527   5.397   3.429
  508SOL    HW2 2424   0.638   5.440   3.541
  509SOL     OW 2425   4.538   0.269   5.980
  509SOL    HW1 2426   4.558   0.367   5.970
  509SOL    HW2 2427   4.489   0.237   5.899
  510SOL     OW 2428   6.697   4.519   7.002
  510SOL    HW1 2429   6.665   4.547   6.911
  510SOL    HW2 2430   6.745   4.596   0.023
  511SOL     OW 2431   0.962   1.629   0.532
  511SOL    HW1 2432   0.897   1.553   0.538
  511SOL    HW2 2433   0.914   1.712   0.506
  512SOL     OW 2434   1.113   1.964   4.283
  512SOL    HW1 2435   1.175   2.018   4.340
  512SOL    HW2 2436   1.027   1.949   4.331
  513SOL     OW 2437   5.806   5.941   2.737
  513SOL    HW1 2438   5.731   5.910   2.678
  513SOL    HW2 2439   5.877   5.982   2.680
  514SOL     OW 2440   4.658   1.442   4.439
  514SOL    HW1 2441   4.745   1.433   4.488
  514SOL    HW2 2442   4.596   1.369   4.466
  515SOL     OW 2443   3.310   0.909   0.177
  515SOL    HW1 2444   3.254   0.827   0.183
  515SOL    HW2 2445   3.379   0.907   0.250
  516SOL     OW 2446   0.644   5.867   2.252
  516SOL    HW1 2447   0.731   5.845   2.296
  516SOL    HW2 2448   0.614   5.959   2.278
  517SOL     OW 2449   3.432   4.700   1.207
  517SOL    HW1 2450   3.337   4.720   1.231
  517SOL    HW2 2451   3.438   4.607   1.170
  518SOL     OW 2452   2.436   6.696   3.719
  518SOL    HW1 2453   2.430   6.695   3.619
  518SOL    HW2 2454   2.399   6.781   3.754
  519SOL     OW 2455   6.567   0.230   2.817
  519SOL    HW1 2456   6.604   0.140   2.793
  519SOL    HW2 2457   6.633   0.300   2.792
  520SOL     OW 2458   3.072   5.579   0.822
  520SOL    HW1 2459   3.059   5.494   0.771
  520SOL    HW2 2460   2.984   5.623   0.838
  521SOL     OW 2461   6.724   6.276   5.216
  521SOL    HW1 2462   6.726   6.258   5.117
  521SOL    HW2 2463   6.672   6.203   5.261
  522SOL     OW 2464   3.839   4.713   6.729
  522SOL    HW1 2465   3.918   4.673   6.775
  522SOL    HW2 2466   3.788   4.770   6.793
  523SOL     OW 2467   2.066   6.801   5.879
  523SOL    HW1 2468   1.970   6.772   5.871
  523SOL    HW2 2469   2.109   6.796   5.789
  524SOL     OW 2470   6.716   0.991   0.935
  524SOL    HW1 2471   6.668   0.977   1.022
  524SOL    HW2 2472   6.814   0.986   0.950
  525SOL     OW 2473   0.983   3.669   3.543
  525SOL    HW1 2474   0.940   3.674   3.633
  525SOL    HW2 2475   1.082   3.680   3.553
  526SOL     OW 2476   3.929   6.619   4.504
  526SOL    HW1 2477   4.002   6.553   4.523
  526SOL    HW2 2478   3.953   6.707   4.545
  527SOL     OW 2479   0.205   0.855   0.867
  527SOL    HW1 2480   0.171   0.797   0.793
  527SOL    HW2 2481   0.294   0.822   0.897
  528SOL     OW 2482   7.003   1.446   4.405
  528SOL    HW1 2483   6.960   1.472   4.492
  528SOL    HW2 2484   0.002   1.348   4.407
  529SOL     OW 2485   1.168   1.060   5.939
  529SOL    HW1 2486   1.078   1.100   5.922
  529SOL    HW2 2487   1.178   0.977   5.885
  530SOL     OW 2488   3.262   4.483   1.575
  530SOL    HW1 2489   3.272   4.582   1.587
  530SOL    HW2 2490   3.349   4.444   1.546
  531SOL     OW 2491   0.345   1.221   6.241
  531SOL    HW1 2492   0.433   1.203   6.284
  531SOL    HW2 2493   0.353   1.209   6.142
  532SOL     OW 2494   3.580   0.937   6.788
  532SOL    HW1 2495   3.559   0.850   6.743
  532SOL    HW2 2496   3.586   0.923   6.887
  533SOL     OW 2497   4.280   0.006   4.786
  533SOL    HW1 2498   4.305   6.948   4.839
  533SOL    HW2 2499   4.346   0.021   4.713
  534SOL     OW 2500   1.832   4.141   1.614
  534SOL    HW1 2501   1.873   4.220   1.568
  534SOL    HW2 2502   1.856   4.057   1.565
  535SOL     OW 2503   4.470   4.592   4.312
  535SOL    HW1 2504   4.561   4.552   4.303
  535SOL    HW2 2505   4.443   4.595   4.408
  536SOL     OW 2506   6.395   6.213   0.867
  536SOL    HW1 2507   6.411   6.257   0.778
  536SOL    HW2 2508   6.382   6.283   0.937
  537SOL     OW 2509   3.368   1.523   2.770
  537SOL    HW1 2510   3.369   1.577   2.855
  537SOL    HW2 2511   3.300   1.562   2.707
  538SOL     OW 2512   3.938   4.746   5.410
  538SOL    HW1 2513   3.984   4.833   5.427
  538SOL    HW2 2514   4.005   4.680   5.376
  539SOL     OW 2515   2.496   0.509   6.908
  539SOL    HW1 2516   2.474   0.411   6.909
  539SOL    HW2 2517   2.411   0.561   6.911
  540SOL     OW 2518   2.393   1.402   5.380
  540SOL    HW1 2519   2.311   1.447   5.415
  540SOL    HW2 2520   2.374   1.360   5.292
  541SOL     OW 2521   4.956   6.265   3.121
  541SOL    HW1 2522   4.927   6.198   3.189
  541SOL    HW2 2523   5.047   6.300   3.145
  542SOL     OW 2524   3.770   6.048   5.842
  542SOL    HW1 2525   3.737   6.137   5.872
  542SOL    HW2 2526   3.817   6.059   5.754
  543SOL     OW 2527   6.490   2.191   4.840
  543SOL    HW1 2528   6.463   2.106   4.796
  543SOL    HW2 2529   6.408   2.242   4.866
  544SOL     OW 2530   0.589   2.917   1.141
  544SOL    HW1 2531   0.633   2.981   1.203
  544SOL    HW2 2532   0.632   2.924   1.050
  545SOL     OW 2533   6.894   5.097   0.416
  545SOL    HW1 2534   6.938   5.092   0.327
  545SOL    HW2 2535   6.912   5.187   0.457
  546SOL     OW 2536   6.975   5.217   2.760
  546SOL    HW1 2537   7.007   5.139   2.706
  546SOL    HW2 2538   6.957   5.187   2.854
  547SOL     OW 2539   3.987   6.691   6.303
  547SOL    HW1 2540   3.930   6.702   6.385
  547SOL    HW2 2541   4.083   6.696   6.328
  548SOL     OW 2542   4.249   2.528   0.355
  548SOL    HW1 2543   4.178   2.495   0.417
  548SOL    HW2 2544   4.236   2.626   0.339
  549SOL     OW 2545   5.394   2.511   3.832
  549SOL    HW1 2546   5.370   2.417   3.853
  549SOL    HW2 2547   5.312   2.560   3.802
  550SOL     OW 2548   0.135   6.042   3.613
  550SOL    HW1 2549   0.070   5.967   3.603
  550SOL    HW2 2550   0.119   6.089   3.699
  551SOL     OW 2551   5.425   0.886   0.317
  551SOL    HW1 2552   5.496   0.860   0.382
  551SOL    HW2 2553   5.408   0.985   0.323
  552SOL     OW 2554   0.376   0.248   4.845
  552SOL    HW1 2555   0.299   0.224   4.787
  552SOL    HW2 2556   0.355   0.334   4.893
  553SOL     OW 2557   3.844   2.504   5.357
  553SOL    HW1 2558   3.926   2.561   5.350
  553SOL    HW2 2559   3.866   2.410   5.331
  554SOL     OW 2560   7.017   5.449   0.232
  554SOL    HW1 2561   6.942   5.516   0.227
  554SOL    HW2 2562   7.006   5.394   0.315
  555SOL     OW 2563   2.871   4.261   5.962
  555SOL    HW1 2564   2.962   4.269   6.002
  555SOL    HW2 2565   2.807   4.228   6.032
  556SOL     OW 2566   5.828   6.305   2.079
  556SOL    HW1 2567   5.736   6.296   2.119
  556SOL    HW2 2568   5.888   6.350   2.145
  557SOL     OW 2569   5.832   3.716   6.585
  557SOL    HW1 2570   5.768   3.792   6.578
  557SOL    HW2 2571   5.926   3.750   6.579
  558SOL     OW 2572   3.499   3.939   2.367
  558SOL    HW1 2573   3.532   3.866   2.426
  558SOL    HW2 2574   3.432   3.994   2.416
  559SOL     OW 2575   6.258   1.161   6.500
  559SOL    HW1 2576   6.216   1.125   6.583
  559SOL    HW2 2577   6.226   1.107   6.421
  560SOL     OW 2578   0.502   2.365   3.579
  560SOL    HW1 2579   0.563   2.317   3.515
  560SOL    HW2 2580   0.409   2.366   3.542
  561SOL     OW 2581   0.337   3.832   6.979
  561SOL    HW1 2582   0.309   3.872   0.044
  561SOL    HW2 2583   0.437   3.836   6.972
  562SOL     OW 2584   4.184   6.442   3.684
  562SOL    HW1 2585   4.255   6.511   3.670
  562SOL    HW2 2586   4.182   6.380   3.605
  563SOL     OW 2587   0.768   0.844   4.544
  563SOL    HW1 2588   0.780   0.943   4.540
  563SOL    HW2 2589   0.705   0.815   4.472
  564SOL     OW 2590   5.771   1.558   5.439
  564SOL    HW1 2591   5.830   1.565   5.359
  564SOL    HW2 2592   5.799   1.479   5.494
  565SOL     OW 2593   2.912   3.543   4.133
  565SOL    HW1 2594   2.946   3.619   4.189
  565SOL    HW2 2595   2.903   3.461   4.189
  566SOL     OW 2596   1.777   2.685   3.836
  566SOL    HW1 2597   1.760   2.743   3.917
  566SOL    HW2 2598   1.860   2.717   3.790
  567SOL     OW 2599   1.440   3.022   5.429
  567SOL    HW1 2600   1.458   3.097   5.492
  567SOL    HW2 2601   1.345   2.994   5.436
  568SOL     OW 2602   1.252   0.124   0.138
  568SOL    HW1 2603   1.312   0.088   0.210
  568SOL    HW2 2604   1.157   0.100   0.159
  569SOL     OW 2605   5.046   3.485   5.440
  569SOL    HW1 2606   5.050   3.584   5.454
  569SOL    HW2 2607   5.072   3.438   5.525
  570SOL     OW 2608   3.381   0.901   6.175
  570SOL    HW1 2609   3.437   0.981   6.196
  570SOL    HW2 2610   3.290   0.931   6.146
  571SOL     OW 2611   2.473   4.383   1.740
  571SOL    HW1 2612   2.565   4.418   1.723
  571SOL    HW2 2613   2.431   4.434   1.815
  572SOL     OW 2614   3.181   1.370   4.486
  572SOL    HW1 2615   3.187   1.353   4.388
  572SOL    HW2 2616   3.164   1.284   4.534
  573SOL     OW 2617   0.383   0.459   5.446
  573SOL    HW1 2618   0.466   0.514   5.443
  573SOL    HW2 2619   0.362   0.435   5.541
  574SOL     OW 2620   2.492   1.148   6.045
  574SOL    HW1 2621   2.488   1.145   5.945
  574SOL    HW2 2622   2.461   1.238   6.076
  575SOL     OW 2623   3.873   3.467   0.245
  575SOL    HW1 2624   3.826   3.386   0.279
  575SOL    HW2 2625   3.895   3.455   0.148
  576SOL     OW 2626   0.555   1.155   2.505
  576SOL    HW1 2627   0.470   1.110   2.533
  576SOL    HW2 2628   0.533   1.237   2.452
  577SOL     OW 2629   0.355   6.980   1.946
  577SOL    HW1 2630   0.377   6.914   1.874
  577SOL    HW2 2631   0.307   6.934   2.020
  578SOL     OW 2632   4.011   0.125   0.276
  578SOL    HW1 2633   3.994   0.032   0.246
  578SOL    HW2 2634   4.110   0.140   0.284
  579SOL     OW 2635   1.032   3.856   1.619
  579SOL    HW1 2636   1.101   3.790   1.587
  579SOL    HW2 2637   1.012   3.839   1.716
  580SOL     OW 2638   4.701   4.924   4.454
  580SOL    HW1 2639   4.734   4.833   4.428
  580SOL    HW2 2640   4.609   4.938   4.419
  581SOL     OW 2641   1.704   2.382   4.038
  581SOL    HW1 2642   1.633   2.313   4.049
  581SOL    HW2 2643   1.665   2.473   4.053
  582SOL     OW 2644   5.815   4.470   4.757
  582SOL    HW1 2645   5.753   4.528   4.811
  582SOL    HW2 2646   5.874   4.528   4.701
  583SOL     OW 2647   2.877   6.426   5.585
  583SOL    HW1 2648   2.872   6.384   5.494
  583SOL    HW2 2649   2.971   6.455   5.603
  584SOL     OW 2650   4.275   1.168   5.141
  584SOL    HW1 2651   4.225   1.250   5.115
  584SOL    HW2 2652   4.301   1.174   5.238
  585SOL     OW 2653   3.841   6.803   1.558
  585SOL    HW1 2654   3.810   6.881   1.503
  585SOL    HW2 2655   3.938   6.786   1.540
  586SOL     OW 2656   3.710   6.755   0.805
  586SOL    HW1 2657   3.760   6.823   0.751
  586SOL    HW2 2658   3.621   6.739   0.763
  587SOL     OW 2659   5.078   1.853   2.437
  587SOL    HW1 2660   4.993   1.834   2.388
  587SOL    HW2 2661   5.155   1.813   2.389
  588SOL     OW 2662   2.128   3.983   3.067
  588SOL    HW1 2663   2.088   4.059   3.016
  588SOL    HW2 2664   2.076   3.899   3.050
  589SOL     OW 2665   3.670   5.259   6.771
  589SOL    HW1 2666   3.632   5.183   6.718
  589SOL    HW2 2667   3.623   5.265   6.859
  590SOL     OW 2668   2.855   1.783   6.383
  590SOL    HW1 2669   2.865   1.838   6.465
  590SOL    HW2 2670   2.770   1.809   6.335
  591SOL     OW 2671   2.719   6.998   3.741
  591SOL    HW1 2672   2.697   0.066   3.778
  591SOL    HW2 2673   2.647   6.933   3.767
  592SOL     OW 2674   5.103   2.628   5.005
  592SOL    HW1 2675   5.013   2.670   5.018
  592SOL    HW2 2676   5.171   2.678   5.058
  593SOL     OW 2677   1.831   0.602   6.821
  593SOL    HW1 2678   1.883   0.584   6.905
  593SOL    HW2 2679   1.865   0.686   6.779
  594SOL     OW 2680   3.770   1.195   4.808
  594SOL    HW1 2681   3.848   1.196   4.746
  594SOL    HW2 2682   3.803   1.209   4.902
  595SOL     OW 2683   6.024   4.219   2.242
  595SOL    HW1 2684   6.040   4.315   2.220
  595SOL    HW2 2685   6.016   4.166   2.158
  596SOL     OW 2686   5.842   5.245   4.187
  596SOL    HW1 2687   5.817   5.268   4.281
  596SOL    HW2 2688   5.842   5.328   4.131
  597SOL     OW 2689   3.274   1.670   6.386
  597SOL    HW1 2690   3.231   1.747   6.339
  597SOL    HW2 2691   3.228   1.655   6.474
  598SOL     OW 2692   3.162   3.860   3.234
  598SOL    HW1 2693   3.102   3.885   3.310
  598SOL    HW2 2694   3.256   3.849   3.268
  599SOL     OW 2695   2.015   4.536   1.252
  599SOL    HW1 2696   2.083   4.555   1.324
  599SOL    HW2 2697   1.987   4.623   1.210
  600SOL     OW 2698   0.227   3.180   5.344
  600SOL    HW1 2699   0.265   3.177   5.436
  600SOL    HW2 2700   0.170   3.261   5.334
  601SOL     OW 2701   6.858   6.722   5.858
  601SOL    HW1 2702   6.799   6.749   5.935
  601SOL    HW2 2703   6.894   6.630   5.875
  602SOL     OW 2704   1.125   0.406   3.679
  602SOL    HW1 2705   1.054   0.342   3.649
  602SOL    HW2 2706   1.199   0.407   3.611
  603SOL     OW 2707   1.463   1.415   3.998
  603SOL    HW1 2708   1.378   1.468   4.002
  603SOL    HW2 2709   1.528   1.451   4.064
  604SOL     OW 2710   5.183   2.688   1.358
  604SOL    HW1 2711   5.116   2.691   1.432
  604SOL    HW2 2712   5.136   2.692   1.270
  605SOL     OW 2713   5.756   6.289   1.267
  605SOL    HW1 2714   5.713   6.352   1.203
  605SOL    HW2 2715   5.740   6.195   1.236
  606SOL     OW 2716   3.131   6.628   5.154
  606SOL    HW1 2717   3.155   6.725   5.160
  606SOL    HW2 2718   3.201   6.574   5.200
  607SOL     OW 2719   1.367   3.117   6.122
  607SOL    HW1 2720   1.349   3.057   6.200
  607SOL    HW2 2721   1.459   3.155   6.129
  608SOL     OW 2722   3.086   1.600   0.045
  608SOL    HW1 2723   3.054   1.676   0.101
  608SOL    HW2 2724   3.011   1.570   7.007
  609SOL     OW 2725   3.620   3.190   2.453
  609SOL    HW1 2726   3.632   3.105   2.402
  609SOL    HW2 2727   3.650   3.176   2.547
  610SOL     OW 2728   4.894   3.042   1.794
  610SOL    HW1 2729   4.812   3.019   1.846
  610SOL    HW2 2730   4.944   2.958   1.771
  611SOL     OW 2731   3.531   1.481   2.100
  611SOL    HW1 2732   3.519   1.507   2.196
  611SOL    HW2 2733   3.451   1.511   2.048
  612SOL     OW 2734   4.451   4.926   4.309
  612SOL    HW1 2735   4.409   4.860   4.372
  612SOL    HW2 2736   4.435   4.896   4.215
  613SOL     OW 2737   4.280   5.035   6.372
  613SOL    HW1 2738   4.192   5.069   6.338
  613SOL    HW2 2739   4.340   5.111   6.394
  614SOL     OW 2740   3.119   6.418   6.232
  614SOL    HW1 2741   3.032   6.368   6.230
  614SOL    HW2 2742   3.165   6.401   6.319
  615SOL     OW 2743   6.724   4.660   3.418
  615SOL    HW1 2744   6.787   4.702   3.352
  615SOL    HW2 2745   6.680   4.731   3.473
  616SOL     OW 2746   6.085   2.483   3.824
  616SOL    HW1 2747   5.991   2.466   3.854
  616SOL    HW2 2748   6.147   2.419   3.870
  617SOL     OW 2749   2.406   0.369   6.408
  617SOL    HW1 2750   2.377   0.391   6.315
  617SOL    HW2 2751   2.459   0.445   6.446
  618SOL     OW 2752   2.401   0.762   3.736
  618SOL    HW1 2753   2.400   0.749   3.636
  618SOL    HW2 2754   2.372   0.855   3.758
  619SOL     OW 2755   1.040   2.300   7.005
  619SOL    HW1 2756   1.082   2.374   6.952
  619SOL    HW2 2757   0.954   2.333   0.022
  620SOL     OW 2758   4.426   3.294   0.454
  620SOL    HW1 2759   4.468   3.382   0.432
  620SOL    HW2 2760   4.462   3.261   0.542
  621SOL     OW 2761   0.175   5.662   1.263
  621SOL    HW1 2762   0.147   5.596   1.333
  621SOL    HW2 2763   0.097   5.686   1.206
  622SOL     OW 2764   0.255   1.104   0.254
  622SOL    HW1 2765   0.176   1.145   0.300
  622SOL    HW2 2766   0.321   1.175   0.232
  623SOL     OW 2767   6.667   5.285   5.095
  623SOL    HW1 2768   6.710   5.202   5.059
  623SOL    HW2 2769   6.716   5.315   5.177
  624SOL     OW 2770   0.512   1.672   1.298
  624SOL    HW1 2771   0.455   1.754   1.293
  624SOL    HW2 2772   0.589   1.681   1.235
  625SOL     OW 2773   1.445   1.061   2.704
  625SOL    HW1 2774   1.454   0.969   2.666
  625SOL    HW2 2775   1.534   1.106   2.705
  626SOL     OW 2776   2.805   5.801   4.679
  626SOL    HW1 2777   2.842   5.716   4.717
  626SOL    HW2 2778   2.723   5.827   4.731
  627SOL     OW 2779   4.746   6.214   6.695
  627SOL    HW1 2780   4.827   6.272   6.703
  627SOL    HW2 2781   4.714   6.188   6.786
  628SOL     OW 2782   5.696   4.142   2.963
  628SOL    HW1 2783   5.735   4.208   3.028
  628SOL    HW2 2784   5.768   4.107   2.904
  629SOL     OW 2785   1.859   0.006   0.837
  629SOL    HW1 2786   1.853   6.941   0.885
  629SOL    HW2 2787   1.824   7.018   0.744
  630SOL     OW 2788   2.316   1.489   2.221
  630SOL    HW1 2789   2.334   1.419   2.152
  630SOL    HW2 2790   2.218   1.508   2.225
  631SOL     OW 2791   2.731   0.959   4.633
  631SOL    HW1 2792   2.670   0.913   4.569
  631SOL    HW2 2793   2.808   0.999   4.583
  632SOL     OW 2794   2.890   0.762   1.123
  632SOL    HW1 2795   2.816   0.717   1.173
  632SOL    HW2 2796   2.967   0.699   1.112
  633SOL     OW 2797   2.148   0.367   5.110
  633SOL    HW1 2798   2.138   0.393   5.206
  633SOL    HW2 2799   2.062   0.384   5.061
  634SOL     OW 2800   2.947   5.861   1.789
  634SOL    HW1 2801   2.851   5.887   1.795
  634SOL    HW2 2802   2.953   5.766   1.758
  635SOL     OW 2803   3.389   0.032   2.734
  635SOL    HW1 2804   3.331   0.003   2.658
  635SOL    HW2 2805   3.377   0.130   2.750
  636SOL     OW 2806   4.513   5.000   6.178
  636SOL    HW1 2807   4.603   4.988   6.136
  636SOL    HW2 2808   4.466   4.912   6.180
  637SOL     OW 2809   5.702   5.223   6.276
  637SOL    HW1 2810   5.718   5.150   6.209
  637SOL    HW2 2811   5.776   5.290   6.269
  638SOL     OW 2812   5.248   1.602   3.290
  638SOL    HW1 2813   5.264   1.648   3.377
  638SOL    HW2 2814   5.252   1.669   3.216
  639SOL     OW 2815   4.536   3.838   1.717
  639SOL    HW1 2816   4.464   3.798   1.774
  639SOL    HW2 2817   4.541   3.789   1.630
  640SOL     OW 2818   2.856   2.994   5.433
  640SOL    HW1 2819   2.890   2.918   5.377
  640SOL    HW2 2820   2.794   2.959   5.503
  641SOL     OW 2821   6.982   6.265   4.661
  641SOL    HW1 2822   7.016   6.303   4.575
  641SOL    HW2 2823   6.883   6.261   4.658
  642SOL     OW 2824   1.176   4.293   6.083
  642SOL    HW1 2825   1.259   4.344   6.061
  642SOL    HW2 2826   1.164   4.291   6.183
  643SOL     OW 2827   6.096   6.237   4.855
  643SOL    HW1 2828   6.020   6.178   4.883
  643SOL    HW2 2829   6.067   6.332   4.860
  644SOL     OW 2830   2.776   6.305   1.492
  644SOL    HW1 2831   2.807   6.259   1.575
  644SOL    HW2 2832   2.840   6.287   1.418
  645SOL     OW 2833   0.382   2.875   3.048
  645SOL    HW1 2834   0.398   2.959   3.100
  645SOL    HW2 2835   0.329   2.897   2.966
  646SOL     OW 2836   1.336   2.872   4.696
  646SOL    HW1 2837   1.293   2.821   4.622
  646SOL    HW2 2838   1.407   2.932   4.659
  647SOL     OW 2839   5.522   3.616   0.246
  647SOL    HW1 2840   5.480   3.692   0.196
  647SOL    HW2 2841   5.596   3.652   0.303
  648SOL     OW 2842   4.261   2.322   4.301
  648SOL    HW1 2843   4.177   2.294   4.349
  648SOL    HW2 2844   4.278   2.259   4.226
  649SOL     OW 2845   4.594   4.498   1.506
  649SOL    HW1 2846   4.673   4.485   1.566
  649SOL    HW2 2847   4.519   4.440   1.537
  650SOL     OW 2848   5.070   4.883   0.887
  650SOL    HW1 2849   4.975   4.911   0.871
  650SOL    HW2 2850   5.092   4.805   0.829
  651SOL     OW 2851   1.734   5.830   6.791
  651SOL    HW1 2852   1.774   5.822   6.882
  651SOL    HW2 2853   1.731   5.740   6.748
  652SOL     OW 2854   4.925   2.104   1.903
  652SOL    HW1 2855   4.936   2.197   1.939
  652SOL    HW2 2856   4.874   2.049   1.968
  653SOL     OW 2857   3.014   4.848   2.496
  653SOL    HW1 2858   2.932   4.804   2.458
  653SOL    HW2 2859   3.095   4.815   2.447
  654SOL     OW 2860   6.775   4.851   6.428
  654SOL    HW1 2861   6.817   4.935   6.464
  654SOL    HW2 2862   6.704   4.875   6.362
  655SOL     OW 2863   1.174   1.950   0.143
  655SOL    HW1 2864   1.274   1.945   0.131
  655SOL    HW2 2865   1.130   1.936   0.054
  656SOL     OW 2866   1.778   6.356   1.481
  656SOL    HW1 2867   1.832   6.432   1.445
  656SOL    HW2 2868   1.795   6.346   1.579
  657SOL     OW 2869   4.262   0.745   6.957
  657SOL    HW1 2870   4.246   0.673   6.889
  657SOL    HW2 2871   4.198   0.735   0.010
  658SOL     OW 2872   3.864   5.391   7.005
  658SOL    HW1 2873   3.881   5.473   0.037
  658SOL    HW2 2874   3.778   5.400   6.955
  659SOL     OW 2875   3.952   0.627   6.130
  659SOL    HW1 2876   4.027   0.644   6.195
  659SOL    HW2 2877   3.919   0.715   6.095
  660SOL     OW 2878   3.580   6.327   3.195
  660SOL    HW1 2879   3.627   6.415   3.201
  660SOL    HW2 2880   3.602   6.284   3.108
  661SOL     OW 2881   5.692   5.221   2.610
  661SOL    HW1 2882   5.618   5.170   2.567
  661SOL    HW2 2883   5.709   5.305   2.558
  662SOL     OW 2884   4.209   1.609   6.919
  662SOL    HW1 2885   4.227   1.705   6.941
  662SOL    HW2 2886   4.118   1.600   6.878
  663SOL     OW 2887   1.037   4.317   4.953
  663SOL    HW1 2888   0.989   4.238   4.992
  663SOL    HW2 2889   1.082   4.289   4.868
  664SOL     OW 2890   6.211   0.114   6.716
  664SOL    HW1 2891   6.268   0.158   6.647
  664SOL    HW2 2892   6.141   0.059   6.671
  665SOL     OW 2893   0.834   4.095   1.359
  665SOL    HW1 2894   0.901   4.115   1.430
  665SOL    HW2 2895   0.752   4.056   1.400
  666SOL     OW 2896   4.367   1.049   2.069
  666SOL    HW1 2897   4.360   0.987   2.147
  666SOL    HW2 2898   4.346   0.999   1.985
  667SOL     OW 2899   0.643   0.459   1.661
  667SOL    HW1 2900   0.669   0.516   1.738
  667SOL    HW2 2901   0.722   0.404   1.632
  668SOL     OW 2902   6.018   3.089   6.923
  668SOL    HW1 2903   5.976   3.163   6.976
  668SOL    HW2 2904   5.978   3.086   6.832
  669SOL     OW 2905   5.290   1.783   3.090
  669SOL    HW1 2906   5.278   1.880   3.111
  669SOL    HW2 2907   5.271   1.767   2.993
  670SOL     OW 2908   3.781   2.062   2.467
  670SOL    HW1 2909   3.685   2.083   2.454
  670SOL    HW2 2910   3.820   2.028   2.382
  671SOL     OW 2911   1.443   5.904   1.704
  671SOL    HW1 2912   1.522   5.859   1.746
  671SOL    HW2 2913   1.363   5.845   1.711
  672SOL     OW 2914   0.593   0.006   1.678
  672SOL    HW1 2915   0.557   6.940   1.709
  672SOL    HW2 2916   0.660   7.013   1.605
  673SOL     OW 2917   6.058   6.607   6.489
  673SOL    HW1 2918   5.967   6.567   6.495
  673SOL    HW2 2919   6.078   6.630   6.394
  674SOL     OW 2920   5.394   0.456   4.296
  674SOL    HW1 2921   5.473   0.463   4.236
  674SOL    HW2 2922   5.335   0.381   4.266
  675SOL     OW 2923   0.393   4.266   2.095
  675SOL    HW1 2924   0.430   4.259   2.187
  675SOL    HW2 2925   0.441   4.203   2.035
  676SOL     OW 2926   2.485   6.151   6.763
  676SOL    HW1 2927   2.478   6.219   6.836
  676SOL    HW2 2928   2.481   6.196   6.674
  677SOL     OW 2929   5.699   1.146   1.267
  677SOL    HW1 2930   5.725   1.240   1.243
  677SOL    HW2 2931   5.600   1.137   1.261
  678SOL     OW 2932   0.800   5.137   4.101
  678SOL    HW1 2933   0.749   5.213   4.140
  678SOL    HW2 2934   0.876   5.113   4.160
  679SOL     OW 2935   4.583   1.654   5.655
  679SOL    HW1 2936   4.615   1.664   5.561
  679SOL    HW2 2937   4.596   1.740   5.704
  680SOL     OW 2938   5.820   6.547   3.847
  680SOL    HW1 2939   5.763   6.591   3.778
  680SOL    HW2 2940   5.864   6.616   3.904
  681SOL     OW 2941   4.499   4.907   2.461
  681SOL    HW1 2942   4.556   4.825   2.451
  681SOL    HW2 2943   4.514   4.948   2.551
  682SOL     OW 2944   6.979   1.497   2.828
  682SOL    HW1 2945   6.925   1.466   2.906
  682SOL    HW2 2946   6.922   1.500   2.746
  683SOL     OW 2947   3.263   4.152   0.818
  683SOL    HW1 2948   3.281   4.225   0.752
  683SOL    HW2 2949   3.273   4.187   0.911
  684SOL     OW 2950   6.682   1.461   6.121
  684SOL    HW1 2951   6.585   1.484   6.137
  684SOL    HW2 2952   6.690   1.363   6.105
  685SOL     OW 2953   3.253   6.792   3.536
  685SOL    HW1 2954   3.329   6.739   3.574
  685SOL    HW2 2955   3.290   6.861   3.473
  686SOL     OW 2956   3.882   0.538   5.605
  686SOL    HW1 2957   3.895   0.532   5.704
  686SOL    HW2 2958   3.881   0.446   5.566
  687SOL     OW 2959   0.432   0.776   4.620
  687SOL    HW1 2960   0.460   0.786   4.525
  687SOL    HW2 2961   0.381   0.857   4.649
  688SOL     OW 2962   5.714   2.573   6.817
  688SOL    HW1 2963   5.745   2.614   6.731
  688SOL    HW2 2964   5.728   2.637   6.892
  689SOL     OW 2965   2.460   5.710   6.865
  689SOL    HW1 2966   2.498   5.746   6.780
  689SOL    HW2 2967   2.416   5.783   6.916
  690SOL     OW 2968   5.934   3.589   3.679
  690SOL    HW1 2969   5.839   3.560   3.670
  690SOL    HW2 2970   5.977   3.540   3.755
  691SOL     OW 2971   5.899   1.235   2.211
  691SOL    HW1 2972   5.874   1.168   2.281
  691SOL    HW2 2973   5.987   1.276   2.235
  692SOL     OW 2974   1.557   0.429   3.401
  692SOL    HW1 2975   1.617   0.350   3.415
  692SOL    HW2 2976   1.594   0.508   3.450
  693SOL     OW 2977   5.529   4.468   2.931
  693SOL    HW1 2978   5.521   4.394   2.864
  693SOL    HW2 2979   5.442   4.516   2.938
  694SOL     OW 2980   4.051   5.229   4.133
  694SOL    HW1 2981   4.049   5.329   4.126
  694SOL    HW2 2982   4.109   5.192   4.060
  695SOL     OW 2983   4.657   6.585   3.565
  695SOL    HW1 2984   4.728   6.654   3.573
  695SOL    HW2 2985   4.573   6.618   3.608
  696SOL     OW 2986   5.818   4.040   1.924
  696SOL    HW1 2987   5.832   3.956   1.976
  696SOL    HW2 2988   5.896   4.101   1.937
  697SOL     OW 2989   0.275   6.371   2.434
  697SOL    HW1 2990   0.299   6.404   2.525
  697SOL    HW2 2991   0.256   6.273   2.439
  698SOL     OW 2992   5.550   6.474   6.179
  698SOL    HW1 2993   5.637   6.504   6.220
  698SOL    HW2 2994   5.550   6.497   6.082
  699SOL     OW 2995   3.838   3.651   0.817
  699SOL    HW1 2996   3.909   3.659   0.887
  699SOL    HW2 2997   3.860   3.575   0.756
  700SOL     OW 2998   3.571   0.061   5.449
  700SOL    HW1 2999   3.533   7.006   5.501
  700SOL    HW2 3000   3.496   0.122   5.421
  701SOL     OW 3001   4.742   4.744   2.154
  701SOL    HW1 3002   4.819   4.685   2.177
  701SOL    HW2 3003   4.759   4.836   2.190
  702SOL     OW 3004   4.079   0.353   4.635
  702SOL    HW1 3005   4.057   0.450   4.633
  702SOL    HW2 3006   4.175   0.341   4.661
  703SOL     OW 3007   3.450   3.056   0.223
  703SOL    HW1 3008   3.375   3.010   0.176
  703SOL    HW2 3009   3.537   3.022   0.187
  704SOL     OW 3010   4.077   1.271   6.688
  704SOL    HW1 3011   4.074   1.343   6.619
  704SOL    HW2 3012   4.007   1.287   6.756
  705SOL     OW 3013   0.220   6.066   5.863
  705SOL    HW1 3014   0.222   6.113   5.775
  705SOL    HW2 3015   0.158   6.115   5.925
  706SOL     OW 3016   3.915   0.197   4.955
  706SOL    HW1 3017   3.856   0.181   4.876
  706SOL    HW2 3018   3.867   0.171   5.039
  707SOL     OW 3019   3.263   5.151   4.665
  707SOL    HW1 3020   3.314   5.109   4.591
  707SOL    HW2 3021   3.192   5.210   4.628
  708SOL     OW 3022   3.412   5.939   3.570
  708SOL    HW1 3023   3.376   5.932   3.477
  708SOL    HW2 3024   3.510   5.959   3.567
  709SOL     OW 3025   2.267   0.203   1.956
  709SOL    HW1 3026   2.251   0.296   1.988
  709SOL    HW2 3027   2.358   0.173   1.984
  710SOL     OW 3028   4.898   3.808   2.880
  710SOL    HW1 3029   4.832   3.870   2.923
  710SOL    HW2 3030   4.990   3.846   2.889
  711SOL     OW 3031   0.287   1.205   1.165
  711SOL    HW1 3032   0.243   1.253   1.241
  711SOL    HW2 3033   0.292   1.266   1.086
  712SOL     OW 3034   5.497   3.811   0.044
  712SOL    HW1 3035   5.417   3.831   7.009
  712SOL    HW2 3036   5.568   3.879   0.025
  713SOL     OW 3037   4.091   3.153   6.151
  713SOL    HW1 3038   4.140   3.233   6.184
  713SOL    HW2 3039   3.997   3.178   6.129
  714SOL     OW 3040   4.400   6.684   2.835
  714SOL    HW1 3041   4.373   6.641   2.921
  714SOL    HW2 3042   4.499   6.680   2.825
  715SOL     OW 3043   6.264   4.709   5.177
  715SOL    HW1 3044   6.211   4.631   5.145
  715SOL    HW2 3045   6.362   4.687   5.174
  716SOL     OW 3046   3.296   1.780   3.794
  716SOL    HW1 3047   3.209   1.821   3.767
  716SOL    HW2 3048   3.363   1.793   3.720
  717SOL     OW 3049   4.966   5.122   3.432
  717SOL    HW1 3050   5.005   5.212   3.454
  717SOL    HW2 3051   4.867   5.131   3.423
  718SOL     OW 3052   6.099   2.199   5.355
  718SOL    HW1 3053   6.013   2.148   5.346
  718SOL    HW2 3054   6.139   2.182   5.444
  719SOL     OW 3055   4.495   5.872   2.724
  719SOL    HW1 3056   4.405   5.897   2.758
  719SOL    HW2 3057   4.563   5.887   2.795
  720SOL     OW 3058   2.985   1.390   1.683
  720SOL    HW1 3059   3.069   1.432   1.651
  720SOL    HW2 3060   2.929   1.362   1.605
  721SOL     OW 3061   6.903   2.884   1.863
  721SOL    HW1 3062   6.987   2.845   1.899
  721SOL    HW2 3063   6.910   2.895   1.764
  722SOL     OW 3064   5.659   6.299   1.541
  722SOL    HW1 3065   5.670   6.288   1.442
  722SOL    HW2 3066   5.563   6.313   1.563
  723SOL     OW 3067   2.161   0.767   4.324
  723SOL    HW1 3068   2.094   0.759   4.398
  723SOL    HW2 3069   2.140   0.847   4.268
  724SOL     OW 3070   1.266   2.118   4.487
  724SOL    HW1 3071   1.233   2.212   4.487
  724SOL    HW2 3072   1.335   2.106   4.558
  725SOL     OW 3073   1.884   4.657   2.829
  725SOL    HW1 3074   1.829   4.738   2.808
  725SOL    HW2 3075   1.829   4.575   2.815
  726SOL     OW 3076   2.174   3.746   0.670
  726SOL    HW1 3077   2.215   3.671   0.618
  726SOL    HW2 3078   2.205   3.740   0.765
  727SOL     OW 3079   3.748   5.170   4.620
  727SOL    HW1 3080   3.662   5.184   4.669
  727SOL    HW2 3081   3.771   5.073   4.621
  728SOL     OW 3082   6.144   3.014   3.840
  728SOL    HW1 3083   6.233   2.968   3.846
  728SOL    HW2 3084   6.157   3.109   3.813
  729SOL     OW 3085   0.891   5.034   0.145
  729SOL    HW1 3086   0.929   4.952   0.188
  729SOL    HW2 3087   0.809   5.063   0.195
  730SOL     OW 3088   4.297   1.406   3.210
  730SOL    HW1 3089   4.256   1.422   3.300
  730SOL    HW2 3090   4.253   1.464   3.142
  731SOL     OW 3091   4.933   4.910   4.915
  731SOL    HW1 3092   4.995   4.841   4.951
  731SOL    HW2 3093   4.957   4.930   4.820
  732SOL     OW 3094   4.451   0.496   4.025
  732SOL    HW1 3095   4.395   0.422   4.061
  732SOL    HW2 3096   4.431   0.581   4.074
  733SOL     OW 3097   6.892   4.886   4.061
  733SOL    HW1 3098   6.964   4.817   4.059
  733SOL    HW2 3099   6.861   4.905   3.968
  734SOL     OW 3100   6.008   6.167   2.902
  734SOL    HW1 3101   5.980   6.171   2.806
  734SOL    HW2 3102   5.971   6.085   2.945
  735SOL     OW 3103   4.117   0.523   2.492
  735SOL    HW1 3104   4.213   0.496   2.482
  735SOL    HW2 3105   4.074   0.529   2.402
  736SOL     OW 3106   1.767   1.836   3.774
  736SOL    HW1 3107   1.844   1.893   3.744
  736SOL    HW2 3108   1.683   1.890   3.776
  737SOL     OW 3109   3.114   0.941   6.235
  737SOL    HW1 3110   3.106   1.041   6.233
  737SOL    HW2 3111   3.032   0.901   6.196
  738SOL     OW 3112   1.566   5.170   0.287
  738SOL    HW1 3113   1.506   5.244   0.316
  738SOL    HW2 3114   1.635   5.153   0.358
  739SOL     OW 3115   1.361   0.280   3.575
  739SOL    HW1 3116   1.399   0.304   3.486
  739SOL    HW2 3117   1.364   0.180   3.586
  740SOL     OW 3118   5.272   3.007   3.169
  740SOL    HW1 3119   5.245   3.015   3.073
  740SOL    HW2 3120   5.334   2.929   3.179
  741SOL     OW 3121   3.026   1.281   3.204
  741SOL    HW1 3122   2.934   1.314   3.229
  741SOL    HW2 3123   3.024   1.246   3.111
  742SOL     OW 3124   1.915   0.229   2.452
  742SOL    HW1 3125   1.855   0.291   2.503
  742SOL    HW2 3126   1.865   0.147   2.426
  743SOL     OW 3127   0.119   6.274   3.111
  743SOL    HW1 3128   0.182   6.344   3.078
  743SOL    HW2 3129   0.031   6.284   3.065
  744SOL     OW 3130   5.040   1.666   0.973
  744SOL    HW1 3131   5.020   1.741   0.909
  744SOL    HW2 3132   5.002   1.581   0.936
  745SOL     OW 3133   2.029   6.698   5.378
  745SOL    HW1 3134   2.005   6.785   5.335
  745SOL    HW2 3135   1.984   6.623   5.329
  746SOL     OW 3136   6.613   5.551   5.060
  746SOL    HW1 3137   6.563   5.589   4.982
  746SOL    HW2 3138   6.623   5.452   5.047
  747SOL     OW 3139   4.461   5.063   2.699
  747SOL    HW1 3140   4.391   5.075   2.769
  747SOL    HW2 3141   4.544   5.112   2.726
  748SOL     OW 3142   6.006   4.299   1.105
  748SOL    HW1 3143   5.960   4.332   1.022
  748SOL    HW2 3144   6.101   4.330   1.105
  749SOL     OW 3145   4.654   4.242   4.981
  749SOL    HW1 3146   4.654   4.163   4.920
  749SOL    HW2 3147   4.620   4.216   5.071
  750SOL     OW 3148   2.543   2.110   3.407
  750SOL    HW1 3149   2.553   2.148   3.499
  750SOL    HW2 3150   2.544   2.184   3.340
  751SOL     OW 3151   4.308   0.656   0.651
  751SOL    HW1 3152   4.285   0.630   0.745
  751SOL    HW2 3153   4.306   0.575   0.593
  752SOL     OW 3154   3.337   2.951   4.517
  752SOL    HW1 3155   3.319   3.049   4.505
  752SOL    HW2 3156   3.283   2.916   4.593
  753SOL     OW 3157   3.709   4.040   3.617
  753SOL    HW1 3158   3.746   4.006   3.703
  753SOL    HW2 3159   3.775   4.023   3.543
  754SOL     OW 3160   5.115   0.236   6.819
  754SOL    HW1 3161   5.022   0.270   6.813
  754SOL    HW2 3162   5.162   0.279   6.895
  755SOL     OW 3163   4.806   4.724   5.101
  755SOL    HW1 3164   4.738   4.651   5.092
  755SOL    HW2 3165   4.896   4.689   5.075
  756SOL     OW 3166   3.661   5.557   5.755
  756SOL    HW1 3167   3.619   5.641   5.722
  756SOL    HW2 3168   3.751   5.577   5.794
  757SOL     OW 3169   1.454   0.032   1.877
  757SOL    HW1 3170   1.544   0.045   1.919
  757SOL    HW2 3171   1.465   0.019   1.778
  758SOL     OW 3172   4.244   1.172   4.253
  758SOL    HW1 3173   4.156   1.183   4.299
  758SOL    HW2 3174   4.281   1.262   4.229
  759SOL     OW 3175   6.875   3.252   3.946
  759SOL    HW1 3176   6.940   3.199   3.890
  759SOL    HW2 3177   6.796   3.276   3.890
  760SOL     OW 3178   6.594   5.705   3.916
  760SOL    HW1 3179   6.608   5.727   4.013
  760SOL    HW2 3180   6.682   5.681   3.875
  761SOL     OW 3181   4.391   4.769   6.166
  761SOL    HW1 3182   4.337   4.777   6.082
  761SOL    HW2 3183   4.331   4.747   6.243
  762SOL     OW 3184   3.926   5.511   3.594
  762SOL    HW1 3185   3.913   5.606   3.622
  762SOL    HW2 3186   4.021   5.497   3.566
  763SOL     OW 3187   5.545   0.962   0.696
  763SOL    HW1 3188   5.565   0.930   0.789
  763SOL    HW2 3189   5.449   0.991   0.692
  764SOL     OW 3190   5.050   6.580   5.366
  764SOL    HW1 3191   5.080   6.530   5.285
  764SOL    HW2 3192   5.094   6.542   5.448
  765SOL     OW 3193   5.708   6.013   0.542
  765SOL    HW1 3194   5.803   5.982   0.546
  765SOL    HW2 3195   5.671   5.996   0.451
  766SOL     OW 3196   2.463   2.181   4.115
  766SOL    HW1 3197   2.560   2.188   4.138
  766SOL    HW2 3198   2.408   2.215   4.191
  767SOL     OW 3199   6.934   6.407   3.570
  767SOL    HW1 3200   6.994   6.362   3.505
  767SOL    HW2 3201   6.849   6.434   3.524
  768SOL     OW 3202   2.523   5.617   2.406
  768SOL    HW1 3203   2.517   5.590   2.310
  768SOL    HW2 3204   2.615   5.650   2.426
  769SOL     OW 3205   3.800   1.369   5.371
  769SOL    HW1 3206   3.849   1.284   5.389
  769SOL    HW2 3207   3.851   1.424   5.305
  770SOL     OW 3208   0.652   4.938   5.600
  770SOL    HW1 3209   0.697   4.938   5.511
  770SOL    HW2 3210   0.714   4.975   5.669
  771SOL     OW 3211   1.574   4.926   2.576
  771SOL    HW1 3212   1.655   4.905   2.522
  771SOL    HW2 3213   1.543   5.018   2.554
  772SOL     OW 3214   5.595   5.196   0.293
  772SOL    HW1 3215   5.588   5.261   0.369
  772SOL    HW2 3216   5.533   5.119   0.309
  773SOL     OW 3217   1.795   4.793   4.124
  773SOL    HW1 3218   1.835   4.702   4.131
  773SOL    HW2 3219   1.839   4.843   4.050
  774SOL     OW 3220   2.004   1.998   3.714
  774SOL    HW1 3221   2.054   2.010   3.628
  774SOL    HW2 3222   1.961   2.084   3.740
  775SOL     OW 3223   1.135   4.402   2.752
  775SOL    HW1 3224   1.066   4.339   2.789
  775SOL    HW2 3225   1.118   4.494   2.787
  776SOL     OW 3226   3.416   5.600   6.363
  776SOL    HW1 3227   3.322   5.567   6.363
  776SOL    HW2 3228   3.433   5.654   6.280
  777SOL     OW 3229   2.008   3.417   6.755
  777SOL    HW1 3230   2.074   3.465   6.813
  777SOL    HW2 3231   1.955   3.353   6.811
  778SOL     OW 3232   3.581   5.730   6.889
  778SOL    HW1 3233   3.513   5.694   6.953
  778SOL    HW2 3234   3.601   5.661   6.820
  779SOL     OW 3235   5.621   1.994   3.269
  779SOL    HW1 3236   5.663   2.082   3.294
  779SOL    HW2 3237   5.662   1.921   3.324
  780SOL     OW 3238   6.500   1.337   4.173
  780SOL    HW1 3239   6.554   1.412   4.212
  780SOL    HW2 3240   6.404   1.350   4.194
  781SOL     OW 3241   0.756   4.801   6.401
  781SOL    HW1 3242   0.811   4.856   6.339
  781SOL    HW2 3243   0.714   4.860   6.470
  782SOL     OW 3244   2.138   4.158   5.415
  782SOL    HW1 3245   2.141   4.182   5.512
  782SOL    HW2 3246   2.048   4.122   5.392
  783SOL     OW 3247   6.471   4.911   6.552
  783SOL    HW1 3248   6.515   4.935   6.465
  783SOL    HW2 3249   6.525   4.949   6.628
  784SOL     OW 3250   2.317   5.458   6.904
  784SOL    HW1 3251   2.318   5.388   6.976
  784SOL    HW2 3252   2.396   5.517   6.915
  785SOL     OW 3253   0.573   0.478   4.054
  785SOL    HW1 3254   0.654   0.519   4.095
  785SOL    HW2 3255   0.545   0.398   4.108
  786SOL     OW 3256   5.954   0.645   4.850
  786SOL    HW1 3257   5.879   0.600   4.899
  786SOL    HW2 3258   6.006   0.577   4.799
  787SOL     OW 3259   1.919   6.565   1.409
  787SOL    HW1 3260   1.974   6.580   1.327
  787SOL    HW2 3261   1.978   6.565   1.489
  788SOL     OW 3262   2.153   3.019   2.397
  788SOL    HW1 3263   2.210   3.034   2.316
  788SOL    HW2 3264   2.102   2.934   2.388
  789SOL     OW 3265   3.897   5.368   2.311
  789SOL    HW1 3266   3.887   5.312   2.393
  789SOL    HW2 3267   3.882   5.312   2.229
  790SOL     OW 3268   0.212   3.420   1.920
  790SOL    HW1 3269   0.261   3.392   2.003
  790SOL    HW2 3270   0.117   3.389   1.925
  791SOL     OW 3271   2.961   1.016   3.615
  791SOL    HW1 3272   2.921   0.947   3.675
  791SOL    HW2 3273   3.058   1.028   3.636
  792SOL     OW 3274   2.520   0.308   1.027
  792SOL    HW1 3275   2.459   0.289   0.950
  792SOL    HW2 3276   2.593   0.369   0.998
  793SOL     OW 3277   1.691   5.349   4.958
  793SOL    HW1 3278   1.760   5.358   5.030
  793SOL    HW2 3279   1.692   5.257   4.920
  794SOL     OW 3280   3.659   3.714   2.406
  794SOL    HW1 3281   3.650   3.631   2.461
  794SOL    HW2 3282   3.745   3.760   2.430
  795SOL     OW 3283   4.734   0.495   5.407
  795SOL    HW1 3284   4.749   0.440   5.489
  795SOL    HW2 3285   4.717   0.435   5.329
  796SOL     OW 3286   0.807   2.396   6.652
  796SOL    HW1 3287   0.740   2.470   6.652
  796SOL    HW2 3288   0.774   2.321   6.710
  797SOL     OW 3289   3.628   6.962   1.400
  797SOL    HW1 3290   3.613   0.010   1.330
  797SOL    HW2 3291   3.539   6.932   1.437
  798SOL     OW 3292   4.885   4.284   1.256
  798SOL    HW1 3293   4.830   4.255   1.177
  798SOL    HW2 3294   4.853   4.237   1.338
  799SOL     OW 3295   3.384   2.551   5.661
  799SOL    HW1 3296   3.286   2.568   5.674
  799SOL    HW2 3297   3.400   2.453   5.655
  800SOL     OW 3298   5.364   3.024   2.686
  800SOL    HW1 3299   5.421   2.976   2.619
  800SOL    HW2 3300   5.300   3.083   2.639
  801SOL     OW 3301   1.884   5.717   7.015
  801SOL    HW1 3302   1.915   5.649   6.949
  801SOL    HW2 3303   1.963   5.765   0.032
  802SOL     OW 3304   4.307   2.680   6.716
  802SOL    HW1 3305   4.219   2.683   6.764
  802SOL    HW2 3306   4.306   2.605   6.650
  803SOL     OW 3307   2.442   2.592   3.682
  803SOL    HW1 3308   2.536   2.565   3.663
  803SOL    HW2 3309   2.390   2.513   3.712
  804SOL     OW 3310   5.284   0.530   3.109
  804SOL    HW1 3311   5.223   0.553   3.033
  804SOL    HW2 3312   5.253   0.446   3.152
  805SOL     OW 3313   3.430   1.243   4.172
  805SOL    HW1 3314   3.487   1.280   4.245
  805SOL    HW2 3315   3.462   1.278   4.084
  806SOL     OW 3316   3.656   6.271   5.981
  806SOL    HW1 3317   3.665   6.334   6.059
  806SOL    HW2 3318   3.568   6.225   5.985
  807SOL     OW 3319   1.416   5.995   6.794
  807SOL    HW1 3320   1.372   5.906   6.804
  807SOL    HW2 3321   1.490   5.988   6.727
  808SOL     OW 3322   5.322   2.504   6.130
  808SOL    HW1 3323   5.386   2.487   6.055
  808SOL    HW2 3324   5.231   2.520   6.092
  809SOL     OW 3325   3.429   6.755   6.334
  809SOL    HW1 3326   3.465   6.731   6.244
  809SOL    HW2 3327   3.334   6.784   6.325
  810SOL     OW 3328   3.818   3.741   0.265
  810SOL    HW1 3329   3.826   3.769   0.169
  810SOL    HW2 3330   3.864   3.653   0.277
  811SOL     OW 3331   5.239   5.950   4.261
  811SOL    HW1 3332   5.305   5.960   4.187
  811SOL    HW2 3333   5.151   5.920   4.224
  812SOL     OW 3334   1.242   3.380   1.273
  812SOL    HW1 3335   1.235   3.441   1.195
  812SOL    HW2 3336   1.322   3.405   1.327
  813SOL     OW 3337   2.960   1.588   4.790
  813SOL    HW1 3338   2.963   1.648   4.710
  813SOL    HW2 3339   2.876   1.605   4.841
  814SOL     OW 3340   0.428   4.803   1.667
  814SOL    HW1 3341   0.369   4.882   1.658
  814SOL    HW2 3342   0.396   4.730   1.607
  815SOL     OW 3343   4.488   1.322   3.786
  815SOL    HW1 3344   4.485   1.240   3.729
  815SOL    HW2 3345   4.487   1.296   3.882
  816SOL     OW 3346   5.197   3.674   6.243
  816SOL    HW1 3347   5.121   3.734   6.270
  816SOL    HW2 3348   5.163   3.604   6.180
  817SOL     OW 3349   6.819   4.957   6.074
  817SOL    HW1 3350   6.784   4.882   6.130
  817SOL    HW2 3351   6.808   5.043   6.123
  818SOL     OW 3352   6.886   1.328   5.344
  818SOL    HW1 3353   6.838   1.387   5.409
  818SOL    HW2 3354   6.844   1.238   5.344
  819SOL     OW 3355   5.537   3.402   1.606
  819SOL    HW1 3356   5.507   3.431   1.515
  819SOL    HW2 3357   5.629   3.437   1.623
  820SOL     OW 3358   2.438   2.066   5.323
  820SOL    HW1 3359   2.384   2.131   5.270
  820SOL    HW2 3360   2.523   2.045   5.274
  821SOL     OW 3361   4.726   3.467   6.515
  821SOL    HW1 3362   4.719   3.533   6.441
  821SOL    HW2 3363   4.760   3.380   6.479
  822SOL     OW 3364   6.925   4.765   3.274
  822SOL    HW1 3365   6.975   4.709   3.339
  822SOL    HW2 3366   6.949   4.861   3.287
  823SOL     OW 3367   2.351   2.776   4.472
  823SOL    HW1 3368   2.357   2.786   4.571
  823SOL    HW2 3369   2.256   2.756   4.447
  824SOL     OW 3370   5.336   0.669   6.504
  824SOL    HW1 3371   5.379   0.750   6.464
  824SOL    HW2 3372   5.283   0.696   6.584
  825SOL     OW 3373   5.805   5.435   0.661
  825SOL    HW1 3374   5.897   5.474   0.655
  825SOL    HW2 3375   5.760   5.467   0.744
  826SOL     OW 3376   3.803   2.085   0.448
  826SOL    HW1 3377   3.893   2.053   0.420
  826SOL    HW2 3378   3.789   2.179   0.417
  827SOL     OW 3379   3.780   3.601   4.897
  827SOL    HW1 3380   3.816   3.512   4.924
  827SOL    HW2 3381   3.773   3.660   4.977
  828SOL     OW 3382   0.804   6.135   6.244
  828SOL    HW1 3383   0.721   6.101   6.200
  828SOL    HW2 3384   0.827   6.226   6.208
  829SOL     OW 3385   3.875   3.343   1.774
  829SOL    HW1 3386   3.882   3.436   1.736
  829SOL    HW2 3387   3.886   3.346   1.873
  830SOL     OW 3388   6.729   3.983   5.668
  830SOL    HW1 3389   6.796   4.048   5.632
  830SOL    HW2 3390   6.719   3.996   5.766
  831SOL     OW 3391   5.720   1.404   3.047
  831SOL    HW1 3392   5.664   1.461   3.108
  831SOL    HW2 3393   5.697   1.425   2.952
  832SOL     OW 3394   2.996   2.051   4.582
  832SOL    HW1 3395   2.969   2.049   4.679
  832SOL    HW2 3396   2.966   2.137   4.541
  833SOL     OW 3397   4.369   2.948   6.980
  833SOL    HW1 3398   4.411   3.024   0.007
  833SOL    HW2 3399   4.288   2.980   6.931
  834SOL     OW 3400   5.698   2.997   0.581
  834SOL    HW1 3401   5.608   3.028   0.550
  834SOL    HW2 3402   5.714   3.032   0.673
  835SOL     OW 3403   6.696   6.546   5.286
  835SOL    HW1 3404   6.728   6.455   5.258
  835SOL    HW2 3405   6.694   6.551   5.386
  836SOL     OW 3406   5.551   0.312   3.965
  836SOL    HW1 3407   5.463   0.335   3.924
  836SOL    HW2 3408   5.602   0.253   3.903
  837SOL     OW 3409   1.507   0.359   6.779
  837SOL    HW1 3410   1.477   0.397   6.867
  837SOL    HW2 3411   1.603   0.331   6.786
  838SOL     OW 3412   1.724   5.445   3.301
  838SOL    HW1 3413   1.643   5.403   3.261
  838SOL    HW2 3414   1.805   5.418   3.249
  839SOL     OW 3415   1.204   2.406   0.210
  839SOL    HW1 3416   1.176   2.501   0.197
  839SOL    HW2 3417   1.169   2.350   0.135
  840SOL     OW 3418   4.453   5.389   0.419
  840SOL    HW1 3419   4.542   5.425   0.448
  840SOL    HW2 3420   4.440   5.409   0.322
  841SOL     OW 3421   2.775   5.222   6.247
  841SOL    HW1 3422   2.694   5.189   6.295
  841SOL    HW2 3423   2.761   5.317   6.220
  842SOL     OW 3424   4.656   6.710   0.552
  842SOL    HW1 3425   4.661   6.612   0.533
  842SOL    HW2 3426   4.748   6.749   0.553
  843SOL     OW 3427   1.508   0.545   1.952
  843SOL    HW1 3428   1.424   0.493   1.969
  843SOL    HW2 3429   1.486   0.642   1.945
  844SOL     OW 3430   6.636   0.111   1.682
  844SOL    HW1 3431   6.594   0.116   1.591
  844SOL    HW2 3432   6.648   0.015   1.708
  845SOL     OW 3433   4.096   1.679   1.963
  845SOL    HW1 3434   3.998   1.695   1.955
  845SOL    HW2 3435   4.113   1.582   1.976
  846SOL     OW 3436   1.558   1.447   1.362
  846SOL    HW1 3437   1.470   1.457   1.408
  846SOL    HW2 3438   1.567   1.353   1.329
  847SOL     OW 3439   2.446   3.217   1.242
  847SOL    HW1 3440   2.363   3.238   1.293
  847SOL    HW2 3441   2.495   3.301   1.221
  848SOL     OW 3442   6.352   6.126   0.467
  848SOL    HW1 3443   6.414   6.201   0.444
  848SOL    HW2 3444   6.345   6.064   0.388
  849SOL     OW 3445   5.541   3.078   6.531
  849SOL    HW1 3446   5.620   3.018   6.524
  849SOL    HW2 3447   5.525   3.104   6.626
  850SOL     OW 3448   1.865   1.089   4.366
  850SOL    HW1 3449   1.776   1.070   4.325
  850SOL    HW2 3450   1.889   1.185   4.349
  851SOL     OW 3451   5.090   2.545   6.000
  851SOL    HW1 3452   5.081   2.610   5.924
  851SOL    HW2 3453   5.008   2.488   6.005
  852SOL     OW 3454   6.570   5.155   1.967
  852SOL    HW1 3455   6.585   5.209   2.050
  852SOL    HW2 3456   6.595   5.209   1.887
  853SOL     OW 3457   3.254   3.076   0.538
  853SOL    HW1 3458   3.268   3.173   0.558
  853SOL    HW2 3459   3.219   3.066   0.445
  854SOL     OW 3460   0.345   6.858   5.825
  854SOL    HW1 3461   0.280   6.922   5.864
  854SOL    HW2 3462   0.297   6.798   5.760
  855SOL     OW 3463   4.687   2.106   0.155
  855SOL    HW1 3464   4.747   2.185   0.168
  855SOL    HW2 3465   4.658   2.071   0.244
  856SOL     OW 3466   1.988   5.563   1.614
  856SOL    HW1 3467   2.023   5.485   1.561
  856SOL    HW2 3468   2.064   5.615   1.651
  857SOL     OW 3469   6.947   5.890   5.206
  857SOL    HW1 3470   6.930   5.858   5.299
  857SOL    HW2 3471   6.907   5.826   5.141
  858SOL     OW 3472   3.495   4.035   0.153
  858SOL    HW1 3473   3.517   3.940   0.174
  858SOL    HW2 3474   3.575   4.079   0.111
  859SOL     OW 3475   4.680   5.498   5.467
  859SOL    HW1 3476   4.674   5.512   5.368
  859SOL    HW2 3477   4.588   5.493   5.506
  860SOL     OW 3478   4.431   2.918   6.108
  860SOL    HW1 3479   4.495   2.844   6.085
  860SOL    HW2 3480   4.473   3.006   6.087
  861SOL     OW 3481   1.111   5.654   2.573
  861SOL    HW1 3482   1.124   5.655   2.474
  861SOL    HW2 3483   1.163   5.578   2.613
  862SOL     OW 3484   1.074   4.430   4.060
  862SOL    HW1 3485   1.046   4.340   4.092
  862SOL    HW2 3486   0.993   4.486   4.043
  863SOL     OW 3487   5.490   0.882   1.808
  863SOL    HW1 3488   5.538   0.806   1.851
  863SOL    HW2 3489   5.506   0.879   1.709
  864SOL     OW 3490   5.802   5.651   2.661
  864SOL    HW1 3491   5.749   5.667   2.577
  864SOL    HW2 3492   5.750   5.683   2.740
  865SOL     OW 3493   1.112   5.087   4.675
  865SOL    HW1 3494   1.187   5.028   4.644
  865SOL    HW2 3495   1.028   5.033   4.680
  866SOL     OW 3496   3.683   0.068   1.642
  866SOL    HW1 3497   3.640   0.158   1.632
  866SOL    HW2 3498   3.674   0.017   1.556
  867SOL     OW 3499   5.785   3.468   5.529
  867SOL    HW1 3500   5.756   3.408   5.455
  867SOL    HW2 3501   5.723   3.547   5.533
  868SOL     OW 3502   0.575   2.094   2.440
  868SOL    HW1 3503   0.639   2.140   2.378
  868SOL    HW2 3504   0.482   2.103   2.404
  869SOL     OW 3505   6.722   3.120   2.460
  869SOL    HW1 3506   6.775   3.193   2.416
  869SOL    HW2 3507   6.763   3.032   2.437
  870SOL     OW 3508   3.807   4.887   2.125
  870SOL    HW1 3509   3.745   4.879   2.204
  870SOL    HW2 3510   3.773   4.830   2.051
  871SOL     OW 3511   4.790   1.857   3.639
  871SOL    HW1 3512   4.693   1.880   3.630
  871SOL    HW2 3513   4.844   1.941   3.645
  872SOL     OW 3514   1.351   1.975   4.941
  872SOL    HW1 3515   1.363   1.888   4.894
  872SOL    HW2 3516   1.365   2.051   4.877
  873SOL     OW 3517   4.211   6.919   6.348
  873SOL    HW1 3518   4.262   6.932   6.263
  873SOL    HW2 3519   4.125   6.969   6.343
  874SOL     OW 3520   6.074   3.857   1.680
  874SOL    HW1 3521   6.040   3.948   1.703
  874SOL    HW2 3522   6.172   3.852   1.700
  875SOL     OW 3523   5.259   5.810   2.270
  875SOL    HW1 3524   5.195   5.733   2.259
  875SOL    HW2 3525   5.231   5.885   2.210
  876SOL     OW 3526   6.112   0.546   6.527
  876SOL    HW1 3527   6.087   0.578   6.435
  876SOL    HW2 3528   6.181   0.474   6.519
  877SOL     OW 3529   1.388   3.394   6.885
  877SOL    HW1 3530   1.404   3.485   6.848
  877SOL    HW2 3531   1.407   3.394   6.983
  878SOL     OW 3532   3.821   6.706   4.004
  878SOL    HW1 3533   3.813   6.642   4.081
  878SOL    HW2 3534   3.909   6.693   3.959
  879SOL     OW 3535   5.700   0.073   6.423
  879SOL    HW1 3536   5.605   0.056   6.446
  879SOL    HW2 3537   5.732   0.155   6.470
  880SOL     OW 3538   3.310   3.646   3.059
  880SOL    HW1 3539   3.391   3.617   3.110
  880SOL    HW2 3540   3.262   3.717   3.110
  881SOL     OW 3541   4.069   2.022   0.382
  881SOL    HW1 3542   4.139   2.085   0.417
  881SOL    HW2 3543   4.104   1.975   0.302
  882SOL     OW 3544   1.985   3.211   3.374
  882SOL    HW1 3545   2.014   3.205   3.470
  882SOL    HW2 3546   1.909   3.149   3.358
  883SOL     OW 3547   2.393   6.595   3.133
  883SOL    HW1 3548   2.467   6.527   3.133
  883SOL    HW2 3549   2.432   6.687   3.126
  884SOL     OW 3550   2.732   3.450   6.252
  884SOL    HW1 3551   2.685   3.435   6.165
  884SOL    HW2 3552   2.665   3.453   6.326
  885SOL     OW 3553   4.208   2.901   6.242
  885SOL    HW1 3554   4.296   2.890   6.196
  885SOL    HW2 3555   4.160   2.980   6.204
  886SOL     OW 3556   3.773   1.148   6.779
  886SOL    HW1 3557   3.705   1.078   6.802
  886SOL    HW2 3558   3.729   1.221   6.726
  887SOL     OW 3559   4.578   1.210   5.260
  887SOL    HW1 3560   4.568   1.307   5.281
  887SOL    HW2 3561   4.493   1.162   5.282
  888SOL     OW 3562   6.927   6.714   1.686
  888SOL    HW1 3563   6.850   6.662   1.648
  888SOL    HW2 3564   6.969   6.770   1.615
  889SOL     OW 3565   0.217   3.729   0.560
  889SOL    HW1 3566   0.123   3.707   0.586
  889SOL    HW2 3567   0.242   3.676   0.479
  890SOL     OW 3568   2.315   6.176   4.412
  890SOL    HW1 3569   2.324   6.275   4.411
  890SOL    HW2 3570   2.218   6.151   4.407
  891SOL     OW 3571   5.239   4.732   2.664
  891SOL    HW1 3572   5.295   4.784   2.728
  891SOL    HW2 3573   5.163   4.689   2.712
  892SOL     OW 3574   2.629   4.490   0.722
  892SOL    HW1 3575   2.654   4.393   0.719
  892SOL    HW2 3576   2.677   4.539   0.649
  893SOL     OW 3577   1.277   5.196   2.999
  893SOL    HW1 3578   1.243   5.271   2.942
  893SOL    HW2 3579   1.240   5.206   3.091
  894SOL     OW 3580   0.881   4.386   0.792
  894SOL    HW1 3581   0.846   4.470   0.831
  894SOL    HW2 3582   0.909   4.402   0.697
  895SOL     OW 3583   6.999   5.166   3.733
  895SOL    HW1 3584   6.967   5.251   3.775
  895SOL    HW2 3585   0.072   5.177   3.704
  896SOL     OW 3586   0.578   0.737   6.623
  896SOL    HW1 3587   0.485   0.757   6.591
  896SOL    HW2 3588   0.587   0.639   6.641
  897SOL     OW 3589   5.190   1.338   0.677
  897SOL    HW1 3590   5.196   1.328   0.776
  897SOL    HW2 3591   5.095   1.350   0.650
  898SOL     OW 3592   3.446   0.613   2.577
  898SOL    HW1 3593   3.381   0.624   2.652
  898SOL    HW2 3594   3.474   0.517   2.571
  899SOL     OW 3595   6.659   5.915   0.069
  899SOL    HW1 3596   6.746   5.872   0.044
  899SOL    HW2 3597   6.593   5.901   7.018
  900SOL     OW 3598   4.930   5.080   0.710
  900SOL    HW1 3599   5.013   5.057   0.759
  900SOL    HW2 3600   4.952   5.101   0.615
  901SOL     OW 3601   0.658   0.139   3.412
  901SOL    HW1 3602   0.643   0.151   3.510
  901SOL    HW2 3603   0.573   0.108   3.369
  902SOL     OW 3604   6.684   3.033   1.635
  902SOL    HW1 3605   6.774   3.052   1.674
  902SOL    HW2 3606   6.692   3.022   1.536
  903SOL     OW 3607   0.198   1.380   1.398
  903SOL    HW1 3608   0.165   1.309   1.460
  903SOL    HW2 3609   0.291   1.407   1.425
  904SOL     OW 3610   2.450   1.009   3.042
  904SOL    HW1 3611   2.364   1.017   3.092
  904SOL    HW2 3612   2.505   1.091   3.058
  905SOL     OW 3613   6.044   1.883   6.496
  905SOL    HW1 3614   6.041   1.785   6.510
  905SOL    HW2 3615   6.105   1.925   6.564
  906SOL     OW 3616   5.182   2.646   0.524
  906SOL    HW1 3617   5.281   2.638   0.516
  906SOL    HW2 3618   5.139   2.615   0.438
  907SOL     OW 3619   5.297   4.392   6.336
  907SOL    HW1 3620   5.389   4.355   6.322
  907SOL    HW2 3621   5.246   4.392   6.250
  908SOL     OW 3622   0.767   4.375   3.563
  908SOL    HW1 3623   0.739   4.432   3.640
  908SOL    HW2 3624   0.771   4.431   3.480
  909SOL     OW 3625   5.225   5.867   5.808
  909SOL    HW1 3626   5.321   5.877   5.834
  909SOL    HW2 3627   5.186   5.787   5.853
  910SOL     OW 3628   3.335   4.364   0.666
  910SOL    HW1 3629   3.351   4.314   0.581
  910SOL    HW2 3630   3.311   4.459   0.644
  911SOL     OW 3631   1.230   4.211   5.323
  911SOL    HW1 3632   1.211   4.118   5.355
  911SOL    HW2 3633   1.210   4.276   5.397
  912SOL     OW 3634   4.885   1.400   4.572
  912SOL    HW1 3635   4.978   1.429   4.596
  912SOL    HW2 3636   4.866   1.311   4.612
  913SOL     OW 3637   4.986   6.819   2.871
  913SOL    HW1 3638   5.080   6.809   2.903
  913SOL    HW2 3639   4.970   6.757   2.794
  914SOL     OW 3640   3.293   6.508   6.041
  914SOL    HW1 3641   3.248   6.490   6.129
  914SOL    HW2 3642   3.375   6.563   6.057
  915SOL     OW 3643   5.330   5.749   1.297
  915SOL    HW1 3644   5.252   5.688   1.283
  915SOL    HW2 3645   5.352   5.754   1.394
  916SOL     OW 3646   1.067   3.081   2.749
  916SOL    HW1 3647   1.052   3.165   2.697
  916SOL    HW2 3648   1.165   3.057   2.746
  917SOL     OW 3649   0.595   6.874   6.796
  917SOL    HW1 3650   0.508   6.841   6.832
  917SOL    HW2 3651   0.666   6.864   6.866
  918SOL     OW 3652   3.460   6.578   0.016
  918SOL    HW1 3653   3.509   6.595   6.953
  918SOL    HW2 3654   3.415   6.662   0.046
  919SOL     OW 3655   4.894   0.956   5.882
  919SOL    HW1 3656   4.869   0.983   5.789
  919SOL    HW2 3657   4.896   0.856   5.888
  920SOL     OW 3658   2.870   4.914   1.687
  920SOL    HW1 3659   2.939   4.844   1.702
  920SOL    HW2 3660   2.779   4.874   1.695
  921SOL     OW 3661   4.706   5.449   4.789
  921SOL    HW1 3662   4.655   5.382   4.735
  921SOL    HW2 3663   4.643   5.518   4.824
  922SOL     OW 3664   3.313   3.667   3.479
  922SOL    HW1 3665   3.220   3.704   3.481
  922SOL    HW2 3666   3.346   3.654   3.572
  923SOL     OW 3667   2.244   3.344   5.514
  923SOL    HW1 3668   2.208   3.437   5.509
  923SOL    HW2 3669   2.250   3.305   5.421
  924SOL     OW 3670   0.317   3.310   0.978
  924SOL    HW1 3671   0.396   3.304   1.039
  924SOL    HW2 3672   0.330   3.387   0.915
  925SOL     OW 3673   0.566   1.484   7.009
  925SOL    HW1 3674   0.641   1.519   0.044
  925SOL    HW2 3675   0.577   1.516   6.915
  926SOL     OW 3676   1.888   1.978   1.813
  926SOL    HW1 3677   1.832   1.937   1.885
  926SOL    HW2 3678   1.829   2.020   1.744
  927SOL     OW 3679   6.858   3.370   4.424
  927SOL    HW1 3680   6.955   3.373   4.449
  927SOL    HW2 3681   6.843   3.296   4.359
  928SOL     OW 3682   3.143   5.114   5.496
  928SOL    HW1 3683   3.202   5.047   5.541
  928SOL    HW2 3684   3.161   5.114   5.397
  929SOL     OW 3685   0.590   1.764   4.381
  929SOL    HW1 3686   0.532   1.827   4.433
  929SOL    HW2 3687   0.595   1.795   4.286
  930SOL     OW 3688   5.790   5.563   4.546
  930SOL    HW1 3689   5.766   5.625   4.472
  930SOL    HW2 3690   5.731   5.580   4.625
  931SOL     OW 3691   6.212   0.772   3.462
  931SOL    HW1 3692   6.222   0.680   3.501
  931SOL    HW2 3693   6.225   0.768   3.363
  932SOL     OW 3694   3.470   0.657   3.821
  932SOL    HW1 3695   3.471   0.703   3.732
  932SOL    HW2 3696   3.385   0.678   3.868
  933SOL     OW 3697   1.278   5.463   1.717
  933SOL    HW1 3698   1.363   5.492   1.763
  933SOL    HW2 3699   1.242   5.538   1.662
  934SOL     OW 3700   1.858   2.858   0.171
  934SOL    HW1 3701   1.793   2.929   0.200
  934SOL    HW2 3702   1.858   2.784   0.237
  935SOL     OW 3703   5.676   2.851   5.705
  935SOL    HW1 3704   5.731   2.887   5.780
  935SOL    HW2 3705   5.585   2.891   5.709
  936SOL     OW 3706   2.069   0.693   5.974
  936SOL    HW1 3707   2.067   0.597   6.002
  936SOL    HW2 3708   2.064   0.752   6.055
  937SOL     OW 3709   3.225   2.442   6.083
  937SOL    HW1 3710   3.245   2.466   6.178
  937SOL    HW2 3711   3.210   2.526   6.030
  938SOL     OW 3712   5.248   6.297   4.905
  938SOL    HW1 3713   5.275   6.248   4.988
  938SOL    HW2 3714   5.180   6.243   4.856
  939SOL     OW 3715   1.414   0.283   5.473
  939SOL    HW1 3716   1.469   0.210   5.434
  939SOL    HW2 3717   1.409   0.271   5.572
  940SOL     OW 3718   2.043   5.820   0.617
  940SOL    HW1 3719   1.968   5.873   0.658
  940SOL    HW2 3720   2.071   5.748   0.680
  941SOL     OW 3721   3.886   6.665   0.984
  941SOL    HW1 3722   3.810   6.697   0.927
  941SOL    HW2 3723   3.906   6.734   1.053
  942SOL     OW 3724   6.637   5.113   0.284
  942SOL    HW1 3725   6.585   5.028   0.272
  942SOL    HW2 3726   6.725   5.092   0.326
  943SOL     OW 3727   3.512   5.676   1.334
  943SOL    HW1 3728   3.415   5.688   1.315
  943SOL    HW2 3729   3.545   5.753   1.389
  944SOL     OW 3730   6.698   6.061   3.179
  944SOL    HW1 3731   6.694   6.014   3.267
  944SOL    HW2 3732   6.698   5.993   3.105
  945SOL     OW 3733   0.532   5.690   6.523
  945SOL    HW1 3734   0.573   5.625   6.460
  945SOL    HW2 3735   0.602   5.725   6.585
  946SOL     OW 3736   5.763   2.011   4.173
  946SOL    HW1 3737   5.733   2.097   4.212
  946SOL    HW2 3738   5.684   1.953   4.154
  947SOL     OW 3739   3.992   3.891   2.885
  947SOL    HW1 3740   4.030   3.910   2.795
  947SOL    HW2 3741   4.019   3.799   2.914
  948SOL     OW 3742   3.545   1.009   3.967
  948SOL    HW1 3743   3.569   0.924   4.014
  948SOL    HW2 3744   3.534   1.083   4.034
  949SOL     OW 3745   3.041   0.199   5.985
  949SOL    HW1 3746   3.049   0.259   5.905
  949SOL    HW2 3747   2.944   0.189   6.009
  950SOL     OW 3748   6.984   7.012   1.814
  950SOL    HW1 3749   6.957   0.061   1.748
  950SOL    HW2 3750   6.904   6.986   1.868
  951SOL     OW 3751   1.117   0.085   3.321
  951SOL    HW1 3752   1.081   0.174   3.290
  951SOL    HW2 3753   1.213   0.077   3.293
  952SOL     OW 3754   3.716   1.754   3.266
  952SOL    HW1 3755   3.749   1.815   3.338
  952SOL    HW2 3756   3.790   1.696   3.234
  953SOL     OW 3757   0.756   5.406   5.888
  953SOL    HW1 3758   0.663   5.435   5.912
  953SOL    HW2 3759   0.773   5.426   5.791
  954SOL     OW 3760   4.494   6.495   2.622
  954SOL    HW1 3761   4.505   6.458   2.714
  954SOL    HW2 3762   4.552   6.576   2.611
  955SOL     OW 3763   2.256   4.890   0.807
  955SOL    HW1 3764   2.324   4.830   0.766
  955SOL    HW2 3765   2.237   4.967   0.746
  956SOL     OW 3766   4.178   0.310   0.842
  956SOL    HW1 3767   4.214   0.402   0.860
  956SOL    HW2 3768   4.094   0.296   0.894
  957SOL     OW 3769   5.952   6.653   3.510
  957SOL    HW1 3770   5.956   6.703   3.423
  957SOL    HW2 3771   5.879   6.691   3.567
  958SOL     OW 3772   5.537   6.240   1.834
  958SOL    HW1 3773   5.605   6.178   1.795
  958SOL    HW2 3774   5.470   6.187   1.886
  959SOL     OW 3775   5.196   0.291   3.230
  959SOL    HW1 3776   5.132   0.245   3.169
  959SOL    HW2 3777   5.283   0.241   3.231
  960SOL     OW 3778   1.914   6.148   6.238
  960SOL    HW1 3779   1.920   6.128   6.140
  960SOL    HW2 3780   2.006   6.151   6.277
  961SOL     OW 3781   4.120   1.355   3.704
  961SOL    HW1 3782   4.141   1.434   3.762
  961SOL    HW2 3783   4.147   1.271   3.751
  962SOL     OW 3784   0.265   0.084   4.302
  962SOL    HW1 3785   0.177   0.124   4.329
  962SOL    HW2 3786   0.296   0.021   4.373
  963SOL     OW 3787   5.682   2.895   1.682
  963SOL    HW1 3788   5.651   2.958   1.611
  963SOL    HW2 3789   5.768   2.929   1.721
  964SOL     OW 3790   3.679   6.555   5.035
  964SOL    HW1 3791   3.678   6.620   5.111
  964SOL    HW2 3792   3.590   6.557   4.989
  965SOL     OW 3793   4.874   2.196   4.020
  965SOL    HW1 3794   4.937   2.274   4.031
  965SOL    HW2 3795   4.925   2.111   4.029
  966SOL     OW 3796   5.192   1.129   3.790
  966SOL    HW1 3797   5.153   1.153   3.702
  966SOL    HW2 3798   5.231   1.211   3.833
  967SOL     OW 3799   3.992   5.072   6.235
  967SOL    HW1 3800   4.031   5.090   6.145
  967SOL    HW2 3801   3.996   5.155   6.290
  968SOL     OW 3802   3.458   0.540   1.137
  968SOL    HW1 3803   3.470   0.458   1.080
  968SOL    HW2 3804   3.441   0.619   1.078
  969SOL     OW 3805   2.613   3.742   6.694
  969SOL    HW1 3806   2.536   3.754   6.631
  969SOL    HW2 3807   2.696   3.778   6.652
  970SOL     OW 3808   4.723   7.022   5.362
  970SOL    HW1 3809   4.740   6.923   5.358
  970SOL    HW2 3810   4.625   0.016   5.353
  971SOL     OW 3811   5.222   3.625   3.545
  971SOL    HW1 3812   5.183   3.617   3.453
  971SOL    HW2 3813   5.170   3.692   3.597
  972SOL     OW 3814   0.535   2.120   0.702
  972SOL    HW1 3815   0.609   2.156   0.758
  972SOL    HW2 3816   0.498   2.193   0.644
  973SOL     OW 3817   0.044   2.749   4.669
  973SOL    HW1 3818   6.981   2.716   4.629
  973SOL    HW2 3819   0.039   2.742   4.768
  974SOL     OW 3820   0.449   3.577   2.083
  974SOL    HW1 3821   0.425   3.481   2.097
  974SOL    HW2 3822   0.433   3.602   1.988
  975SOL     OW 3823   2.823   0.501   2.256
  975SOL    HW1 3824   2.751   0.485   2.189
  975SOL    HW2 3825   2.909   0.523   2.209
  976SOL     OW 3826   0.020   3.054   3.836
  976SOL    HW1 3827   0.104   3.088   3.793
  976SOL    HW2 3828   0.040   2.971   3.887
  977SOL     OW 3829   6.159   1.412   2.320
  977SOL    HW1 3830   6.150   1.427   2.222
  977SOL    HW2 3831   6.193   1.320   2.337
  978SOL     OW 3832   4.752   2.982   0.541
  978SOL    HW1 3833   4.770   3.065   0.488
  978SOL    HW2 3834   4.814   2.978   0.619
  979SOL     OW 3835   0.352   5.012   6.481
  979SOL    HW1 3836   0.333   5.102   6.442
  979SOL    HW2 3837   0.322   4.941   6.417
  980SOL     OW 3838   4.355   1.423   4.567
  980SOL    HW1 3839   4.406   1.489   4.623
  980SOL    HW2 3840   4.349   1.456   4.473
  981SOL     OW 3841   0.714   5.871   5.542
  981SOL    HW1 3842   0.654   5.937   5.498
  981SOL    HW2 3843   0.660   5.813   5.603
  982SOL     OW 3844   0.298   0.565   6.830
  982SOL    HW1 3845   0.375   0.558   6.893
  982SOL    HW2 3846   0.212   0.560   6.881
  983SOL     OW 3847   0.274   3.677   3.007
  983SOL    HW1 3848   0.248   3.701   2.914
  983SOL    HW2 3849   0.351   3.734   3.036
  984SOL     OW 3850   0.523   3.453   3.690
  984SOL    HW1 3851   0.441   3.510   3.699
  984SOL    HW2 3852   0.511   3.368   3.741
  985SOL     OW 3853   5.791   5.709   4.980
  985SOL    HW1 3854   5.750   5.688   4.891
  985SOL    HW2 3855   5.748   5.653   5.051
  986SOL     OW 3856   3.840   5.772   1.603
  986SOL    HW1 3857   3.846   5.789   1.701
  986SOL    HW2 3858   3.746   5.787   1.572
  987SOL     OW 3859   4.846   4.577   4.673
  987SOL    HW1 3860   4.872   4.524   4.593
  987SOL    HW2 3861   4.903   4.551   4.751
  988SOL     OW 3862   2.963   4.805   2.021
  988SOL    HW1 3863   3.054   4.812   1.980
  988SOL    HW2 3864   2.916   4.725   1.984
  989SOL     OW 3865   0.314   2.641   1.047
  989SOL    HW1 3866   0.274   2.649   0.955
  989SOL    HW2 3867   0.412   2.661   1.043
  990SOL     OW 3868   3.619   0.343   5.220
  990SOL    HW1 3869   3.669   0.426   5.246
  990SOL    HW2 3870   3.684   0.269   5.204
  991SOL     OW 3871   1.189   5.949   3.946
  991SOL    HW1 3872   1.214   6.039   3.911
  991SOL    HW2 3873   1.206   5.880   3.876
  992SOL     OW 3874   6.493   2.644   0.014
  992SOL    HW1 3875   6.474   2.741   7.022
  992SOL    HW2 3876   6.489   2.623   0.111
  993SOL     OW 3877   1.986   4.567   6.869
  993SOL    HW1 3878   2.032   4.478   6.868
  993SOL    HW2 3879   1.887   4.552   6.872
  994SOL     OW 3880   2.584   0.152   1.568
  994SOL    HW1 3881   2.672   0.172   1.611
  994SOL    HW2 3882   2.521   0.228   1.584
  995SOL     OW 3883   5.902   3.954   5.256
  995SOL    HW1 3884   5.947   4.040   5.282
  995SOL    HW2 3885   5.803   3.963   5.268
  996SOL     OW 3886   4.239   6.438   4.878
  996SOL    HW1 3887   4.245   6.510   4.947
  996SOL    HW2 3888   4.209   6.353   4.921
  997SOL     OW 3889   1.701   6.539   3.339
  997SOL    HW1 3890   1.707   6.635   3.367
  997SOL    HW2 3891   1.646   6.488   3.405
  998SOL     OW 3892   4.637   7.021   0.215
  998SOL    HW1 3893   4.696   0.076   0.242
  998SOL    HW2 3894   4.561   7.013   0.279
  999SOL     OW 3895   5.430   2.923   2.138
  999SOL    HW1 3896   5.392   2.883   2.222
  999SOL    HW2 3897   5.494   2.859   2.096
 1000SOL     OW 3898   5.224   1.762   2.202
 1000SOL    HW1 3899   5.202   1.665   2.188
 1000SOL    HW2 3900   5.171   1.818   2.139
 1001SOL     OW 3901   3.074   6.613   2.819
 1001SOL    HW1 3902   3.156   6.668   2.800
 1001SOL    HW2 3903   3.010   6.668   2.873
 1002SOL     OW 3904   4.004   2.543   0.535
 1002SOL    HW1 3905   3.965   2.564   0.445
 1002SOL    HW2 3906   3.932   2.543   0.603
 1003SOL     OW 3907   0.725   0.652   3.313
 1003SOL    HW1 3908   0.799   0.717   3.332
 1003SOL    HW2 3909   0.703   0.602   3.397
 1004SOL     OW 3910   5.061   1.599   4.251
 1004SOL    HW1 3911   4.993   1.525   4.247
 1004SOL    HW2 3912   5.055   1.645   4.339
 1005SOL     OW 3913   0.647   5.570   1.747
 1005SOL    HW1 3914   0.568   5.564   1.808
 1005SOL    HW2 3915   0.722   5.516   1.784
 1006SOL     OW 3916   2.218   4.204   1.644
 1006SOL    HW1 3917   2.156   4.126   1.654
 1006SOL    HW2 3918   2.311   4.176   1.669
 1007SOL     OW 3919   4.969   0.976   6.280
 1007SOL    HW1 3920   4.890   1.027   6.244
 1007SOL    HW2 3921   4.970   0.884   6.240
 1008SOL     OW 3922   0.372   4.903   4.725
 1008SOL    HW1 3923   0.380   4.975   4.655
 1008SOL    HW2 3924   0.457   4.898   4.777
 1009SOL     OW 3925   6.612   5.724   6.447
 1009SOL    HW1 3926   6.513   5.715   6.437
 1009SOL    HW2 3927   6.636   5.821   6.450
 1010SOL     OW 3928   3.087   3.623   0.405
 1010SOL    HW1 3929   3.110   3.717   0.381
 1010SOL    HW2 3930   3.125   3.601   0.495
 1011SOL     OW 3931   6.569   4.935   2.308
 1011SOL    HW1 3932   6.538   4.909   2.217
 1011SOL    HW2 3933   6.570   5.035   2.316
 1012SOL     OW 3934   5.719   6.076   2.477
 1012SOL    HW1 3935   5.694   6.011   2.404
 1012SOL    HW2 3936   5.732   6.167   2.437
 1013SOL     OW 3937   0.977   0.498   5.881
 1013SOL    HW1 3938   0.977   0.485   5.980
 1013SOL    HW2 3939   0.938   0.588   5.859
 1014SOL     OW 3940   1.032   4.680   4.544
 1014SOL    HW1 3941   1.022   4.596   4.597
 1014SOL    HW2 3942   1.093   4.664   4.467
 1015SOL     OW 3943   2.197   6.354   0.108
 1015SOL    HW1 3944   2.124   6.403   0.060
 1015SOL    HW2 3945   2.267   6.326   0.042
 1016SOL     OW 3946   6.880   4.388   0.940
 1016SOL    HW1 3947   6.813   4.462   0.949
 1016SOL    HW2 3948   6.864   4.338   0.856
 1017SOL     OW 3949   2.093   0.946   2.770
 1017SOL    HW1 3950   2.187   0.981   2.767
 1017SOL    HW2 3951   2.081   0.892   2.853
 1018SOL     OW 3952   6.046   6.225   4.540
 1018SOL    HW1 3953   6.062   6.225   4.638
 1018SOL    HW2 3954   6.122   6.181   4.493
 1019SOL     OW 3955   5.783   4.152   1.254
 1019SOL    HW1 3956   5.824   4.091   1.321
 1019SOL    HW2 3957   5.850   4.172   1.182
 1020SOL     OW 3958   5.185   1.426   1.588
 1020SOL    HW1 3959   5.110   1.467   1.536
 1020SOL    HW2 3960   5.272   1.463   1.556
 1021SOL     OW 3961   1.237   6.953   0.744
 1021SOL    HW1 3962   1.273   0.023   0.756
 1021SOL    HW2 3963   1.259   6.897   0.824
 1022SOL     OW 3964   2.305   5.063   6.350
 1022SOL    HW1 3965   2.217   5.096   6.316
 1022SOL    HW2 3966   2.340   4.993   6.288
 1023SOL     OW 3967   0.786   1.735   2.275
 1023SOL    HW1 3968   0.885   1.726   2.262
 1023SOL    HW2 3969   0.745   1.773   2.192
 1024SOL     OW 3970   1.931   1.993   4.439
 1024SOL    HW1 3971   1.955   2.032   4.350
 1024SOL    HW2 3972   1.876   1.911   4.425
 1025SOL     OW 3973   4.774   4.183   1.027
 1025SOL    HW1 3974   4.697   4.120   1.032
 1025SOL    HW2 3975   4.759   4.249   0.953
 1026SOL     OW 3976   3.055   3.064   2.345
 1026SOL    HW1 3977   2.955   3.060   2.343
 1026SOL    HW2 3978   3.089   3.090   2.255
 1027SOL     OW 3979   6.607   6.509   6.989
 1027SOL    HW1 3980   6.682   6.461   0.012
 1027SOL    HW2 3981   6.582   6.590   0.020
 1028SOL     OW 3982   1.062   4.678   3.035
 1028SOL    HW1 3983   1.130   4.605   3.033
 1028SOL    HW2 3984   1.103   4.763   3.001
 1029SOL     OW 3985   1.074   0.957   5.023
 1029SOL    HW1 3986   0.978   0.972   4.999
 1029SOL    HW2 3987   1.083   0.953   5.122
 1030SOL     OW 3988   4.030   3.436   0.767
 1030SOL    HW1 3989   4.049   3.381   0.686
 1030SOL    HW2 3990   4.107   3.430   0.831
 1031SOL     OW 3991   4.378   3.049   0.364
 1031SOL    HW1 3992   4.383   3.149   0.373
 1031SOL    HW2 3993   4.452   3.017   0.306
 1032SOL     OW 3994   1.535   1.278   0.987
 1032SOL    HW1 3995   1.474   1.349   1.020
 1032SOL    HW2 3996   1.544   1.285   0.887
 1033SOL     OW 3997   6.661   0.190   2.276
 1033SOL    HW1 3998   6.718   0.113   2.305
 1033SOL    HW2 3999   6.703   0.275   2.307
 1034SOL     OW 4000   2.752   0.944   5.285
 1034SOL    HW1 4001   2.722   0.997   5.365
 1034SOL    HW2 4002   2.769   1.005   5.208
 1035SOL     OW 4003   1.732   0.548   0.269
 1035SOL    HW1 4004   1.716   0.589   0.358
 1035SOL    HW2 4005   1.645   0.525   0.226
 1036SOL     OW 4006   4.800   1.354   1.785
 1036SOL    HW1 4007   4.733   1.414   1.830
 1036SOL    HW2 4008   4.892   1.379   1.816
 1037SOL     OW 4009   1.610   3.746   3.039
 1037SOL    HW1 4010   1.636   3.787   2.952
 1037SOL    HW2 4011   1.574   3.817   3.100
 1038SOL     OW 4012   2.018   6.286   0.286
 1038SOL    HW1 4013   2.075   6.317   0.210
 1038SOL    HW2 4014   2.009   6.359   0.353
 1039SOL     OW 4015   3.024   3.834   2.957
 1039SOL    HW1 4016   3.054   3.879   3.041
 1039SOL    HW2 4017   2.998   3.904   2.890
 1040SOL     OW 4018   3.738   1.491   3.039
 1040SOL    HW1 4019   3.703   1.468   3.130
 1040SOL    HW2 4020   3.837   1.480   3.038
 1041SOL     OW 4021   6.621   6.759   6.443
 1041SOL    HW1 4022   6.696   6.694   6.459
 1041SOL    HW2 4023   6.559   6.758   6.522
 1042SOL     OW 4024   5.467   3.699   3.925
 1042SOL    HW1 4025   5.483   3.760   4.003
 1042SOL    HW2 4026   5.554   3.661   3.893
 1043SOL     OW 4027   2.722   2.086   3.807
 1043SOL    HW1 4028   2.713   2.106   3.904
 1043SOL    HW2 4029   2.650   2.021   3.780
 1044SOL     OW 4030   5.665   4.389   2.320
 1044SOL    HW1 4031   5.627   4.298   2.339
 1044SOL    HW2 4032   5.636   4.453   2.392
 1045SOL     OW 4033   2.345   0.193   2.676
 1045SOL    HW1 4034   2.396   0.273   2.644
 1045SOL    HW2 4035   2.267   0.223   2.730
 1046SOL     OW 4036   2.735   2.133   1.163
 1046SOL    HW1 4037   2.745   2.047   1.113
 1046SOL    HW2 4038   2.826   2.173   1.177
 1047SOL     OW 4039   3.819   0.854   3.546
 1047SOL    HW1 4040   3.870   0.940   3.546
 1047SOL    HW2 4041   3.831   0.808   3.459
 1048SOL     OW 4042   0.775   0.143   1.831
 1048SOL    HW1 4043   0.864   0.107   1.801
 1048SOL    HW2 4044   0.705   0.120   1.764
 1049SOL     OW 4045   3.960   6.904   0.171
 1049SOL    HW1 4046   3.997   6.834   0.110
 1049SOL    HW2 4047   3.862   6.917   0.152
 1050SOL     OW 4048   2.427   1.297   4.723
 1050SOL    HW1 4049   2.487   1.260   4.653
 1050SOL    HW2 4050   2.460   1.271   4.813
 1051SOL     OW 4051   1.950   2.001   5.298
 1051SOL    HW1 4052   1.913   2.082   5.343
 1051SOL    HW2 4053   1.876   1.936   5.280
 1052SOL     OW 4054   4.204   2.215   6.811
 1052SOL    HW1 4055   4.226   2.312   6.810
 1052SOL    HW2 4056   4.287   2.161   6.799
 1053SOL     OW 4057   4.952   2.665   4.400
 1053SOL    HW1 4058   4.970   2.763   4.400
 1053SOL    HW2 4059   4.967   2.628   4.309
 1054SOL     OW 4060   4.635   5.552   6.581
 1054SOL    HW1 4061   4.650   5.568   6.483
 1054SOL    HW2 4062   4.637   5.453   6.599
 1055SOL     OW 4063   5.187   5.664   6.728
 1055SOL    HW1 4064   5.091   5.673   6.701
 1055SOL    HW2 4065   5.239   5.621   6.654
 1056SOL     OW 4066   3.767   4.004   0.278
 1056SOL    HW1 4067   3.820   4.020   0.195
 1056SOL    HW2 4068   3.779   3.910   0.308
 1057SOL     OW 4069   3.086   3.339   6.361
 1057SOL    HW1 4070   3.031   3.420   6.379
 1057SOL    HW2 4071   3.161   3.363   6.299
 1058SOL     OW 4072   2.984   2.081   2.063
 1058SOL    HW1 4073   2.953   2.169   2.100
 1058SOL    HW2 4074   3.001   2.089   1.965
 1059SOL     OW 4075   2.464   6.010   2.495
 1059SOL    HW1 4076   2.486   6.097   2.451
 1059SOL    HW2 4077   2.424   5.947   2.428
 1060SOL     OW 4078   5.926   0.397   5.382
 1060SOL    HW1 4079   5.867   0.362   5.455
 1060SOL    HW2 4080   5.912   0.496   5.373
 1061SOL     OW 4081   6.955   3.894   6.677
 1061SOL    HW1 4082   0.032   3.885   6.662
 1061SOL    HW2 4083   6.937   3.913   6.773
 1062SOL     OW 4084   3.057   5.098   5.208
 1062SOL    HW1 4085   2.972   5.051   5.231
 1062SOL    HW2 4086   3.126   5.030   5.182
 1063SOL     OW 4087   2.989   6.451   3.873
 1063SOL    HW1 4088   3.020   6.422   3.783
 1063SOL    HW2 4089   2.890   6.441   3.879
 1064SOL     OW 4090   0.880   3.443   0.393
 1064SOL    HW1 4091   0.950   3.405   0.332
 1064SOL    HW2 4092   0.914   3.444   0.486
 1065SOL     OW 4093   6.246   1.011   4.758
 1065SOL    HW1 4094   6.152   1.001   4.724
 1065SOL    HW2 4095   6.249   0.985   4.855
 1066SOL     OW 4096   4.818   6.204   1.160
 1066SOL    HW1 4097   4.799   6.127   1.221
 1066SOL    HW2 4098   4.789   6.180   1.067
 1067SOL     OW 4099   2.833   1.423   0.181
 1067SOL    HW1 4100   2.861   1.468   0.096
 1067SOL    HW2 4101   2.897   1.447   0.254
 1068SOL     OW 4102   6.045   2.742   1.884
 1068SOL    HW1 4103   6.085   2.683   1.813
 1068SOL    HW2 4104   5.969   2.693   1.928
 1069SOL     OW 4105   6.924   2.713   2.578
 1069SOL    HW1 4106   6.906   2.631   2.522
 1069SOL    HW2 4107   6.852   2.723   2.646
 1070SOL     OW 4108   0.864   0.341   2.494
 1070SOL    HW1 4109   0.959   0.322   2.518
 1070SOL    HW2 4110   0.861   0.408   2.420
 1071SOL     OW 4111   0.561   2.851   6.326
 1071SOL    HW1 4112   0.481   2.798   6.300
 1071SOL    HW2 4113   0.536   2.918   6.396
 1072SOL     OW 4114   2.037   1.451   2.206
 1072SOL    HW1 4115   1.942   1.470   2.230
 1072SOL    HW2 4116   2.045   1.440   2.107
 1073SOL     OW 4117   5.437   2.397   2.960
 1073SOL    HW1 4118   5.516   2.398   2.899
 1073SOL    HW2 4119   5.459   2.341   3.040
 1074SOL     OW 4120   3.577   4.974   1.514
 1074SOL    HW1 4121   3.537   5.059   1.481
 1074SOL    HW2 4122   3.604   4.985   1.610
 1075SOL     OW 4123   6.448   3.743   4.963
 1075SOL    HW1 4124   6.462   3.815   5.032
 1075SOL    HW2 4125   6.364   3.762   4.913
 1076SOL     OW 4126   2.144   4.214   5.114
 1076SOL    HW1 4127   2.207   4.140   5.091
 1076SOL    HW2 4128   2.122   4.210   5.212
 1077SOL     OW 4129   0.049   6.286   0.641
 1077SOL    HW1 4130   0.002   6.264   0.555
 1077SOL    HW2 4131   0.017   6.224   0.713
 1078SOL     OW 4132   6.106   6.008   4.120
 1078SOL    HW1 4133   6.086   5.954   4.201
 1078SOL    HW2 4134   6.022   6.027   4.069
 1079SOL     OW 4135   0.980   6.712   1.312
 1079SOL    HW1 4136   0.903   6.649   1.320
 1079SOL    HW2 4137   1.065   6.661   1.305
 1080SOL     OW 4138   4.438   5.813   0.542
 1080SOL    HW1 4139   4.492   5.835   0.461
 1080SOL    HW2 4140   4.497   5.813   0.623
 1081SOL     OW 4141   6.651   6.460   3.472
 1081SOL    HW1 4142   6.701   6.460   3.386
 1081SOL    HW2 4143   6.567   6.407   3.462
 1082SOL     OW 4144   4.621   6.958   6.977
 1082SOL    HW1 4145   4.537   6.918   7.013
 1082SOL    HW2 4146   4.672   7.001   0.030
 1083SOL     OW 4147   5.794   4.081   2.352
 1083SOL    HW1 4148   5.867   4.123   2.298
 1083SOL    HW2 4149   5.794   4.120   2.444
 1084SOL     OW 4150   5.324   0.809   5.222
 1084SOL    HW1 4151   5.269   0.863   5.158
 1084SOL    HW2 4152   5.327   0.714   5.191
 1085SOL     OW 4153   1.541   3.149   5.198
 1085SOL    HW1 4154   1.631   3.190   5.214
 1085SOL    HW2 4155   1.502   3.119   5.285
 1086SOL     OW 4156   5.943   4.795   1.903
 1086SOL    HW1 4157   6.028   4.821   1.947
 1086SOL    HW2 4158   5.876   4.769   1.972
 1087SOL     OW 4159   3.861   0.543   5.885
 1087SOL    HW1 4160   3.769   0.581   5.878
 1087SOL    HW2 4161   3.893   0.550   5.979
 1088SOL     OW 4162   6.865   5.497   4.375
 1088SOL    HW1 4163   6.795   5.489   4.446
 1088SOL    HW2 4164   6.885   5.407   4.337
 1089SOL     OW 4165   5.567   5.349   3.908
 1089SOL    HW1 4166   5.630   5.421   3.938
 1089SOL    HW2 4167   5.619   5.270   3.878
 1090SOL     OW 4168   5.693   2.702   5.341
 1090SOL    HW1 4169   5.793   2.702   5.345
 1090SOL    HW2 4170   5.657   2.638   5.409
 1091SOL     OW 4171   2.127   3.557   3.176
 1091SOL    HW1 4172   2.085   3.626   3.118
 1091SOL    HW2 4173   2.095   3.569   3.270
 1092SOL     OW 4174   0.974   6.315   0.809
 1092SOL    HW1 4175   0.939   6.321   0.902
 1092SOL    HW2 4176   1.005   6.406   0.779
 1093SOL     OW 4177   1.689   0.565   3.612
 1093SOL    HW1 4178   1.783   0.541   3.633
 1093SOL    HW2 4179   1.675   0.663   3.626
 1094SOL     OW 4180   0.218   6.969   2.626
 1094SOL    HW1 4181   0.282   6.987   2.551
 1094SOL    HW2 4182   0.155   6.896   2.599
 1095SOL     OW 4183   5.999   3.972   0.269
 1095SOL    HW1 4184   6.007   4.067   0.299
 1095SOL    HW2 4185   6.061   3.914   0.322
 1096SOL     OW 4186   2.086   6.070   2.038
 1096SOL    HW1 4187   1.996   6.030   2.054
 1096SOL    HW2 4188   2.102   6.077   1.940
 1097SOL     OW 4189   3.072   6.303   4.494
 1097SOL    HW1 4190   3.020   6.224   4.460
 1097SOL    HW2 4191   3.136   6.333   4.424
 1098SOL     OW 4192   6.936   3.690   0.283
 1098SOL    HW1 4193   6.859   3.658   0.227
 1098SOL    HW2 4194   6.973   3.614   0.336
 1099SOL     OW 4195   5.562   0.642   6.302
 1099SOL    HW1 4196   5.490   0.633   6.371
 1099SOL    HW2 4197   5.523   0.682   6.219
 1100SOL     OW 4198   4.660   1.883   4.948
 1100SOL    HW1 4199   4.565   1.855   4.942
 1100SOL    HW2 4200   4.709   1.854   4.866
 1101SOL     OW 4201   5.091   2.445   6.470
 1101SOL    HW1 4202   5.036   2.521   6.505
 1101SOL    HW2 4203   5.090   2.369   6.535
 1102SOL     OW 4204   2.811   0.792   3.736
 1102SOL    HW1 4205   2.745   0.760   3.803
 1102SOL    HW2 4206   2.876   0.718   3.715
 1103SOL     OW 4207   3.600   6.078   1.166
 1103SOL    HW1 4208   3.583   6.143   1.240
 1103SOL    HW2 4209   3.513   6.049   1.126
 1104SOL     OW 4210   6.942   2.124   4.099
 1104SOL    HW1 4211   6.879   2.198   4.078
 1104SOL    HW2 4212   0.013   2.150   4.072
 1105SOL     OW 4213   4.995   0.756   6.590
 1105SOL    HW1 4214   4.945   0.803   6.517
 1105SOL    HW2 4215   4.953   0.778   6.678
 1106SOL     OW 4216   6.149   1.601   1.247
 1106SOL    HW1 4217   6.050   1.615   1.244
 1106SOL    HW2 4218   6.185   1.636   1.333
 1107SOL     OW 4219   1.122   1.640   0.310
 1107SOL    HW1 4220   1.062   1.642   0.230
 1107SOL    HW2 4221   1.071   1.606   0.389
 1108SOL     OW 4222   2.445   1.612   3.435
 1108SOL    HW1 4223   2.389   1.644   3.358
 1108SOL    HW2 4224   2.393   1.544   3.487
 1109SOL     OW 4225   5.027   1.650   5.152
 1109SOL    HW1 4226   5.109   1.602   5.184
 1109SOL    HW2 4227   5.019   1.639   5.053
 1110SOL     OW 4228   1.493   0.834   2.587
 1110SOL    HW1 4229   1.573   0.869   2.538
 1110SOL    HW2 4230   1.486   0.735   2.574
 1111SOL     OW 4231   5.870   3.302   6.368
 1111SOL    HW1 4232   5.777   3.331   6.344
 1111SOL    HW2 4233   5.919   3.275   6.285
 1112SOL     OW 4234   5.828   0.591   2.716
 1112SOL    HW1 4235   5.746   0.604   2.772
 1112SOL    HW2 4236   5.893   0.665   2.735
 1113SOL     OW 4237   6.452   2.827   2.989
 1113SOL    HW1 4238   6.488   2.917   2.964
 1113SOL    HW2 4239   6.423   2.778   2.907
 1114SOL     OW 4240   3.702   3.179   4.674
 1114SOL    HW1 4241   3.616   3.136   4.649
 1114SOL    HW2 4242   3.689   3.279   4.677
 1115SOL     OW 4243   1.642   4.727   5.955
 1115SOL    HW1 4244   1.710   4.800   5.953
 1115SOL    HW2 4245   1.550   4.766   5.948
 1116SOL     OW 4246   4.280   0.160   0.259
 1116SOL    HW1 4247   4.287   0.242   0.317
 1116SOL    HW2 4248   4.350   0.163   0.188
 1117SOL     OW 4249   1.838   2.554   2.050
 1117SOL    HW1 4250   1.893   2.499   1.988
 1117SOL    HW2 4251   1.873   2.647   2.053
 1118SOL     OW 4252   4.934   6.483   0.316
 1118SOL    HW1 4253   5.023   6.481   0.362
 1118SOL    HW2 4254   4.947   6.466   0.218
 1119SOL     OW 4255   3.448   4.993   3.763
 1119SOL    HW1 4256   3.356   4.955   3.778
 1119SOL    HW2 4257   3.468   4.993   3.665
 1120SOL     OW 4258   6.456   3.671   1.294
 1120SOL    HW1 4259   6.445   3.686   1.196
 1120SOL    HW2 4260   6.538   3.719   1.326
 1121SOL     OW 4261   6.157   4.357   5.635
 1121SOL    HW1 4262   6.208   4.396   5.712
 1121SOL    HW2 4263   6.086   4.296   5.669
 1122SOL     OW 4264   6.138   1.467   2.067
 1122SOL    HW1 4265   6.189   1.394   2.020
 1122SOL    HW2 4266   6.068   1.503   2.005
 1123SOL     OW 4267   3.702   2.100   4.743
 1123SOL    HW1 4268   3.638   2.174   4.766
 1123SOL    HW2 4269   3.680   2.019   4.796
 1124SOL     OW 4270   2.145   3.083   3.883
 1124SOL    HW1 4271   2.215   3.017   3.856
 1124SOL    HW2 4272   2.056   3.038   3.886
 1125SOL     OW 4273   1.048   3.324   3.617
 1125SOL    HW1 4274   1.069   3.383   3.539
 1125SOL    HW2 4275   0.959   3.350   3.656
 1126SOL     OW 4276   4.118   4.784   4.185
 1126SOL    HW1 4277   4.078   4.744   4.103
 1126SOL    HW2 4278   4.048   4.833   4.237
 1127SOL     OW 4279   6.430   6.716   1.294
 1127SOL    HW1 4280   6.454   6.621   1.310
 1127SOL    HW2 4281   6.400   6.728   1.199
 1128SOL     OW 4282   4.478   1.600   4.729
 1128SOL    HW1 4283   4.442   1.551   4.809
 1128SOL    HW2 4284   4.573   1.627   4.747
 1129SOL     OW 4285   1.193   0.482   0.284
 1129SOL    HW1 4286   1.132   0.524   0.352
 1129SOL    HW2 4287   1.168   0.515   0.193
 1130SOL     OW 4288   2.049   5.342   2.210
 1130SOL    HW1 4289   2.035   5.364   2.114
 1130SOL    HW2 4290   2.055   5.242   2.221
 1131SOL     OW 4291   1.701   5.554   4.001
 1131SOL    HW1 4292   1.614   5.538   4.049
 1131SOL    HW2 4293   1.766   5.482   4.027
 1132SOL     OW 4294   1.078   1.701   2.476
 1132SOL    HW1 4295   0.987   1.743   2.477
 1132SOL    HW2 4296   1.145   1.766   2.510
 1133SOL     OW 4297   1.092   6.647   6.763
 1133SOL    HW1 4298   1.183   6.662   6.804
 1133SOL    HW2 4299   1.076   6.549   6.754
 1134SOL     OW 4300   4.604   5.853   0.769
 1134SOL    HW1 4301   4.671   5.891   0.833
 1134SOL    HW2 4302   4.602   5.754   0.777
 1135SOL     OW 4303   1.401   0.040   3.323
 1135SOL    HW1 4304   1.480   0.089   3.359
 1135SOL    HW2 4305   1.433   6.987   3.265
 1136SOL     OW 4306   1.885   4.895   2.048
 1136SOL    HW1 4307   1.799   4.893   2.099
 1136SOL    HW2 4308   1.883   4.968   1.981
 1137SOL     OW 4309   1.005   5.475   4.124
 1137SOL    HW1 4310   0.973   5.443   4.034
 1137SOL    HW2 4311   1.103   5.496   4.118
 1138SOL     OW 4312   1.698   3.870   5.185
 1138SOL    HW1 4313   1.736   3.802   5.123
 1138SOL    HW2 4314   1.672   3.952   5.132
 1139SOL     OW 4315   2.435   5.564   4.761
 1139SOL    HW1 4316   2.380   5.570   4.678
 1139SOL    HW2 4317   2.395   5.621   4.833
 1140SOL     OW 4318   1.971   2.304   1.866
 1140SOL    HW1 4319   2.008   2.211   1.870
 1140SOL    HW2 4320   2.046   2.370   1.859
 1141SOL     OW 4321   6.207   4.798   5.438
 1141SOL    HW1 4322   6.190   4.746   5.354
 1141SOL    HW2 4323   6.303   4.824   5.443
 1142SOL     OW 4324   1.455   5.693   2.511
 1142SOL    HW1 4325   1.386   5.636   2.556
 1142SOL    HW2 4326   1.546   5.655   2.529
 1143SOL     OW 4327   6.871   4.302   1.906
 1143SOL    HW1 4328   6.948   4.290   1.968
 1143SOL    HW2 4329   6.896   4.268   1.815
 1144SOL     OW 4330   4.680   4.279   0.535
 1144SOL    HW1 4331   4.647   4.186   0.519
 1144SOL    HW2 4332   4.738   4.280   0.616
 1145SOL     OW 4333   6.240   0.286   0.420
 1145SOL    HW1 4334   6.191   0.246   0.497
 1145SOL    HW2 4335   6.316   0.227   0.394
 1146SOL     OW 4336   1.288   0.934   1.117
 1146SOL    HW1 4337   1.225   0.866   1.081
 1146SOL    HW2 4338   1.275   1.021   1.069
 1147SOL     OW 4339   2.061   6.268   1.126
 1147SOL    HW1 4340   2.083   6.206   1.051
 1147SOL    HW2 4341   2.123   6.347   1.123
 1148SOL     OW 4342   3.798   6.108   2.140
 1148SOL    HW1 4343   3.711   6.061   2.156
 1148SOL    HW2 4344   3.873   6.048   2.168
 1149SOL     OW 4345   5.021   2.761   1.797
 1149SOL    HW1 4346   5.053   2.672   1.763
 1149SOL    HW2 4347   4.959   2.747   1.874
 1150SOL     OW 4348   1.094   3.073   1.000
 1150SOL    HW1 4349   1.067   2.997   0.941
 1150SOL    HW2 4350   1.057   3.059   1.092
 1151SOL     OW 4351   5.353   5.318   4.402
 1151SOL    HW1 4352   5.375   5.258   4.325
 1151SOL    HW2 4353   5.377   5.412   4.378
 1152SOL     OW 4354   3.535   6.639   6.091
 1152SOL    HW1 4355   3.587   6.674   6.013
 1152SOL    HW2 4356   3.583   6.562   6.132
 1153SOL     OW 4357   6.094   6.908   1.244
 1153SOL    HW1 4358   6.162   6.874   1.178
 1153SOL    HW2 4359   6.025   6.837   1.259
 1154SOL     OW 4360   1.949   2.899   0.861
 1154SOL    HW1 4361   1.963   2.953   0.778
 1154SOL    HW2 4362   1.898   2.816   0.839
 1155SOL     OW 4363   3.680   5.768   3.630
 1155SOL    HW1 4364   3.653   5.685   3.678
 1155SOL    HW2 4365   3.778   5.786   3.645
 1156SOL     OW 4366   2.623   1.183   2.269
 1156SOL    HW1 4367   2.652   1.098   2.223
 1156SOL    HW2 4368   2.698   1.249   2.265
 1157SOL     OW 4369   2.716   1.626   0.870
 1157SOL    HW1 4370   2.690   1.719   0.898
 1157SOL    HW2 4371   2.661   1.599   0.791
 1158SOL     OW 4372   5.582   4.766   3.363
 1158SOL    HW1 4373   5.580   4.866   3.360
 1158SOL    HW2 4374   5.663   4.733   3.315
 1159SOL     OW 4375   5.793   4.693   0.614
 1159SOL    HW1 4376   5.700   4.664   0.592
 1159SOL    HW2 4377   5.807   4.787   0.582
 1160SOL     OW 4378   4.634   2.342   0.531
 1160SOL    HW1 4379   4.536   2.348   0.551
 1160SOL    HW2 4380   4.648   2.351   0.432
 1161SOL     OW 4381   6.311   5.332   0.818
 1161SOL    HW1 4382   6.334   5.379   0.903
 1161SOL    HW2 4383   6.250   5.255   0.838
 1162SOL     OW 4384   2.874   2.267   4.458
 1162SOL    HW1 4385   2.881   2.231   4.365
 1162SOL    HW2 4386   2.836   2.359   4.455
 1163SOL     OW 4387   5.712   1.982   1.690
 1163SOL    HW1 4388   5.726   2.046   1.614
 1163SOL    HW2 4389   5.692   2.034   1.773
 1164SOL     OW 4390   4.499   2.287   5.546
 1164SOL    HW1 4391   4.463   2.380   5.553
 1164SOL    HW2 4392   4.555   2.279   5.464
 1165SOL     OW 4393   4.802   6.889   3.295
 1165SOL    HW1 4394   4.837   6.958   3.358
 1165SOL    HW2 4395   4.702   6.894   3.292
 1166SOL     OW 4396   3.229   4.603   6.707
 1166SOL    HW1 4397   3.298   4.650   6.653
 1166SOL    HW2 4398   3.142   4.604   6.657
 1167SOL     OW 4399   4.888   4.258   3.131
 1167SOL    HW1 4400   4.807   4.269   3.189
 1167SOL    HW2 4401   4.948   4.338   3.142
 1168SOL     OW 4402   0.878   0.359   1.507
 1168SOL    HW1 4403   0.937   0.298   1.560
 1168SOL    HW2 4404   0.819   0.304   1.448
 1169SOL     OW 4405   4.601   1.736   5.397
 1169SOL    HW1 4406   4.544   1.815   5.422
 1169SOL    HW2 4407   4.684   1.768   5.351
 1170SOL     OW 4408   4.946   5.491   2.804
 1170SOL    HW1 4409   4.981   5.519   2.715
 1170SOL    HW2 4410   4.854   5.454   2.793
 1171SOL     OW 4411   0.241   6.072   0.911
 1171SOL    HW1 4412   0.224   6.026   0.998
 1171SOL    HW2 4413   0.156   6.111   0.876
 1172SOL     OW 4414   6.186   3.331   6.275
 1172SOL    HW1 4415   6.230   3.245   6.251
 1172SOL    HW2 4416   6.251   3.406   6.265
 1173SOL     OW 4417   3.575   2.570   0.606
 1173SOL    HW1 4418   3.536   2.650   0.560
 1173SOL    HW2 4419   3.538   2.487   0.564
 1174SOL     OW 4420   2.493   5.016   0.277
 1174SOL    HW1 4421   2.486   5.014   0.377
 1174SOL    HW2 4422   2.450   4.934   0.239
 1175SOL     OW 4423   3.071   3.200   4.128
 1175SOL    HW1 4424   3.134   3.126   4.151
 1175SOL    HW2 4425   3.071   3.215   4.029
 1176SOL     OW 4426   5.424   3.113   6.817
 1176SOL    HW1 4427   5.332   3.122   6.854
 1176SOL    HW2 4428   5.476   3.196   6.837
 1177SOL     OW 4429   1.360   1.746   4.803
 1177SOL    HW1 4430   1.314   1.676   4.859
 1177SOL    HW2 4431   1.402   1.703   4.724
 1178SOL     OW 4432   4.687   6.513   0.189
 1178SOL    HW1 4433   4.731   6.517   0.099
 1178SOL    HW2 4434   4.752   6.480   0.257
 1179SOL     OW 4435   0.246   5.936   0.367
 1179SOL    HW1 4436   0.267   5.844   0.399
 1179SOL    HW2 4437   0.267   6.003   0.439
 1180SOL     OW 4438   3.760   6.184   0.376
 1180SOL    HW1 4439   3.806   6.119   0.317
 1180SOL    HW2 4440   3.681   6.140   0.419
 1181SOL     OW 4441   6.751   6.396   6.686
 1181SOL    HW1 4442   6.750   6.442   6.597
 1181SOL    HW2 4443   6.782   6.461   6.756
 1182SOL     OW 4444   4.805   4.264   2.631
 1182SOL    HW1 4445   4.725   4.239   2.576
 1182SOL    HW2 4446   4.775   4.301   2.719
 1183SOL     OW 4447   1.614   4.147   6.910
 1183SOL    HW1 4448   1.521   4.147   6.946
 1183SOL    HW2 4449   1.643   4.053   6.892
 1184SOL     OW 4450   7.015   0.579   5.493
 1184SOL    HW1 4451   0.058   0.594   5.419
 1184SOL    HW2 4452   6.971   0.490   5.481
 1185SOL     OW 4453   6.285   1.128   6.938
 1185SOL    HW1 4454   6.345   1.092   7.009
 1185SOL    HW2 4455   6.296   1.227   6.932
 1186SOL     OW 4456   5.632   6.778   4.835
 1186SOL    HW1 4457   5.584   6.736   4.912
 1186SOL    HW2 4458   5.726   6.799   4.862
 1187SOL     OW 4459   6.487   1.638   5.857
 1187SOL    HW1 4460   6.447   1.548   5.867
 1187SOL    HW2 4461   6.426   1.697   5.804
 1188SOL     OW 4462   3.174   1.573   6.677
 1188SOL    HW1 4463   3.145   1.653   6.729
 1188SOL    HW2 4464   3.099   1.507   6.672
 1189SOL     OW 4465   5.322   3.466   3.769
 1189SOL    HW1 4466   5.416   3.444   3.745
 1189SOL    HW2 4467   5.285   3.532   3.703
 1190SOL     OW 4468   3.063   0.139   3.804
 1190SOL    HW1 4469   3.021   0.150   3.714
 1190SOL    HW2 4470   3.113   0.051   3.807
 1191SOL     OW 4471   3.901   6.392   3.017
 1191SOL    HW1 4472   3.962   6.336   3.072
 1191SOL    HW2 4473   3.847   6.334   2.956
 1192SOL     OW 4474   6.030   5.948   3.243
 1192SOL    HW1 4475   5.984   5.930   3.156
 1192SOL    HW2 4476   6.002   6.037   3.278
 1193SOL     OW 4477   6.960   5.796   4.678
 1193SOL    HW1 4478   6.874   5.811   4.726
 1193SOL    HW2 4479   0.009   5.854   4.718
 1194SOL     OW 4480   3.805   0.118   1.118
 1194SOL    HW1 4481   3.862   0.185   1.166
 1194SOL    HW2 4482   3.711   0.125   1.150
 1195SOL     OW 4483   4.982   2.556   3.268
 1195SOL    HW1 4484   5.061   2.587   3.321
 1195SOL    HW2 4485   4.923   2.634   3.247
 1196SOL     OW 4486   0.044   6.669   5.204
 1196SOL    HW1 4487   0.032   6.748   5.143
 1196SOL    HW2 4488   0.087   6.594   5.153
 1197SOL     OW 4489   2.089   6.130   0.499
 1197SOL    HW1 4490   2.102   6.038   0.462
 1197SOL    HW2 4491   2.032   6.183   0.436
 1198SOL     OW 4492   1.876   2.674   6.931
 1198SOL    HW1 4493   1.972   2.655   6.951
 1198SOL    HW2 4494   1.837   2.730   7.004
 1199SOL     OW 4495   6.377   3.749   2.128
 1199SOL    HW1 4496   6.327   3.706   2.203
 1199SOL    HW2 4497   6.333   3.725   2.041
 1200SOL     OW 4498   3.427   4.130   2.813
 1200SOL    HW1 4499   3.520   4.098   2.797
 1200SOL    HW2 4500   3.362   4.065   2.774
 1201SOL     OW 4501   1.493   1.857   4.394
 1201SOL    HW1 4502   1.467   1.778   4.449
 1201SOL    HW2 4503   1.410   1.910   4.372
 1202SOL     OW 4504   1.189   5.398   5.461
 1202SOL    HW1 4505   1.179   5.458   5.382
 1202SOL    HW2 4506   1.286   5.385   5.480
 1203SOL     OW 4507   3.638   5.998   5.425
 1203SOL    HW1 4508   3.628   5.901   5.447
 1203SOL    HW2 4509   3.551   6.033   5.389
 1204SOL     OW 4510   1.755   6.920   3.332
 1204SOL    HW1 4511   1.669   6.919   3.281
 1204SOL    HW2 4512   1.832   6.920   3.267
 1205SOL     OW 4513   5.823   3.770   2.029
 1205SOL    HW1 4514   5.856   3.679   2.055
 1205SOL    HW2 4515   5.758   3.801   2.098
 1206SOL     OW 4516   3.639   3.460   4.704
 1206SOL    HW1 4517   3.700   3.522   4.754
 1206SOL    HW2 4518   3.553   3.507   4.684
 1207SOL     OW 4519   0.921   6.109   2.615
 1207SOL    HW1 4520   0.920   6.074   2.521
 1207SOL    HW2 4521   0.939   6.034   2.678
 1208SOL     OW 4522   3.174   3.713   6.276
 1208SOL    HW1 4523   3.084   3.697   6.317
 1208SOL    HW2 4524   3.184   3.654   6.195
 1209SOL     OW 4525   3.816   6.396   5.248
 1209SOL    HW1 4526   3.821   6.468   5.318
 1209SOL    HW2 4527   3.763   6.429   5.170
 1210SOL     OW 4528   3.541   1.326   2.867
 1210SOL    HW1 4529   3.494   1.382   2.798
 1210SOL    HW2 4530   3.597   1.385   2.925
 1211SOL     OW 4531   0.709   2.741   0.455
 1211SOL    HW1 4532   0.678   2.823   0.405
 1211SOL    HW2 4533   0.776   2.692   0.400
 1212SOL     OW 4534   1.259   0.264   0.429
 1212SOL    HW1 4535   1.332   0.205   0.394
 1212SOL    HW2 4536   1.252   0.346   0.372
 1213SOL     OW 4537   5.534   3.057   1.513
 1213SOL    HW1 4538   5.481   3.094   1.589
 1213SOL    HW2 4539   5.472   3.026   1.441
 1214SOL     OW 4540   6.893   2.782   2.144
 1214SOL    HW1 4541   6.829   2.837   2.091
 1214SOL    HW2 4542   6.873   2.685   2.132
 1215SOL     OW 4543   1.788   6.051   2.874
 1215SOL    HW1 4544   1.699   6.082   2.909
 1215SOL    HW2 4545   1.858   6.118   2.899
 1216SOL     OW 4546   3.773   0.003   1.876
 1216SOL    HW1 4547   3.717   0.066   1.930
 1216SOL    HW2 4548   3.749   0.011   1.779
 1217SOL     OW 4549   2.911   4.676   0.030
 1217SOL    HW1 4550   2.962   4.672   0.116
 1217SOL    HW2 4551   2.884   4.584   0.003
 1218SOL     OW 4552   2.612   5.141   3.192
 1218SOL    HW1 4553   2.545   5.189   3.136
 1218SOL    HW2 4554   2.652   5.205   3.258
 1219SOL     OW 4555   3.374   5.904   2.029
 1219SOL    HW1 4556   3.396   5.974   1.961
 1219SOL    HW2 4557   3.417   5.928   2.116
 1220SOL     OW 4558   1.014   4.775   2.382
 1220SOL    HW1 4559   0.941   4.802   2.320
 1220SOL    HW2 4560   1.058   4.692   2.348
 1221SOL     OW 4561   4.911   4.379   6.309
 1221SOL    HW1 4562   4.839   4.313   6.328
 1221SOL    HW2 4563   4.871   4.471   6.308
 1222SOL     OW 4564   6.984   0.716   6.326
 1222SOL    HW1 4565   0.036   0.746   6.266
 1222SOL    HW2 4566   6.915   0.787   6.332
 1223SOL     OW 4567   3.592   6.298   0.973
 1223SOL    HW1 4568   3.661   6.370   0.982
 1223SOL    HW2 4569   3.630   6.212   1.007
 1224SOL     OW 4570   3.200   1.032   1.895
 1224SOL    HW1 4571   3.263   0.969   1.849
 1224SOL    HW2 4572   3.227   1.041   1.991
 1225SOL     OW 4573   2.778   3.735   5.997
 1225SOL    HW1 4574   2.764   3.765   5.902
 1225SOL    HW2 4575   2.753   3.809   6.059
 1226SOL     OW 4576   2.010   4.979   0.306
 1226SOL    HW1 4577   2.019   4.881   0.322
 1226SOL    HW2 4578   1.929   4.996   0.250
 1227SOL     OW 4579   0.734   3.722   5.932
 1227SOL    HW1 4580   0.789   3.793   5.975
 1227SOL    HW2 4581   0.768   3.632   5.961
 1228SOL     OW 4582   3.926   1.795   0.110
 1228SOL    HW1 4583   3.927   1.886   0.069
 1228SOL    HW2 4584   4.002   1.787   0.175
 1229SOL     OW 4585   2.714   4.345   6.412
 1229SOL    HW1 4586   2.621   4.351   6.448
 1229SOL    HW2 4587   2.741   4.432   6.373
 1230SOL     OW 4588   4.686   0.497   3.614
 1230SOL    HW1 4589   4.763   0.554   3.641
 1230SOL    HW2 4590   4.606   0.522   3.669
 1231SOL     OW 4591   1.222   3.670   4.382
 1231SOL    HW1 4592   1.223   3.750   4.442
 1231SOL    HW2 4593   1.186   3.591   4.432
 1232SOL     OW 4594   2.186   2.973   3.256
 1232SOL    HW1 4595   2.202   3.066   3.223
 1232SOL    HW2 4596   2.208   2.969   3.354
 1233SOL     OW 4597   0.950   2.568   4.213
 1233SOL    HW1 4598   0.867   2.607   4.173
 1233SOL    HW2 4599   0.972   2.617   4.297
 1234SOL     OW 4600   6.617   4.490   4.128
 1234SOL    HW1 4601   6.628   4.567   4.191
 1234SOL    HW2 4602   6.604   4.406   4.180
 1235SOL     OW 4603   6.887   5.956   3.757
 1235SOL    HW1 4604   6.910   6.053   3.761
 1235SOL    HW2 4605   6.798   5.944   3.713
 1236SOL     OW 4606   5.862   0.714   6.287
 1236SOL    HW1 4607   5.888   0.747   6.196
 1236SOL    HW2 4608   5.793   0.643   6.278
 1237SOL     OW 4609   2.001   4.754   6.180
 1237SOL    HW1 4610   2.026   4.834   6.125
 1237SOL    HW2 4611   1.982   4.677   6.120
 1238SOL     OW 4612   1.572   1.430   0.750
 1238SOL    HW1 4613   1.671   1.446   0.743
 1238SOL    HW2 4614   1.524   1.517   0.741
 1239SOL     OW 4615   0.958   0.407   5.642
 1239SOL    HW1 4616   0.966   0.450   5.732
 1239SOL    HW2 4617   0.981   0.310   5.649
 1240SOL     OW 4618   4.528   5.589   1.517
 1240SOL    HW1 4619   4.622   5.557   1.525
 1240SOL    HW2 4620   4.473   5.521   1.469
 1241SOL     OW 4621   0.333   1.906   4.179
 1241SOL    HW1 4622   0.287   1.962   4.249
 1241SOL    HW2 4623   0.402   1.961   4.133
 1242SOL     OW 4624   2.355   2.440   6.479
 1242SOL    HW1 4625   2.367   2.385   6.396
 1242SOL    HW2 4626   2.415   2.520   6.475
 1243SOL     OW 4627   2.366   5.212   5.045
 1243SOL    HW1 4628   2.355   5.206   5.144
 1243SOL    HW2 4629   2.298   5.154   5.000
 1244SOL     OW 4630   0.034   1.748   2.643
 1244SOL    HW1 4631   7.014   1.751   2.734
 1244SOL    HW2 4632   0.109   1.814   2.639
 1245SOL     OW 4633   2.792   3.478   5.595
 1245SOL    HW1 4634   2.876   3.427   5.609
 1245SOL    HW2 4635   2.779   3.496   5.497
 1246SOL     OW 4636   1.165   6.955   1.417
 1246SOL    HW1 4637   1.097   6.989   1.352
 1246SOL    HW2 4638   1.139   6.863   1.448
 1247SOL     OW 4639   1.309   6.915   6.646
 1247SOL    HW1 4640   1.379   6.986   6.657
 1247SOL    HW2 4641   1.304   6.887   6.551
 1248SOL     OW 4642   2.442   6.460   3.825
 1248SOL    HW1 4643   2.373   6.407   3.775
 1248SOL    HW2 4644   2.450   6.551   3.786
 1249SOL     OW 4645   5.753   3.078   2.728
 1249SOL    HW1 4646   5.704   3.147   2.783
 1249SOL    HW2 4647   5.843   3.061   2.768
 1250SOL     OW 4648   0.152   4.016   4.131
 1250SOL    HW1 4649   0.139   3.919   4.151
 1250SOL    HW2 4650   0.172   4.027   4.033
 1251SOL     OW 4651   3.581   0.703   6.156
 1251SOL    HW1 4652   3.553   0.617   6.199
 1251SOL    HW2 4653   3.517   0.775   6.182
 1252SOL     OW 4654   2.886   3.642   0.208
 1252SOL    HW1 4655   2.920   3.604   0.122
 1252SOL    HW2 4656   2.955   3.630   0.279
 1253SOL     OW 4657   4.577   0.617   2.627
 1253SOL    HW1 4658   4.502   0.681   2.643
 1253SOL    HW2 4659   4.567   0.576   2.536
 1254SOL     OW 4660   5.537   1.578   3.314
 1254SOL    HW1 4661   5.502   1.574   3.220
 1254SOL    HW2 4662   5.460   1.582   3.378
 1255SOL     OW 4663   6.209   0.396   0.939
 1255SOL    HW1 4664   6.163   0.444   0.864
 1255SOL    HW2 4665   6.307   0.417   0.937
 1256SOL     OW 4666   4.958   2.528   3.867
 1256SOL    HW1 4667   4.987   2.500   3.776
 1256SOL    HW2 4668   4.861   2.505   3.880
 1257SOL     OW 4669   6.244   1.014   4.193
 1257SOL    HW1 4670   6.145   1.002   4.199
 1257SOL    HW2 4671   6.269   1.041   4.100
 1258SOL     OW 4672   0.151   5.446   3.589
 1258SOL    HW1 4673   0.087   5.433   3.514
 1258SOL    HW2 4674   0.221   5.375   3.587
 1259SOL     OW 4675   4.914   2.395   5.028
 1259SOL    HW1 4676   5.012   2.399   5.008
 1259SOL    HW2 4677   4.872   2.320   4.978
 1260SOL     OW 4678   0.405   1.441   4.950
 1260SOL    HW1 4679   0.466   1.504   4.998
 1260SOL    HW2 4680   0.410   1.350   4.992
 1261SOL     OW 4681   6.698   3.863   0.997
 1261SOL    HW1 4682   6.784   3.889   1.042
 1261SOL    HW2 4683   6.623   3.867   1.063
 1262SOL     OW 4684   5.327   6.235   2.034
 1262SOL    HW1 4685   5.326   6.170   2.109
 1262SOL    HW2 4686   5.297   6.325   2.066
 1263SOL     OW 4687   0.098   2.577   3.467
 1263SOL    HW1 4688   0.174   2.623   3.421
 1263SOL    HW2 4689   0.037   2.646   3.507
 1264SOL     OW 4690   1.036   2.779   5.311
 1264SOL    HW1 4691   1.070   2.837   5.386
 1264SOL    HW2 4692   1.026   2.685   5.344
 1265SOL     OW 4693   5.570   0.453   5.400
 1265SOL    HW1 4694   5.639   0.399   5.448
 1265SOL    HW2 4695   5.509   0.393   5.349
 1266SOL     OW 4696   2.860   1.655   5.197
 1266SOL    HW1 4697   2.946   1.610   5.175
 1266SOL    HW2 4698   2.842   1.729   5.132
 1267SOL     OW 4699   3.290   6.933   2.513
 1267SOL    HW1 4700   3.297   6.867   2.439
 1267SOL    HW2 4701   3.201   6.977   2.510
 1268SOL     OW 4702   3.924   2.251   5.313
 1268SOL    HW1 4703   3.872   2.212   5.237
 1268SOL    HW2 4704   3.882   2.226   5.399
 1269SOL     OW 4705   5.508   1.676   3.730
 1269SOL    HW1 4706   5.598   1.698   3.693
 1269SOL    HW2 4707   5.507   1.581   3.762
 1270SOL     OW 4708   6.254   5.055   3.268
 1270SOL    HW1 4709   6.342   5.012   3.244
 1270SOL    HW2 4710   6.211   5.091   3.186
 1271SOL     OW 4711   1.762   1.418   1.856
 1271SOL    HW1 4712   1.753   1.438   1.759
 1271SOL    HW2 4713   1.678   1.446   1.903
 1272SOL     OW 4714   6.020   2.660   0.811
 1272SOL    HW1 4715   6.084   2.653   0.735
 1272SOL    HW2 4716   6.043   2.592   0.881
 1273SOL     OW 4717   1.859   4.339   5.624
 1273SOL    HW1 4718   1.825   4.394   5.700
 1273SOL    HW2 4719   1.898   4.399   5.555
 1274SOL     OW 4720   6.993   4.290   4.089
 1274SOL    HW1 4721   0.050   4.232   4.069
 1274SOL    HW2 4722   6.945   4.311   4.004
 1275SOL     OW 4723   2.021   1.691   3.012
 1275SOL    HW1 4724   1.975   1.774   3.044
 1275SOL    HW2 4725   1.976   1.610   3.050
 1276SOL     OW 4726   5.400   4.172   3.732
 1276SOL    HW1 4727   5.436   4.143   3.821
 1276SOL    HW2 4728   5.361   4.092   3.685
 1277SOL     OW 4729   1.214   5.722   6.639
 1277SOL    HW1 4730   1.138   5.750   6.579
 1277SOL    HW2 4731   1.200   5.627   6.668
 1278SOL     OW 4732   0.237   6.097   2.439
 1278SOL    HW1 4733   0.138   6.084   2.442
 1278SOL    HW2 4734   0.281   6.032   2.501
 1279SOL     OW 4735   2.892   3.249   0.885
 1279SOL    HW1 4736   2.959   3.179   0.862
 1279SOL    HW2 4737   2.939   3.334   0.909
 1280SOL     OW 4738   2.617   2.418   3.979
 1280SOL    HW1 4739   2.688   2.412   3.908
 1280SOL    HW2 4740   2.627   2.341   4.042
 1281SOL     OW 4741   5.514   6.153   5.234
 1281SOL    HW1 4742   5.538   6.214   5.159
 1281SOL    HW2 4743   5.484   6.065   5.198
 1282SOL     OW 4744   0.379   3.044   1.321
 1282SOL    HW1 4745   0.408   2.970   1.381
 1282SOL    HW2 4746   0.384   3.014   1.226
 1283SOL     OW 4747   0.107   1.213   4.377
 1283SOL    HW1 4748   0.196   1.169   4.387
 1283SOL    HW2 4749   0.082   1.216   4.280
 1284SOL     OW 4750   3.590   1.954   1.630
 1284SOL    HW1 4751   3.663   1.967   1.697
 1284SOL    HW2 4752   3.516   1.900   1.670
 1285SOL     OW 4753   4.296   1.499   4.312
 1285SOL    HW1 4754   4.224   1.565   4.327
 1285SOL    HW2 4755   4.348   1.524   4.230
 1286SOL     OW 4756   4.800   1.101   1.939
 1286SOL    HW1 4757   4.796   1.165   1.863
 1286SOL    HW2 4758   4.892   1.103   1.979
 1287SOL     OW 4759   4.788   4.992   6.163
 1287SOL    HW1 4760   4.876   5.037   6.152
 1287SOL    HW2 4761   4.799   4.894   6.149
 1288SOL     OW 4762   4.533   4.378   6.551
 1288SOL    HW1 4763   4.477   4.317   6.608
 1288SOL    HW2 4764   4.476   4.418   6.480
 1289SOL     OW 4765   0.170   6.829   0.562
 1289SOL    HW1 4766   0.157   6.900   0.493
 1289SOL    HW2 4767   0.268   6.807   0.569
 1290SOL     OW 4768   1.543   6.371   5.505
 1290SOL    HW1 4769   1.584   6.409   5.588
 1290SOL    HW2 4770   1.562   6.432   5.428
 1291SOL     OW 4771   5.546   5.568   3.565
 1291SOL    HW1 4772   5.492   5.545   3.646
 1291SOL    HW2 4773   5.594   5.655   3.580
 1292SOL     OW 4774   0.396   6.669   2.723
 1292SOL    HW1 4775   0.493   6.665   2.699
 1292SOL    HW2 4776   0.362   6.576   2.738
 1293SOL     OW 4777   4.918   0.769   1.243
 1293SOL    HW1 4778   4.966   0.715   1.174
 1293SOL    HW2 4779   4.862   0.709   1.300
 1294SOL     OW 4780   2.221   4.498   5.245
 1294SOL    HW1 4781   2.268   4.435   5.184
 1294SOL    HW2 4782   2.253   4.591   5.227
 1295SOL     OW 4783   6.971   4.720   0.259
 1295SOL    HW1 4784   6.919   4.692   0.340
 1295SOL    HW2 4785   7.005   4.639   0.212
 1296SOL     OW 4786   4.811   0.462   5.762
 1296SOL    HW1 4787   4.753   0.540   5.787
 1296SOL    HW2 4788   4.907   0.486   5.779
 1297SOL     OW 4789   6.136   6.620   0.023
 1297SOL    HW1 4790   6.139   6.681   6.966
 1297SOL    HW2 4791   6.153   6.673   0.106
 1298SOL     OW 4792   5.359   0.217   3.488
 1298SOL    HW1 4793   5.276   0.188   3.441
 1298SOL    HW2 4794   5.387   0.307   3.454
 1299SOL     OW 4795   1.113   3.678   4.696
 1299SOL    HW1 4796   1.027   3.722   4.669
 1299SOL    HW2 4797   1.179   3.749   4.721
 1300SOL     OW 4798   1.491   5.845   0.453
 1300SOL    HW1 4799   1.457   5.899   0.375
 1300SOL    HW2 4800   1.414   5.821   0.512
 1301SOL     OW 4801   6.317   1.085   0.319
 1301SOL    HW1 4802   6.383   1.114   0.388
 1301SOL    HW2 4803   6.355   1.098   0.228
 1302SOL     OW 4804   6.740   6.792   5.119
 1302SOL    HW1 4805   6.835   6.795   5.087
 1302SOL    HW2 4806   6.726   6.708   5.172
 1303SOL     OW 4807   3.092   6.644   1.734
 1303SOL    HW1 4808   3.025   6.706   1.694
 1303SOL    HW2 4809   3.181   6.660   1.693
 1304SOL     OW 4810   0.471   0.336   0.703
 1304SOL    HW1 4811   0.397   0.269   0.705
 1304SOL    HW2 4812   0.454   0.408   0.769
 1305SOL     OW 4813   4.296   4.082   6.280
 1305SOL    HW1 4814   4.276   4.161   6.221
 1305SOL    HW2 4815   4.239   4.086   6.362
 1306SOL     OW 4816   2.962   6.830   4.151
 1306SOL    HW1 4817   3.011   6.759   4.202
 1306SOL    HW2 4818   2.965   6.809   4.053
 1307SOL     OW 4819   1.987   2.989   4.391
 1307SOL    HW1 4820   2.050   3.042   4.335
 1307SOL    HW2 4821   2.015   2.893   4.390
 1308SOL     OW 4822   6.610   3.463   6.072
 1308SOL    HW1 4823   6.617   3.363   6.082
 1308SOL    HW2 4824   6.593   3.485   5.976
 1309SOL     OW 4825   5.670   3.927   6.569
 1309SOL    HW1 4826   5.573   3.902   6.577
 1309SOL    HW2 4827   5.691   3.999   6.635
 1310SOL     OW 4828   2.086   3.851   3.524
 1310SOL    HW1 4829   2.100   3.901   3.609
 1310SOL    HW2 4830   2.113   3.756   3.537
 1311SOL     OW 4831   5.367   5.071   0.443
 1311SOL    HW1 4832   5.392   5.069   0.540
 1311SOL    HW2 4833   5.386   4.982   0.402
 1312SOL     OW 4834   2.346   1.159   6.427
 1312SOL    HW1 4835   2.310   1.212   6.504
 1312SOL    HW2 4836   2.420   1.210   6.383
 1313SOL     OW 4837   5.944   4.900   1.641
 1313SOL    HW1 4838   5.926   4.858   1.730
 1313SOL    HW2 4839   5.998   4.984   1.654
 1314SOL     OW 4840   2.099   1.062   3.710
 1314SOL    HW1 4841   2.036   1.086   3.784
 1314SOL    HW2 4842   2.191   1.052   3.746
 1315SOL     OW 4843   6.494   0.671   3.215
 1315SOL    HW1 4844   6.500   0.619   3.300
 1315SOL    HW2 4845   6.521   0.766   3.232
 1316SOL     OW 4846   5.278   6.917   6.087
 1316SOL    HW1 4847   5.319   6.984   6.149
 1316SOL    HW2 4848   5.183   6.942   6.070
 1317SOL     OW 4849   3.632   3.105   5.129
 1317SOL    HW1 4850   3.588   3.033   5.075
 1317SOL    HW2 4851   3.593   3.193   5.105
 1318SOL     OW 4852   1.519   2.023   6.133
 1318SOL    HW1 4853   1.428   1.991   6.106
 1318SOL    HW2 4854   1.518   2.051   6.228
 1319SOL     OW 4855   6.872   0.997   0.408
 1319SOL    HW1 4856   6.883   1.057   0.487
 1319SOL    HW2 4857   6.951   0.936   0.401
 1320SOL     OW 4858   2.809   3.263   6.004
 1320SOL    HW1 4859   2.724   3.219   6.032
 1320SOL    HW2 4860   2.830   3.237   5.909
 1321SOL     OW 4861   0.244   2.404   1.130
 1321SOL    HW1 4862   0.254   2.341   1.052
 1321SOL    HW2 4863   0.290   2.490   1.109
 1322SOL     OW 4864   3.112   2.703   0.061
 1322SOL    HW1 4865   3.087   2.703   6.986
 1322SOL    HW2 4866   3.040   2.749   0.114
 1323SOL     OW 4867   3.926   0.226   1.613
 1323SOL    HW1 4868   3.847   0.183   1.658
 1323SOL    HW2 4869   3.894   0.303   1.557
 1324SOL     OW 4870   2.092   3.960   5.772
 1324SOL    HW1 4871   2.180   3.923   5.741
 1324SOL    HW2 4872   2.019   3.897   5.748
 1325SOL     OW 4873   3.841   6.260   4.900
 1325SOL    HW1 4874   3.764   6.250   4.964
 1325SOL    HW2 4875   3.808   6.256   4.806
 1326SOL     OW 4876   4.851   1.322   4.941
 1326SOL    HW1 4877   4.845   1.272   4.854
 1326SOL    HW2 4878   4.947   1.334   4.965
 1327SOL     OW 4879   4.826   5.944   2.615
 1327SOL    HW1 4880   4.736   5.956   2.572
 1327SOL    HW2 4881   4.851   6.028   2.662
 1328SOL     OW 4882   2.430   1.828   6.077
 1328SOL    HW1 4883   2.387   1.762   6.138
 1328SOL    HW2 4884   2.373   1.910   6.070
 1329SOL     OW 4885   1.268   3.026   3.951
 1329SOL    HW1 4886   1.273   2.941   3.899
 1329SOL    HW2 4887   1.193   3.083   3.915
 1330SOL     OW 4888   6.205   3.081   3.246
 1330SOL    HW1 4889   6.145   3.153   3.210
 1330SOL    HW2 4890   6.162   3.038   3.325
 1331SOL     OW 4891   4.441   2.512   3.662
 1331SOL    HW1 4892   4.451   2.556   3.751
 1331SOL    HW2 4893   4.513   2.544   3.600
 1332SOL     OW 4894   2.299   5.600   0.196
 1332SOL    HW1 4895   2.386   5.565   0.231
 1332SOL    HW2 4896   2.240   5.523   0.172
 1333SOL     OW 4897   3.579   3.563   2.959
 1333SOL    HW1 4898   3.550   3.645   3.010
 1333SOL    HW2 4899   3.567   3.482   3.017
 1334SOL     OW 4900   6.819   4.100   1.464
 1334SOL    HW1 4901   6.836   4.162   1.542
 1334SOL    HW2 4902   6.737   4.129   1.415
 1335SOL     OW 4903   6.808   3.544   3.307
 1335SOL    HW1 4904   6.802   3.475   3.235
 1335SOL    HW2 4905   6.896   3.536   3.354
 1336SOL     OW 4906   2.155   6.793   5.605
 1336SOL    HW1 4907   2.241   6.741   5.611
 1336SOL    HW2 4908   2.118   6.785   5.512
 1337SOL     OW 4909   0.733   0.015   2.097
 1337SOL    HW1 4910   0.671   6.961   2.078
 1337SOL    HW2 4911   0.742   0.073   2.016
 1338SOL     OW 4912   6.794   3.809   4.713
 1338SOL    HW1 4913   6.716   3.871   4.712
 1338SOL    HW2 4914   6.773   3.727   4.659
 1339SOL     OW 4915   5.627   1.265   6.506
 1339SOL    HW1 4916   5.528   1.263   6.492
 1339SOL    HW2 4917   5.669   1.190   6.453
 1340SOL     OW 4918   3.204   2.826   1.588
 1340SOL    HW1 4919   3.292   2.848   1.547
 1340SOL    HW2 4920   3.143   2.905   1.578
 1341SOL     OW 4921   5.371   5.556   6.284
 1341SOL    HW1 4922   5.380   5.576   6.186
 1341SOL    HW2 4923   5.403   5.635   6.337
 1342SOL     OW 4924   1.764   5.835   1.368
 1342SOL    HW1 4925   1.702   5.775   1.419
 1342SOL    HW2 4926   1.857   5.801   1.376
 1343SOL     OW 4927   4.958   6.121   2.832
 1343SOL    HW1 4928   5.025   6.191   2.807
 1343SOL    HW2 4929   4.991   6.069   2.911
 1344SOL     OW 4930   1.030   0.843   4.608
 1344SOL    HW1 4931   1.075   0.753   4.613
 1344SOL    HW2 4932   0.942   0.833   4.562
 1345SOL     OW 4933   1.821   6.791   6.256
 1345SOL    HW1 4934   1.917   6.814   6.268
 1345SOL    HW2 4935   1.806   6.757   6.163
 1346SOL     OW 4936   3.135   5.320   4.474
 1346SOL    HW1 4937   3.058   5.275   4.428
 1346SOL    HW2 4938   3.150   5.410   4.433
 1347SOL     OW 4939   1.766   0.588   6.264
 1347SOL    HW1 4940   1.700   0.616   6.194
 1347SOL    HW2 4941   1.718   0.564   6.348
 1348SOL     OW 4942   1.319   6.536   5.219
 1348SOL    HW1 4943   1.397   6.585   5.258
 1348SOL    HW2 4944   1.245   6.601   5.199
 1349SOL     OW 4945   5.133   4.115   4.245
 1349SOL    HW1 4946   5.094   4.130   4.154
 1349SOL    HW2 4947   5.232   4.130   4.241
 1350SOL     OW 4948   4.502   4.829   6.565
 1350SOL    HW1 4949   4.547   4.832   6.654
 1350SOL    HW2 4950   4.530   4.908   6.511
 1351SOL     OW 4951   0.212   1.924   6.189
 1351SOL    HW1 4952   0.159   1.962   6.264
 1351SOL    HW2 4953   0.274   1.854   6.224
 1352SOL     OW 4954   0.171   0.884   2.346
 1352SOL    HW1 4955   0.179   0.822   2.267
 1352SOL    HW2 4956   0.161   0.978   2.313
 1353SOL     OW 4957   6.442   1.303   6.661
 1353SOL    HW1 4958   6.414   1.398   6.647
 1353SOL    HW2 4959   6.363   1.243   6.646
 1354SOL     OW 4960   5.282   5.224   2.980
 1354SOL    HW1 4961   5.267   5.202   2.884
 1354SOL    HW2 4962   5.379   5.245   2.995
 1355SOL     OW 4963   4.382   3.454   5.276
 1355SOL    HW1 4964   4.317   3.501   5.216
 1355SOL    HW2 4965   4.473   3.491   5.260
 1356SOL     OW 4966   2.620   3.234   6.591
 1356SOL    HW1 4967   2.538   3.199   6.636
 1356SOL    HW2 4968   2.686   3.160   6.580
 1357SOL     OW 4969   1.261   2.562   5.585
 1357SOL    HW1 4970   1.191   2.587   5.651
 1357SOL    HW2 4971   1.249   2.466   5.559
 1358SOL     OW 4972   2.580   0.237   6.609
 1358SOL    HW1 4973   2.528   0.255   6.526
 1358SOL    HW2 4974   2.658   0.299   6.614
 1359SOL     OW 4975   6.174   4.516   0.274
 1359SOL    HW1 4976   6.085   4.532   0.231
 1359SOL    HW2 4977   6.167   4.538   0.372
 1360SOL     OW 4978   2.317   2.146   0.198
 1360SOL    HW1 4979   2.256   2.085   0.148
 1360SOL    HW2 4980   2.322   2.234   0.151
 1361SOL     OW 4981   6.416   5.223   5.199
 1361SOL    HW1 4982   6.503   5.239   5.152
 1361SOL    HW2 4983   6.431   5.223   5.298
 1362SOL     OW 4984   3.276   4.062   4.343
 1362SOL    HW1 4985   3.242   4.072   4.250
 1362SOL    HW2 4986   3.345   4.132   4.362
 1363SOL     OW 4987   0.504   6.381   3.058
 1363SOL    HW1 4988   0.506   6.398   3.156
 1363SOL    HW2 4989   0.565   6.445   3.012
 1364SOL     OW 4990   4.050   4.284   0.255
 1364SOL    HW1 4991   4.121   4.353   0.269
 1364SOL    HW2 4992   4.040   4.265   0.158
 1365SOL     OW 4993   6.078   2.499   6.520
 1365SOL    HW1 4994   5.993   2.495   6.468
 1365SOL    HW2 4995   6.098   2.593   6.546
 1366SOL     OW 4996   1.952   7.003   5.620
 1366SOL    HW1 4997   1.960   7.017   5.521
 1366SOL    HW2 4998   2.016   6.931   5.648
 1367SOL     OW 4999   2.865   1.602   2.627
 1367SOL    HW1 5000   2.777   1.620   2.585
 1367SOL    HW2 5001   2.853   1.581   2.724
 1368SOL     OW 5002   6.930   0.109   3.107
 1368SOL    HW1 5003   6.865   0.171   3.151
 1368SOL    HW2 5004   6.923   0.018   3.148
 1369SOL     OW 5005   0.258   0.420   2.141
 1369SOL    HW1 5006   0.279   0.466   2.055
 1369SOL    HW2 5007   0.343   0.405   2.192
 1370SOL     OW 5008   1.939   0.800   2.572
 1370SOL    HW1 5009   1.958   0.704   2.594
 1370SOL    HW2 5010   1.978   0.859   2.642
 1371SOL     OW 5011   3.146   0.730   6.670
 1371SOL    HW1 5012   3.134   0.646   6.617
 1371SOL    HW2 5013   3.175   0.803   6.609
 1372SOL     OW 5014   2.731   1.943   1.892
 1372SOL    HW1 5015   2.797   1.921   1.820
 1372SOL    HW2 5016   2.710   2.041   1.889
 1373SOL     OW 5017   1.812   6.120   0.366
 1373SOL    HW1 5018   1.732   6.123   0.305
 1373SOL    HW2 5019   1.890   6.161   0.320
 1374SOL     OW 5020   4.948   4.186   5.717
 1374SOL    HW1 5021   5.042   4.191   5.684
 1374SOL    HW2 5022   4.948   4.190   5.817
 1375SOL     OW 5023   0.634   3.928   4.424
 1375SOL    HW1 5024   0.597   3.969   4.507
 1375SOL    HW2 5025   0.569   3.942   4.349
 1376SOL     OW 5026   5.141   0.818   2.407
 1376SOL    HW1 5027   5.190   0.764   2.475
 1376SOL    HW2 5028   5.053   0.847   2.444
 1377SOL     OW 5029   0.568   4.386   4.864
 1377SOL    HW1 5030   0.528   4.392   4.955
 1377SOL    HW2 5031   0.611   4.473   4.841
 1378SOL     OW 5032   2.125   2.499   0.239
 1378SOL    HW1 5033   2.084   2.419   0.284
 1378SOL    HW2 5034   2.186   2.546   0.303
 1379SOL     OW 5035   3.986   6.099   1.350
 1379SOL    HW1 5036   3.945   6.010   1.330
 1379SOL    HW2 5037   4.084   6.096   1.327
 1380SOL     OW 5038   6.015   4.699   2.866
 1380SOL    HW1 5039   6.044   4.734   2.955
 1380SOL    HW2 5040   5.921   4.665   2.874
 1381SOL     OW 5041   4.677   6.949   2.571
 1381SOL    HW1 5042   4.621   0.009   2.566
 1381SOL    HW2 5043   4.770   6.969   2.542
 1382SOL     OW 5044   0.281   3.944   0.200
 1382SOL    HW1 5045   0.314   3.875   0.265
 1382SOL    HW2 5046   0.184   3.960   0.215
 1383SOL     OW 5047   2.885   0.203   0.867
 1383SOL    HW1 5048   2.972   0.233   0.827
 1383SOL    HW2 5049   2.810   0.256   0.825
 1384SOL     OW 5050   1.588   1.858   1.936
 1384SOL    HW1 5051   1.592   1.786   1.867
 1384SOL    HW2 5052   1.515   1.837   2.001
 1385SOL     OW 5053   4.956   3.646   4.266
 1385SOL    HW1 5054   5.048   3.685   4.277
 1385SOL    HW2 5055   4.887   3.716   4.286
 1386SOL     OW 5056   2.655   2.431   3.635
 1386SOL    HW1 5057   2.729   2.415   3.701
 1386SOL    HW2 5058   2.694   2.432   3.542
 1387SOL     OW 5059   3.230   0.699   3.951
 1387SOL    HW1 5060   3.185   0.788   3.960
 1387SOL    HW2 5061   3.232   0.653   4.040
 1388SOL     OW 5062   5.106   1.842   3.786
 1388SOL    HW1 5063   5.124   1.776   3.860
 1388SOL    HW2 5064   5.029   1.900   3.812
 1389SOL     OW 5065   0.124   0.233   3.775
 1389SOL    HW1 5066   0.182   0.283   3.711
 1389SOL    HW2 5067   0.141   0.135   3.766
 1390SOL     OW 5068   5.074   2.368   2.600
 1390SOL    HW1 5069   5.062   2.269   2.604
 1390SOL    HW2 5070   5.012   2.412   2.665
 1391SOL     OW 5071   5.583   1.095   5.155
 1391SOL    HW1 5072   5.586   1.166   5.225
 1391SOL    HW2 5073   5.613   1.008   5.194
 1392SOL     OW 5074   3.529   6.726   5.221
 1392SOL    HW1 5075   3.448   6.775   5.188
 1392SOL    HW2 5076   3.507   6.677   5.305
 1393SOL     OW 5077   5.303   0.662   0.056
 1393SOL    HW1 5078   5.372   0.624   7.016
 1393SOL    HW2 5079   5.226   0.598   0.062
 1394SOL     OW 5080   4.342   0.651   4.224
 1394SOL    HW1 5081   4.264   0.619   4.278
 1394SOL    HW2 5082   4.401   0.708   4.280
 1395SOL     OW 5083   0.398   5.190   2.635
 1395SOL    HW1 5084   0.457   5.128   2.582
 1395SOL    HW2 5085   0.422   5.285   2.613
 1396SOL     OW 5086   1.495   1.590   3.576
 1396SOL    HW1 5087   1.509   1.538   3.660
 1396SOL    HW2 5088   1.401   1.625   3.574
 1397SOL     OW 5089   2.265   4.754   5.427
 1397SOL    HW1 5090   2.320   4.680   5.466
 1397SOL    HW2 5091   2.288   4.765   5.331
 1398SOL     OW 5092   3.097   0.128   6.729
 1398SOL    HW1 5093   3.136   0.084   6.810
 1398SOL    HW2 5094   2.997   0.129   6.737
 1399SOL     OW 5095   4.073   0.202   7.003
 1399SOL    HW1 5096   4.006   0.175   6.934
 1399SOL    HW2 5097   4.052   0.156   0.067
 1400SOL     OW 5098   0.544   1.074   5.764
 1400SOL    HW1 5099   0.519   0.986   5.723
 1400SOL    HW2 5100   0.635   1.066   5.806
 1401SOL     OW 5101   5.052   0.060   2.045
 1401SOL    HW1 5102   4.992   0.031   2.119
 1401SOL    HW2 5103   5.121   7.012   2.028
 1402SOL     OW 5104   5.376   4.671   1.773
 1402SOL    HW1 5105   5.282   4.667   1.807
 1402SOL    HW2 5106   5.382   4.741   1.701
 1403SOL     OW 5107   3.199   3.297   6.910
 1403SOL    HW1 5108   3.260   3.296   6.989
 1403SOL    HW2 5109   3.181   3.203   6.880
 1404SOL     OW 5110   3.916   5.970   0.228
 1404SOL    HW1 5111   4.012   6.000   0.223
 1404SOL    HW2 5112   3.889   5.930   0.140
 1405SOL     OW 5113   0.911   3.554   7.001
 1405SOL    HW1 5114   0.996   3.546   0.032
 1405SOL    HW2 5115   0.886   3.650   6.991
 1406SOL     OW 5116   2.089   2.497   6.530
 1406SOL    HW1 5117   2.063   2.471   6.623
 1406SOL    HW2 5118   2.167   2.441   6.500
 1407SOL     OW 5119   6.910   2.417   1.728
 1407SOL    HW1 5120   6.970   2.460   1.660
 1407SOL    HW2 5121   6.965   2.359   1.789
 1408SOL     OW 5122   5.927   6.491   0.313
 1408SOL    HW1 5123   5.892   6.566   0.256
 1408SOL    HW2 5124   5.870   6.410   0.301
 1409SOL     OW 5125   6.178   2.089   5.882
 1409SOL    HW1 5126   6.094   2.091   5.937
 1409SOL    HW2 5127   6.250   2.043   5.934
 1410SOL     OW 5128   2.997   0.571   0.486
 1410SOL    HW1 5129   2.951   0.483   0.482
 1410SOL    HW2 5130   3.091   0.559   0.519
 1411SOL     OW 5131   3.934   6.185   6.918
 1411SOL    HW1 5132   3.934   6.242   6.836
 1411SOL    HW2 5133   3.983   6.232   6.991
 1412SOL     OW 5134   2.327   1.547   0.398
 1412SOL    HW1 5135   2.319   1.642   0.427
 1412SOL    HW2 5136   2.324   1.487   0.478
 1413SOL     OW 5137   2.395   1.548   5.043
 1413SOL    HW1 5138   2.366   1.462   5.086
 1413SOL    HW2 5139   2.494   1.544   5.024
 1414SOL     OW 5140   0.346   4.786   1.935
 1414SOL    HW1 5141   0.399   4.786   1.850
 1414SOL    HW2 5142   0.309   4.878   1.951
 1415SOL     OW 5143   3.750   1.921   5.458
 1415SOL    HW1 5144   3.746   1.880   5.366
 1415SOL    HW2 5145   3.783   2.015   5.451
 1416SOL     OW 5146   4.681   0.548   4.992
 1416SOL    HW1 5147   4.708   0.635   5.033
 1416SOL    HW2 5148   4.763   0.493   4.975
 1417SOL     OW 5149   3.620   3.619   4.187
 1417SOL    HW1 5150   3.703   3.585   4.231
 1417SOL    HW2 5151   3.568   3.674   4.253
 1418SOL     OW 5152   3.196   3.793   5.480
 1418SOL    HW1 5153   3.201   3.839   5.391
 1418SOL    HW2 5154   3.110   3.817   5.525
 1419SOL     OW 5155   0.195   5.229   2.142
 1419SOL    HW1 5156   0.194   5.191   2.235
 1419SOL    HW2 5157   0.249   5.313   2.141
 1420SOL     OW 5158   3.081   6.364   3.638
 1420SOL    HW1 5159   3.150   6.304   3.599
 1420SOL    HW2 5160   3.047   6.426   3.568
 1421SOL     OW 5161   1.712   5.558   0.842
 1421SOL    HW1 5162   1.774   5.485   0.814
 1421SOL    HW2 5163   1.742   5.595   0.930
 1422SOL     OW 5164   1.468   3.672   6.838
 1422SOL    HW1 5165   1.523   3.735   6.782
 1422SOL    HW2 5166   1.376   3.711   6.851
 1423SOL     OW 5167   4.823   1.184   4.691
 1423SOL    HW1 5168   4.895   1.129   4.731
 1423SOL    HW2 5169   4.735   1.139   4.703
 1424SOL     OW 5170   6.346   2.766   1.094
 1424SOL    HW1 5171   6.395   2.769   1.182
 1424SOL    HW2 5172   6.378   2.840   1.035
 1425SOL     OW 5173   5.873   6.534   2.933
 1425SOL    HW1 5174   5.950   6.551   2.872
 1425SOL    HW2 5175   5.822   6.619   2.947
 1426SOL     OW 5176   3.665   1.291   0.491
 1426SOL    HW1 5177   3.737   1.342   0.539
 1426SOL    HW2 5178   3.678   1.301   0.393
 1427SOL     OW 5179   1.228   0.836   3.702
 1427SOL    HW1 5180   1.250   0.838   3.605
 1427SOL    HW2 5181   1.170   0.757   3.721
 1428SOL     OW 5182   1.827   3.929   3.810
 1428SOL    HW1 5183   1.924   3.926   3.832
 1428SOL    HW2 5184   1.812   3.991   3.733
 1429SOL     OW 5185   6.375   0.485   1.528
 1429SOL    HW1 5186   6.347   0.392   1.554
 1429SOL    HW2 5187   6.474   0.488   1.519
 1430SOL     OW 5188   2.028   4.045   4.634
 1430SOL    HW1 5189   2.020   3.960   4.582
 1430SOL    HW2 5190   1.992   4.031   4.726
 1431SOL     OW 5191   3.497   2.303   0.456
 1431SOL    HW1 5192   3.473   2.297   0.553
 1431SOL    HW2 5193   3.461   2.223   0.408
 1432SOL     OW 5194   3.889   0.386   3.028
 1432SOL    HW1 5195   3.822   0.320   2.995
 1432SOL    HW2 5196   3.860   0.479   3.003
 1433SOL     OW 5197   2.939   2.081   4.264
 1433SOL    HW1 5198   3.009   2.070   4.333
 1433SOL    HW2 5199   2.981   2.082   4.173
 1434SOL     OW 5200   5.223   3.733   0.458
 1434SOL    HW1 5201   5.245   3.642   0.422
 1434SOL    HW2 5202   5.150   3.725   0.525
 1435SOL     OW 5203   0.170   6.084   3.924
 1435SOL    HW1 5204   0.104   6.036   3.982
 1435SOL    HW2 5205   0.197   6.169   3.968
 1436SOL     OW 5206   5.422   1.176   0.319
 1436SOL    HW1 5207   5.522   1.178   0.310
 1436SOL    HW2 5208   5.394   1.242   0.388
 1437SOL     OW 5209   4.275   1.692   0.993
 1437SOL    HW1 5210   4.207   1.737   0.935
 1437SOL    HW2 5211   4.367   1.710   0.957
 1438SOL     OW 5212   2.501   6.951   2.888
 1438SOL    HW1 5213   2.458   6.894   2.958
 1438SOL    HW2 5214   2.546   6.893   2.821
 1439SOL     OW 5215   0.499   5.599   4.951
 1439SOL    HW1 5216   0.500   5.639   5.043
 1439SOL    HW2 5217   0.478   5.671   4.884
 1440SOL     OW 5218   3.397   3.256   2.335
 1440SOL    HW1 5219   3.329   3.311   2.383
 1440SOL    HW2 5220   3.455   3.208   2.401
 1441SOL     OW 5221   0.469   1.790   5.773
 1441SOL    HW1 5222   0.466   1.737   5.688
 1441SOL    HW2 5223   0.378   1.829   5.790
 1442SOL     OW 5224   5.328   5.728   0.297
 1442SOL    HW1 5225   5.385   5.650   0.322
 1442SOL    HW2 5226   5.304   5.722   0.201
 1443SOL     OW 5227   1.214   3.491   4.151
 1443SOL    HW1 5228   1.210   3.555   4.073
 1443SOL    HW2 5229   1.225   3.543   4.236
 1444SOL     OW 5230   5.231   6.774   4.364
 1444SOL    HW1 5231   5.289   6.733   4.434
 1444SOL    HW2 5232   5.270   6.758   4.274
 1445SOL     OW 5233   6.756   2.179   0.562
 1445SOL    HW1 5234   6.661   2.150   0.551
 1445SOL    HW2 5235   6.759   2.266   0.612
 1446SOL     OW 5236   3.154   5.502   2.250
 1446SOL    HW1 5237   3.120   5.577   2.306
 1446SOL    HW2 5238   3.076   5.453   2.210
 1447SOL     OW 5239   6.858   0.638   4.495
 1447SOL    HW1 5240   6.772   0.688   4.490
 1447SOL    HW2 5241   6.875   0.609   4.589
 1448SOL     OW 5242   5.305   0.767   0.774
 1448SOL    HW1 5243   5.221   0.715   0.759
 1448SOL    HW2 5244   5.291   0.863   0.748
 1449SOL     OW 5245   4.674   5.619   0.361
 1449SOL    HW1 5246   4.647   5.552   0.293
 1449SOL    HW2 5247   4.624   5.704   0.347
 1450SOL     OW 5248   5.636   1.355   3.715
 1450SOL    HW1 5249   5.596   1.348   3.624
 1450SOL    HW2 5250   5.674   1.267   3.742
 1451SOL     OW 5251   1.099   0.046   1.853
 1451SOL    HW1 5252   1.100   6.972   1.827
 1451SOL    HW2 5253   1.188   0.072   1.889
 1452SOL     OW 5254   2.327   0.499   6.189
 1452SOL    HW1 5255   2.378   0.539   6.113
 1452SOL    HW2 5256   2.232   0.485   6.162
 1453SOL     OW 5257   5.622   4.487   4.343
 1453SOL    HW1 5258   5.576   4.576   4.352
 1453SOL    HW2 5259   5.679   4.487   4.262
 1454SOL     OW 5260   5.603   3.852   0.840
 1454SOL    HW1 5261   5.512   3.813   0.849
 1454SOL    HW2 5262   5.655   3.837   0.924
 1455SOL     OW 5263   1.699   2.193   1.966
 1455SOL    HW1 5264   1.755   2.255   1.912
 1455SOL    HW2 5265   1.603   2.202   1.939
 1456SOL     OW 5266   5.463   5.354   5.145
 1456SOL    HW1 5267   5.556   5.326   5.168
 1456SOL    HW2 5268   5.403   5.275   5.148
 1457SOL     OW 5269   1.916   0.820   4.479
 1457SOL    HW1 5270   1.850   0.818   4.404
 1457SOL    HW2 5271   1.933   0.914   4.506
 1458SOL     OW 5272   0.385   5.334   6.890
 1458SOL    HW1 5273   0.432   5.259   6.845
 1458SOL    HW2 5274   0.342   5.300   6.974
 1459SOL     OW 5275   2.538   6.708   1.680
 1459SOL    HW1 5276   2.492   6.689   1.767
 1459SOL    HW2 5277   2.622   6.655   1.674
 1460SOL     OW 5278   0.418   0.188   6.938
 1460SOL    HW1 5279   0.498   0.152   6.890
 1460SOL    HW2 5280   0.353   0.224   6.872
 1461SOL     OW 5281   5.114   4.467   2.753
 1461SOL    HW1 5282   5.092   4.475   2.656
 1461SOL    HW2 5283   5.030   4.471   2.807
 1462SOL     OW 5284   5.756   0.515   4.978
 1462SOL    HW1 5285   5.782   0.429   4.934
 1462SOL    HW2 5286   5.674   0.551   4.934
 1463SOL     OW 5287   1.076   2.414   5.336
 1463SOL    HW1 5288   1.127   2.390   5.253
 1463SOL    HW2 5289   1.133   2.397   5.416
 1464SOL     OW 5290   1.014   0.934   0.959
 1464SOL    HW1 5291   0.931   0.974   0.919
 1464SOL    HW2 5292   1.086   1.004   0.962
 1465SOL     OW 5293   1.939   0.925   3.552
 1465SOL    HW1 5294   1.988   0.991   3.610
 1465SOL    HW2 5295   1.920   0.967   3.463
 1466SOL     OW 5296   5.652   5.722   4.068
 1466SOL    HW1 5297   5.552   5.722   4.064
 1466SOL    HW2 5298   5.688   5.774   3.990
 1467SOL     OW 5299   0.068   4.211   4.330
 1467SOL    HW1 5300   0.123   4.135   4.295
 1467SOL    HW2 5301   0.015   4.251   4.256
 1468SOL     OW 5302   4.740   0.347   2.951
 1468SOL    HW1 5303   4.709   0.422   3.010
 1468SOL    HW2 5304   4.713   0.259   2.992
 1469SOL     OW 5305   0.505   0.823   2.028
 1469SOL    HW1 5306   0.406   0.830   2.020
 1469SOL    HW2 5307   0.528   0.775   2.113
 1470SOL     OW 5308   6.955   0.069   2.521
 1470SOL    HW1 5309   0.027   0.043   2.541
 1470SOL    HW2 5310   6.933   0.155   2.567
 1471SOL     OW 5311   6.310   1.249   0.981
 1471SOL    HW1 5312   6.293   1.287   1.072
 1471SOL    HW2 5313   6.225   1.213   0.944
 1472SOL     OW 5314   4.958   5.257   5.216
 1472SOL    HW1 5315   4.970   5.157   5.210
 1472SOL    HW2 5316   4.883   5.285   5.157
 1473SOL     OW 5317   7.003   3.433   4.163
 1473SOL    HW1 5318   6.961   3.405   4.249
 1473SOL    HW2 5319   6.950   3.396   4.087
 1474SOL     OW 5320   4.253   5.936   2.816
 1474SOL    HW1 5321   4.238   5.998   2.739
 1474SOL    HW2 5322   4.250   5.988   2.901
 1475SOL     OW 5323   6.219   6.525   2.624
 1475SOL    HW1 5324   6.291   6.541   2.556
 1475SOL    HW2 5325   6.254   6.468   2.698
 1476SOL     OW 5326   0.724   2.517   1.702
 1476SOL    HW1 5327   0.703   2.449   1.772
 1476SOL    HW2 5328   0.801   2.484   1.646
 1477SOL     OW 5329   2.885   6.548   4.858
 1477SOL    HW1 5330   2.880   6.592   4.948
 1477SOL    HW2 5331   2.792   6.524   4.828
 1478SOL     OW 5332   0.245   3.658   1.476
 1478SOL    HW1 5333   0.149   3.629   1.477
 1478SOL    HW2 5334   0.272   3.686   1.568
 1479SOL     OW 5335   1.761   5.418   0.260
 1479SOL    HW1 5336   1.727   5.421   0.166
 1479SOL    HW2 5337   1.813   5.334   0.274
 1480SOL     OW 5338   2.888   1.127   0.215
 1480SOL    HW1 5339   2.929   1.137   0.125
 1480SOL    HW2 5340   2.823   1.202   0.231
 1481SOL     OW 5341   6.657   3.207   0.135
 1481SOL    HW1 5342   6.624   3.298   0.109
 1481SOL    HW2 5343   6.701   3.164   0.057
 1482SOL     OW 5344   6.039   0.392   6.284
 1482SOL    HW1 5345   5.943   0.399   6.314
 1482SOL    HW2 5346   6.094   0.356   6.359
 1483SOL     OW 5347   6.709   2.352   6.916
 1483SOL    HW1 5348   6.717   2.321   7.011
 1483SOL    HW2 5349   6.668   2.280   6.860
 1484SOL     OW 5350   6.251   6.902   3.440
 1484SOL    HW1 5351   6.174   6.961   3.463
 1484SOL    HW2 5352   6.223   6.839   3.367
 1485SOL     OW 5353   5.397   3.457   4.229
 1485SOL    HW1 5354   5.358   3.519   4.297
 1485SOL    HW2 5355   5.345   3.464   4.144
 1486SOL     OW 5356   4.799   2.609   1.077
 1486SOL    HW1 5357   4.751   2.558   1.148
 1486SOL    HW2 5358   4.752   2.596   0.990
 1487SOL     OW 5359   0.483   7.012   5.388
 1487SOL    HW1 5360   0.545   0.027   5.320
 1487SOL    HW2 5361   0.473   0.055   5.463
 1488SOL     OW 5362   5.097   2.317   4.753
 1488SOL    HW1 5363   5.176   2.305   4.693
 1488SOL    HW2 5364   5.025   2.367   4.705
 1489SOL     OW 5365   3.282   4.940   4.852
 1489SOL    HW1 5366   3.287   5.012   4.783
 1489SOL    HW2 5367   3.208   4.876   4.829
 1490SOL     OW 5368   2.367   2.862   0.790
 1490SOL    HW1 5369   2.451   2.910   0.764
 1490SOL    HW2 5370   2.300   2.928   0.825
 1491SOL     OW 5371   0.481   1.996   4.444
 1491SOL    HW1 5372   0.481   2.047   4.358
 1491SOL    HW2 5373   0.461   2.059   4.520
 1492SOL     OW 5374   0.333   2.121   1.883
 1492SOL    HW1 5375   0.278   2.066   1.820
 1492SOL    HW2 5376   0.389   2.061   1.939
 1493SOL     OW 5377   6.287   3.098   4.725
 1493SOL    HW1 5378   6.347   3.120   4.802
 1493SOL    HW2 5379   6.324   3.141   4.642
 1494SOL     OW 5380   5.488   1.654   4.095
 1494SOL    HW1 5381   5.544   1.615   4.168
 1494SOL    HW2 5382   5.486   1.591   4.017
 1495SOL     OW 5383   1.112   4.079   2.147
 1495SOL    HW1 5384   1.108   3.985   2.111
 1495SOL    HW2 5385   1.206   4.102   2.169
 1496SOL     OW 5386   1.220   0.510   2.293
 1496SOL    HW1 5387   1.317   0.516   2.318
 1496SOL    HW2 5388   1.187   0.600   2.266
 1497SOL     OW 5389   5.933   5.242   6.047
 1497SOL    HW1 5390   6.014   5.230   5.991
 1497SOL    HW2 5391   5.864   5.294   5.997
 1498SOL     OW 5392   3.009   5.551   0.329
 1498SOL    HW1 5393   2.972   5.458   0.328
 1498SOL    HW2 5394   3.108   5.547   0.319
 1499SOL     OW 5395   0.460   4.255   4.437
 1499SOL    HW1 5396   0.480   4.264   4.339
 1499SOL    HW2 5397   0.529   4.197   4.480
 1500SOL     OW 5398   3.567   6.879   5.640
 1500SOL    HW1 5399   3.490   6.829   5.680
 1500SOL    HW2 5400   3.651   6.825   5.651
 1501SOL     OW 5401   3.805   0.138   0.825
 1501SOL    HW1 5402   3.817   0.051   0.775
 1501SOL    HW2 5403   3.805   0.120   0.923
 1502SOL     OW 5404   0.564   0.444   5.995
 1502SOL    HW1 5405   0.572   0.344   5.999
 1502SOL    HW2 5406   0.583   0.483   6.085
 1503SOL     OW 5407   3.427   3.963   5.288
 1503SOL    HW1 5408   3.432   3.981   5.386
 1503SOL    HW2 5409   3.335   3.932   5.264
 1504SOL     OW 5410   2.728   6.664   3.449
 1504SOL    HW1 5411   2.757   6.756   3.476
 1504SOL    HW2 5412   2.631   6.653   3.469
 1505SOL     OW 5413   5.463   6.763   2.975
 1505SOL    HW1 5414   5.559   6.747   2.953
 1505SOL    HW2 5415   5.448   6.746   3.073
 1506SOL     OW 5416   0.559   6.162   3.544
 1506SOL    HW1 5417   0.534   6.252   3.580
 1506SOL    HW2 5418   0.517   6.149   3.455
 1507SOL     OW 5419   2.044   1.450   0.346
 1507SOL    HW1 5420   2.034   1.546   0.318
 1507SOL    HW2 5421   2.120   1.443   0.412
 1508SOL     OW 5422   5.024   6.363   1.234
 1508SOL    HW1 5423   4.953   6.301   1.198
 1508SOL    HW2 5424   5.004   6.382   1.330
 1509SOL     OW 5425   5.559   1.608   6.484
 1509SOL    HW1 5426   5.590   1.599   6.390
 1509SOL    HW2 5427   5.632   1.646   6.540
 1510SOL     OW 5428   6.477   1.603   2.515
 1510SOL    HW1 5429   6.467   1.506   2.492
 1510SOL    HW2 5430   6.433   1.620   2.604
 1511SOL     OW 5431   0.406   2.700   0.042
 1511SOL    HW1 5432   0.311   2.730   0.053
 1511SOL    HW2 5433   0.421   2.617   0.097
 1512SOL     OW 5434   6.301   0.923   1.964
 1512SOL    HW1 5435   6.315   0.826   1.987
 1512SOL    HW2 5436   6.382   0.975   1.991
 1513SOL     OW 5437   2.382   0.723   2.672
 1513SOL    HW1 5438   2.362   0.821   2.669
 1513SOL    HW2 5439   2.480   0.709   2.690
 1514SOL     OW 5440   4.747   1.141   5.496
 1514SOL    HW1 5441   4.838   1.183   5.489
 1514SOL    HW2 5442   4.693   1.166   5.415
 1515SOL     OW 5443   5.733   5.426   5.819
 1515SOL    HW1 5444   5.788   5.478   5.753
 1515SOL    HW2 5445   5.733   5.329   5.793
 1516SOL     OW 5446   6.444   1.420   1.648
 1516SOL    HW1 5447   6.367   1.361   1.669
 1516SOL    HW2 5448   6.516   1.408   1.716
 1517SOL     OW 5449   3.261   5.210   2.357
 1517SOL    HW1 5450   3.268   5.203   2.258
 1517SOL    HW2 5451   3.304   5.295   2.388
 1518SOL     OW 5452   0.449   4.777   0.987
 1518SOL    HW1 5453   0.524   4.795   0.924
 1518SOL    HW2 5454   0.483   4.774   1.081
 1519SOL     OW 5455   0.307   4.010   1.077
 1519SOL    HW1 5456   0.332   3.919   1.108
 1519SOL    HW2 5457   0.235   4.047   1.136
 1520SOL     OW 5458   0.957   3.597   2.451
 1520SOL    HW1 5459   0.985   3.621   2.544
 1520SOL    HW2 5460   0.885   3.527   2.455
 1521SOL     OW 5461   2.505   5.037   5.434
 1521SOL    HW1 5462   2.550   5.069   5.518
 1521SOL    HW2 5463   2.574   5.008   5.368
 1522SOL     OW 5464   1.272   1.989   6.042
 1522SOL    HW1 5465   1.228   2.073   6.073
 1522SOL    HW2 5466   1.275   1.989   5.942
 1523SOL     OW 5467   5.834   0.981   1.443
 1523SOL    HW1 5468   5.805   0.887   1.427
 1523SOL    HW2 5469   5.796   1.041   1.372
 1524SOL     OW 5470   0.600   1.456   0.894
 1524SOL    HW1 5471   0.681   1.436   0.949
 1524SOL    HW2 5472   0.518   1.455   0.952
 1525SOL     OW 5473   5.252   1.539   5.225
 1525SOL    HW1 5474   5.244   1.555   5.323
 1525SOL    HW2 5475   5.345   1.510   5.203
 1526SOL     OW 5476   5.942   2.089   0.250
 1526SOL    HW1 5477   5.935   2.004   0.302
 1526SOL    HW2 5478   5.867   2.094   0.184
 1527SOL     OW 5479   2.885   1.029   5.761
 1527SOL    HW1 5480   2.834   0.990   5.838
 1527SOL    HW2 5481   2.876   1.128   5.761
 1528SOL     OW 5482   4.915   5.455   3.460
 1528SOL    HW1 5483   4.885   5.436   3.554
 1528SOL    HW2 5484   5.009   5.490   3.462
 1529SOL     OW 5485   1.972   6.954   5.289
 1529SOL    HW1 5486   2.002   0.026   5.307
 1529SOL    HW2 5487   1.892   6.956   5.230
 1530SOL     OW 5488   3.017   6.577   1.252
 1530SOL    HW1 5489   2.942   6.642   1.262
 1530SOL    HW2 5490   2.999   6.518   1.173
 1531SOL     OW 5491   5.985   1.256   6.351
 1531SOL    HW1 5492   5.978   1.189   6.277
 1531SOL    HW2 5493   6.034   1.216   6.428
 1532SOL     OW 5494   2.709   2.026   5.196
 1532SOL    HW1 5495   2.775   2.043   5.270
 1532SOL    HW2 5496   2.737   2.077   5.115
 1533SOL     OW 5497   4.703   2.775   0.066
 1533SOL    HW1 5498   4.696   2.816   6.997
 1533SOL    HW2 5499   4.778   2.817   0.116
 1534SOL     OW 5500   0.084   7.008   0.383
 1534SOL    HW1 5501   0.005   0.003   0.441
 1534SOL    HW2 5502   0.129   0.073   0.363
 1535SOL     OW 5503   5.096   4.594   4.289
 1535SOL    HW1 5504   5.139   4.531   4.354
 1535SOL    HW2 5505   5.151   4.677   4.283
 1536SOL     OW 5506   3.378   6.080   3.107
 1536SOL    HW1 5507   3.462   6.106   3.060
 1536SOL    HW2 5508   3.349   6.155   3.166
 1537SOL     OW 5509   2.408   6.016   4.218
 1537SOL    HW1 5510   2.400   6.077   4.297
 1537SOL    HW2 5511   2.393   5.922   4.248
 1538SOL     OW 5512   3.284   6.549   0.325
 1538SOL    HW1 5513   3.332   6.561   0.239
 1538SOL    HW2 5514   3.269   6.637   0.369
 1539SOL     OW 5515   2.308   6.460   2.015
 1539SOL    HW1 5516   2.269   6.428   1.929
 1539SOL    HW2 5517   2.376   6.531   1.998
 1540SOL     OW 5518   6.175   0.245   4.932
 1540SOL    HW1 5519   6.186   0.336   4.893
 1540SOL    HW2 5520   6.178   0.177   4.858
 1541SOL     OW 5521   5.480   1.863   2.234
 1541SOL    HW1 5522   5.565   1.811   2.241
 1541SOL    HW2 5523   5.408   1.804   2.197
 1542SOL     OW 5524   6.808   5.697   1.280
 1542SOL    HW1 5525   6.827   5.752   1.362
 1542SOL    HW2 5526   6.726   5.733   1.236
 1543SOL     OW 5527   3.046   3.384   3.553
 1543SOL    HW1 5528   3.056   3.400   3.455
 1543SOL    HW2 5529   3.057   3.287   3.573
 1544SOL     OW 5530   3.589   3.281   1.850
 1544SOL    HW1 5531   3.683   3.277   1.815
 1544SOL    HW2 5532   3.546   3.366   1.819
 1545SOL     OW 5533   0.518   6.709   5.267
 1545SOL    HW1 5534   0.484   6.792   5.313
 1545SOL    HW2 5535   0.605   6.729   5.222
 1546SOL     OW 5536   7.022   6.275   6.890
 1546SOL    HW1 5537   6.923   6.286   6.894
 1546SOL    HW2 5538   0.043   6.365   6.880
 1547SOL     OW 5539   3.026   6.164   0.189
 1547SOL    HW1 5540   3.107   6.220   0.208
 1547SOL    HW2 5541   3.052   6.085   0.133
 1548SOL     OW 5542   6.678   3.960   3.299
 1548SOL    HW1 5543   6.636   4.051   3.303
 1548SOL    HW2 5544   6.612   3.892   3.330
 1549SOL     OW 5545   6.847   2.175   0.910
 1549SOL    HW1 5546   6.904   2.130   0.841
 1549SOL    HW2 5547   6.795   2.106   0.960
 1550SOL     OW 5548   2.431   5.085   2.316
 1550SOL    HW1 5549   2.521   5.083   2.360
 1550SOL    HW2 5550   2.406   4.993   2.286
 1551SOL     OW 5551   0.711   2.793   1.639
 1551SOL    HW1 5552   0.688   2.699   1.662
 1551SOL    HW2 5553   0.809   2.799   1.619
 1552SOL     OW 5554   1.693   6.694   2.153
 1552SOL    HW1 5555   1.788   6.725   2.157
 1552SOL    HW2 5556   1.634   6.764   2.192
 1553SOL     OW 5557   5.979   1.423   5.705
 1553SOL    HW1 5558   6.049   1.380   5.761
 1553SOL    HW2 5559   5.888   1.395   5.737
 1554SOL     OW 5560   2.628   2.992   0.730
 1554SOL    HW1 5561   2.670   3.063   0.673
 1554SOL    HW2 5562   2.676   2.906   0.716
 1555SOL     OW 5563   4.385   1.452   1.047
 1555SOL    HW1 5564   4.342   1.540   1.027
 1555SOL    HW2 5565   4.467   1.467   1.103
 1556SOL     OW 5566   3.372   2.489   0.305
 1556SOL    HW1 5567   3.409   2.428   0.375
 1556SOL    HW2 5568   3.305   2.439   0.250
 1557SOL     OW 5569   1.563   2.773   1.153
 1557SOL    HW1 5570   1.662   2.780   1.155
 1557SOL    HW2 5571   1.523   2.865   1.143
 1558SOL     OW 5572   5.017   2.729   0.004
 1558SOL    HW1 5573   4.966   2.722   0.090
 1558SOL    HW2 5574   5.010   2.642   6.976
 1559SOL     OW 5575   2.618   6.178   3.624
 1559SOL    HW1 5576   2.715   6.175   3.645
 1559SOL    HW2 5577   2.602   6.235   3.544
 1560SOL     OW 5578   4.401   2.955   1.380
 1560SOL    HW1 5579   4.398   3.031   1.444
 1560SOL    HW2 5580   4.351   2.877   1.419
 1561SOL     OW 5581   6.127   6.344   0.125
 1561SOL    HW1 5582   6.175   6.295   0.052
 1561SOL    HW2 5583   6.139   6.443   0.113
 1562SOL     OW 5584   3.042   6.897   2.703
 1562SOL    HW1 5585   2.984   6.870   2.626
 1562SOL    HW2 5586   3.123   6.837   2.706
 1563SOL     OW 5587   2.054   3.853   3.941
 1563SOL    HW1 5588   2.064   3.926   4.009
 1563SOL    HW2 5589   2.098   3.770   3.975
 1564SOL     OW 5590   1.247   1.911   2.559
 1564SOL    HW1 5591   1.341   1.944   2.559
 1564SOL    HW2 5592   1.209   1.918   2.652
 1565SOL     OW 5593   5.101   1.744   5.615
 1565SOL    HW1 5594   5.151   1.660   5.596
 1565SOL    HW2 5595   5.083   1.792   5.529
 1566SOL     OW 5596   0.827   3.666   3.792
 1566SOL    HW1 5597   0.752   3.620   3.840
 1566SOL    HW2 5598   0.806   3.764   3.783
 1567SOL     OW 5599   5.268   0.685   4.867
 1567SOL    HW1 5600   5.337   0.672   4.796
 1567SOL    HW2 5601   5.178   0.697   4.824
 1568SOL     OW 5602   2.437   4.192   0.621
 1568SOL    HW1 5603   2.405   4.158   0.709
 1568SOL    HW2 5604   2.529   4.229   0.631
 1569SOL     OW 5605   2.216   0.987   2.243
 1569SOL    HW1 5606   2.307   0.948   2.230
 1569SOL    HW2 5607   2.191   0.979   2.340
 1570SOL     OW 5608   2.859   6.237   6.252
 1570SOL    HW1 5609   2.846   6.160   6.189
 1570SOL    HW2 5610   2.814   6.216   6.339
 1571SOL     OW 5611   0.194   1.368   4.593
 1571SOL    HW1 5612   0.175   1.336   4.501
 1571SOL    HW2 5613   0.241   1.456   4.588
 1572SOL     OW 5614   2.086   6.552   3.456
 1572SOL    HW1 5615   2.123   6.460   3.465
 1572SOL    HW2 5616   1.988   6.552   3.477
 1573SOL     OW 5617   5.502   6.212   0.478
 1573SOL    HW1 5618   5.491   6.113   0.485
 1573SOL    HW2 5619   5.598   6.233   0.457
 1574SOL     OW 5620   0.331   4.002   3.271
 1574SOL    HW1 5621   0.409   4.009   3.209
 1574SOL    HW2 5622   0.302   3.906   3.278
 1575SOL     OW 5623   7.002   2.280   0.489
 1575SOL    HW1 5624   6.910   2.243   0.479
 1575SOL    HW2 5625   0.011   2.315   0.401
 1576SOL     OW 5626   1.991   6.135   2.453
 1576SOL    HW1 5627   1.959   6.041   2.452
 1576SOL    HW2 5628   1.986   6.173   2.361
 1577SOL     OW 5629   4.007   5.958   4.128
 1577SOL    HW1 5630   3.907   5.952   4.123
 1577SOL    HW2 5631   4.037   5.939   4.221
 1578SOL     OW 5632   5.361   1.899   1.627
 1578SOL    HW1 5633   5.410   1.974   1.583
 1578SOL    HW2 5634   5.262   1.913   1.617
 1579SOL     OW 5635   1.348   3.055   2.143
 1579SOL    HW1 5636   1.344   3.155   2.137
 1579SOL    HW2 5637   1.439   3.024   2.115
 1580SOL     OW 5638   3.359   4.155   3.789
 1580SOL    HW1 5639   3.374   4.185   3.695
 1580SOL    HW2 5640   3.444   4.166   3.841
 1581SOL     OW 5641   4.666   4.786   5.341
 1581SOL    HW1 5642   4.721   4.775   5.258
 1581SOL    HW2 5643   4.691   4.715   5.406
 1582SOL     OW 5644   4.075   6.208   4.708
 1582SOL    HW1 5645   3.975   6.215   4.706
 1582SOL    HW2 5646   4.103   6.141   4.776
 1583SOL     OW 5647   0.939   5.417   4.986
 1583SOL    HW1 5648   1.010   5.352   4.960
 1583SOL    HW2 5649   0.873   5.371   5.046
 1584SOL     OW 5650   0.017   3.734   6.974
 1584SOL    HW1 5651   0.082   3.659   6.964
 1584SOL    HW2 5652   6.962   3.705   0.007
 1585SOL     OW 5653   5.043   6.402   4.441
 1585SOL    HW1 5654   4.952   6.363   4.430
 1585SOL    HW2 5655   5.037   6.486   4.497
 1586SOL     OW 5656   2.221   5.740   3.750
 1586SOL    HW1 5657   2.239   5.781   3.661
 1586SOL    HW2 5658   2.170   5.806   3.807
 1587SOL     OW 5659   3.807   6.414   0.057
 1587SOL    HW1 5660   3.755   6.344   0.007
 1587SOL    HW2 5661   3.869   6.369   0.122
 1588SOL     OW 5662   6.325   2.313   3.906
 1588SOL    HW1 5663   6.237   2.266   3.917
 1588SOL    HW2 5664   6.396   2.259   3.952
 1589SOL     OW 5665   0.024   1.641   4.214
 1589SOL    HW1 5666   0.124   1.647   4.209
 1589SOL    HW2 5667   7.020   1.574   4.283
 1590SOL     OW 5668   5.308   0.703   3.942
 1590SOL    HW1 5669   5.378   0.728   4.009
 1590SOL    HW2 5670   5.325   0.752   3.857
 1591SOL     OW 5671   0.292   5.687   0.490
 1591SOL    HW1 5672   0.285   5.592   0.458
 1591SOL    HW2 5673   0.270   5.691   0.587
 1592SOL     OW 5674   6.864   3.866   4.996
 1592SOL    HW1 5675   6.836   3.861   4.900
 1592SOL    HW2 5676   6.794   3.825   5.054
 1593SOL     OW 5677   3.598   5.867   1.508
 1593SOL    HW1 5678   3.630   5.961   1.513
 1593SOL    HW2 5679   3.515   5.857   1.564
 1594SOL     OW 5680   5.084   1.287   2.823
 1594SOL    HW1 5681   5.034   1.372   2.804
 1594SOL    HW2 5682   5.151   1.271   2.751
 1595SOL     OW 5683   0.232   3.566   6.921
 1595SOL    HW1 5684   0.304   3.514   6.966
 1595SOL    HW2 5685   0.242   3.663   6.942
 1596SOL     OW 5686   5.160   4.338   4.433
 1596SOL    HW1 5687   5.132   4.274   4.361
 1596SOL    HW2 5688   5.238   4.299   4.483
 1597SOL     OW 5689   4.157   6.597   1.121
 1597SOL    HW1 5690   4.073   6.585   1.067
 1597SOL    HW2 5691   4.153   6.541   1.203
 1598SOL     OW 5692   1.077   4.911   5.720
 1598SOL    HW1 5693   1.048   4.822   5.686
 1598SOL    HW2 5694   1.008   4.980   5.698
 1599SOL     OW 5695   4.770   5.431   3.741
 1599SOL    HW1 5696   4.704   5.355   3.734
 1599SOL    HW2 5697   4.829   5.415   3.820
 1600SOL     OW 5698   4.467   0.662   1.361
 1600SOL    HW1 5699   4.434   0.628   1.273
 1600SOL    HW2 5700   4.414   0.743   1.387
 1601SOL     OW 5701   6.588   0.732   4.824
 1601SOL    HW1 5702   6.567   0.673   4.902
 1601SOL    HW2 5703   6.525   0.810   4.824
 1602SOL     OW 5704   4.288   5.530   3.083
 1602SOL    HW1 5705   4.382   5.554   3.063
 1602SOL    HW2 5706   4.273   5.433   3.060
 1603SOL     OW 5707   3.225   4.857   1.983
 1603SOL    HW1 5708   3.307   4.894   2.027
 1603SOL    HW2 5709   3.251   4.811   1.898
 1604SOL     OW 5710   4.353   5.308   2.366
 1604SOL    HW1 5711   4.356   5.370   2.287
 1604SOL    HW2 5712   4.447   5.285   2.393
 1605SOL     OW 5713   4.827   4.695   0.683
 1605SOL    HW1 5714   4.907   4.655   0.727
 1605SOL    HW2 5715   4.804   4.781   0.728
 1606SOL     OW 5716   3.892   5.978   5.209
 1606SOL    HW1 5717   3.959   6.034   5.258
 1606SOL    HW2 5718   3.915   5.977   5.112
 1607SOL     OW 5719   4.949   3.701   3.967
 1607SOL    HW1 5720   4.983   3.663   4.054
 1607SOL    HW2 5721   4.923   3.626   3.906
 1608SOL     OW 5722   6.052   3.198   3.598
 1608SOL    HW1 5723   5.963   3.232   3.569
 1608SOL    HW2 5724   6.061   3.102   3.572
 1609SOL     OW 5725   2.418   0.338   0.774
 1609SOL    HW1 5726   2.453   0.430   0.792
 1609SOL    HW2 5727   2.318   0.338   0.783
 1610SOL     OW 5728   5.591   6.309   0.874
 1610SOL    HW1 5729   5.636   6.344   0.792
 1610SOL    HW2 5730   5.591   6.209   0.872
 1611SOL     OW 5731   0.549   4.032   6.760
 1611SOL    HW1 5732   0.614   3.960   6.738
 1611SOL    HW2 5733   0.547   4.046   6.859
 1612SOL     OW 5734   4.953   0.978   1.707
 1612SOL    HW1 5735   5.037   0.924   1.717
 1612SOL    HW2 5736   4.900   0.973   1.792
 1613SOL     OW 5737   7.000   6.037   2.357
 1613SOL    HW1 5738   6.940   5.990   2.421
 1613SOL    HW2 5739   0.009   5.973   2.287
 1614SOL     OW 5740   6.297   1.966   5.297
 1614SOL    HW1 5741   6.237   2.044   5.277
 1614SOL    HW2 5742   6.342   1.937   5.212
 1615SOL     OW 5743   6.956   3.069   5.158
 1615SOL    HW1 5744   0.032   3.061   5.137
 1615SOL    HW2 5745   6.944   3.126   5.239
 1616SOL     OW 5746   0.746   1.368   3.145
 1616SOL    HW1 5747   0.818   1.402   3.206
 1616SOL    HW2 5748   0.696   1.294   3.190
 1617SOL     OW 5749   6.663   5.793   4.168
 1617SOL    HW1 5750   6.691   5.870   4.111
 1617SOL    HW2 5751   6.729   5.780   4.242
 1618SOL     OW 5752   3.110   5.479   3.097
 1618SOL    HW1 5753   3.094   5.380   3.096
 1618SOL    HW2 5754   3.045   5.522   3.160
 1619SOL     OW 5755   0.796   3.733   6.337
 1619SOL    HW1 5756   0.878   3.733   6.279
 1619SOL    HW2 5757   0.744   3.817   6.320
 1620SOL     OW 5758   2.910   6.926   4.705
 1620SOL    HW1 5759   2.948   6.975   4.627
 1620SOL    HW2 5760   2.814   6.952   4.717
 1621SOL     OW 5761   5.467   4.719   0.945
 1621SOL    HW1 5762   5.453   4.650   1.016
 1621SOL    HW2 5763   5.390   4.783   0.946
 1622SOL     OW 5764   6.453   3.343   3.179
 1622SOL    HW1 5765   6.440   3.305   3.087
 1622SOL    HW2 5766   6.507   3.427   3.173
 1623SOL     OW 5767   0.701   2.485   3.974
 1623SOL    HW1 5768   0.622   2.450   3.924
 1623SOL    HW2 5769   0.785   2.448   3.934
 1624SOL     OW 5770   4.217   3.107   0.896
 1624SOL    HW1 5771   4.187   3.090   0.802
 1624SOL    HW2 5772   4.225   3.020   0.944
 1625SOL     OW 5773   0.758   6.174   0.619
 1625SOL    HW1 5774   0.845   6.224   0.621
 1625SOL    HW2 5775   0.766   6.096   0.557
 1626SOL     OW 5776   2.519   1.828   2.498
 1626SOL    HW1 5777   2.488   1.810   2.405
 1626SOL    HW2 5778   2.509   1.745   2.554
 1627SOL     OW 5779   4.308   1.776   6.316
 1627SOL    HW1 5780   4.319   1.737   6.408
 1627SOL    HW2 5781   4.391   1.759   6.263
 1628SOL     OW 5782   5.434   5.941   1.133
 1628SOL    HW1 5783   5.398   5.929   1.041
 1628SOL    HW2 5784   5.411   5.862   1.189
 1629SOL     OW 5785   1.816   6.726   3.534
 1629SOL    HW1 5786   1.744   6.748   3.600
 1629SOL    HW2 5787   1.831   6.805   3.474
 1630SOL     OW 5788   0.584   4.590   6.329
 1630SOL    HW1 5789   0.497   4.598   6.378
 1630SOL    HW2 5790   0.648   4.659   6.362
 1631SOL     OW 5791   4.833   3.834   0.136
 1631SOL    HW1 5792   4.804   3.927   0.160
 1631SOL    HW2 5793   4.932   3.833   0.122
 1632SOL     OW 5794   6.051   6.360   2.205
 1632SOL    HW1 5795   6.111   6.325   2.134
 1632SOL    HW2 5796   6.062   6.306   2.288
 1633SOL     OW 5797   6.388   3.906   4.505
 1633SOL    HW1 5798   6.355   3.820   4.543
 1633SOL    HW2 5799   6.341   3.925   4.419
 1634SOL     OW 5800   1.442   3.951   6.547
 1634SOL    HW1 5801   1.370   3.887   6.575
 1634SOL    HW2 5802   1.400   4.036   6.515
 1635SOL     OW 5803   2.540   0.178   3.812
 1635SOL    HW1 5804   2.583   0.146   3.896
 1635SOL    HW2 5805   2.451   0.133   3.800
 1636SOL     OW 5806   0.418   6.188   1.546
 1636SOL    HW1 5807   0.368   6.274   1.532
 1636SOL    HW2 5808   0.353   6.112   1.553
 1637SOL     OW 5809   1.170   1.343   2.186
 1637SOL    HW1 5810   1.100   1.286   2.143
 1637SOL    HW2 5811   1.142   1.365   2.279
 1638SOL     OW 5812   5.579   2.491   3.195
 1638SOL    HW1 5813   5.602   2.556   3.122
 1638SOL    HW2 5814   5.618   2.522   3.281
 1639SOL     OW 5815   4.678   2.398   1.194
 1639SOL    HW1 5816   4.768   2.356   1.203
 1639SOL    HW2 5817   4.624   2.349   1.126
 1640SOL     OW 5818   6.613   0.888   6.908
 1640SOL    HW1 5819   6.579   0.966   6.961
 1640SOL    HW2 5820   6.538   0.851   6.853
 1641SOL     OW 5821   5.692   0.970   2.864
 1641SOL    HW1 5822   5.762   0.955   2.934
 1641SOL    HW2 5823   5.617   1.023   2.904
 1642SOL     OW 5824   6.959   3.216   5.629
 1642SOL    HW1 5825   6.915   3.297   5.667
 1642SOL    HW2 5826   6.921   3.196   5.539
 1643SOL     OW 5827   2.556   4.986   3.816
 1643SOL    HW1 5828   2.569   4.921   3.741
 1643SOL    HW2 5829   2.463   4.975   3.853
 1644SOL     OW 5830   6.103   1.788   1.707
 1644SOL    HW1 5831   6.018   1.751   1.670
 1644SOL    HW2 5832   6.098   1.790   1.807
 1645SOL     OW 5833   2.409   0.791   4.868
 1645SOL    HW1 5834   2.410   0.831   4.960
 1645SOL    HW2 5835   2.370   0.857   4.804
 1646SOL     OW 5836   0.301   5.378   1.690
 1646SOL    HW1 5837   0.368   5.356   1.619
 1646SOL    HW2 5838   0.342   5.438   1.757
 1647SOL     OW 5839   6.166   3.383   4.680
 1647SOL    HW1 5840   6.225   3.354   4.755
 1647SOL    HW2 5841   6.154   3.308   4.615
 1648SOL     OW 5842   5.398   6.358   1.628
 1648SOL    HW1 5843   5.430   6.331   1.718
 1648SOL    HW2 5844   5.320   6.301   1.602
 1649SOL     OW 5845   3.713   1.009   2.685
 1649SOL    HW1 5846   3.732   1.063   2.767
 1649SOL    HW2 5847   3.630   0.955   2.699
 1650SOL     OW 5848   2.533   2.560   4.924
 1650SOL    HW1 5849   2.565   2.557   4.830
 1650SOL    HW2 5850   2.610   2.574   4.986
 1651SOL     OW 5851   1.115   1.925   3.705
 1651SOL    HW1 5852   1.050   1.954   3.634
 1651SOL    HW2 5853   1.075   1.851   3.758
 1652SOL     OW 5854   6.525   4.051   1.652
 1652SOL    HW1 5855   6.533   4.118   1.725
 1652SOL    HW2 5856   6.572   4.086   1.570
 1653SOL     OW 5857   6.750   4.543   1.912
 1653SOL    HW1 5858   6.799   4.586   1.837
 1653SOL    HW2 5859   6.789   4.453   1.931
 1654SOL     OW 5860   0.402   3.975   1.753
 1654SOL    HW1 5861   0.346   3.984   1.836
 1654SOL    HW2 5862   0.341   3.963   1.675
 1655SOL     OW 5863   0.145   0.824   6.170
 1655SOL    HW1 5864   0.215   0.757   6.144
 1655SOL    HW2 5865   0.084   0.841   6.093
 1656SOL     OW 5866   2.159   3.900   2.673
 1656SOL    HW1 5867   2.200   3.988   2.646
 1656SOL    HW2 5868   2.192   3.876   2.765
 1657SOL     OW 5869   0.477   0.861   6.256
 1657SOL    HW1 5870   0.511   0.931   6.319
 1657SOL    HW2 5871   0.461   0.901   6.166
 1658SOL     OW 5872   5.325   6.669   5.799
 1658SOL    HW1 5873   5.268   6.733   5.850
 1658SOL    HW2 5874   5.278   6.642   5.715
 1659SOL     OW 5875   3.619   0.296   6.154
 1659SOL    HW1 5876   3.542   0.285   6.217
 1659SOL    HW2 5877   3.584   0.318   6.063
 1660SOL     OW 5878   2.567   0.854   1.913
 1660SOL    HW1 5879   2.531   0.933   1.863
 1660SOL    HW2 5880   2.565   0.872   2.011
 1661SOL     OW 5881   4.734   4.672   3.361
 1661SOL    HW1 5882   4.680   4.621   3.293
 1661SOL    HW2 5883   4.817   4.707   3.318
 1662SOL     OW 5884   0.260   1.937   3.545
 1662SOL    HW1 5885   0.242   2.027   3.585
 1662SOL    HW2 5886   0.176   1.903   3.503
 1663SOL     OW 5887   5.355   3.719   0.943
 1663SOL    HW1 5888   5.317   3.692   1.031
 1663SOL    HW2 5889   5.316   3.806   0.914
 1664SOL     OW 5890   1.103   1.479   5.951
 1664SOL    HW1 5891   1.195   1.440   5.943
 1664SOL    HW2 5892   1.105   1.575   5.923
 1665SOL     OW 5893   2.087   3.898   6.661
 1665SOL    HW1 5894   2.053   3.806   6.640
 1665SOL    HW2 5895   2.161   3.921   6.599
 1666SOL     OW 5896   5.532   6.230   5.709
 1666SOL    HW1 5897   5.491   6.184   5.630
 1666SOL    HW2 5898   5.617   6.185   5.734
 1667SOL     OW 5899   6.877   5.305   0.948
 1667SOL    HW1 5900   6.782   5.331   0.968
 1667SOL    HW2 5901   6.929   5.301   1.033
 1668SOL     OW 5902   6.147   3.432   2.086
 1668SOL    HW1 5903   6.195   3.406   2.002
 1668SOL    HW2 5904   6.049   3.441   2.067
 1669SOL     OW 5905   6.274   2.685   5.393
 1669SOL    HW1 5906   6.261   2.781   5.416
 1669SOL    HW2 5907   6.328   2.678   5.309
 1670SOL     OW 5908   2.864   4.321   5.309
 1670SOL    HW1 5909   2.854   4.406   5.256
 1670SOL    HW2 5910   2.946   4.272   5.278
 1671SOL     OW 5911   5.554   2.107   0.798
 1671SOL    HW1 5912   5.608   2.187   0.823
 1671SOL    HW2 5913   5.548   2.100   0.699
 1672SOL     OW 5914   0.326   2.056   1.511
 1672SOL    HW1 5915   0.365   2.148   1.504
 1672SOL    HW2 5916   0.279   2.046   1.598
 1673SOL     OW 5917   1.755   0.595   5.037
 1673SOL    HW1 5918   1.683   0.646   4.991
 1673SOL    HW2 5919   1.717   0.549   5.117
 1674SOL     OW 5920   5.030   2.510   3.588
 1674SOL    HW1 5921   5.115   2.489   3.539
 1674SOL    HW2 5922   4.953   2.465   3.542
 1675SOL     OW 5923   5.394   0.657   2.163
 1675SOL    HW1 5924   5.407   0.575   2.218
 1675SOL    HW2 5925   5.401   0.738   2.222
 1676SOL     OW 5926   1.182   2.364   3.652
 1676SOL    HW1 5927   1.147   2.390   3.562
 1676SOL    HW2 5928   1.269   2.412   3.668
 1677SOL     OW 5929   3.181   3.961   2.657
 1677SOL    HW1 5930   3.212   3.883   2.712
 1677SOL    HW2 5931   3.083   3.953   2.642
 1678SOL     OW 5932   6.856   6.580   6.827
 1678SOL    HW1 5933   6.936   6.602   6.771
 1678SOL    HW2 5934   6.834   6.658   6.885
 1679SOL     OW 5935   5.990   1.749   0.587
 1679SOL    HW1 5936   5.927   1.767   0.512
 1679SOL    HW2 5937   5.938   1.724   0.669
 1680SOL     OW 5938   6.062   2.609   2.771
 1680SOL    HW1 5939   6.091   2.700   2.742
 1680SOL    HW2 5940   6.108   2.539   2.715
 1681SOL     OW 5941   3.342   6.224   4.892
 1681SOL    HW1 5942   3.269   6.292   4.901
 1681SOL    HW2 5943   3.362   6.211   4.795
 1682SOL     OW 5944   4.284   1.156   4.665
 1682SOL    HW1 5945   4.289   1.219   4.587
 1682SOL    HW2 5946   4.229   1.198   4.737
 1683SOL     OW 5947   1.145   2.555   3.041
 1683SOL    HW1 5948   1.196   2.554   3.127
 1683SOL    HW2 5949   1.209   2.556   2.964
 1684SOL     OW 5950   2.637   5.272   1.291
 1684SOL    HW1 5951   2.638   5.292   1.193
 1684SOL    HW2 5952   2.684   5.184   1.307
 1685SOL     OW 5953   0.385   1.788   5.504
 1685SOL    HW1 5954   0.297   1.770   5.548
 1685SOL    HW2 5955   0.390   1.737   5.418
 1686SOL     OW 5956   3.568   5.167   1.944
 1686SOL    HW1 5957   3.618   5.251   1.922
 1686SOL    HW2 5958   3.616   5.088   1.907
 1687SOL     OW 5959   4.754   3.980   0.467
 1687SOL    HW1 5960   4.687   3.910   0.440
 1687SOL    HW2 5961   4.785   3.961   0.560
 1688SOL     OW 5962   2.926   0.405   3.192
 1688SOL    HW1 5963   3.023   0.382   3.204
 1688SOL    HW2 5964   2.917   0.502   3.172
 1689SOL     OW 5965   4.140   0.325   1.829
 1689SOL    HW1 5966   4.135   0.288   1.736
 1689SOL    HW2 5967   4.059   0.380   1.848
 1690SOL     OW 5968   6.911   5.157   4.153
 1690SOL    HW1 5969   6.903   5.064   4.115
 1690SOL    HW2 5970   6.994   5.163   4.207
 1691SOL     OW 5971   4.024   2.677   5.339
 1691SOL    HW1 5972   4.046   2.774   5.354
 1691SOL    HW2 5973   4.079   2.642   5.263
 1692SOL     OW 5974   6.173   5.546   2.521
 1692SOL    HW1 5975   6.095   5.483   2.516
 1692SOL    HW2 5976   6.257   5.496   2.501
 1693SOL     OW 5977   5.481   6.901   5.386
 1693SOL    HW1 5978   5.565   6.882   5.336
 1693SOL    HW2 5979   5.430   6.816   5.401
 1694SOL     OW 5980   4.855   1.143   6.478
 1694SOL    HW1 5981   4.810   1.087   6.548
 1694SOL    HW2 5982   4.894   1.084   6.408
 1695SOL     OW 5983   4.555   0.242   4.899
 1695SOL    HW1 5984   4.573   0.206   4.990
 1695SOL    HW2 5985   4.592   0.179   4.830
 1696SOL     OW 5986   5.230   7.007   0.925
 1696SOL    HW1 5987   5.234   6.909   0.945
 1696SOL    HW2 5988   5.323   0.022   0.921
 1697SOL     OW 5989   4.373   3.070   1.622
 1697SOL    HW1 5990   4.431   3.008   1.675
 1697SOL    HW2 5991   4.338   3.141   1.682
 1698SOL     OW 5992   4.216   1.353   1.686
 1698SOL    HW1 5993   4.288   1.422   1.694
 1698SOL    HW2 5994   4.169   1.343   1.774
 1699SOL     OW 5995   1.938   0.910   1.373
 1699SOL    HW1 5996   2.006   0.945   1.309
 1699SOL    HW2 5997   1.957   0.813   1.392
 1700SOL     OW 5998   5.345   3.378   2.738
 1700SOL    HW1 5999   5.246   3.363   2.736
 1700SOL    HW2 6000   5.370   3.448   2.672
 1701SOL     OW 6001   0.968   5.815   5.474
 1701SOL    HW1 6002   0.881   5.849   5.510
 1701SOL    HW2 6003   0.950   5.755   5.396
 1702SOL     OW 6004   1.869   2.319   6.635
 1702SOL    HW1 6005   1.877   2.302   6.537
 1702SOL    HW2 6006   1.775   2.343   6.658
 1703SOL     OW 6007   1.533   2.061   2.150
 1703SOL    HW1 6008   1.603   2.070   2.080
 1703SOL    HW2 6009   1.574   2.030   2.235
 1704SOL     OW 6010   3.011   2.844   6.549
 1704SOL    HW1 6011   2.917   2.813   6.561
 1704SOL    HW2 6012   3.012   2.935   6.508
 1705SOL     OW 6013   5.049   3.127   0.399
 1705SOL    HW1 6014   5.104   3.060   0.448
 1705SOL    HW2 6015   5.106   3.170   0.328
 1706SOL     OW 6016   5.488   0.699   5.993
 1706SOL    HW1 6017   5.506   0.613   5.945
 1706SOL    HW2 6018   5.548   0.771   5.956
 1707SOL     OW 6019   3.805   1.419   2.041
 1707SOL    HW1 6020   3.835   1.432   1.947
 1707SOL    HW2 6021   3.707   1.438   2.048
 1708SOL     OW 6022   2.491   4.529   1.986
 1708SOL    HW1 6023   2.589   4.532   1.968
 1708SOL    HW2 6024   2.448   4.613   1.951
 1709SOL     OW 6025   5.155   4.338   1.263
 1709SOL    HW1 6026   5.199   4.338   1.353
 1709SOL    HW2 6027   5.063   4.300   1.272
 1710SOL     OW 6028   4.685   2.726   2.238
 1710SOL    HW1 6029   4.780   2.724   2.209
 1710SOL    HW2 6030   4.629   2.768   2.166
 1711SOL     OW 6031   4.317   5.843   0.018
 1711SOL    HW1 6032   4.230   5.871   7.001
 1711SOL    HW2 6033   4.336   5.748   7.014
 1712SOL     OW 6034   0.313   1.806   2.148
 1712SOL    HW1 6035   0.230   1.859   2.130
 1712SOL    HW2 6036   0.287   1.715   2.181
 1713SOL     OW 6037   2.902   1.368   2.197
 1713SOL    HW1 6038   2.979   1.310   2.171
 1713SOL    HW2 6039   2.907   1.455   2.148
 1714SOL     OW 6040   2.781   4.344   1.427
 1714SOL    HW1 6041   2.858   4.288   1.457
 1714SOL    HW2 6042   2.705   4.284   1.400
 1715SOL     OW 6043   1.262   6.223   1.190
 1715SOL    HW1 6044   1.243   6.272   1.275
 1715SOL    HW2 6045   1.351   6.177   1.196
 1716SOL     OW 6046   4.995   1.831   2.710
 1716SOL    HW1 6047   4.920   1.769   2.688
 1716SOL    HW2 6048   5.051   1.845   2.628
 1717SOL     OW 6049   3.677   6.315   3.747
 1717SOL    HW1 6050   3.663   6.221   3.714
 1717SOL    HW2 6051   3.770   6.344   3.726
 1718SOL     OW 6052   1.635   3.470   1.627
 1718SOL    HW1 6053   1.723   3.424   1.619
 1718SOL    HW2 6054   1.649   3.569   1.632
 1719SOL     OW 6055   1.065   5.264   3.583
 1719SOL    HW1 6056   0.994   5.195   3.566
 1719SOL    HW2 6057   1.101   5.252   3.675
 1720SOL     OW 6058   1.125   2.973   5.518
 1720SOL    HW1 6059   1.177   2.946   5.599
 1720SOL    HW2 6060   1.028   2.977   5.539
 1721SOL     OW 6061   2.510   2.795   0.240
 1721SOL    HW1 6062   2.542   2.714   0.190
 1721SOL    HW2 6063   2.514   2.776   0.339
 1722SOL     OW 6064   3.193   1.993   3.431
 1722SOL    HW1 6065   3.165   1.899   3.451
 1722SOL    HW2 6066   3.113   2.046   3.402
 1723SOL     OW 6067   6.557   4.663   1.371
 1723SOL    HW1 6068   6.544   4.756   1.405
 1723SOL    HW2 6069   6.470   4.613   1.380
 1724SOL     OW 6070   5.887   3.351   0.842
 1724SOL    HW1 6071   5.911   3.443   0.812
 1724SOL    HW2 6072   5.954   3.286   0.807
 1725SOL     OW 6073   1.798   6.632   6.469
 1725SOL    HW1 6074   1.800   6.691   6.388
 1725SOL    HW2 6075   1.765   6.542   6.443
 1726SOL     OW 6076   4.920   4.974   3.714
 1726SOL    HW1 6077   5.004   4.928   3.741
 1726SOL    HW2 6078   4.936   5.025   3.630
 1727SOL     OW 6079   3.122   3.077   3.350
 1727SOL    HW1 6080   3.094   3.032   3.265
 1727SOL    HW2 6081   3.149   3.171   3.331
 1728SOL     OW 6082   5.425   2.173   4.390
 1728SOL    HW1 6083   5.359   2.241   4.421
 1728SOL    HW2 6084   5.377   2.102   4.339
 1729SOL     OW 6085   1.490   3.479   2.716
 1729SOL    HW1 6086   1.589   3.494   2.710
 1729SOL    HW2 6087   1.472   3.404   2.780
 1730SOL     OW 6088   2.623   0.679   4.690
 1730SOL    HW1 6089   2.571   0.722   4.764
 1730SOL    HW2 6090   2.612   0.580   4.694
 1731SOL     OW 6091   5.297   4.344   3.541
 1731SOL    HW1 6092   5.356   4.309   3.615
 1731SOL    HW2 6093   5.205   4.308   3.552
 1732SOL     OW 6094   4.152   3.541   5.130
 1732SOL    HW1 6095   4.148   3.519   5.033
 1732SOL    HW2 6096   4.079   3.494   5.178
 1733SOL     OW 6097   1.479   2.141   7.005
 1733SOL    HW1 6098   1.459   2.046   0.005
 1733SOL    HW2 6099   1.458   2.159   6.909
 1734SOL     OW 6100   0.584   4.125   1.577
 1734SOL    HW1 6101   0.504   4.112   1.636
 1734SOL    HW2 6102   0.646   4.191   1.618
 1735SOL     OW 6103   3.419   5.439   5.782
 1735SOL    HW1 6104   3.403   5.375   5.857
 1735SOL    HW2 6105   3.516   5.462   5.777
 1736SOL     OW 6106   4.746   2.095   6.007
 1736SOL    HW1 6107   4.832   2.047   5.990
 1736SOL    HW2 6108   4.714   2.136   5.922
 1737SOL     OW 6109   2.755   1.295   6.493
 1737SOL    HW1 6110   2.695   1.313   6.415
 1737SOL    HW2 6111   2.700   1.269   6.572
 1738SOL     OW 6112   0.837   3.998   1.788
 1738SOL    HW1 6113   0.887   4.029   1.707
 1738SOL    HW2 6114   0.792   3.911   1.768
 1739SOL     OW 6115   4.709   4.983   2.276
 1739SOL    HW1 6116   4.639   5.037   2.322
 1739SOL    HW2 6117   4.799   5.021   2.296
 1740SOL     OW 6118   0.039   2.128   4.600
 1740SOL    HW1 6119   0.005   2.217   4.630
 1740SOL    HW2 6120   0.028   2.061   4.674
 1741SOL     OW 6121   1.331   3.200   4.876
 1741SOL    HW1 6122   1.310   3.224   4.971
 1741SOL    HW2 6123   1.295   3.108   4.857
 1742SOL     OW 6124   6.103   0.318   6.884
 1742SOL    HW1 6125   6.121   0.258   6.805
 1742SOL    HW2 6126   6.170   0.391   6.886
 1743SOL     OW 6127   0.918   2.335   1.622
 1743SOL    HW1 6128   0.974   2.264   1.579
 1743SOL    HW2 6129   0.977   2.396   1.675
 1744SOL     OW 6130   3.131   2.175   5.324
 1744SOL    HW1 6131   3.032   2.164   5.312
 1744SOL    HW2 6132   3.166   2.242   5.258
 1745SOL     OW 6133   6.464   6.394   0.651
 1745SOL    HW1 6134   6.560   6.414   0.671
 1745SOL    HW2 6135   6.455   6.369   0.555
 1746SOL     OW 6136   2.231   5.185   2.533
 1746SOL    HW1 6137   2.252   5.188   2.631
 1746SOL    HW2 6138   2.295   5.244   2.484
 1747SOL     OW 6139   2.889   0.047   2.339
 1747SOL    HW1 6140   2.923   0.139   2.356
 1747SOL    HW2 6141   2.789   0.049   2.338
 1748SOL     OW 6142   6.681   1.660   3.726
 1748SOL    HW1 6143   6.724   1.569   3.728
 1748SOL    HW2 6144   6.642   1.676   3.635
 1749SOL     OW 6145   6.358   5.222   2.878
 1749SOL    HW1 6146   6.275   5.278   2.890
 1749SOL    HW2 6147   6.335   5.126   2.891
 1750SOL     OW 6148   3.497   1.220   0.713
 1750SOL    HW1 6149   3.555   1.227   0.631
 1750SOL    HW2 6150   3.432   1.295   0.714
 1751SOL     OW 6151   6.414   4.348   4.822
 1751SOL    HW1 6152   6.338   4.388   4.873
 1751SOL    HW2 6153   6.474   4.421   4.789
 1752SOL     OW 6154   6.133   0.763   2.425
 1752SOL    HW1 6155   6.034   0.777   2.422
 1752SOL    HW2 6156   6.155   0.675   2.382
 1753SOL     OW 6157   6.159   1.277   1.589
 1753SOL    HW1 6158   6.155   1.289   1.489
 1753SOL    HW2 6159   6.107   1.349   1.633
 1754SOL     OW 6160   2.751   5.098   3.557
 1754SOL    HW1 6161   2.760   5.146   3.470
 1754SOL    HW2 6162   2.705   5.158   3.623
 1755SOL     OW 6163   6.206   6.538   5.218
 1755SOL    HW1 6164   6.168   6.449   5.241
 1755SOL    HW2 6165   6.297   6.527   5.179
 1756SOL     OW 6166   4.604   6.203   1.550
 1756SOL    HW1 6167   4.645   6.164   1.467
 1756SOL    HW2 6168   4.629   6.300   1.556
 1757SOL     OW 6169   2.846   5.181   4.878
 1757SOL    HW1 6170   2.821   5.233   4.796
 1757SOL    HW2 6171   2.898   5.240   4.939
 1758SOL     OW 6172   0.501   6.134   3.972
 1758SOL    HW1 6173   0.581   6.092   4.014
 1758SOL    HW2 6174   0.467   6.075   3.899
 1759SOL     OW 6175   1.744   5.325   6.526
 1759SOL    HW1 6176   1.776   5.367   6.442
 1759SOL    HW2 6177   1.645   5.312   6.521
 1760SOL     OW 6178   5.913   1.890   3.592
 1760SOL    HW1 6179   5.846   1.924   3.526
 1760SOL    HW2 6180   5.914   1.950   3.672
 1761SOL     OW 6181   5.612   2.490   3.635
 1761SOL    HW1 6182   5.546   2.491   3.710
 1761SOL    HW2 6183   5.692   2.437   3.661
 1762SOL     OW 6184   0.586   1.299   5.651
 1762SOL    HW1 6185   0.581   1.209   5.694
 1762SOL    HW2 6186   0.585   1.369   5.722
 1763SOL     OW 6187   1.323   4.891   4.102
 1763SOL    HW1 6188   1.361   4.868   4.013
 1763SOL    HW2 6189   1.396   4.899   4.169
 1764SOL     OW 6190   1.167   5.787   3.313
 1764SOL    HW1 6191   1.073   5.765   3.289
 1764SOL    HW2 6192   1.229   5.740   3.250
 1765SOL     OW 6193   5.409   3.836   1.864
 1765SOL    HW1 6194   5.459   3.809   1.782
 1765SOL    HW2 6195   5.402   3.758   1.926
 1766SOL     OW 6196   4.092   5.072   3.791
 1766SOL    HW1 6197   3.993   5.071   3.778
 1766SOL    HW2 6198   4.133   4.997   3.739
 1767SOL     OW 6199   1.352   4.294   1.247
 1767SOL    HW1 6200   1.321   4.219   1.306
 1767SOL    HW2 6201   1.273   4.343   1.212
 1768SOL     OW 6202   3.536   4.884   2.804
 1768SOL    HW1 6203   3.488   4.819   2.744
 1768SOL    HW2 6204   3.472   4.922   2.870
 1769SOL     OW 6205   5.563   0.354   0.882
 1769SOL    HW1 6206   5.555   0.337   0.980
 1769SOL    HW2 6207   5.658   0.371   0.859
 1770SOL     OW 6208   2.227   4.692   0.513
 1770SOL    HW1 6209   2.128   4.695   0.523
 1770SOL    HW2 6210   2.267   4.644   0.591
 1771SOL     OW 6211   0.810   2.806   6.126
 1771SOL    HW1 6212   0.757   2.797   6.210
 1771SOL    HW2 6213   0.794   2.896   6.085
 1772SOL     OW 6214   2.563   4.537   2.577
 1772SOL    HW1 6215   2.641   4.528   2.516
 1772SOL    HW2 6216   2.479   4.541   2.523
 1773SOL     OW 6217   2.431   6.869   5.088
 1773SOL    HW1 6218   2.526   6.867   5.058
 1773SOL    HW2 6219   2.372   6.895   5.012
 1774SOL     OW 6220   5.505   5.694   1.870
 1774SOL    HW1 6221   5.462   5.781   1.896
 1774SOL    HW2 6222   5.579   5.711   1.806
 1775SOL     OW 6223   1.419   6.402   0.971
 1775SOL    HW1 6224   1.381   6.399   0.878
 1775SOL    HW2 6225   1.353   6.365   1.036
 1776SOL     OW 6226   4.721   3.076   6.017
 1776SOL    HW1 6227   4.787   3.021   6.068
 1776SOL    HW2 6228   4.636   3.083   6.069
 1777SOL     OW 6229   4.852   5.788   6.934
 1777SOL    HW1 6230   4.758   5.820   6.947
 1777SOL    HW2 6231   4.869   5.710   6.994
 1778SOL     OW 6232   6.973   0.155   2.819
 1778SOL    HW1 6233   6.927   0.103   2.891
 1778SOL    HW2 6234   0.042   0.181   2.851
 1779SOL     OW 6235   6.686   0.146   4.811
 1779SOL    HW1 6236   6.742   0.149   4.894
 1779SOL    HW2 6237   6.736   0.098   4.739
 1780SOL     OW 6238   3.248   6.844   4.520
 1780SOL    HW1 6239   3.233   6.921   4.581
 1780SOL    HW2 6240   3.341   6.809   4.532
 1781SOL     OW 6241   4.995   1.686   6.232
 1781SOL    HW1 6242   5.093   1.666   6.241
 1781SOL    HW2 6243   4.950   1.611   6.184
 1782SOL     OW 6244   5.048   0.622   2.645
 1782SOL    HW1 6245   4.981   0.637   2.572
 1782SOL    HW2 6246   5.002   0.626   2.734
 1783SOL     OW 6247   1.661   3.130   0.041
 1783SOL    HW1 6248   1.584   3.175   7.017
 1783SOL    HW2 6249   1.714   3.078   6.996
 1784SOL     OW 6250   2.090   6.102   1.342
 1784SOL    HW1 6251   2.188   6.085   1.343
 1784SOL    HW2 6252   2.064   6.143   1.255
 1785SOL     OW 6253   1.811   5.649   4.719
 1785SOL    HW1 6254   1.826   5.746   4.739
 1785SOL    HW2 6255   1.724   5.638   4.672
 1786SOL     OW 6256   0.404   5.819   1.764
 1786SOL    HW1 6257   0.467   5.824   1.686
 1786SOL    HW2 6258   0.433   5.884   1.835
 1787SOL     OW 6259   2.191   2.718   6.083
 1787SOL    HW1 6260   2.172   2.778   6.005
 1787SOL    HW2 6261   2.239   2.636   6.051
 1788SOL     OW 6262   3.552   4.148   0.777
 1788SOL    HW1 6263   3.460   4.110   0.780
 1788SOL    HW2 6264   3.578   4.165   0.681
 1789SOL     OW 6265   6.071   2.191   2.266
 1789SOL    HW1 6266   6.000   2.252   2.231
 1789SOL    HW2 6267   6.161   2.225   2.241
 1790SOL     OW 6268   2.487   1.909   4.904
 1790SOL    HW1 6269   2.449   1.838   4.846
 1790SOL    HW2 6270   2.500   1.873   4.997
 1791SOL     OW 6271   6.280   0.511   3.643
 1791SOL    HW1 6272   6.355   0.534   3.581
 1791SOL    HW2 6273   6.290   0.416   3.672
 1792SOL     OW 6274   6.701   2.514   6.085
 1792SOL    HW1 6275   6.733   2.421   6.105
 1792SOL    HW2 6276   6.606   2.510   6.054
 1793SOL     OW 6277   0.347   1.161   4.686
 1793SOL    HW1 6278   0.361   1.128   4.593
 1793SOL    HW2 6279   0.267   1.221   4.688
 1794SOL     OW 6280   6.923   1.696   6.604
 1794SOL    HW1 6281   6.953   1.727   6.514
 1794SOL    HW2 6282   6.979   1.740   6.675
 1795SOL     OW 6283   5.294   4.398   0.533
 1795SOL    HW1 6284   5.257   4.471   0.476
 1795SOL    HW2 6285   5.249   4.312   0.511
 1796SOL     OW 6286   6.149   6.812   6.816
 1796SOL    HW1 6287   6.228   6.856   6.858
 1796SOL    HW2 6288   6.075   6.878   6.806
 1797SOL     OW 6289   2.733   6.387   5.186
 1797SOL    HW1 6290   2.670   6.313   5.164
 1797SOL    HW2 6291   2.693   6.444   5.258
 1798SOL     OW 6292   2.129   3.773   6.203
 1798SOL    HW1 6293   2.161   3.848   6.145
 1798SOL    HW2 6294   2.033   3.789   6.228
 1799SOL     OW 6295   3.482   1.550   2.352
 1799SOL    HW1 6296   3.551   1.586   2.414
 1799SOL    HW2 6297   3.391   1.576   2.384
 1800SOL     OW 6298   5.915   2.560   5.452
 1800SOL    HW1 6299   5.904   2.463   5.427
 1800SOL    HW2 6300   5.842   2.586   5.515
 1801SOL     OW 6301   0.227   1.581   2.292
 1801SOL    HW1 6302   0.271   1.496   2.265
 1801SOL    HW2 6303   0.201   1.577   2.388
 1802SOL     OW 6304   6.922   4.656   4.536
 1802SOL    HW1 6305   6.914   4.756   4.541
 1802SOL    HW2 6306   6.869   4.623   4.458
 1803SOL     OW 6307   0.210   6.383   4.073
 1803SOL    HW1 6308   0.162   6.423   3.995
 1803SOL    HW2 6309   0.306   6.408   4.070
 1804SOL     OW 6310   0.794   2.969   6.561
 1804SOL    HW1 6311   0.804   3.040   6.491
 1804SOL    HW2 6312   0.855   2.893   6.541
 1805SOL     OW 6313   6.504   4.835   5.955
 1805SOL    HW1 6314   6.432   4.774   5.987
 1805SOL    HW2 6315   6.575   4.843   6.024
 1806SOL     OW 6316   0.557   1.778   1.550
 1806SOL    HW1 6317   0.562   1.728   1.464
 1806SOL    HW2 6318   0.465   1.772   1.588
 1807SOL     OW 6319   6.515   2.197   1.965
 1807SOL    HW1 6320   6.534   2.139   1.886
 1807SOL    HW2 6321   6.483   2.287   1.933
 1808SOL     OW 6322   6.551   0.701   6.356
 1808SOL    HW1 6323   6.636   0.699   6.304
 1808SOL    HW2 6324   6.560   0.765   6.432
 1809SOL     OW 6325   5.057   0.510   5.218
 1809SOL    HW1 6326   5.004   0.595   5.214
 1809SOL    HW2 6327   5.088   0.495   5.312
 1810SOL     OW 6328   1.086   1.486   4.625
 1810SOL    HW1 6329   1.069   1.540   4.543
 1810SOL    HW2 6330   1.184   1.488   4.647
 1811SOL     OW 6331   3.382   5.840   1.659
 1811SOL    HW1 6332   3.289   5.876   1.648
 1811SOL    HW2 6333   3.380   5.763   1.723
 1812SOL     OW 6334   4.380   0.670   6.445
 1812SOL    HW1 6335   4.470   0.630   6.463
 1812SOL    HW2 6336   4.381   0.767   6.471
 1813SOL     OW 6337   5.598   3.471   2.201
 1813SOL    HW1 6338   5.507   3.502   2.229
 1813SOL    HW2 6339   5.661   3.477   2.278
 1814SOL     OW 6340   6.315   5.548   0.663
 1814SOL    HW1 6341   6.378   5.526   0.588
 1814SOL    HW2 6342   6.291   5.464   0.711
 1815SOL     OW 6343   6.148   5.261   1.149
 1815SOL    HW1 6344   6.083   5.323   1.104
 1815SOL    HW2 6345   6.136   5.267   1.248
 1816SOL     OW 6346   3.363   5.046   4.436
 1816SOL    HW1 6347   3.375   5.107   4.358
 1816SOL    HW2 6348   3.451   5.002   4.457
 1817SOL     OW 6349   6.633   3.005   3.453
 1817SOL    HW1 6350   6.673   2.924   3.412
 1817SOL    HW2 6351   6.671   3.018   3.545
 1818SOL     OW 6352   2.173   1.486   1.099
 1818SOL    HW1 6353   2.202   1.406   1.046
 1818SOL    HW2 6354   2.077   1.505   1.081
 1819SOL     OW 6355   1.166   3.657   0.919
 1819SOL    HW1 6356   1.091   3.594   0.935
 1819SOL    HW2 6357   1.228   3.657   0.998
 1820SOL     OW 6358   4.086   6.713   5.059
 1820SOL    HW1 6359   4.164   6.744   5.005
 1820SOL    HW2 6360   4.020   6.668   4.998
 1821SOL     OW 6361   3.911   1.454   2.611
 1821SOL    HW1 6362   3.829   1.406   2.642
 1821SOL    HW2 6363   3.951   1.504   2.688
 1822SOL     OW 6364   1.857   3.641   4.461
 1822SOL    HW1 6365   1.825   3.724   4.416
 1822SOL    HW2 6366   1.889   3.576   4.392
 1823SOL     OW 6367   3.746   0.133   3.687
 1823SOL    HW1 6368   3.717   0.222   3.721
 1823SOL    HW2 6369   3.846   0.133   3.676
 1824SOL     OW 6370   4.836   2.737   1.993
 1824SOL    HW1 6371   4.789   2.825   1.998
 1824SOL    HW2 6372   4.773   2.669   1.955
 1825SOL     OW 6373   1.134   3.478   0.120
 1825SOL    HW1 6374   1.090   3.395   0.155
 1825SOL    HW2 6375   1.231   3.461   0.107
 1826SOL     OW 6376   3.561   3.287   0.294
 1826SOL    HW1 6377   3.519   3.197   0.285
 1826SOL    HW2 6378   3.655   3.276   0.329
 1827SOL     OW 6379   5.109   4.684   0.731
 1827SOL    HW1 6380   5.112   4.598   0.783
 1827SOL    HW2 6381   5.138   4.666   0.637
 1828SOL     OW 6382   2.606   5.062   4.974
 1828SOL    HW1 6383   2.682   5.110   4.930
 1828SOL    HW2 6384   2.533   5.128   4.995
 1829SOL     OW 6385   1.999   6.321   2.168
 1829SOL    HW1 6386   2.065   6.340   2.242
 1829SOL    HW2 6387   2.024   6.234   2.124
 1830SOL     OW 6388   4.380   1.478   6.721
 1830SOL    HW1 6389   4.330   1.523   6.796
 1830SOL    HW2 6390   4.449   1.417   6.760
 1831SOL     OW 6391   3.456   4.870   0.090
 1831SOL    HW1 6392   3.359   4.879   0.066
 1831SOL    HW2 6393   3.465   4.817   0.174
 1832SOL     OW 6394   1.652   2.995   5.893
 1832SOL    HW1 6395   1.700   3.073   5.851
 1832SOL    HW2 6396   1.637   3.015   5.990
 1833SOL     OW 6397   5.972   1.119   0.592
 1833SOL    HW1 6398   5.910   1.188   0.555
 1833SOL    HW2 6399   5.942   1.028   0.563
 1834SOL     OW 6400   2.010   4.047   6.315
 1834SOL    HW1 6401   1.978   3.958   6.348
 1834SOL    HW2 6402   1.980   4.059   6.220
 1835SOL     OW 6403   6.836   6.822   0.227
 1835SOL    HW1 6404   6.801   6.810   0.320
 1835SOL    HW2 6405   6.922   6.872   0.230
 1836SOL     OW 6406   5.994   1.789   4.008
 1836SOL    HW1 6407   6.025   1.812   4.100
 1836SOL    HW2 6408   5.945   1.867   3.968
 1837SOL     OW 6409   0.885   2.145   0.489
 1837SOL    HW1 6410   0.872   2.237   0.525
 1837SOL    HW2 6411   0.980   2.134   0.460
 1838SOL     OW 6412   5.257   0.499   0.965
 1838SOL    HW1 6413   5.179   0.561   0.977
 1838SOL    HW2 6414   5.225   0.412   0.929
 1839SOL     OW 6415   6.728   1.464   6.404
 1839SOL    HW1 6416   6.704   1.460   6.307
 1839SOL    HW2 6417   6.780   1.383   6.429
 1840SOL     OW 6418   3.127   0.637   5.427
 1840SOL    HW1 6419   3.194   0.651   5.354
 1840SOL    HW2 6420   3.066   0.717   5.432
 1841SOL     OW 6421   2.200   0.311   1.708
 1841SOL    HW1 6422   2.213   0.264   1.796
 1841SOL    HW2 6423   2.289   0.332   1.668
 1842SOL     OW 6424   0.143   4.884   1.577
 1842SOL    HW1 6425   0.191   4.939   1.645
 1842SOL    HW2 6426   0.058   4.849   1.617
 1843SOL     OW 6427   3.184   1.272   6.545
 1843SOL    HW1 6428   3.205   1.251   6.449
 1843SOL    HW2 6429   3.228   1.206   6.605
 1844SOL     OW 6430   4.987   3.487   0.376
 1844SOL    HW1 6431   4.916   3.476   0.307
 1844SOL    HW2 6432   5.077   3.472   0.335
 1845SOL     OW 6433   1.003   2.743   4.784
 1845SOL    HW1 6434   1.074   2.718   4.850
 1845SOL    HW2 6435   0.980   2.663   4.728
 1846SOL     OW 6436   3.677   1.629   2.522
 1846SOL    HW1 6437   3.686   1.650   2.619
 1846SOL    HW2 6438   3.754   1.669   2.472
 1847SOL     OW 6439   3.079   6.213   6.667
 1847SOL    HW1 6440   3.124   6.272   6.733
 1847SOL    HW2 6441   3.005   6.264   6.621
 1848SOL     OW 6442   3.117   6.054   4.646
 1848SOL    HW1 6443   3.215   6.072   4.659
 1848SOL    HW2 6444   3.070   6.141   4.632
 1849SOL     OW 6445   4.707   2.752   2.556
 1849SOL    HW1 6446   4.776   2.727   2.489
 1849SOL    HW2 6447   4.645   2.675   2.570
 1850SOL     OW 6448   4.526   1.706   0.876
 1850SOL    HW1 6449   4.521   1.720   0.777
 1850SOL    HW2 6450   4.621   1.706   0.905
 1851SOL     OW 6451   0.889   4.813   4.347
 1851SOL    HW1 6452   0.927   4.902   4.323
 1851SOL    HW2 6453   0.957   4.760   4.397
 1852SOL     OW 6454   0.609   0.169   3.678
 1852SOL    HW1 6455   0.633   0.193   3.772
 1852SOL    HW2 6456   0.594   0.071   3.672
 1853SOL     OW 6457   0.814   2.032   5.511
 1853SOL    HW1 6458   0.912   2.048   5.504
 1853SOL    HW2 6459   0.779   2.071   5.596
 1854SOL     OW 6460   0.522   0.232   4.193
 1854SOL    HW1 6461   0.428   0.215   4.164
 1854SOL    HW2 6462   0.563   0.146   4.223
 1855SOL     OW 6463   6.629   1.159   5.084
 1855SOL    HW1 6464   6.543   1.113   5.107
 1855SOL    HW2 6465   6.610   1.245   5.037
 1856SOL     OW 6466   5.197   4.160   6.509
 1856SOL    HW1 6467   5.244   4.233   6.459
 1856SOL    HW2 6468   5.260   4.084   6.523
 1857SOL     OW 6469   4.723   0.931   6.623
 1857SOL    HW1 6470   4.698   0.947   6.719
 1857SOL    HW2 6471   4.669   0.854   6.587
 1858SOL     OW 6472   5.451   2.009   4.658
 1858SOL    HW1 6473   5.366   1.960   4.674
 1858SOL    HW2 6474   5.437   2.079   4.587
 1859SOL     OW 6475   6.491   6.345   2.290
 1859SOL    HW1 6476   6.504   6.348   2.191
 1859SOL    HW2 6477   6.527   6.258   2.325
 1860SOL     OW 6478   2.218   0.899   6.930
 1860SOL    HW1 6479   2.275   0.910   7.011
 1860SOL    HW2 6480   2.229   0.807   6.893
 1861SOL     OW 6481   6.669   6.420   5.564
 1861SOL    HW1 6482   6.727   6.344   5.535
 1861SOL    HW2 6483   6.575   6.405   5.534
 1862SOL     OW 6484   3.932   5.604   5.890
 1862SOL    HW1 6485   4.025   5.566   5.890
 1862SOL    HW2 6486   3.936   5.701   5.913
 1863SOL     OW 6487   6.836   1.201   1.393
 1863SOL    HW1 6488   6.836   1.263   1.315
 1863SOL    HW2 6489   6.827   1.107   1.361
 1864SOL     OW 6490   2.057   6.272   2.930
 1864SOL    HW1 6491   2.122   6.212   2.884
 1864SOL    HW2 6492   2.105   6.348   2.973
 1865SOL     OW 6493   6.594   2.398   5.769
 1865SOL    HW1 6494   6.608   2.315   5.715
 1865SOL    HW2 6495   6.497   2.419   5.774
 1866SOL     OW 6496   0.157   4.120   4.959
 1866SOL    HW1 6497   0.145   4.219   4.954
 1866SOL    HW2 6498   0.185   4.094   5.051
 1867SOL     OW 6499   1.070   1.070   1.495
 1867SOL    HW1 6500   1.151   1.016   1.473
 1867SOL    HW2 6501   0.992   1.035   1.442
 1868SOL     OW 6502   5.389   3.688   5.903
 1868SOL    HW1 6503   5.448   3.764   5.877
 1868SOL    HW2 6504   5.430   3.638   5.980
 1869SOL     OW 6505   5.070   0.590   5.787
 1869SOL    HW1 6506   5.158   0.570   5.831
 1869SOL    HW2 6507   5.081   0.589   5.688
 1870SOL     OW 6508   5.900   0.768   5.671
 1870SOL    HW1 6509   5.993   0.798   5.694
 1870SOL    HW2 6510   5.900   0.728   5.580
 1871SOL     OW 6511   2.490   5.109   6.783
 1871SOL    HW1 6512   2.550   5.029   6.785
 1871SOL    HW2 6513   2.540   5.186   6.744
 1872SOL     OW 6514   2.650   3.342   0.824
 1872SOL    HW1 6515   2.614   3.313   0.735
 1872SOL    HW2 6516   2.744   3.309   0.834
 1873SOL     OW 6517   5.935   1.759   2.467
 1873SOL    HW1 6518   5.836   1.746   2.464
 1873SOL    HW2 6519   5.964   1.768   2.562
 1874SOL     OW 6520   2.266   5.372   6.554
 1874SOL    HW1 6521   2.280   5.279   6.588
 1874SOL    HW2 6522   2.351   5.424   6.564
 1875SOL     OW 6523   1.243   6.396   2.361
 1875SOL    HW1 6524   1.227   6.494   2.362
 1875SOL    HW2 6525   1.341   6.378   2.360
 1876SOL     OW 6526   1.077   4.691   6.782
 1876SOL    HW1 6527   0.998   4.702   6.722
 1876SOL    HW2 6528   1.149   4.755   6.754
 1877SOL     OW 6529   0.874   0.957   2.775
 1877SOL    HW1 6530   0.800   0.906   2.733
 1877SOL    HW2 6531   0.837   1.020   2.843
 1878SOL     OW 6532   6.125   4.165   4.137
 1878SOL    HW1 6533   6.221   4.139   4.138
 1878SOL    HW2 6534   6.087   4.159   4.229
 1879SOL     OW 6535   4.073   6.531   5.455
 1879SOL    HW1 6536   4.121   6.502   5.372
 1879SOL    HW2 6537   3.979   6.558   5.432
 1880SOL     OW 6538   1.708   3.051   4.367
 1880SOL    HW1 6539   1.787   2.996   4.344
 1880SOL    HW2 6540   1.737   3.143   4.395
 1881SOL     OW 6541   1.762   1.705   3.485
 1881SOL    HW1 6542   1.837   1.672   3.542
 1881SOL    HW2 6543   1.675   1.676   3.524
 1882SOL     OW 6544   3.685   6.007   0.748
 1882SOL    HW1 6545   3.759   5.996   0.681
 1882SOL    HW2 6546   3.622   6.079   0.717
 1883SOL     OW 6547   2.143   3.311   2.453
 1883SOL    HW1 6548   2.196   3.230   2.431
 1883SOL    HW2 6549   2.131   3.367   2.371
 1884SOL     OW 6550   4.976   0.834   6.865
 1884SOL    HW1 6551   4.927   0.770   6.924
 1884SOL    HW2 6552   4.987   0.922   6.912
 1885SOL     OW 6553   0.289   1.352   0.907
 1885SOL    HW1 6554   0.267   1.310   0.820
 1885SOL    HW2 6555   0.209   1.404   0.940
 1886SOL     OW 6556   3.191   3.155   5.004
 1886SOL    HW1 6557   3.193   3.144   5.103
 1886SOL    HW2 6558   3.103   3.193   4.976
 1887SOL     OW 6559   0.949   6.118   5.094
 1887SOL    HW1 6560   1.019   6.070   5.147
 1887SOL    HW2 6561   0.956   6.216   5.110
 1888SOL     OW 6562   2.082   1.666   6.028
 1888SOL    HW1 6563   2.158   1.644   6.089
 1888SOL    HW2 6564   1.997   1.668   6.080
 1889SOL     OW 6565   3.592   3.368   6.978
 1889SOL    HW1 6566   3.530   3.359   0.034
 1889SOL    HW2 6567   3.583   3.459   6.938
 1890SOL     OW 6568   6.185   5.735   6.870
 1890SOL    HW1 6569   6.141   5.812   6.823
 1890SOL    HW2 6570   6.187   5.656   6.809
 1891SOL     OW 6571   5.063   3.447   6.482
 1891SOL    HW1 6572   5.050   3.397   6.397
 1891SOL    HW2 6573   5.146   3.414   6.528
 1892SOL     OW 6574   4.367   0.492   3.444
 1892SOL    HW1 6575   4.357   0.432   3.524
 1892SOL    HW2 6576   4.297   0.563   3.448
 1893SOL     OW 6577   3.045   1.790   6.835
 1893SOL    HW1 6578   3.119   1.856   6.822
 1893SOL    HW2 6579   2.992   1.815   6.916
 1894SOL     OW 6580   4.791   3.214   0.415
 1894SOL    HW1 6581   4.772   3.310   0.398
 1894SOL    HW2 6582   4.890   3.201   0.426
 1895SOL     OW 6583   4.692   5.846   3.167
 1895SOL    HW1 6584   4.696   5.897   3.081
 1895SOL    HW2 6585   4.601   5.856   3.207
 1896SOL     OW 6586   6.464   1.346   4.968
 1896SOL    HW1 6587   6.468   1.446   4.961
 1896SOL    HW2 6588   6.420   1.309   4.886
 1897SOL     OW 6589   5.064   5.787   2.932
 1897SOL    HW1 6590   5.029   5.802   3.024
 1897SOL    HW2 6591   5.163   5.772   2.936
 1898SOL     OW 6592   5.462   6.352   0.019
 1898SOL    HW1 6593   5.392   6.313   6.981
 1898SOL    HW2 6594   5.512   6.423   6.991
 1899SOL     OW 6595   2.242   2.960   3.531
 1899SOL    HW1 6596   2.341   2.956   3.519
 1899SOL    HW2 6597   2.210   2.877   3.576
 1900SOL     OW 6598   2.961   5.328   1.604
 1900SOL    HW1 6599   2.926   5.256   1.663
 1900SOL    HW2 6600   3.059   5.315   1.589
 1901SOL     OW 6601   0.880   0.961   6.104
 1901SOL    HW1 6602   0.822   0.959   6.023
 1901SOL    HW2 6603   0.970   0.922   6.082
 1902SOL     OW 6604   1.470   2.323   4.238
 1902SOL    HW1 6605   1.497   2.420   4.235
 1902SOL    HW2 6606   1.483   2.288   4.331
 1903SOL     OW 6607   6.436   5.470   3.946
 1903SOL    HW1 6608   6.531   5.438   3.951
 1903SOL    HW2 6609   6.436   5.570   3.936
 1904SOL     OW 6610   0.807   0.622   4.185
 1904SOL    HW1 6611   0.733   0.659   4.242
 1904SOL    HW2 6612   0.895   0.650   4.222
 1905SOL     OW 6613   5.915   3.111   5.335
 1905SOL    HW1 6614   5.870   3.067   5.257
 1905SOL    HW2 6615   5.989   3.052   5.368
 1906SOL     OW 6616   2.385   6.657   5.606
 1906SOL    HW1 6617   2.450   6.710   5.551
 1906SOL    HW2 6618   2.417   6.562   5.613
 1907SOL     OW 6619   4.303   6.857   3.237
 1907SOL    HW1 6620   4.315   6.784   3.170
 1907SOL    HW2 6621   4.229   6.917   3.207
 1908SOL     OW 6622   4.817   4.981   0.423
 1908SOL    HW1 6623   4.827   4.926   0.340
 1908SOL    HW2 6624   4.881   5.058   0.419
 1909SOL     OW 6625   5.155   5.504   3.576
 1909SOL    HW1 6626   5.202   5.432   3.525
 1909SOL    HW2 6627   5.197   5.592   3.555
 1910SOL     OW 6628   4.864   3.990   4.333
 1910SOL    HW1 6629   4.932   4.059   4.359
 1910SOL    HW2 6630   4.859   3.919   4.402
 1911SOL     OW 6631   1.187   2.300   5.568
 1911SOL    HW1 6632   1.141   2.225   5.521
 1911SOL    HW2 6633   1.162   2.300   5.664
 1912SOL     OW 6634   2.976   6.380   2.719
 1912SOL    HW1 6635   2.891   6.360   2.671
 1912SOL    HW2 6636   2.983   6.478   2.736
 1913SOL     OW 6637   2.734   4.099   6.979
 1913SOL    HW1 6638   2.761   4.008   7.012
 1913SOL    HW2 6639   2.813   4.145   6.940
 1914SOL     OW 6640   4.577   1.306   4.821
 1914SOL    HW1 6641   4.559   1.286   4.724
 1914SOL    HW2 6642   4.503   1.362   4.858
 1915SOL     OW 6643   2.781   6.870   5.398
 1915SOL    HW1 6644   2.832   6.923   5.330
 1915SOL    HW2 6645   2.830   6.872   5.485
 1916SOL     OW 6646   3.252   6.411   2.591
 1916SOL    HW1 6647   3.307   6.485   2.553
 1916SOL    HW2 6648   3.155   6.433   2.580
 1917SOL     OW 6649   3.579   4.163   3.925
 1917SOL    HW1 6650   3.657   4.209   3.883
 1917SOL    HW2 6651   3.598   4.066   3.933
 1918SOL     OW 6652   0.526   6.419   5.705
 1918SOL    HW1 6653   0.557   6.514   5.700
 1918SOL    HW2 6654   0.551   6.380   5.794
 1919SOL     OW 6655   5.844   0.754   2.340
 1919SOL    HW1 6656   5.799   0.781   2.255
 1919SOL    HW2 6657   5.814   0.662   2.365
 1920SOL     OW 6658   6.585   6.528   4.877
 1920SOL    HW1 6659   6.525   6.477   4.814
 1920SOL    HW2 6660   6.536   6.545   4.962
 1921SOL     OW 6661   2.544   6.491   0.471
 1921SOL    HW1 6662   2.474   6.421   0.456
 1921SOL    HW2 6663   2.576   6.526   0.382
 1922SOL     OW 6664   3.811   4.497   0.356
 1922SOL    HW1 6665   3.778   4.429   0.290
 1922SOL    HW2 6666   3.735   4.555   0.384
 1923SOL     OW 6667   2.075   2.969   1.086
 1923SOL    HW1 6668   2.151   3.032   1.068
 1923SOL    HW2 6669   2.049   2.923   1.001
 1924SOL     OW 6670   0.699   3.440   1.236
 1924SOL    HW1 6671   0.669   3.534   1.220
 1924SOL    HW2 6672   0.791   3.441   1.275
 1925SOL     OW 6673   3.029   4.350   0.579
 1925SOL    HW1 6674   3.105   4.382   0.523
 1925SOL    HW2 6675   3.028   4.250   0.580
 1926SOL     OW 6676   0.614   0.862   3.871
 1926SOL    HW1 6677   0.678   0.905   3.935
 1926SOL    HW2 6678   0.619   0.909   3.783
 1927SOL     OW 6679   5.252   3.287   1.408
 1927SOL    HW1 6680   5.155   3.286   1.385
 1927SOL    HW2 6681   5.264   3.259   1.503
 1928SOL     OW 6682   7.018   5.245   4.611
 1928SOL    HW1 6683   7.015   5.345   4.613
 1928SOL    HW2 6684   0.084   5.214   4.647
 1929SOL     OW 6685   0.502   5.166   2.889
 1929SOL    HW1 6686   0.566   5.241   2.903
 1929SOL    HW2 6687   0.452   5.180   2.803
 1930SOL     OW 6688   6.821   5.201   5.907
 1930SOL    HW1 6689   6.872   5.195   5.993
 1930SOL    HW2 6690   6.763   5.121   5.897
 1931SOL     OW 6691   1.500   2.175   4.009
 1931SOL    HW1 6692   1.478   2.217   4.097
 1931SOL    HW2 6693   1.588   2.128   4.016
 1932SOL     OW 6694   5.854   3.808   2.671
 1932SOL    HW1 6695   5.778   3.778   2.613
 1932SOL    HW2 6696   5.861   3.748   2.751
 1933SOL     OW 6697   3.189   4.999   0.335
 1933SOL    HW1 6698   3.260   4.993   0.265
 1933SOL    HW2 6699   3.099   4.999   0.290
 1934SOL     OW 6700   6.958   6.032   2.979
 1934SOL    HW1 6701   6.909   6.099   3.035
 1934SOL    HW2 6702   6.941   6.050   2.882
 1935SOL     OW 6703   1.198   0.993   3.315
 1935SOL    HW1 6704   1.248   1.080   3.316
 1935SOL    HW2 6705   1.154   0.981   3.226
 1936SOL     OW 6706   0.372   5.523   5.305
 1936SOL    HW1 6707   0.360   5.564   5.396
 1936SOL    HW2 6708   0.289   5.537   5.251
 1937SOL     OW 6709   4.423   1.678   3.033
 1937SOL    HW1 6710   4.409   1.760   2.978
 1937SOL    HW2 6711   4.470   1.702   3.117
 1938SOL     OW 6712   5.444   6.882   3.928
 1938SOL    HW1 6713   5.420   6.974   3.959
 1938SOL    HW2 6714   5.414   6.815   3.995
 1939SOL     OW 6715   2.958   0.322   4.632
 1939SOL    HW1 6716   3.043   0.310   4.683
 1939SOL    HW2 6717   2.880   0.316   4.694
 1940SOL     OW 6718   6.305   6.148   6.536
 1940SOL    HW1 6719   6.397   6.185   6.527
 1940SOL    HW2 6720   6.297   6.100   6.624
 1941SOL     OW 6721   4.941   4.851   2.512
 1941SOL    HW1 6722   5.030   4.820   2.479
 1941SOL    HW2 6723   4.938   4.951   2.510
 1942SOL     OW 6724   0.140   3.935   2.257
 1942SOL    HW1 6725   0.070   3.990   2.212
 1942SOL    HW2 6726   0.187   3.991   2.325
 1943SOL     OW 6727   3.194   5.284   3.395
 1943SOL    HW1 6728   3.240   5.318   3.477
 1943SOL    HW2 6729   3.111   5.337   3.379
 1944SOL     OW 6730   0.022   6.262   1.813
 1944SOL    HW1 6731   7.006   6.286   1.723
 1944SOL    HW2 6732   6.976   6.278   1.883
 1945SOL     OW 6733   2.833   4.772   2.753
 1945SOL    HW1 6734   2.742   4.813   2.760
 1945SOL    HW2 6735   2.877   4.803   2.669
 1946SOL     OW 6736   1.648   6.747   6.707
 1946SOL    HW1 6737   1.664   6.692   6.788
 1946SOL    HW2 6738   1.693   6.704   6.628
 1947SOL     OW 6739   4.768   0.235   3.251
 1947SOL    HW1 6740   4.731   0.191   3.169
 1947SOL    HW2 6741   4.794   0.165   3.317
 1948SOL     OW 6742   6.094   3.419   5.478
 1948SOL    HW1 6743   6.132   3.416   5.385
 1948SOL    HW2 6744   6.002   3.457   5.475
 1949SOL     OW 6745   4.638   3.838   6.553
 1949SOL    HW1 6746   4.604   3.893   6.476
 1949SOL    HW2 6747   4.597   3.747   6.548
 1950SOL     OW 6748   3.293   5.266   0.597
 1950SOL    HW1 6749   3.346   5.255   0.681
 1950SOL    HW2 6750   3.355   5.291   0.522
 1951SOL     OW 6751   6.095   2.655   6.942
 1951SOL    HW1 6752   6.126   2.709   7.021
 1951SOL    HW2 6753   6.006   2.688   6.913
 1952SOL     OW 6754   3.498   2.899   4.316
 1952SOL    HW1 6755   3.471   2.985   4.273
 1952SOL    HW2 6756   3.439   2.880   4.394
 1953SOL     OW 6757   0.785   2.602   4.443
 1953SOL    HW1 6758   0.794   2.682   4.501
 1953SOL    HW2 6759   0.752   2.629   4.353
 1954SOL     OW 6760   2.398   1.708   4.459
 1954SOL    HW1 6761   2.378   1.696   4.556
 1954SOL    HW2 6762   2.312   1.715   4.408
 1955SOL     OW 6763   6.070   5.633   2.183
 1955SOL    HW1 6764   6.143   5.568   2.204
 1955SOL    HW2 6765   5.986   5.583   2.164
 1956SOL     OW 6766   4.904   6.581   2.728
 1956SOL    HW1 6767   4.874   6.521   2.802
 1956SOL    HW2 6768   4.984   6.541   2.683
 1957SOL     OW 6769   2.352   6.141   4.899
 1957SOL    HW1 6770   2.289   6.077   4.855
 1957SOL    HW2 6771   2.308   6.181   4.980
 1958SOL     OW 6772   3.528   3.583   6.196
 1958SOL    HW1 6773   3.457   3.599   6.127
 1958SOL    HW2 6774   3.505   3.503   6.251
 1959SOL     OW 6775   2.704   0.416   0.824
 1959SOL    HW1 6776   2.743   0.504   0.798
 1959SOL    HW2 6777   2.669   0.369   0.743
 1960SOL     OW 6778   5.048   5.803   2.619
 1960SOL    HW1 6779   5.054   5.768   2.712
 1960SOL    HW2 6780   4.974   5.870   2.612
 1961SOL     OW 6781   5.124   5.203   5.617
 1961SOL    HW1 6782   5.098   5.181   5.711
 1961SOL    HW2 6783   5.046   5.247   5.571
 1962SOL     OW 6784   0.079   6.684   4.685
 1962SOL    HW1 6785   0.030   6.627   4.619
 1962SOL    HW2 6786   0.170   6.646   4.701
 1963SOL     OW 6787   2.585   1.070   3.734
 1963SOL    HW1 6788   2.552   1.159   3.702
 1963SOL    HW2 6789   2.646   1.030   3.665
 1964SOL     OW 6790   6.126   3.294   2.650
 1964SOL    HW1 6791   6.140   3.375   2.593
 1964SOL    HW2 6792   6.055   3.313   2.718
 1965SOL     OW 6793   2.389   6.383   3.439
 1965SOL    HW1 6794   2.379   6.389   3.538
 1965SOL    HW2 6795   2.309   6.338   3.400
 1966SOL     OW 6796   6.559   6.654   6.762
 1966SOL    HW1 6797   6.471   6.611   6.742
 1966SOL    HW2 6798   6.606   6.603   6.834
 1967SOL     OW 6799   5.819   3.036   5.071
 1967SOL    HW1 6800   5.898   3.098   5.069
 1967SOL    HW2 6801   5.776   3.034   4.981
 1968SOL     OW 6802   4.068   5.458   4.872
 1968SOL    HW1 6803   4.062   5.533   4.937
 1968SOL    HW2 6804   3.977   5.441   4.832
 1969SOL     OW 6805   6.589   1.145   1.752
 1969SOL    HW1 6806   6.669   1.192   1.714
 1969SOL    HW2 6807   6.524   1.126   1.678
 1970SOL     OW 6808   1.488   0.406   3.765
 1970SOL    HW1 6809   1.536   0.475   3.710
 1970SOL    HW2 6810   1.442   0.341   3.705
 1971SOL     OW 6811   6.961   1.166   6.364
 1971SOL    HW1 6812   6.958   1.207   6.455
 1971SOL    HW2 6813   0.029   1.124   6.349
 1972SOL     OW 6814   1.332   0.014   3.582
 1972SOL    HW1 6815   1.340   0.031   3.484
 1972SOL    HW2 6816   1.317   6.939   3.598
 1973SOL     OW 6817   2.353   3.568   0.456
 1973SOL    HW1 6818   2.360   3.470   0.437
 1973SOL    HW2 6819   2.434   3.597   0.508
 1974SOL     OW 6820   6.266   6.488   4.561
 1974SOL    HW1 6821   6.222   6.432   4.491
 1974SOL    HW2 6822   6.308   6.568   4.518
 1975SOL     OW 6823   2.829   6.958   3.137
 1975SOL    HW1 6824   2.819   0.034   3.121
 1975SOL    HW2 6825   2.808   6.937   3.232
 1976SOL     OW 6826   6.391   4.135   6.505
 1976SOL    HW1 6827   6.379   4.231   6.530
 1976SOL    HW2 6828   6.484   4.121   6.470
 1977SOL     OW 6829   3.413   2.338   5.340
 1977SOL    HW1 6830   3.330   2.370   5.296
 1977SOL    HW2 6831   3.470   2.416   5.366
 1978SOL     OW 6832   7.000   2.472   5.136
 1978SOL    HW1 6833   7.018   2.519   5.223
 1978SOL    HW2 6834   6.925   2.406   5.149
 1979SOL     OW 6835   6.712   3.877   2.260
 1979SOL    HW1 6836   6.622   3.881   2.303
 1979SOL    HW2 6837   6.707   3.823   2.176
 1980SOL     OW 6838   2.805   0.808   2.319
 1980SOL    HW1 6839   2.896   0.840   2.347
 1980SOL    HW2 6840   2.812   0.714   2.285
 1981SOL     OW 6841   5.386   3.192   2.190
 1981SOL    HW1 6842   5.402   3.226   2.283
 1981SOL    HW2 6843   5.416   3.097   2.184
 1982SOL     OW 6844   0.038   6.705   5.494
 1982SOL    HW1 6845   6.973   6.666   5.523
 1982SOL    HW2 6846   0.046   6.699   5.394
 1983SOL     OW 6847   0.778   4.749   1.387
 1983SOL    HW1 6848   0.855   4.691   1.413
 1983SOL    HW2 6849   0.748   4.803   1.466
 1984SOL     OW 6850   4.887   1.149   5.170
 1984SOL    HW1 6851   4.894   1.216   5.097
 1984SOL    HW2 6852   4.790   1.126   5.184
 1985SOL     OW 6853   1.845   5.922   1.653
 1985SOL    HW1 6854   1.925   5.940   1.711
 1985SOL    HW2 6855   1.873   5.918   1.557
 1986SOL     OW 6856   6.648   2.588   0.303
 1986SOL    HW1 6857   6.613   2.678   0.278
 1986SOL    HW2 6858   6.716   2.598   0.376
 1987SOL     OW 6859   2.274   3.819   6.872
 1987SOL    HW1 6860   2.224   3.860   6.796
 1987SOL    HW2 6861   2.363   3.865   6.882
 1988SOL     OW 6862   4.875   3.066   0.968
 1988SOL    HW1 6863   4.823   3.150   0.986
 1988SOL    HW2 6864   4.841   2.993   1.027
 1989SOL     OW 6865   1.951   2.292   3.755
 1989SOL    HW1 6866   1.956   2.328   3.848
 1989SOL    HW2 6867   1.921   2.364   3.693
 1990SOL     OW 6868   0.978   0.351   3.287
 1990SOL    HW1 6869   0.885   0.381   3.268
 1990SOL    HW2 6870   1.025   0.419   3.343
 1991SOL     OW 6871   4.565   6.319   2.823
 1991SOL    HW1 6872   4.645   6.365   2.863
 1991SOL    HW2 6873   4.536   6.245   2.883
 1992SOL     OW 6874   2.280   5.622   5.382
 1992SOL    HW1 6875   2.191   5.652   5.347
 1992SOL    HW2 6876   2.276   5.617   5.482
 1993SOL     OW 6877   3.070   3.235   3.860
 1993SOL    HW1 6878   2.997   3.302   3.849
 1993SOL    HW2 6879   3.068   3.170   3.784
 1994SOL     OW 6880   6.329   2.427   2.205
 1994SOL    HW1 6881   6.398   2.356   2.194
 1994SOL    HW2 6882   6.335   2.465   2.297
 1995SOL     OW 6883   3.761   2.400   1.482
 1995SOL    HW1 6884   3.679   2.453   1.505
 1995SOL    HW2 6885   3.770   2.325   1.547
 1996SOL     OW 6886   2.436   4.407   5.056
 1996SOL    HW1 6887   2.450   4.313   5.087
 1996SOL    HW2 6888   2.499   4.468   5.104
 1997SOL     OW 6889   5.751   6.161   3.603
 1997SOL    HW1 6890   5.656   6.131   3.591
 1997SOL    HW2 6891   5.769   6.174   3.701
 1998SOL     OW 6892   2.912   4.825   5.223
 1998SOL    HW1 6893   2.871   4.741   5.188
 1998SOL    HW2 6894   3.004   4.836   5.184
 1999SOL     OW 6895   2.114   1.844   2.242
 1999SOL    HW1 6896   2.044   1.809   2.180
 1999SOL    HW2 6897   2.177   1.903   2.191
 2000SOL     OW 6898   3.341   1.103   5.402
 2000SOL    HW1 6899   3.404   1.162   5.453
 2000SOL    HW2 6900   3.375   1.009   5.404
 2001SOL     OW 6901   2.208   2.766   6.603
 2001SOL    HW1 6902   2.135   2.820   6.563
 2001SOL    HW2 6903   2.200   2.671   6.574
 2002SOL     OW 6904   1.339   4.966   4.601
 2002SOL    HW1 6905   1.348   5.058   4.564
 2002SOL    HW2 6906   1.429   4.924   4.610
 2003SOL     OW 6907   6.762   4.145   3.574
 2003SOL    HW1 6908   6.781   4.221   3.512
 2003SOL    HW2 6909   6.773   4.058   3.526
 2004SOL     OW 6910   3.459   0.182   6.657
 2004SOL    HW1 6911   3.490   0.122   6.583
 2004SOL    HW2 6912   3.423   0.267   6.618
 2005SOL     OW 6913   2.544   6.166   5.115
 2005SOL    HW1 6914   2.521   6.082   5.067
 2005SOL    HW2 6915   2.471   6.233   5.102
 2006SOL     OW 6916   4.918   6.637   3.238
 2006SOL    HW1 6917   4.996   6.631   3.176
 2006SOL    HW2 6918   4.906   6.732   3.268
 2007SOL     OW 6919   6.425   5.127   6.953
 2007SOL    HW1 6920   6.387   5.182   6.879
 2007SOL    HW2 6921   6.425   5.180   0.015
 2008SOL     OW 6922   0.147   5.762   5.712
 2008SOL    HW1 6923   0.049   5.753   5.727
 2008SOL    HW2 6924   0.164   5.828   5.638
 2009SOL     OW 6925   1.145   0.301   6.973
 2009SOL    HW1 6926   1.199   0.234   0.002
 2009SOL    HW2 6927   1.197   0.385   6.961
 2010SOL     OW 6928   2.202   0.977   1.010
 2010SOL    HW1 6929   2.126   0.919   0.981
 2010SOL    HW2 6930   2.181   1.015   1.100
 2011SOL     OW 6931   0.083   1.885   4.731
 2011SOL    HW1 6932   0.177   1.913   4.714
 2011SOL    HW2 6933   0.082   1.814   4.802
 2012SOL     OW 6934   6.724   3.292   1.229
 2012SOL    HW1 6935   6.785   3.231   1.280
 2012SOL    HW2 6936   6.774   3.332   1.152
 2013SOL     OW 6937   4.201   2.067   1.875
 2013SOL    HW1 6938   4.238   1.994   1.932
 2013SOL    HW2 6939   4.273   2.102   1.815
 2014SOL     OW 6940   3.687   5.566   3.366
 2014SOL    HW1 6941   3.731   5.524   3.445
 2014SOL    HW2 6942   3.590   5.579   3.386
 2015SOL     OW 6943   3.261   6.282   0.272
 2015SOL    HW1 6944   3.271   6.378   0.301
 2015SOL    HW2 6945   3.337   6.257   0.212
 2016SOL     OW 6946   6.191   5.728   4.026
 2016SOL    HW1 6947   6.142   5.799   4.077
 2016SOL    HW2 6948   6.157   5.727   3.931
 2017SOL     OW 6949   2.320   5.340   2.285
 2017SOL    HW1 6950   2.346   5.245   2.270
 2017SOL    HW2 6951   2.225   5.354   2.257
 2018SOL     OW 6952   0.407   3.735   6.446
 2018SOL    HW1 6953   0.417   3.834   6.456
 2018SOL    HW2 6954   0.488   3.690   6.483
 2019SOL     OW 6955   5.479   1.402   2.839
 2019SOL    HW1 6956   5.422   1.431   2.762
 2019SOL    HW2 6957   5.440   1.320   2.881
 2020SOL     OW 6958   2.345   5.301   3.230
 2020SOL    HW1 6959   2.380   5.271   3.319
 2020SOL    HW2 6960   2.387   5.388   3.205
 2021SOL     OW 6961   2.070   6.284   1.534
 2021SOL    HW1 6962   2.061   6.207   1.471
 2021SOL    HW2 6963   2.150   6.338   1.509
 2022SOL     OW 6964   3.469   5.196   1.409
 2022SOL    HW1 6965   3.501   5.291   1.419
 2022SOL    HW2 6966   3.386   5.196   1.354
 2023SOL     OW 6967   6.676   2.133   5.971
 2023SOL    HW1 6968   6.653   2.045   6.013
 2023SOL    HW2 6969   6.610   2.155   5.899
 2024SOL     OW 6970   5.970   0.375   2.859
 2024SOL    HW1 6971   5.888   0.427   2.834
 2024SOL    HW2 6972   5.978   0.295   2.799
 2025SOL     OW 6973   6.410   0.939   0.940
 2025SOL    HW1 6974   6.442   1.007   0.874
 2025SOL    HW2 6975   6.417   0.976   1.033
 2026SOL     OW 6976   2.193   1.926   5.152
 2026SOL    HW1 6977   2.098   1.952   5.167
 2026SOL    HW2 6978   2.244   2.004   5.115
 2027SOL     OW 6979   6.876   0.355   1.951
 2027SOL    HW1 6980   6.874   0.443   1.905
 2027SOL    HW2 6981   6.956   0.304   1.922
 2028SOL     OW 6982   3.458   3.738   5.944
 2028SOL    HW1 6983   3.498   3.813   5.996
 2028SOL    HW2 6984   3.528   3.670   5.923
 2029SOL     OW 6985   2.248   0.708   0.529
 2029SOL    HW1 6986   2.151   0.724   0.509
 2029SOL    HW2 6987   2.288   0.652   0.456
 2030SOL     OW 6988   1.557   2.549   2.980
 2030SOL    HW1 6989   1.596   2.458   2.992
 2030SOL    HW2 6990   1.629   2.618   2.994
 2031SOL     OW 6991   6.223   7.009   2.876
 2031SOL    HW1 6992   6.222   6.944   2.952
 2031SOL    HW2 6993   6.307   6.998   2.823
 2032SOL     OW 6994   4.500   5.877   1.956
 2032SOL    HW1 6995   4.548   5.818   1.892
 2032SOL    HW2 6996   4.407   5.895   1.922
 2033SOL     OW 6997   0.061   5.181   6.356
 2033SOL    HW1 6998   0.083   5.276   6.376
 2033SOL    HW2 6999   0.143   5.125   6.367
 2034SOL     OW 7000   2.232   5.484   3.632
 2034SOL    HW1 7001   2.232   5.577   3.669
 2034SOL    HW2 7002   2.234   5.488   3.532
 2035SOL     OW 7003   0.863   2.240   2.853
 2035SOL    HW1 7004   0.823   2.161   2.807
 2035SOL    HW2 7005   0.876   2.314   2.787
 2036SOL     OW 7006   0.893   4.993   0.810
 2036SOL    HW1 7007   0.882   5.092   0.801
 2036SOL    HW2 7008   0.924   4.971   0.902
 2037SOL     OW 7009   7.008   1.983   6.883
 2037SOL    HW1 7010   6.934   1.953   6.944
 2037SOL    HW2 7011   0.045   1.905   6.863
 2038SOL     OW 7012   1.626   6.955   4.743
 2038SOL    HW1 7013   1.569   6.896   4.801
 2038SOL    HW2 7014   1.570   0.008   4.707
 2039SOL     OW 7015   1.005   5.443   1.752
 2039SOL    HW1 7016   0.980   5.516   1.690
 2039SOL    HW2 7017   1.105   5.438   1.761
 2040SOL     OW 7018   3.474   3.928   4.619
 2040SOL    HW1 7019   3.543   3.898   4.685
 2040SOL    HW2 7020   3.510   4.004   4.565
 2041SOL     OW 7021   5.067   3.008   6.679
 2041SOL    HW1 7022   4.995   3.074   6.663
 2041SOL    HW2 7023   5.043   2.921   6.636
 2042SOL     OW 7024   3.096   5.792   0.518
 2042SOL    HW1 7025   3.111   5.695   0.533
 2042SOL    HW2 7026   3.161   5.826   0.450
 2043SOL     OW 7027   4.411   5.478   2.138
 2043SOL    HW1 7028   4.376   5.503   2.049
 2043SOL    HW2 7029   4.463   5.392   2.131
 2044SOL     OW 7030   6.497   0.749   2.291
 2044SOL    HW1 7031   6.580   0.753   2.236
 2044SOL    HW2 7032   6.420   0.721   2.234
 2045SOL     OW 7033   3.212   6.415   6.478
 2045SOL    HW1 7034   3.281   6.356   6.519
 2045SOL    HW2 7035   3.217   6.507   6.518
 2046SOL     OW 7036   6.346   6.788   5.895
 2046SOL    HW1 7037   6.380   6.799   5.801
 2046SOL    HW2 7038   6.391   6.710   5.938
 2047SOL     OW 7039   4.932   2.624   0.266
 2047SOL    HW1 7040   4.859   2.650   0.329
 2047SOL    HW2 7041   4.919   2.530   0.236
 2048SOL     OW 7042   4.747   6.017   5.664
 2048SOL    HW1 7043   4.664   6.072   5.671
 2048SOL    HW2 7044   4.827   6.077   5.663
 2049SOL     OW 7045   4.761   5.433   6.927
 2049SOL    HW1 7046   4.839   5.496   6.929
 2049SOL    HW2 7047   4.729   5.423   6.832
 2050SOL     OW 7048   5.610   0.609   3.738
 2050SOL    HW1 7049   5.655   0.694   3.712
 2050SOL    HW2 7050   5.521   0.603   3.693
 2051SOL     OW 7051   3.150   5.485   1.095
 2051SOL    HW1 7052   3.175   5.535   1.011
 2051SOL    HW2 7053   3.051   5.474   1.099
 2052SOL     OW 7054   1.828   2.632   1.054
 2052SOL    HW1 7055   1.865   2.702   1.116
 2052SOL    HW2 7056   1.777   2.676   0.981
 2053SOL     OW 7057   4.681   1.231   1.149
 2053SOL    HW1 7058   4.731   1.144   1.148
 2053SOL    HW2 7059   4.653   1.252   1.242
 2054SOL     OW 7060   0.527   3.262   1.140
 2054SOL    HW1 7061   0.576   3.338   1.182
 2054SOL    HW2 7062   0.589   3.213   1.077
 2055SOL     OW 7063   6.405   1.680   3.822
 2055SOL    HW1 7064   6.384   1.763   3.770
 2055SOL    HW2 7065   6.503   1.661   3.816
 2056SOL     OW 7066   1.009   0.122   2.277
 2056SOL    HW1 7067   1.057   0.179   2.343
 2056SOL    HW2 7068   0.915   0.152   2.269
 2057SOL     OW 7069   5.770   2.954   4.402
 2057SOL    HW1 7070   5.841   2.928   4.468
 2057SOL    HW2 7071   5.744   2.874   4.348
 2058SOL     OW 7072   0.544   1.195   1.652
 2058SOL    HW1 7073   0.641   1.171   1.658
 2058SOL    HW2 7074   0.512   1.182   1.558
 2059SOL     OW 7075   1.309   0.774   6.854
 2059SOL    HW1 7076   1.382   0.790   6.786
 2059SOL    HW2 7077   1.340   0.804   6.944
 2060SOL     OW 7078   0.198   5.314   2.789
 2060SOL    HW1 7079   0.101   5.300   2.766
 2060SOL    HW2 7080   0.249   5.230   2.770
 2061SOL     OW 7081   1.484   0.916   0.888
 2061SOL    HW1 7082   1.508   0.986   0.821
 2061SOL    HW2 7083   1.516   0.944   0.979
 2062SOL     OW 7084   4.415   0.143   4.049
 2062SOL    HW1 7085   4.382   0.220   4.105
 2062SOL    HW2 7086   4.451   0.072   4.109
 2063SOL     OW 7087   2.520   1.773   1.007
 2063SOL    HW1 7088   2.527   1.811   1.099
 2063SOL    HW2 7089   2.424   1.753   0.986
 2064SOL     OW 7090   1.022   2.232   0.752
 2064SOL    HW1 7091   1.051   2.320   0.715
 2064SOL    HW2 7092   1.000   2.242   0.849
 2065SOL     OW 7093   0.108   3.552   2.447
 2065SOL    HW1 7094   0.112   3.586   2.354
 2065SOL    HW2 7095   0.026   3.587   2.492
 2066SOL     OW 7096   1.520   6.217   2.728
 2066SOL    HW1 7097   1.605   6.250   2.686
 2066SOL    HW2 7098   1.540   6.180   2.819
 2067SOL     OW 7099   0.681   0.062   0.209
 2067SOL    HW1 7100   0.649   0.092   0.298
 2067SOL    HW2 7101   0.725   6.995   0.217
 2068SOL     OW 7102   1.795   1.757   5.199
 2068SOL    HW1 7103   1.774   1.689   5.129
 2068SOL    HW2 7104   1.798   1.712   5.289
 2069SOL     OW 7105   0.952   1.963   1.818
 2069SOL    HW1 7106   0.931   2.049   1.864
 2069SOL    HW2 7107   0.891   1.952   1.739
 2070SOL     OW 7108   0.403   1.247   2.773
 2070SOL    HW1 7109   0.350   1.200   2.843
 2070SOL    HW2 7110   0.422   1.184   2.697
 2071SOL     OW 7111   2.493   6.423   5.374
 2071SOL    HW1 7112   2.559   6.497   5.390
 2071SOL    HW2 7113   2.526   6.339   5.416
 2072SOL     OW 7114   5.200   4.746   2.372
 2072SOL    HW1 7115   5.287   4.751   2.324
 2072SOL    HW2 7116   5.215   4.744   2.471
 2073SOL     OW 7117   3.316   6.882   5.141
 2073SOL    HW1 7118   3.368   6.967   5.127
 2073SOL    HW2 7119   3.243   6.877   5.072
 2074SOL     OW 7120   5.683   2.858   2.580
 2074SOL    HW1 7121   5.702   2.778   2.637
 2074SOL    HW2 7122   5.680   2.940   2.639
 2075SOL     OW 7123   3.650   3.058   5.921
 2075SOL    HW1 7124   3.572   3.099   5.969
 2075SOL    HW2 7125   3.630   3.053   5.823
 2076SOL     OW 7126   5.494   0.068   0.901
 2076SOL    HW1 7127   5.536   7.013   0.853
 2076SOL    HW2 7128   5.548   0.150   0.886
 2077SOL     OW 7129   4.231   1.145   3.876
 2077SOL    HW1 7130   4.278   1.075   3.822
 2077SOL    HW2 7131   4.275   1.154   3.965
 2078SOL     OW 7132   3.742   5.814   4.759
 2078SOL    HW1 7133   3.796   5.749   4.706
 2078SOL    HW2 7134   3.666   5.767   4.804
 2079SOL     OW 7135   6.293   6.943   4.051
 2079SOL    HW1 7136   6.351   6.878   4.003
 2079SOL    HW2 7137   6.345   6.986   4.125
 2080SOL     OW 7138   2.852   1.671   3.675
 2080SOL    HW1 7139   2.830   1.581   3.712
 2080SOL    HW2 7140   2.807   1.683   3.586
 2081SOL     OW 7141   1.362   6.328   4.149
 2081SOL    HW1 7142   1.455   6.297   4.171
 2081SOL    HW2 7143   1.297   6.284   4.211
 2082SOL     OW 7144   4.706   0.441   2.074
 2082SOL    HW1 7145   4.730   0.506   2.002
 2082SOL    HW2 7146   4.607   0.443   2.089
 2083SOL     OW 7147   4.111   4.442   5.766
 2083SOL    HW1 7148   4.154   4.489   5.689
 2083SOL    HW2 7149   4.021   4.409   5.739
 2084SOL     OW 7150   6.717   2.470   2.945
 2084SOL    HW1 7151   6.805   2.503   2.912
 2084SOL    HW2 7152   6.680   2.536   3.011
 2085SOL     OW 7153   5.807   6.559   6.597
 2085SOL    HW1 7154   5.760   6.484   6.644
 2085SOL    HW2 7155   5.778   6.646   6.636
 2086SOL     OW 7156   3.704   5.171   0.332
 2086SOL    HW1 7157   3.678   5.128   0.246
 2086SOL    HW2 7158   3.803   5.187   0.332
 2087SOL     OW 7159   5.969   6.171   3.378
 2087SOL    HW1 7160   5.898   6.182   3.448
 2087SOL    HW2 7161   6.036   6.246   3.387
 2088SOL     OW 7162   2.550   6.715   1.230
 2088SOL    HW1 7163   2.465   6.738   1.277
 2088SOL    HW2 7164   2.547   6.620   1.200
 2089SOL     OW 7165   2.180   1.160   0.246
 2089SOL    HW1 7166   2.094   1.164   0.194
 2089SOL    HW2 7167   2.174   1.089   0.316
 2090SOL     OW 7168   3.287   3.791   4.173
 2090SOL    HW1 7169   3.204   3.840   4.146
 2090SOL    HW2 7170   3.276   3.694   4.150
 2091SOL     OW 7171   2.693   4.601   0.967
 2091SOL    HW1 7172   2.650   4.545   0.896
 2091SOL    HW2 7173   2.746   4.543   1.028
 2092SOL     OW 7174   0.389   5.963   1.255
 2092SOL    HW1 7175   0.441   5.878   1.267
 2092SOL    HW2 7176   0.295   5.941   1.229
 2093SOL     OW 7177   1.072   2.526   1.748
 2093SOL    HW1 7178   1.158   2.488   1.713
 2093SOL    HW2 7179   1.056   2.615   1.705
 2094SOL     OW 7180   5.972   0.659   1.905
 2094SOL    HW1 7181   6.062   0.647   1.861
 2094SOL    HW2 7182   5.954   0.757   1.915
 2095SOL     OW 7183   6.434   4.972   5.055
 2095SOL    HW1 7184   6.411   5.061   5.094
 2095SOL    HW2 7185   6.400   4.899   5.115
 2096SOL     OW 7186   4.773   4.160   3.684
 2096SOL    HW1 7187   4.801   4.090   3.750
 2096SOL    HW2 7188   4.745   4.243   3.732
 2097SOL     OW 7189   6.475   3.954   6.178
 2097SOL    HW1 7190   6.425   3.923   6.260
 2097SOL    HW2 7191   6.521   3.876   6.136
 2098SOL     OW 7192   4.114   0.036   4.311
 2098SOL    HW1 7193   4.095   0.032   4.409
 2098SOL    HW2 7194   4.031   0.014   4.260
 2099SOL     OW 7195   2.727   1.880   3.266
 2099SOL    HW1 7196   2.811   1.922   3.231
 2099SOL    HW2 7197   2.669   1.951   3.307
 2100SOL     OW 7198   3.974   4.631   6.432
 2100SOL    HW1 7199   4.010   4.668   6.518
 2100SOL    HW2 7200   4.016   4.542   6.415
 2101SOL     OW 7201   6.555   0.036   2.055
 2101SOL    HW1 7202   6.599   0.062   2.140
 2101SOL    HW2 7203   6.549   0.115   1.994
 2102SOL     OW 7204   6.714   5.333   1.785
 2102SOL    HW1 7205   6.640   5.399   1.768
 2102SOL    HW2 7206   6.787   5.376   1.837
 2103SOL     OW 7207   3.418   3.350   6.328
 2103SOL    HW1 7208   3.415   3.293   6.411
 2103SOL    HW2 7209   3.452   3.296   6.252
 2104SOL     OW 7210   1.686   4.486   5.842
 2104SOL    HW1 7211   1.665   4.561   5.905
 2104SOL    HW2 7212   1.613   4.417   5.848
 2105SOL     OW 7213   5.539   6.460   1.999
 2105SOL    HW1 7214   5.547   6.426   2.093
 2105SOL    HW2 7215   5.524   6.383   1.937
 2106SOL     OW 7216   5.813   5.924   6.445
 2106SOL    HW1 7217   5.854   5.876   6.522
 2106SOL    HW2 7218   5.857   5.895   6.360
 2107SOL     OW 7219   2.498   5.045   0.544
 2107SOL    HW1 7220   2.505   5.027   0.642
 2107SOL    HW2 7221   2.571   5.108   0.517
 2108SOL     OW 7222   5.960   4.169   6.807
 2108SOL    HW1 7223   5.967   4.236   6.733
 2108SOL    HW2 7224   6.048   4.125   6.821
 2109SOL     OW 7225   5.466   5.636   2.140
 2109SOL    HW1 7226   5.396   5.702   2.168
 2109SOL    HW2 7227   5.490   5.650   2.044
 2110SOL     OW 7228   1.601   5.030   5.291
 2110SOL    HW1 7229   1.586   5.118   5.246
 2110SOL    HW2 7230   1.521   5.006   5.346
 2111SOL     OW 7231   1.974   2.300   0.362
 2111SOL    HW1 7232   1.883   2.301   0.320
 2111SOL    HW2 7233   1.992   2.210   0.401
 2112SOL     OW 7234   5.126   3.810   0.203
 2112SOL    HW1 7235   5.157   3.813   0.108
 2112SOL    HW2 7236   5.205   3.807   0.264
 2113SOL     OW 7237   6.717   2.012   3.161
 2113SOL    HW1 7238   6.697   1.915   3.172
 2113SOL    HW2 7239   6.674   2.046   3.078
 2114SOL     OW 7240   1.441   3.404   0.118
 2114SOL    HW1 7241   1.394   3.359   0.194
 2114SOL    HW2 7242   1.491   3.484   0.153
 2115SOL     OW 7243   3.489   5.493   1.777
 2115SOL    HW1 7244   3.450   5.533   1.860
 2115SOL    HW2 7245   3.561   5.428   1.801
 2116SOL     OW 7246   0.880   3.779   4.391
 2116SOL    HW1 7247   0.875   3.739   4.299
 2116SOL    HW2 7248   0.806   3.844   4.403
 2117SOL     OW 7249   6.916   5.770   6.201
 2117SOL    HW1 7250   6.849   5.820   6.147
 2117SOL    HW2 7251   6.869   5.709   6.264
 2118SOL     OW 7252   6.966   3.854   1.921
 2118SOL    HW1 7253   6.885   3.819   1.967
 2118SOL    HW2 7254   6.972   3.816   1.829
 2119SOL     OW 7255   4.249   6.338   0.525
 2119SOL    HW1 7256   4.165   6.356   0.577
 2119SOL    HW2 7257   4.283   6.247   0.546
 2120SOL     OW 7258   6.382   4.386   2.244
 2120SOL    HW1 7259   6.373   4.303   2.299
 2120SOL    HW2 7260   6.296   4.404   2.196
 2121SOL     OW 7261   0.621   3.730   4.945
 2121SOL    HW1 7262   0.639   3.688   4.856
 2121SOL    HW2 7263   0.603   3.657   5.012
 2122SOL     OW 7264   4.244   5.301   5.678
 2122SOL    HW1 7265   4.192   5.257   5.605
 2122SOL    HW2 7266   4.314   5.238   5.712
 2123SOL     OW 7267   4.622   4.795   3.567
 2123SOL    HW1 7268   4.659   4.769   3.478
 2123SOL    HW2 7269   4.610   4.712   3.623
 2124SOL     OW 7270   2.830   1.915   1.390
 2124SOL    HW1 7271   2.735   1.938   1.412
 2124SOL    HW2 7272   2.856   1.961   1.305
 2125SOL     OW 7273   5.074   5.752   0.836
 2125SOL    HW1 7274   5.014   5.760   0.757
 2125SOL    HW2 7275   5.027   5.788   0.917
 2126SOL     OW 7276   3.119   1.150   1.664
 2126SOL    HW1 7277   3.160   1.098   1.739
 2126SOL    HW2 7278   3.086   1.238   1.698
 2127SOL     OW 7279   5.736   2.749   4.980
 2127SOL    HW1 7280   5.798   2.819   5.014
 2127SOL    HW2 7281   5.644   2.766   5.016
 2128SOL     OW 7282   0.302   3.809   4.331
 2128SOL    HW1 7283   0.259   3.838   4.416
 2128SOL    HW2 7284   0.343   3.888   4.286
 2129SOL     OW 7285   4.404   2.306   5.192
 2129SOL    HW1 7286   4.403   2.206   5.188
 2129SOL    HW2 7287   4.410   2.343   5.099
 2130SOL     OW 7288   5.376   0.786   3.433
 2130SOL    HW1 7289   5.283   0.819   3.417
 2130SOL    HW2 7290   5.373   0.699   3.481
 2131SOL     OW 7291   5.259   1.853   6.551
 2131SOL    HW1 7292   5.343   1.849   6.605
 2131SOL    HW2 7293   5.183   1.815   6.604
 2132SOL     OW 7294   1.804   3.424   0.979
 2132SOL    HW1 7295   1.789   3.448   0.883
 2132SOL    HW2 7296   1.854   3.338   0.984
 2133SOL     OW 7297   2.217   4.213   6.342
 2133SOL    HW1 7298   2.137   4.154   6.339
 2133SOL    HW2 7299   2.200   4.295   6.288
 2134SOL     OW 7300   0.182   6.488   0.728
 2134SOL    HW1 7301   0.266   6.509   0.677
 2134SOL    HW2 7302   0.133   6.414   0.682
 2135SOL     OW 7303   6.713   4.796   5.473
 2135SOL    HW1 7304   6.732   4.792   5.571
 2135SOL    HW2 7305   6.798   4.811   5.423
 2136SOL     OW 7306   1.612   5.428   0.013
 2136SOL    HW1 7307   1.527   5.474   0.041
 2136SOL    HW2 7308   1.631   5.451   6.939
 2137SOL     OW 7309   1.388   6.757   3.487
 2137SOL    HW1 7310   1.377   6.731   3.391
 2137SOL    HW2 7311   1.305   6.733   3.538
 2138SOL     OW 7312   5.128   1.916   1.990
 2138SOL    HW1 7313   5.223   1.935   1.965
 2138SOL    HW2 7314   5.067   1.973   1.934
 2139SOL     OW 7315   2.717   6.466   5.800
 2139SOL    HW1 7316   2.794   6.440   5.741
 2139SOL    HW2 7317   2.721   6.564   5.819
 2140SOL     OW 7318   2.429   1.711   3.859
 2140SOL    HW1 7319   2.347   1.766   3.845
 2140SOL    HW2 7320   2.485   1.713   3.776
 2141SOL     OW 7321   6.641   3.467   3.569
 2141SOL    HW1 7322   6.706   3.488   3.497
 2141SOL    HW2 7323   6.591   3.383   3.547
 2142SOL     OW 7324   1.786   2.574   2.310
 2142SOL    HW1 7325   1.729   2.504   2.354
 2142SOL    HW2 7326   1.811   2.544   2.218
 2143SOL     OW 7327   0.146   5.201   5.607
 2143SOL    HW1 7328   0.089   5.124   5.578
 2143SOL    HW2 7329   0.091   5.265   5.660
 2144SOL     OW 7330   6.101   4.693   3.375
 2144SOL    HW1 7331   6.185   4.693   3.430
 2144SOL    HW2 7332   6.124   4.684   3.278
 2145SOL     OW 7333   4.163   1.613   3.089
 2145SOL    HW1 7334   4.116   1.607   3.001
 2145SOL    HW2 7335   4.253   1.655   3.076
 2146SOL     OW 7336   1.410   1.811   6.440
 2146SOL    HW1 7337   1.369   1.816   6.531
 2146SOL    HW2 7338   1.503   1.846   6.443
 2147SOL     OW 7339   5.948   6.510   4.882
 2147SOL    HW1 7340   5.888   6.548   4.952
 2147SOL    HW2 7341   5.895   6.489   4.800
 2148SOL     OW 7342   0.483   2.059   4.804
 2148SOL    HW1 7343   0.445   2.079   4.895
 2148SOL    HW2 7344   0.443   2.122   4.737
 2149SOL     OW 7345   0.713   6.070   7.004
 2149SOL    HW1 7346   0.760   6.130   6.939
 2149SOL    HW2 7347   0.696   5.982   6.961
 2150SOL     OW 7348   1.726   2.741   0.818
 2150SOL    HW1 7349   1.704   2.799   0.740
 2150SOL    HW2 7350   1.666   2.661   0.817
 2151SOL     OW 7351   0.640   4.720   6.741
 2151SOL    HW1 7352   0.649   4.797   6.677
 2151SOL    HW2 7353   0.717   4.657   6.728
 2152SOL     OW 7354   5.081   6.241   3.814
 2152SOL    HW1 7355   5.048   6.150   3.840
 2152SOL    HW2 7356   5.003   6.299   3.789
 2153SOL     OW 7357   5.190   0.027   3.821
 2153SOL    HW1 7358   5.121   0.098   3.809
 2153SOL    HW2 7359   5.166   6.991   3.899
 2154SOL     OW 7360   2.568   6.693   2.336
 2154SOL    HW1 7361   2.514   6.766   2.377
 2154SOL    HW2 7362   2.529   6.604   2.361
 2155SOL     OW 7363   4.161   1.157   1.168
 2155SOL    HW1 7364   4.144   1.155   1.070
 2155SOL    HW2 7365   4.258   1.138   1.186
 2156SOL     OW 7366   6.194   2.416   5.239
 2156SOL    HW1 7367   6.168   2.323   5.265
 2156SOL    HW2 7368   6.112   2.472   5.233
 2157SOL     OW 7369   4.165   6.439   4.560
 2157SOL    HW1 7370   4.123   6.351   4.582
 2157SOL    HW2 7371   4.259   6.441   4.595
 2158SOL     OW 7372   3.076   6.830   0.754
 2158SOL    HW1 7373   3.012   6.759   0.781
 2158SOL    HW2 7374   3.151   6.835   0.820
 2159SOL     OW 7375   0.443   0.817   5.938
 2159SOL    HW1 7376   0.452   0.720   5.962
 2159SOL    HW2 7377   0.378   0.827   5.863
 2160SOL     OW 7378   5.280   6.847   6.476
 2160SOL    HW1 7379   5.251   6.784   6.548
 2160SOL    HW2 7380   5.200   6.876   6.423
 2161SOL     OW 7381   1.584   3.986   0.711
 2161SOL    HW1 7382   1.538   3.974   0.623
 2161SOL    HW2 7383   1.644   4.066   0.707
 2162SOL     OW 7384   2.137   0.352   0.779
 2162SOL    HW1 7385   2.151   0.448   0.756
 2162SOL    HW2 7386   2.071   0.345   0.854
 2163SOL     OW 7387   1.289   3.196   3.567
 2163SOL    HW1 7388   1.195   3.223   3.588
 2163SOL    HW2 7389   1.297   3.097   3.575
 2164SOL     OW 7390   2.086   3.720   2.040
 2164SOL    HW1 7391   2.124   3.628   2.025
 2164SOL    HW2 7392   2.041   3.724   2.129
 2165SOL     OW 7393   6.069   1.467   4.805
 2165SOL    HW1 7394   6.129   1.387   4.808
 2165SOL    HW2 7395   5.991   1.452   4.865
 2166SOL     OW 7396   0.275   2.942   1.664
 2166SOL    HW1 7397   0.281   3.041   1.665
 2166SOL    HW2 7398   0.327   2.906   1.586
 2167SOL     OW 7399   1.279   2.540   3.284
 2167SOL    HW1 7400   1.227   2.467   3.328
 2167SOL    HW2 7401   1.256   2.628   3.326
 2168SOL     OW 7402   1.735   2.206   3.325
 2168SOL    HW1 7403   1.676   2.259   3.386
 2168SOL    HW2 7404   1.750   2.115   3.364
 2169SOL     OW 7405   6.698   0.204   0.934
 2169SOL    HW1 7406   6.744   0.208   1.022
 2169SOL    HW2 7407   6.743   0.265   0.869
 2170SOL     OW 7408   1.413   3.451   6.305
 2170SOL    HW1 7409   1.479   3.375   6.303
 2170SOL    HW2 7410   1.396   3.483   6.212
 2171SOL     OW 7411   0.009   6.125   1.221
 2171SOL    HW1 7412   6.953   6.142   1.280
 2171SOL    HW2 7413   0.079   6.196   1.237
 2172SOL     OW 7414   2.687   2.361   5.152
 2172SOL    HW1 7415   2.661   2.454   5.178
 2172SOL    HW2 7416   2.625   2.328   5.082
 2173SOL     OW 7417   4.476   0.661   4.664
 2173SOL    HW1 7418   4.430   0.572   4.674
 2173SOL    HW2 7419   4.420   0.732   4.704
 2174SOL     OW 7420   5.404   0.087   6.216
 2174SOL    HW1 7421   5.491   0.084   6.167
 2174SOL    HW2 7422   5.421   0.083   6.315
 2175SOL     OW 7423   3.388   3.455   5.846
 2175SOL    HW1 7424   3.363   3.494   5.757
 2175SOL    HW2 7425   3.479   3.487   5.872
 2176SOL     OW 7426   5.802   1.793   2.972
 2176SOL    HW1 7427   5.843   1.841   3.050
 2176SOL    HW2 7428   5.844   1.703   2.963
 2177SOL     OW 7429   0.771   1.000   5.071
 2177SOL    HW1 7430   0.729   0.959   4.990
 2177SOL    HW2 7431   0.744   1.097   5.076
 2178SOL     OW 7432   1.670   2.775   2.552
 2178SOL    HW1 7433   1.617   2.723   2.619
 2178SOL    HW2 7434   1.706   2.714   2.482
 2179SOL     OW 7435   1.004   3.927   0.169
 2179SOL    HW1 7436   1.071   3.969   0.231
 2179SOL    HW2 7437   0.917   3.977   0.175
 2180SOL     OW 7438   0.403   5.637   2.722
 2180SOL    HW1 7439   0.327   5.690   2.684
 2180SOL    HW2 7440   0.369   5.551   2.758
 2181SOL     OW 7441   4.231   4.829   4.436
 2181SOL    HW1 7442   4.266   4.758   4.497
 2181SOL    HW2 7443   4.201   4.787   4.350
 2182SOL     OW 7444   6.865   6.396   1.342
 2182SOL    HW1 7445   6.785   6.340   1.321
 2182SOL    HW2 7446   6.881   6.461   1.268
 2183SOL     OW 7447   3.150   3.497   6.733
 2183SOL    HW1 7448   3.056   3.493   6.701
 2183SOL    HW2 7449   3.169   3.418   6.792
 2184SOL     OW 7450   6.346   1.681   0.461
 2184SOL    HW1 7451   6.269   1.715   0.515
 2184SOL    HW2 7452   6.336   1.583   0.447
 2185SOL     OW 7453   0.742   1.297   5.927
 2185SOL    HW1 7454   0.824   1.303   5.869
 2185SOL    HW2 7455   0.687   1.379   5.914
 2186SOL     OW 7456   6.598   6.027   5.324
 2186SOL    HW1 7457   6.520   6.040   5.385
 2186SOL    HW2 7458   6.658   5.957   5.362
 2187SOL     OW 7459   5.711   4.778   1.227
 2187SOL    HW1 7460   5.703   4.826   1.140
 2187SOL    HW2 7461   5.799   4.802   1.269
 2188SOL     OW 7462   3.138   0.751   0.910
 2188SOL    HW1 7463   3.129   0.677   0.976
 2188SOL    HW2 7464   3.180   0.830   0.955
 2189SOL     OW 7465   1.983   0.520   2.613
 2189SOL    HW1 7466   2.082   0.506   2.611
 2189SOL    HW2 7467   1.938   0.438   2.648
 2190SOL     OW 7468   6.288   4.688   2.193
 2190SOL    HW1 7469   6.278   4.787   2.188
 2190SOL    HW2 7470   6.385   4.664   2.188
 2191SOL     OW 7471   3.678   0.121   6.447
 2191SOL    HW1 7472   3.599   0.163   6.402
 2191SOL    HW2 7473   3.733   0.072   6.379
 2192SOL     OW 7474   5.018   1.961   1.691
 2192SOL    HW1 7475   4.945   2.010   1.740
 2192SOL    HW2 7476   5.059   2.022   1.623
 2193SOL     OW 7477   2.105   0.428   4.714
 2193SOL    HW1 7478   2.040   0.412   4.640
 2193SOL    HW2 7479   2.057   0.429   4.801
 2194SOL     OW 7480   0.237   4.078   5.214
 2194SOL    HW1 7481   0.293   4.161   5.218
 2194SOL    HW2 7482   0.149   4.096   5.260
 2195SOL     OW 7483   0.111   3.827   4.867
 2195SOL    HW1 7484   0.108   3.909   4.924
 2195SOL    HW2 7485   0.104   3.853   4.771
 2196SOL     OW 7486   4.183   0.503   6.851
 2196SOL    HW1 7487   4.210   0.451   6.932
 2196SOL    HW2 7488   4.112   0.452   6.801
 2197SOL     OW 7489   3.378   5.465   6.665
 2197SOL    HW1 7490   3.355   5.562   6.666
 2197SOL    HW2 7491   3.471   5.453   6.629
 2198SOL     OW 7492   1.174   1.226   0.068
 2198SOL    HW1 7493   1.229   1.307   0.086
 2198SOL    HW2 7494   1.152   1.222   6.993
 2199SOL     OW 7495   4.178   6.893   3.774
 2199SOL    HW1 7496   4.102   6.836   3.743
 2199SOL    HW2 7497   4.156   6.934   3.862
 2200SOL     OW 7498   2.439   2.599   4.268
 2200SOL    HW1 7499   2.406   2.606   4.174
 2200SOL    HW2 7500   2.449   2.691   4.306
 2201SOL     OW 7501   5.616   3.884   4.875
 2201SOL    HW1 7502   5.700   3.923   4.911
 2201SOL    HW2 7503   5.624   3.874   4.775
 2202SOL     OW 7504   3.429   6.543   3.588
 2202SOL    HW1 7505   3.516   6.514   3.627
 2202SOL    HW2 7506   3.372   6.463   3.569
 2203SOL     OW 7507   2.301   5.409   1.080
 2203SOL    HW1 7508   2.319   5.329   1.023
 2203SOL    HW2 7509   2.205   5.435   1.072
 2204SOL     OW 7510   5.397   2.851   0.961
 2204SOL    HW1 7511   5.373   2.868   0.866
 2204SOL    HW2 7512   5.479   2.903   0.984
 2205SOL     OW 7513   5.790   5.895   0.881
 2205SOL    HW1 7514   5.713   5.954   0.855
 2205SOL    HW2 7515   5.875   5.936   0.849
 2206SOL     OW 7516   3.640   2.303   5.748
 2206SOL    HW1 7517   3.635   2.317   5.847
 2206SOL    HW2 7518   3.548   2.287   5.712
 2207SOL     OW 7519   4.551   5.670   1.783
 2207SOL    HW1 7520   4.483   5.624   1.841
 2207SOL    HW2 7521   4.532   5.649   1.687
 2208SOL     OW 7522   6.846   6.430   2.856
 2208SOL    HW1 7523   6.850   6.401   2.951
 2208SOL    HW2 7524   6.937   6.458   2.825
 2209SOL     OW 7525   2.773   5.285   3.351
 2209SOL    HW1 7526   2.781   5.322   3.258
 2209SOL    HW2 7527   2.773   5.360   3.417
 2210SOL     OW 7528   5.086   0.099   1.507
 2210SOL    HW1 7529   5.113   0.183   1.554
 2210SOL    HW2 7530   5.064   0.028   1.574
 2211SOL     OW 7531   1.235   2.079   1.463
 2211SOL    HW1 7532   1.193   2.138   1.532
 2211SOL    HW2 7533   1.275   2.135   1.391
 2212SOL     OW 7534   2.916   5.738   6.346
 2212SOL    HW1 7535   2.868   5.750   6.259
 2212SOL    HW2 7536   2.854   5.759   6.422
 2213SOL     OW 7537   3.590   1.796   4.583
 2213SOL    HW1 7538   3.536   1.855   4.642
 2213SOL    HW2 7539   3.667   1.848   4.545
 2214SOL     OW 7540   4.196   4.147   6.517
 2214SOL    HW1 7541   4.105   4.117   6.547
 2214SOL    HW2 7542   4.237   4.205   6.586
 2215SOL     OW 7543   5.006   5.863   0.311
 2215SOL    HW1 7544   5.025   5.800   0.387
 2215SOL    HW2 7545   5.083   5.863   0.248
 2216SOL     OW 7546   0.332   5.932   6.954
 2216SOL    HW1 7547   0.321   5.933   6.854
 2216SOL    HW2 7548   0.429   5.919   6.977
 2217SOL     OW 7549   3.821   1.531   3.607
 2217SOL    HW1 7550   3.760   1.457   3.635
 2217SOL    HW2 7551   3.893   1.495   3.548
 2218SOL     OW 7552   6.241   5.531   5.632
 2218SOL    HW1 7553   6.221   5.441   5.592
 2218SOL    HW2 7554   6.326   5.566   5.592
 2219SOL     OW 7555   5.137   2.102   0.398
 2219SOL    HW1 7556   5.190   2.065   0.475
 2219SOL    HW2 7557   5.040   2.091   0.417
 2220SOL     OW 7558   6.737   6.396   4.612
 2220SOL    HW1 7559   6.650   6.377   4.658
 2220SOL    HW2 7560   6.735   6.489   4.574
 2221SOL     OW 7561   5.535   0.737   4.396
 2221SOL    HW1 7562   5.616   0.795   4.389
 2221SOL    HW2 7563   5.541   0.662   4.331
 2222SOL     OW 7564   3.377   0.802   3.593
 2222SOL    HW1 7565   3.291   0.783   3.545
 2222SOL    HW2 7566   3.363   0.878   3.657
 2223SOL     OW 7567   0.962   0.121   5.337
 2223SOL    HW1 7568   1.002   0.104   5.246
 2223SOL    HW2 7569   0.865   0.146   5.326
 2224SOL     OW 7570   5.187   4.541   6.553
 2224SOL    HW1 7571   5.187   4.496   6.463
 2224SOL    HW2 7572   5.105   4.513   6.603
 2225SOL     OW 7573   6.599   6.576   0.973
 2225SOL    HW1 7574   6.644   6.665   0.985
 2225SOL    HW2 7575   6.500   6.590   0.965
 2226SOL     OW 7576   2.475   3.518   0.088
 2226SOL    HW1 7577   2.439   3.434   0.128
 2226SOL    HW2 7578   2.515   3.574   0.161
 2227SOL     OW 7579   3.818   2.024   2.172
 2227SOL    HW1 7580   3.788   2.084   2.097
 2227SOL    HW2 7581   3.804   1.928   2.145
 2228SOL     OW 7582   5.539   6.033   6.473
 2228SOL    HW1 7583   5.526   6.008   6.569
 2228SOL    HW2 7584   5.635   6.018   6.448
 2229SOL     OW 7585   2.965   3.348   4.327
 2229SOL    HW1 7586   2.979   3.306   4.417
 2229SOL    HW2 7587   2.976   3.279   4.256
 2230SOL     OW 7588   6.331   0.545   6.040
 2230SOL    HW1 7589   6.277   0.461   6.042
 2230SOL    HW2 7590   6.425   0.523   6.013
 2231SOL     OW 7591   1.574   0.239   6.263
 2231SOL    HW1 7592   1.494   0.227   6.204
 2231SOL    HW2 7593   1.657   0.218   6.212
 2232SOL     OW 7594   1.712   0.983   6.054
 2232SOL    HW1 7595   1.808   0.968   6.079
 2232SOL    HW2 7596   1.655   0.974   6.136
 2233SOL     OW 7597   3.172   4.811   1.013
 2233SOL    HW1 7598   3.159   4.794   1.111
 2233SOL    HW2 7599   3.089   4.786   0.964
 2234SOL     OW 7600   5.123   2.065   1.474
 2234SOL    HW1 7601   5.171   2.001   1.414
 2234SOL    HW2 7602   5.162   2.157   1.463
 2235SOL     OW 7603   0.764   2.008   2.758
 2235SOL    HW1 7604   0.822   1.963   2.690
 2235SOL    HW2 7605   0.738   1.942   2.829
 2236SOL     OW 7606   2.845   5.318   5.459
 2236SOL    HW1 7607   2.891   5.249   5.516
 2236SOL    HW2 7608   2.842   5.286   5.364
 2237SOL     OW 7609   6.325   6.396   6.319
 2237SOL    HW1 7610   6.351   6.482   6.274
 2237SOL    HW2 7611   6.380   6.385   6.402
 2238SOL     OW 7612   5.916   3.766   2.390
 2238SOL    HW1 7613   5.953   3.769   2.483
 2238SOL    HW2 7614   5.835   3.824   2.385
 2239SOL     OW 7615   4.107   0.312   2.903
 2239SOL    HW1 7616   4.174   0.301   2.976
 2239SOL    HW2 7617   4.020   0.344   2.941
 2240SOL     OW 7618   4.845   5.381   2.430
 2240SOL    HW1 7619   4.817   5.427   2.515
 2240SOL    HW2 7620   4.937   5.413   2.405
 2241SOL     OW 7621   0.740   1.842   2.990
 2241SOL    HW1 7622   0.816   1.847   3.055
 2241SOL    HW2 7623   0.757   1.768   2.924
 2242SOL     OW 7624   5.487   2.595   4.449
 2242SOL    HW1 7625   5.405   2.616   4.502
 2242SOL    HW2 7626   5.565   2.589   4.511
 2243SOL     OW 7627   2.615   6.984   0.608
 2243SOL    HW1 7628   2.618   7.007   0.705
 2243SOL    HW2 7629   2.604   6.885   0.597
 2244SOL     OW 7630   2.977   1.562   1.263
 2244SOL    HW1 7631   2.888   1.604   1.244
 2244SOL    HW2 7632   2.980   1.471   1.221
 2245SOL     OW 7633   0.570   0.541   6.956
 2245SOL    HW1 7634   0.667   0.563   6.965
 2245SOL    HW2 7635   0.528   0.535   0.025
 2246SOL     OW 7636   4.760   1.508   5.909
 2246SOL    HW1 7637   4.695   1.477   5.840
 2246SOL    HW2 7638   4.814   1.584   5.874
 2247SOL     OW 7639   2.804   3.403   2.000
 2247SOL    HW1 7640   2.735   3.472   2.020
 2247SOL    HW2 7641   2.786   3.363   1.910
 2248SOL     OW 7642   5.126   3.042   4.562
 2248SOL    HW1 7643   5.171   2.994   4.637
 2248SOL    HW2 7644   5.181   3.122   4.536
 2249SOL     OW 7645   2.506   5.996   3.791
 2249SOL    HW1 7646   2.562   6.062   3.743
 2249SOL    HW2 7647   2.564   5.938   3.849
 2250SOL     OW 7648   4.359   5.889   6.022
 2250SOL    HW1 7649   4.400   5.980   6.031
 2250SOL    HW2 7650   4.263   5.894   6.048
 2251SOL     OW 7651   4.319   6.767   4.916
 2251SOL    HW1 7652   4.359   6.771   5.007
 2251SOL    HW2 7653   4.390   6.746   4.849
 2252SOL     OW 7654   3.785   0.905   2.291
 2252SOL    HW1 7655   3.765   0.834   2.358
 2252SOL    HW2 7656   3.783   0.995   2.336
 2253SOL     OW 7657   0.632   3.810   1.759
 2253SOL    HW1 7658   0.546   3.859   1.756
 2253SOL    HW2 7659   0.615   3.712   1.761
 2254SOL     OW 7660   3.477   2.879   2.855
 2254SOL    HW1 7661   3.450   2.896   2.950
 2254SOL    HW2 7662   3.434   2.794   2.823
 2255SOL     OW 7663   1.281   2.474   6.555
 2255SOL    HW1 7664   1.210   2.538   6.524
 2255SOL    HW2 7665   1.253   2.380   6.533
 2256SOL     OW 7666   5.441   0.553   1.336
 2256SOL    HW1 7667   5.388   0.636   1.320
 2256SOL    HW2 7668   5.479   0.555   1.429
 2257SOL     OW 7669   0.398   0.159   5.578
 2257SOL    HW1 7670   0.431   0.253   5.590
 2257SOL    HW2 7671   0.298   0.159   5.577
 2258SOL     OW 7672   2.462   6.649   4.163
 2258SOL    HW1 7673   2.375   6.627   4.119
 2258SOL    HW2 7674   2.456   6.741   4.203
 2259SOL     OW 7675   5.970   0.708   4.398
 2259SOL    HW1 7676   5.988   0.692   4.301
 2259SOL    HW2 7677   5.915   0.633   4.434
 2260SOL     OW 7678   1.212   3.892   0.821
 2260SOL    HW1 7679   1.264   3.924   0.900
 2260SOL    HW2 7680   1.179   3.800   0.839
 2261SOL     OW 7681   5.184   4.645   6.243
 2261SOL    HW1 7682   5.180   4.722   6.306
 2261SOL    HW2 7683   5.245   4.575   6.280
 2262SOL     OW 7684   0.067   6.834   4.327
 2262SOL    HW1 7685   0.069   6.791   4.236
 2262SOL    HW2 7686   0.010   6.916   4.324
 2263SOL     OW 7687   1.910   4.270   6.865
 2263SOL    HW1 7688   1.864   4.196   6.914
 2263SOL    HW2 7689   1.842   4.325   6.816
 2264SOL     OW 7690   2.262   0.210   5.961
 2264SOL    HW1 7691   2.331   0.280   5.976
 2264SOL    HW2 7692   2.286   0.155   5.881
 2265SOL     OW 7693   0.032   6.700   4.063
 2265SOL    HW1 7694   6.972   6.740   4.102
 2265SOL    HW2 7695   0.014   6.606   4.034
 2266SOL     OW 7696   4.538   3.078   6.515
 2266SOL    HW1 7697   4.604   3.003   6.520
 2266SOL    HW2 7698   4.582   3.160   6.480
 2267SOL     OW 7699   5.843   3.121   4.795
 2267SOL    HW1 7700   5.863   3.023   4.786
 2267SOL    HW2 7701   5.894   3.172   4.725
 2268SOL     OW 7702   0.973   6.418   4.811
 2268SOL    HW1 7703   0.879   6.399   4.785
 2268SOL    HW2 7704   0.976   6.499   4.870
 2269SOL     OW 7705   1.889   2.316   5.680
 2269SOL    HW1 7706   1.963   2.276   5.734
 2269SOL    HW2 7707   1.845   2.389   5.733
 2270SOL     OW 7708   5.002   2.112   6.438
 2270SOL    HW1 7709   4.995   2.180   6.366
 2270SOL    HW2 7710   4.911   2.076   6.460
 2271SOL     OW 7711   4.039   5.986   5.633
 2271SOL    HW1 7712   3.964   6.027   5.581
 2271SOL    HW2 7713   4.024   5.888   5.642
 2272SOL     OW 7714   6.228   1.464   6.098
 2272SOL    HW1 7715   6.268   1.438   6.010
 2272SOL    HW2 7716   6.131   1.488   6.084
 2273SOL     OW 7717   0.844   2.957   3.677
 2273SOL    HW1 7718   0.845   2.866   3.636
 2273SOL    HW2 7719   0.866   3.025   3.608
 2274SOL     OW 7720   1.142   0.891   0.540
 2274SOL    HW1 7721   1.204   0.957   0.583
 2274SOL    HW2 7722   1.118   0.923   0.448
 2275SOL     OW 7723   5.801   3.746   3.337
 2275SOL    HW1 7724   5.752   3.797   3.267
 2275SOL    HW2 7725   5.844   3.666   3.296
 2276SOL     OW 7726   1.872   1.783   1.305
 2276SOL    HW1 7727   1.777   1.762   1.326
 2276SOL    HW2 7728   1.924   1.792   1.391
 2277SOL     OW 7729   3.788   3.100   3.345
 2277SOL    HW1 7730   3.731   3.019   3.358
 2277SOL    HW2 7731   3.817   3.136   3.433
 2278SOL     OW 7732   0.302   2.570   3.934
 2278SOL    HW1 7733   0.358   2.499   3.891
 2278SOL    HW2 7734   0.213   2.532   3.960
 2279SOL     OW 7735   1.324   4.807   5.758
 2279SOL    HW1 7736   1.241   4.861   5.770
 2279SOL    HW2 7737   1.306   4.712   5.781
 2280SOL     OW 7738   5.343   2.100   5.530
 2280SOL    HW1 7739   5.285   2.111   5.449
 2280SOL    HW2 7740   5.319   2.015   5.577
 2281SOL     OW 7741   5.198   6.917   2.568
 2281SOL    HW1 7742   5.205   6.952   2.475
 2281SOL    HW2 7743   5.270   6.850   2.585
 2282SOL     OW 7744   3.650   5.650   6.108
 2282SOL    HW1 7745   3.727   5.708   6.081
 2282SOL    HW2 7746   3.673   5.602   6.192
 2283SOL     OW 7747   0.039   0.842   4.792
 2283SOL    HW1 7748   0.035   0.896   4.708
 2283SOL    HW2 7749   6.997   0.766   4.786
 2284SOL     OW 7750   1.626   3.692   6.414
 2284SOL    HW1 7751   1.658   3.775   6.460
 2284SOL    HW2 7752   1.527   3.700   6.399
 2285SOL     OW 7753   1.364   4.376   6.921
 2285SOL    HW1 7754   1.328   4.287   6.947
 2285SOL    HW2 7755   1.432   4.405   6.989
 2286SOL     OW 7756   4.359   4.888   2.967
 2286SOL    HW1 7757   4.458   4.893   2.968
 2286SOL    HW2 7758   4.322   4.952   3.036
 2287SOL     OW 7759   1.314   1.494   4.320
 2287SOL    HW1 7760   1.242   1.428   4.301
 2287SOL    HW2 7761   1.291   1.582   4.279
 2288SOL     OW 7762   6.635   5.317   2.842
 2288SOL    HW1 7763   6.632   5.312   2.742
 2288SOL    HW2 7764   6.542   5.319   2.878
 2289SOL     OW 7765   0.611   5.277   0.600
 2289SOL    HW1 7766   0.582   5.363   0.558
 2289SOL    HW2 7767   0.696   5.291   0.650
 2290SOL     OW 7768   0.841   5.167   6.419
 2290SOL    HW1 7769   0.896   5.251   6.416
 2290SOL    HW2 7770   0.890   5.097   6.472
 2291SOL     OW 7771   2.067   1.695   0.239
 2291SOL    HW1 7772   2.072   1.717   0.142
 2291SOL    HW2 7773   2.149   1.727   0.286
 2292SOL     OW 7774   2.349   1.085   4.474
 2292SOL    HW1 7775   2.327   1.076   4.571
 2292SOL    HW2 7776   2.265   1.095   4.421
 2293SOL     OW 7777   5.471   3.902   2.565
 2293SOL    HW1 7778   5.523   3.981   2.533
 2293SOL    HW2 7779   5.526   3.819   2.555
 2294SOL     OW 7780   4.548   6.367   0.402
 2294SOL    HW1 7781   4.570   6.427   0.325
 2294SOL    HW2 7782   4.621   6.374   0.471
 2295SOL     OW 7783   0.861   1.456   2.130
 2295SOL    HW1 7784   0.921   1.520   2.178
 2295SOL    HW2 7785   0.910   1.417   2.052
 2296SOL     OW 7786   2.927   6.612   0.269
 2296SOL    HW1 7787   2.921   6.530   0.326
 2296SOL    HW2 7788   3.016   6.614   0.223
 2297SOL     OW 7789   4.471   6.529   6.810
 2297SOL    HW1 7790   4.522   6.614   6.823
 2297SOL    HW2 7791   4.456   6.485   6.899
 2298SOL     OW 7792   4.195   3.175   6.886
 2298SOL    HW1 7793   4.124   3.201   6.821
 2298SOL    HW2 7794   4.245   3.256   6.915
 2299SOL     OW 7795   4.349   6.976   0.480
 2299SOL    HW1 7796   4.306   6.998   0.567
 2299SOL    HW2 7797   4.307   0.009   0.407
 2300SOL     OW 7798   1.164   4.432   0.937
 2300SOL    HW1 7799   1.069   4.421   0.906
 2300SOL    HW2 7800   1.224   4.376   0.880
 2301SOL     OW 7801   3.985   3.624   1.774
 2301SOL    HW1 7802   4.016   3.717   1.791
 2301SOL    HW2 7803   3.892   3.614   1.811
 2302SOL     OW 7804   2.159   4.933   2.436
 2302SOL    HW1 7805   2.162   4.866   2.509
 2302SOL    HW2 7806   2.189   5.022   2.471
 2303SOL     OW 7807   6.833   2.930   5.608
 2303SOL    HW1 7808   6.919   2.976   5.630
 2303SOL    HW2 7809   6.822   2.926   5.509
 2304SOL     OW 7810   2.159   1.366   4.652
 2304SOL    HW1 7811   2.245   1.341   4.695
 2304SOL    HW2 7812   2.141   1.464   4.667
 2305SOL     OW 7813   4.230   4.563   1.839
 2305SOL    HW1 7814   4.315   4.512   1.856
 2305SOL    HW2 7815   4.213   4.569   1.741
 2306SOL     OW 7816   0.127   4.251   0.218
 2306SOL    HW1 7817   0.180   4.180   0.263
 2306SOL    HW2 7818   0.029   4.236   0.233
 2307SOL     OW 7819   0.609   1.664   2.802
 2307SOL    HW1 7820   0.552   1.742   2.827
 2307SOL    HW2 7821   0.555   1.597   2.751
 2308SOL     OW 7822   0.421   6.798   0.472
 2308SOL    HW1 7823   0.514   6.831   0.485
 2308SOL    HW2 7824   0.388   6.826   0.382
 2309SOL     OW 7825   3.326   4.956   5.629
 2309SOL    HW1 7826   3.370   4.880   5.580
 2309SOL    HW2 7827   3.326   4.937   5.727
 2310SOL     OW 7828   5.781   1.516   2.744
 2310SOL    HW1 7829   5.746   1.592   2.689
 2310SOL    HW2 7830   5.745   1.430   2.709
 2311SOL     OW 7831   2.488   0.373   2.549
 2311SOL    HW1 7832   2.571   0.427   2.559
 2311SOL    HW2 7833   2.486   0.330   2.459
 2312SOL     OW 7834   2.184   1.014   2.494
 2312SOL    HW1 7835   2.279   1.041   2.478
 2312SOL    HW2 7836   2.178   0.966   2.582
 2313SOL     OW 7837   5.134   3.720   1.652
 2313SOL    HW1 7838   5.099   3.802   1.698
 2313SOL    HW2 7839   5.124   3.641   1.712
 2314SOL     OW 7840   6.616   6.289   2.781
 2314SOL    HW1 7841   6.542   6.338   2.826
 2314SOL    HW2 7842   6.704   6.331   2.803
 2315SOL     OW 7843   4.215   5.739   4.691
 2315SOL    HW1 7844   4.249   5.756   4.598
 2315SOL    HW2 7845   4.281   5.681   4.740
 2316SOL     OW 7846   2.836   1.428   5.909
 2316SOL    HW1 7847   2.818   1.363   5.835
 2316SOL    HW2 7848   2.919   1.480   5.889
 2317SOL     OW 7849   0.195   5.420   3.058
 2317SOL    HW1 7850   0.232   5.505   3.097
 2317SOL    HW2 7851   0.195   5.427   2.959
 2318SOL     OW 7852   0.985   4.670   4.919
 2318SOL    HW1 7853   0.946   4.579   4.906
 2318SOL    HW2 7854   0.990   4.691   5.017
 2319SOL     OW 7855   1.760   5.135   3.528
 2319SOL    HW1 7856   1.820   5.055   3.528
 2319SOL    HW2 7857   1.689   5.124   3.458
 2320SOL     OW 7858   0.844   1.917   5.194
 2320SOL    HW1 7859   0.855   1.903   5.292
 2320SOL    HW2 7860   0.930   1.951   5.155
 2321SOL     OW 7861   1.785   4.437   5.283
 2321SOL    HW1 7862   1.718   4.465   5.352
 2321SOL    HW2 7863   1.742   4.376   5.217
 2322SOL     OW 7864   1.496   3.845   2.044
 2322SOL    HW1 7865   1.467   3.937   2.018
 2322SOL    HW2 7866   1.460   3.778   1.979
 2323SOL     OW 7867   2.676   5.226   0.742
 2323SOL    HW1 7868   2.687   5.262   0.650
 2323SOL    HW2 7869   2.702   5.130   0.744
 2324SOL     OW 7870   6.609   5.033   2.712
 2324SOL    HW1 7871   6.611   5.133   2.710
 2324SOL    HW2 7872   6.516   5.001   2.695
 2325SOL     OW 7873   6.247   5.397   2.053
 2325SOL    HW1 7874   6.177   5.398   1.982
 2325SOL    HW2 7875   6.240   5.311   2.105
 2326SOL     OW 7876   1.866   0.270   0.265
 2326SOL    HW1 7877   1.815   0.349   0.296
 2326SOL    HW2 7878   1.844   0.252   0.169
 2327SOL     OW 7879   0.304   6.850   2.170
 2327SOL    HW1 7880   0.352   6.831   2.256
 2327SOL    HW2 7881   0.245   6.772   2.148
 2328SOL     OW 7882   2.069   3.567   2.649
 2328SOL    HW1 7883   2.103   3.652   2.608
 2328SOL    HW2 7884   2.029   3.509   2.579
 2329SOL     OW 7885   0.344   5.195   3.095
 2329SOL    HW1 7886   0.405   5.185   3.016
 2329SOL    HW2 7887   0.279   5.268   3.077
 2330SOL     OW 7888   6.527   3.383   0.977
 2330SOL    HW1 7889   6.599   3.445   1.008
 2330SOL    HW2 7890   6.443   3.435   0.962
 2331SOL     OW 7891   4.959   5.779   1.384
 2331SOL    HW1 7892   5.056   5.803   1.393
 2331SOL    HW2 7893   4.951   5.681   1.364
 2332SOL     OW 7894   6.167   6.919   6.045
 2332SOL    HW1 7895   6.077   6.926   6.003
 2332SOL    HW2 7896   6.233   6.886   5.977
 2333SOL     OW 7897   0.486   4.295   2.341
 2333SOL    HW1 7898   0.539   4.211   2.356
 2333SOL    HW2 7899   0.548   4.372   2.329
 2334SOL     OW 7900   2.567   1.704   6.510
 2334SOL    HW1 7901   2.624   1.693   6.591
 2334SOL    HW2 7902   2.564   1.801   6.484
 2335SOL     OW 7903   6.834   1.437   3.392
 2335SOL    HW1 7904   6.742   1.450   3.356
 2335SOL    HW2 7905   6.830   1.407   3.487
 2336SOL     OW 7906   1.422   1.737   3.287
 2336SOL    HW1 7907   1.395   1.770   3.378
 2336SOL    HW2 7908   1.499   1.674   3.296
 2337SOL     OW 7909   4.404   1.941   1.651
 2337SOL    HW1 7910   4.446   1.954   1.741
 2337SOL    HW2 7911   4.407   1.845   1.626
 2338SOL     OW 7912   0.260   3.848   3.529
 2338SOL    HW1 7913   0.250   3.791   3.448
 2338SOL    HW2 7914   0.190   3.919   3.529
 2339SOL     OW 7915   2.981   3.185   2.929
 2339SOL    HW1 7916   2.994   3.158   2.834
 2339SOL    HW2 7917   3.009   3.110   2.989
 2340SOL     OW 7918   2.336   4.531   7.008
 2340SOL    HW1 7919   2.243   4.495   7.016
 2340SOL    HW2 7920   2.386   4.513   0.071
 2341SOL     OW 7921   2.344   4.442   4.124
 2341SOL    HW1 7922   2.425   4.449   4.067
 2341SOL    HW2 7923   2.302   4.532   4.135
 2342SOL     OW 7924   3.232   1.023   3.741
 2342SOL    HW1 7925   3.306   1.090   3.739
 2342SOL    HW2 7926   3.194   1.018   3.833
 2343SOL     OW 7927   1.056   0.228   1.653
 2343SOL    HW1 7928   1.066   0.148   1.713
 2343SOL    HW2 7929   1.145   0.273   1.644
 2344SOL     OW 7930   5.374   3.921   0.332
 2344SOL    HW1 7931   5.350   3.850   0.398
 2344SOL    HW2 7932   5.335   4.008   0.361
 2345SOL     OW 7933   3.231   5.991   5.010
 2345SOL    HW1 7934   3.271   5.972   5.100
 2345SOL    HW2 7935   3.286   6.061   4.963
 2346SOL     OW 7936   4.257   3.647   6.856
 2346SOL    HW1 7937   4.283   3.560   6.814
 2346SOL    HW2 7938   4.304   3.722   6.808
 2347SOL     OW 7939   1.442   2.280   1.878
 2347SOL    HW1 7940   1.470   2.357   1.820
 2347SOL    HW2 7941   1.452   2.195   1.827
 2348SOL     OW 7942   0.171   5.117   2.416
 2348SOL    HW1 7943   0.262   5.144   2.448
 2348SOL    HW2 7944   0.168   5.017   2.404
 2349SOL     OW 7945   0.530   3.979   5.323
 2349SOL    HW1 7946   0.513   3.996   5.419
 2349SOL    HW2 7947   0.618   3.931   5.313
 2350SOL     OW 7948   5.618   2.950   0.085
 2350SOL    HW1 7949   5.643   2.999   0.001
 2350SOL    HW2 7950   5.567   3.012   0.145
 2351SOL     OW 7951   2.756   5.376   2.450
 2351SOL    HW1 7952   2.698   5.343   2.525
 2351SOL    HW2 7953   2.698   5.407   2.374
 2352SOL     OW 7954   0.329   2.631   3.332
 2352SOL    HW1 7955   0.385   2.582   3.266
 2352SOL    HW2 7956   0.261   2.686   3.284
 2353SOL     OW 7957   3.416   5.362   4.695
 2353SOL    HW1 7958   3.419   5.395   4.790
 2353SOL    HW2 7959   3.367   5.275   4.692
 2354SOL     OW 7960   2.277   2.779   3.788
 2354SOL    HW1 7961   2.341   2.728   3.732
 2354SOL    HW2 7962   2.279   2.744   3.882
 2355SOL     OW 7963   2.569   6.153   4.516
 2355SOL    HW1 7964   2.610   6.082   4.459
 2355SOL    HW2 7965   2.471   6.136   4.527
 2356SOL     OW 7966   6.451   2.997   6.768
 2356SOL    HW1 7967   6.402   3.084   6.779
 2356SOL    HW2 7968   6.545   3.008   6.798
 2357SOL     OW 7969   2.435   6.443   2.419
 2357SOL    HW1 7970   2.452   6.354   2.377
 2357SOL    HW2 7971   2.396   6.431   2.510
 2358SOL     OW 7972   3.134   4.687   5.912
 2358SOL    HW1 7973   3.080   4.708   5.994
 2358SOL    HW2 7974   3.074   4.657   5.839
 2359SOL     OW 7975   1.985   6.963   4.670
 2359SOL    HW1 7976   2.069   7.013   4.690
 2359SOL    HW2 7977   2.007   6.867   4.653
 2360SOL     OW 7978   6.672   3.897   0.215
 2360SOL    HW1 7979   6.695   3.801   0.196
 2360SOL    HW2 7980   6.704   3.921   0.306
 2361SOL     OW 7981   3.639   1.442   0.144
 2361SOL    HW1 7982   3.555   1.421   0.094
 2361SOL    HW2 7983   3.684   1.357   0.171
 2362SOL     OW 7984   3.021   5.737   3.468
 2362SOL    HW1 7985   2.999   5.666   3.401
 2362SOL    HW2 7986   2.936   5.782   3.498
 2363SOL     OW 7987   3.964   0.375   4.276
 2363SOL    HW1 7988   3.933   0.311   4.205
 2363SOL    HW2 7989   3.894   0.446   4.289
 2364SOL     OW 7990   1.106   2.590   0.959
 2364SOL    HW1 7991   1.184   2.643   0.993
 2364SOL    HW2 7992   1.114   2.581   0.859
 2365SOL     OW 7993   5.006   2.741   6.632
 2365SOL    HW1 7994   4.941   2.684   6.681
 2365SOL    HW2 7995   5.095   2.696   6.631
 2366SOL     OW 7996   4.243   5.460   0.744
 2366SOL    HW1 7997   4.223   5.401   0.666
 2366SOL    HW2 7998   4.181   5.538   0.743
 2367SOL     OW 7999   2.422   3.318   6.209
 2367SOL    HW1 8000   2.402   3.386   6.139
 2367SOL    HW2 8001   2.468   3.362   6.286
 2368SOL     OW 8002   6.241   5.770   2.376
 2368SOL    HW1 8003   6.181   5.760   2.296
 2368SOL    HW2 8004   6.253   5.681   2.420
 2369SOL     OW 8005   2.355   0.943   3.343
 2369SOL    HW1 8006   2.451   0.964   3.364
 2369SOL    HW2 8007   2.328   0.860   3.391
 2370SOL     OW 8008   6.525   2.150   6.321
 2370SOL    HW1 8009   6.544   2.060   6.280
 2370SOL    HW2 8010   6.434   2.180   6.293
 2371SOL     OW 8011   2.759   6.540   1.608
 2371SOL    HW1 8012   2.742   6.465   1.544
 2371SOL    HW2 8013   2.847   6.582   1.588
 2372SOL     OW 8014   6.410   2.642   2.731
 2372SOL    HW1 8015   6.426   2.546   2.754
 2372SOL    HW2 8016   6.363   2.649   2.644
 2373SOL     OW 8017   2.309   3.544   6.539
 2373SOL    HW1 8018   2.352   3.635   6.543
 2373SOL    HW2 8019   2.261   3.533   6.452
 2374SOL     OW 8020   6.038   3.266   4.973
 2374SOL    HW1 8021   5.977   3.217   4.910
 2374SOL    HW2 8022   6.038   3.364   4.950
 2375SOL     OW 8023   2.872   6.627   5.105
 2375SOL    HW1 8024   2.965   6.626   5.142
 2375SOL    HW2 8025   2.817   6.558   5.153
 2376SOL     OW 8026   6.466   2.897   4.390
 2376SOL    HW1 8027   6.373   2.864   4.404
 2376SOL    HW2 8028   6.480   2.920   4.294
 2377SOL     OW 8029   3.769   2.939   3.635
 2377SOL    HW1 8030   3.715   2.962   3.715
 2377SOL    HW2 8031   3.712   2.892   3.568
 2378SOL     OW 8032   5.350   2.743   0.244
 2378SOL    HW1 8033   5.410   2.741   0.165
 2378SOL    HW2 8034   5.332   2.649   0.274
 2379SOL     OW 8035   6.958   6.935   6.741
 2379SOL    HW1 8036   6.966   0.012   6.732
 2379SOL    HW2 8037   6.904   6.913   6.822
 2380SOL     OW 8038   6.318   1.891   2.530
 2380SOL    HW1 8039   6.354   1.801   2.505
 2380SOL    HW2 8040   6.227   1.881   2.569
 2381SOL     OW 8041   1.517   6.848   3.175
 2381SOL    HW1 8042   1.559   6.899   3.100
 2381SOL    HW2 8043   1.467   6.770   3.137
 2382SOL     OW 8044   1.595   3.696   5.461
 2382SOL    HW1 8045   1.658   3.722   5.388
 2382SOL    HW2 8046   1.607   3.758   5.539
 2383SOL     OW 8047   5.833   6.401   1.750
 2383SOL    HW1 8048   5.807   6.399   1.653
 2383SOL    HW2 8049   5.769   6.459   1.801
 2384SOL     OW 8050   4.542   2.008   1.901
 2384SOL    HW1 8051   4.630   1.984   1.942
 2384SOL    HW2 8052   4.468   1.980   1.963
 2385SOL     OW 8053   0.626   2.243   0.135
 2385SOL    HW1 8054   0.621   2.221   0.232
 2385SOL    HW2 8055   0.591   2.166   0.081
 2386SOL     OW 8056   4.205   5.325   3.779
 2386SOL    HW1 8057   4.228   5.350   3.686
 2386SOL    HW2 8058   4.157   5.237   3.779
 2387SOL     OW 8059   1.729   1.099   2.744
 2387SOL    HW1 8060   1.783   1.029   2.790
 2387SOL    HW2 8061   1.773   1.124   2.658
 2388SOL     OW 8062   6.770   1.445   4.099
 2388SOL    HW1 8063   6.728   1.508   4.034
 2388SOL    HW2 8064   6.750   1.474   4.192
 2389SOL     OW 8065   3.838   6.280   2.394
 2389SOL    HW1 8066   3.830   6.194   2.345
 2389SOL    HW2 8067   3.932   6.294   2.423
 2390SOL     OW 8068   2.961   4.185   1.522
 2390SOL    HW1 8069   3.021   4.111   1.490
 2390SOL    HW2 8070   3.011   4.242   1.587
 2391SOL     OW 8071   3.699   5.341   5.573
 2391SOL    HW1 8072   3.715   5.398   5.654
 2391SOL    HW2 8073   3.605   5.355   5.541
 2392SOL     OW 8074   4.360   1.106   6.078
 2392SOL    HW1 8075   4.412   1.190   6.062
 2392SOL    HW2 8076   4.422   1.034   6.108
 2393SOL     OW 8077   3.892   5.276   5.388
 2393SOL    HW1 8078   3.827   5.319   5.451
 2393SOL    HW2 8079   3.884   5.318   5.298
 2394SOL     OW 8080   6.939   4.721   5.637
 2394SOL    HW1 8081   6.935   4.798   5.701
 2394SOL    HW2 8082   7.020   4.666   5.655
 2395SOL     OW 8083   4.502   6.982   6.195
 2395SOL    HW1 8084   4.468   6.973   6.101
 2395SOL    HW2 8085   4.474   0.048   6.232
 2396SOL     OW 8086   3.564   5.006   0.772
 2396SOL    HW1 8087   3.486   4.966   0.722
 2396SOL    HW2 8088   3.625   5.052   0.707
 2397SOL     OW 8089   0.169   4.066   3.842
 2397SOL    HW1 8090   0.204   4.020   3.760
 2397SOL    HW2 8091   0.069   4.071   3.837
 2398SOL     OW 8092   4.608   4.218   5.518
 2398SOL    HW1 8093   4.619   4.181   5.610
 2398SOL    HW2 8094   4.534   4.286   5.517
 2399SOL     OW 8095   4.123   2.294   1.605
 2399SOL    HW1 8096   4.198   2.292   1.539
 2399SOL    HW2 8097   4.045   2.241   1.569
 2400SOL     OW 8098   2.044   5.468   0.984
 2400SOL    HW1 8099   2.012   5.457   0.889
 2400SOL    HW2 8100   1.965   5.472   1.045
 2401SOL     OW 8101   0.346   6.228   6.367
 2401SOL    HW1 8102   0.272   6.162   6.353
 2401SOL    HW2 8103   0.312   6.321   6.351
 2402SOL     OW 8104   6.802   6.520   3.925
 2402SOL    HW1 8105   6.735   6.450   3.903
 2402SOL    HW2 8106   6.755   6.607   3.942
 2403SOL     OW 8107   0.195   1.114   5.297
 2403SOL    HW1 8108   0.210   1.084   5.203
 2403SOL    HW2 8109   0.147   1.202   5.297
 2404SOL     OW 8110   1.618   0.840   0.174
 2404SOL    HW1 8111   1.636   0.859   0.078
 2404SOL    HW2 8112   1.584   0.746   0.183
 2405SOL     OW 8113   3.097   3.554   1.575
 2405SOL    HW1 8114   3.031   3.575   1.502
 2405SOL    HW2 8115   3.135   3.639   1.611
 2406SOL     OW 8116   4.464   1.055   1.606
 2406SOL    HW1 8117   4.482   1.007   1.521
 2406SOL    HW2 8118   4.366   1.052   1.626
 2407SOL     OW 8119   5.284   0.430   3.930
 2407SOL    HW1 8120   5.194   0.414   3.890
 2407SOL    HW2 8121   5.290   0.525   3.961
 2408SOL     OW 8122   4.481   4.543   2.321
 2408SOL    HW1 8123   4.416   4.607   2.361
 2408SOL    HW2 8124   4.503   4.572   2.228
 2409SOL     OW 8125   1.087   4.323   0.425
 2409SOL    HW1 8126   1.108   4.326   0.327
 2409SOL    HW2 8127   1.063   4.229   0.451
 2410SOL     OW 8128   3.056   3.224   2.653
 2410SOL    HW1 8129   3.046   3.204   2.555
 2410SOL    HW2 8130   3.036   3.321   2.669
 2411SOL     OW 8131   4.404   7.003   4.324
 2411SOL    HW1 8132   4.424   6.924   4.266
 2411SOL    HW2 8133   4.307   0.005   4.314
 2412SOL     OW 8134   4.018   3.632   1.046
 2412SOL    HW1 8135   4.105   3.680   1.049
 2412SOL    HW2 8136   4.034   3.534   1.038
 2413SOL     OW 8137   4.342   0.211   2.755
 2413SOL    HW1 8138   4.252   0.251   2.772
 2413SOL    HW2 8139   4.348   0.122   2.801
 2414SOL     OW 8140   5.592   3.317   4.404
 2414SOL    HW1 8141   5.589   3.333   4.503
 2414SOL    HW2 8142   5.523   3.374   4.360
 2415SOL     OW 8143   4.185   0.998   3.395
 2415SOL    HW1 8144   4.245   0.933   3.443
 2415SOL    HW2 8145   4.179   0.973   3.299
 2416SOL     OW 8146   5.379   2.029   6.401
 2416SOL    HW1 8147   5.328   1.958   6.449
 2416SOL    HW2 8148   5.416   1.992   6.315
 2417SOL     OW 8149   3.119   4.242   5.257
 2417SOL    HW1 8150   3.145   4.337   5.242
 2417SOL    HW2 8151   3.153   4.211   5.345
 2418SOL     OW 8152   3.348   3.250   2.953
 2418SOL    HW1 8153   3.303   3.339   2.962
 2418SOL    HW2 8154   3.318   3.206   2.868
 2419SOL     OW 8155   0.118   0.342   3.036
 2419SOL    HW1 8156   0.095   0.434   3.005
 2419SOL    HW2 8157   0.044   0.307   3.093
 2420SOL     OW 8158   2.060   0.020   1.926
 2420SOL    HW1 8159   2.009   0.032   1.841
 2420SOL    HW2 8160   2.128   0.092   1.935
 2421SOL     OW 8161   3.438   1.707   3.565
 2421SOL    HW1 8162   3.358   1.711   3.504
 2421SOL    HW2 8163   3.462   1.612   3.582
 2422SOL     OW 8164   4.920   1.700   0.638
 2422SOL    HW1 8165   4.854   1.628   0.660
 2422SOL    HW2 8166   4.926   1.710   0.539
 2423SOL     OW 8167   1.958   5.156   2.565
 2423SOL    HW1 8168   2.051   5.159   2.528
 2423SOL    HW2 8169   1.960   5.182   2.662
 2424SOL     OW 8170   6.894   0.321   0.316
 2424SOL    HW1 8171   6.862   0.413   0.294
 2424SOL    HW2 8172   6.942   0.322   0.404
 2425SOL     OW 8173   6.772   6.674   4.519
 2425SOL    HW1 8174   6.857   6.669   4.468
 2425SOL    HW2 8175   6.703   6.724   4.466
 2426SOL     OW 8176   2.370   4.968   4.062
 2426SOL    HW1 8177   2.314   4.894   4.025
 2426SOL    HW2 8178   2.373   4.961   4.162
 2427SOL     OW 8179   6.308   0.125   5.653
 2427SOL    HW1 8180   6.264   0.047   5.696
 2427SOL    HW2 8181   6.343   0.099   5.563
 2428SOL     OW 8182   5.639   1.256   0.734
 2428SOL    HW1 8183   5.627   1.164   0.695
 2428SOL    HW2 8184   5.653   1.322   0.660
 2429SOL     OW 8185   5.245   5.209   2.491
 2429SOL    HW1 8186   5.231   5.189   2.588
 2429SOL    HW2 8187   5.269   5.306   2.480
 2430SOL     OW 8188   5.296   7.008   2.930
 2430SOL    HW1 8189   5.284   0.002   2.832
 2430SOL    HW2 8190   5.344   6.922   2.945
 2431SOL     OW 8191   4.630   6.764   2.399
 2431SOL    HW1 8192   4.656   6.831   2.468
 2431SOL    HW2 8193   4.535   6.779   2.372
 2432SOL     OW 8194   2.421   5.909   2.749
 2432SOL    HW1 8195   2.443   5.931   2.654
 2432SOL    HW2 8196   2.407   5.994   2.800
 2433SOL     OW 8197   4.644   0.738   1.034
 2433SOL    HW1 8198   4.698   0.676   0.978
 2433SOL    HW2 8199   4.663   0.833   1.007
 2434SOL     OW 8200   3.940   3.029   4.683
 2434SOL    HW1 8201   3.943   2.966   4.761
 2434SOL    HW2 8202   3.850   3.074   4.680
 2435SOL     OW 8203   6.287   5.994   6.000
 2435SOL    HW1 8204   6.278   5.914   5.941
 2435SOL    HW2 8205   6.277   5.966   6.096
 2436SOL     OW 8206   2.713   4.954   0.741
 2436SOL    HW1 8207   2.785   4.934   0.674
 2436SOL    HW2 8208   2.708   4.880   0.808
 2437SOL     OW 8209   6.506   0.722   5.506
 2437SOL    HW1 8210   6.605   0.713   5.509
 2437SOL    HW2 8211   6.469   0.716   5.599
 2438SOL     OW 8212   3.099   3.439   0.934
 2438SOL    HW1 8213   3.130   3.350   0.969
 2438SOL    HW2 8214   3.065   3.494   1.010
 2439SOL     OW 8215   6.287   4.723   6.057
 2439SOL    HW1 8216   6.264   4.666   6.136
 2439SOL    HW2 8217   6.222   4.799   6.051
 2440SOL     OW 8218   5.681   4.584   5.346
 2440SOL    HW1 8219   5.631   4.671   5.342
 2440SOL    HW2 8220   5.712   4.568   5.440
 2441SOL     OW 8221   6.235   2.179   0.832
 2441SOL    HW1 8222   6.263   2.262   0.783
 2441SOL    HW2 8223   6.317   2.127   0.858
 2442SOL     OW 8224   0.039   2.009   5.057
 2442SOL    HW1 8225   0.006   2.089   5.008
 2442SOL    HW2 8226   0.058   1.935   4.992
 2443SOL     OW 8227   2.700   5.039   5.246
 2443SOL    HW1 8228   2.632   5.053   5.174
 2443SOL    HW2 8229   2.758   4.961   5.223
 2444SOL     OW 8230   3.522   2.770   5.679
 2444SOL    HW1 8231   3.552   2.770   5.775
 2444SOL    HW2 8232   3.460   2.693   5.664
 2445SOL     OW 8233   0.996   0.242   1.129
 2445SOL    HW1 8234   1.076   0.233   1.070
 2445SOL    HW2 8235   0.970   0.339   1.135
 2446SOL     OW 8236   5.018   3.209   6.320
 2446SOL    HW1 8237   5.096   3.187   6.379
 2446SOL    HW2 8238   5.008   3.140   6.249
 2447SOL     OW 8239   0.756   3.273   6.618
 2447SOL    HW1 8240   0.774   3.287   6.716
 2447SOL    HW2 8241   0.658   3.281   6.601
 2448SOL     OW 8242   0.336   6.634   4.750
 2448SOL    HW1 8243   0.383   6.720   4.774
 2448SOL    HW2 8244   0.317   6.583   4.834
 2449SOL     OW 8245   0.807   3.002   5.167
 2449SOL    HW1 8246   0.888   3.011   5.109
 2449SOL    HW2 8247   0.775   3.093   5.194
 2450SOL     OW 8248   2.280   3.343   1.449
 2450SOL    HW1 8249   2.276   3.309   1.543
 2450SOL    HW2 8250   2.190   3.379   1.423
 2451SOL     OW 8251   2.016   5.756   4.119
 2451SOL    HW1 8252   1.997   5.753   4.218
 2451SOL    HW2 8253   2.059   5.670   4.091
 2452SOL     OW 8254   2.266   2.454   4.611
 2452SOL    HW1 8255   2.316   2.368   4.604
 2452SOL    HW2 8256   2.180   2.446   4.560
 2453SOL     OW 8257   0.763   3.631   0.930
 2453SOL    HW1 8258   0.726   3.640   1.023
 2453SOL    HW2 8259   0.849   3.580   0.933
 2454SOL     OW 8260   1.718   0.110   1.989
 2454SOL    HW1 8261   1.675   0.189   1.946
 2454SOL    HW2 8262   1.809   0.134   2.022
 2455SOL     OW 8263   5.539   3.438   1.317
 2455SOL    HW1 8264   5.549   3.526   1.271
 2455SOL    HW2 8265   5.571   3.365   1.256
 2456SOL     OW 8266   2.816   6.857   1.030
 2456SOL    HW1 8267   2.821   6.796   0.951
 2456SOL    HW2 8268   2.729   6.907   1.028
 2457SOL     OW 8269   5.938   6.300   1.003
 2457SOL    HW1 8270   5.853   6.269   1.046
 2457SOL    HW2 8271   5.936   6.276   0.906
 2458SOL     OW 8272   0.697   6.381   1.787
 2458SOL    HW1 8273   0.738   6.318   1.853
 2458SOL    HW2 8274   0.745   6.373   1.699
 2459SOL     OW 8275   1.252   1.120   0.637
 2459SOL    HW1 8276   1.248   1.155   0.544
 2459SOL    HW2 8277   1.261   1.196   0.702
 2460SOL     OW 8278   2.600   4.710   1.466
 2460SOL    HW1 8279   2.674   4.707   1.399
 2460SOL    HW2 8280   2.631   4.669   1.552
 2461SOL     OW 8281   4.927   1.498   2.799
 2461SOL    HW1 8282   4.913   1.533   2.706
 2461SOL    HW2 8283   4.847   1.522   2.856
 2462SOL     OW 8284   2.803   3.929   6.257
 2462SOL    HW1 8285   2.710   3.895   6.270
 2462SOL    HW2 8286   2.800   4.019   6.214
 2463SOL     OW 8287   1.045   2.651   5.062
 2463SOL    HW1 8288   0.993   2.566   5.068
 2463SOL    HW2 8289   1.040   2.700   5.149
 2464SOL     OW 8290   0.867   3.064   0.508
 2464SOL    HW1 8291   0.789   3.012   0.543
 2464SOL    HW2 8292   0.916   3.105   0.585
 2465SOL     OW 8293   6.379   4.904   2.611
 2465SOL    HW1 8294   6.315   4.835   2.644
 2465SOL    HW2 8295   6.428   4.868   2.531
 2466SOL     OW 8296   3.585   1.389   1.738
 2466SOL    HW1 8297   3.546   1.475   1.769
 2466SOL    HW2 8298   3.522   1.344   1.675
 2467SOL     OW 8299   0.700   0.924   4.834
 2467SOL    HW1 8300   0.713   0.869   4.752
 2467SOL    HW2 8301   0.723   1.019   4.814
 2468SOL     OW 8302   6.368   4.680   6.945
 2468SOL    HW1 8303   6.374   4.602   7.007
 2468SOL    HW2 8304   6.362   4.764   6.998
 2469SOL     OW 8305   2.911   2.830   5.909
 2469SOL    HW1 8306   2.829   2.800   5.860
 2469SOL    HW2 8307   2.937   2.922   5.879
 2470SOL     OW 8308   5.335   2.973   1.316
 2470SOL    HW1 8309   5.303   2.879   1.301
 2470SOL    HW2 8310   5.265   3.025   1.365
 2471SOL     OW 8311   0.170   1.483   2.563
 2471SOL    HW1 8312   0.085   1.537   2.563
 2471SOL    HW2 8313   0.150   1.389   2.537
 2472SOL     OW 8314   6.041   0.913   3.638
 2472SOL    HW1 8315   6.078   0.848   3.572
 2472SOL    HW2 8316   6.050   1.006   3.602
 2473SOL     OW 8317   0.551   6.198   5.573
 2473SOL    HW1 8318   0.592   6.279   5.613
 2473SOL    HW2 8319   0.598   6.175   5.488
 2474SOL     OW 8320   6.340   6.724   4.452
 2474SOL    HW1 8321   6.250   6.766   4.448
 2474SOL    HW2 8322   6.395   6.769   4.523
 2475SOL     OW 8323   4.272   2.395   6.294
 2475SOL    HW1 8324   4.339   2.327   6.324
 2475SOL    HW2 8325   4.284   2.413   6.197
 2476SOL     OW 8326   0.667   1.190   3.330
 2476SOL    HW1 8327   0.613   1.108   3.311
 2476SOL    HW2 8328   0.760   1.164   3.355
 2477SOL     OW 8329   4.692   4.714   2.476
 2477SOL    HW1 8330   4.704   4.633   2.418
 2477SOL    HW2 8331   4.782   4.755   2.493
 2478SOL     OW 8332   0.022   0.307   2.247
 2478SOL    HW1 8333   0.100   0.360   2.214
 2478SOL    HW2 8334   0.023   0.216   2.204
 2479SOL     OW 8335   1.054   3.093   7.016
 2479SOL    HW1 8336   1.146   3.088   6.978
 2479SOL    HW2 8337   1.020   3.000   0.010
 2480SOL     OW 8338   6.455   5.361   1.434
 2480SOL    HW1 8339   6.545   5.401   1.419
 2480SOL    HW2 8340   6.438   5.291   1.365
 2481SOL     OW 8341   4.100   4.798   2.513
 2481SOL    HW1 8342   4.110   4.736   2.591
 2481SOL    HW2 8343   4.030   4.867   2.534
 2482SOL     OW 8344   4.241   2.204   4.855
 2482SOL    HW1 8345   4.164   2.190   4.793
 2482SOL    HW2 8346   4.213   2.262   4.931
 2483SOL     OW 8347   0.877   3.287   6.954
 2483SOL    HW1 8348   0.959   3.233   6.972
 2483SOL    HW2 8349   0.883   3.374   7.002
 2484SOL     OW 8350   3.676   3.976   5.816
 2484SOL    HW1 8351   3.643   3.913   5.746
 2484SOL    HW2 8352   3.603   4.041   5.839
 2485SOL     OW 8353   0.585   5.857   6.896
 2485SOL    HW1 8354   0.629   5.877   6.809
 2485SOL    HW2 8355   0.569   5.758   6.904
 2486SOL     OW 8356   0.898   5.582   3.399
 2486SOL    HW1 8357   0.820   5.547   3.347
 2486SOL    HW2 8358   0.949   5.506   3.437
 2487SOL     OW 8359   3.267   1.208   1.332
 2487SOL    HW1 8360   3.338   1.262   1.287
 2487SOL    HW2 8361   3.177   1.235   1.296
 2488SOL     OW 8362   3.310   5.865   6.285
 2488SOL    HW1 8363   3.257   5.795   6.237
 2488SOL    HW2 8364   3.294   5.856   6.384
 2489SOL     OW 8365   6.938   5.508   4.692
 2489SOL    HW1 8366   6.846   5.476   4.670
 2489SOL    HW2 8367   6.951   5.600   4.655
 2490SOL     OW 8368   5.760   3.102   1.363
 2490SOL    HW1 8369   5.749   3.173   1.293
 2490SOL    HW2 8370   5.684   3.106   1.427
 2491SOL     OW 8371   6.943   3.884   3.294
 2491SOL    HW1 8372   6.844   3.898   3.289
 2491SOL    HW2 8373   6.966   3.842   3.382
 2492SOL     OW 8374   4.278   1.097   6.688
 2492SOL    HW1 8375   4.318   1.078   6.778
 2492SOL    HW2 8376   4.198   1.156   6.700
 2493SOL     OW 8377   6.354   0.471   5.109
 2493SOL    HW1 8378   6.366   0.385   5.060
 2493SOL    HW2 8379   6.320   0.452   5.201
 2494SOL     OW 8380   4.831   5.022   1.011
 2494SOL    HW1 8381   4.775   4.939   1.000
 2494SOL    HW2 8382   4.771   5.102   1.016
 2495SOL     OW 8383   0.225   1.243   2.472
 2495SOL    HW1 8384   0.306   1.271   2.420
 2495SOL    HW2 8385   0.242   1.153   2.513
 2496SOL     OW 8386   1.958   4.727   0.576
 2496SOL    HW1 8387   1.941   4.822   0.601
 2496SOL    HW2 8388   1.923   4.667   0.648
 2497SOL     OW 8389   5.772   0.444   6.326
 2497SOL    HW1 8390   5.743   0.388   6.404
 2497SOL    HW2 8391   5.698   0.507   6.301
 2498SOL     OW 8392   0.867   3.295   4.533
 2498SOL    HW1 8393   0.791   3.288   4.598
 2498SOL    HW2 8394   0.887   3.391   4.515
 2499SOL     OW 8395   5.198   1.177   0.159
 2499SOL    HW1 8396   5.280   1.173   0.217
 2499SOL    HW2 8397   5.146   1.259   0.180
 2500SOL     OW 8398   4.787   3.766   6.082
 2500SOL    HW1 8399   4.760   3.690   6.140
 2500SOL    HW2 8400   4.707   3.800   6.032
 2501SOL     OW 8401   6.965   5.016   0.956
 2501SOL    HW1 8402   0.016   5.011   1.024
 2501SOL    HW2 8403   6.942   5.112   0.938
 2502SOL     OW 8404   0.901   0.290   3.548
 2502SOL    HW1 8405   0.904   0.193   3.572
 2502SOL    HW2 8406   0.943   0.304   3.458
 2503SOL     OW 8407   5.575   6.452   4.935
 2503SOL    HW1 8408   5.639   6.441   4.858
 2503SOL    HW2 8409   5.614   6.411   5.017
 2504SOL     OW 8410   2.323   4.210   3.132
 2504SOL    HW1 8411   2.283   4.133   3.082
 2504SOL    HW2 8412   2.325   4.188   3.230
 2505SOL     OW 8413   5.174   4.233   4.814
 2505SOL    HW1 8414   5.217   4.216   4.725
 2505SOL    HW2 8415   5.218   4.176   4.883
 2506SOL     OW 8416   0.732   0.631   0.474
 2506SOL    HW1 8417   0.729   0.534   0.495
 2506SOL    HW2 8418   0.697   0.684   0.552
 2507SOL     OW 8419   6.372   6.223   7.009
 2507SOL    HW1 8420   6.354   6.157   6.935
 2507SOL    HW2 8421   6.449   6.191   0.041
 2508SOL     OW 8422   1.409   2.334   2.208
 2508SOL    HW1 8423   1.439   2.258   2.151
 2508SOL    HW2 8424   1.456   2.329   2.296
 2509SOL     OW 8425   6.020   0.429   3.670
 2509SOL    HW1 8426   6.114   0.460   3.656
 2509SOL    HW2 8427   5.991   0.373   3.592
 2510SOL     OW 8428   4.352   5.943   2.265
 2510SOL    HW1 8429   4.301   5.864   2.297
 2510SOL    HW2 8430   4.390   5.924   2.174
 2511SOL     OW 8431   0.454   6.398   3.335
 2511SOL    HW1 8432   0.528   6.444   3.384
 2511SOL    HW2 8433   0.470   6.299   3.337
 2512SOL     OW 8434   5.737   3.589   4.215
 2512SOL    HW1 8435   5.702   3.509   4.165
 2512SOL    HW2 8436   5.764   3.561   4.307
 2513SOL     OW 8437   6.986   4.780   0.828
 2513SOL    HW1 8438   0.052   4.744   0.861
 2513SOL    HW2 8439   6.960   4.859   0.884
 2514SOL     OW 8440   6.844   1.979   3.689
 2514SOL    HW1 8441   6.897   1.922   3.627
 2514SOL    HW2 8442   6.863   1.954   3.784
 2515SOL     OW 8443   1.102   4.397   6.823
 2515SOL    HW1 8444   1.099   4.489   6.783
 2515SOL    HW2 8445   1.196   4.375   6.849
 2516SOL     OW 8446   5.088   6.854   4.002
 2516SOL    HW1 8447   5.156   6.782   4.015
 2516SOL    HW2 8448   5.045   6.876   4.090
 2517SOL     OW 8449   2.348   5.322   0.669
 2517SOL    HW1 8450   2.340   5.408   0.618
 2517SOL    HW2 8451   2.440   5.316   0.708
 2518SOL     OW 8452   2.338   2.412   0.083
 2518SOL    HW1 8453   2.346   2.384   7.009
 2518SOL    HW2 8454   2.253   2.462   0.096
 2519SOL     OW 8455   6.170   4.482   4.869
 2519SOL    HW1 8456   6.198   4.574   4.840
 2519SOL    HW2 8457   6.089   4.489   4.928
 2520SOL     OW 8458   3.723   5.201   0.996
 2520SOL    HW1 8459   3.677   5.169   0.914
 2520SOL    HW2 8460   3.684   5.156   1.077
 2521SOL     OW 8461   5.922   6.437   5.919
 2521SOL    HW1 8462   5.997   6.415   5.982
 2521SOL    HW2 8463   5.923   6.535   5.899
 2522SOL     OW 8464   2.356   4.711   5.156
 2522SOL    HW1 8465   2.329   4.727   5.061
 2522SOL    HW2 8466   2.438   4.654   5.158
 2523SOL     OW 8467   0.516   2.030   6.452
 2523SOL    HW1 8468   0.524   1.981   6.365
 2523SOL    HW2 8469   0.579   2.107   6.453
 2524SOL     OW 8470   1.716   6.728   4.605
 2524SOL    HW1 8471   1.687   6.808   4.658
 2524SOL    HW2 8472   1.676   6.732   4.513
 2525SOL     OW 8473   2.636   4.769   2.114
 2525SOL    HW1 8474   2.671   4.707   2.045
 2525SOL    HW2 8475   2.580   4.840   2.070
 2526SOL     OW 8476   1.597   2.753   4.553
 2526SOL    HW1 8477   1.560   2.840   4.586
 2526SOL    HW2 8478   1.679   2.770   4.500
 2527SOL     OW 8479   7.016   6.596   4.425
 2527SOL    HW1 8480   0.032   6.675   4.375
 2527SOL    HW2 8481   0.052   6.516   4.408
 2528SOL     OW 8482   5.333   5.238   0.989
 2528SOL    HW1 8483   5.251   5.248   1.045
 2528SOL    HW2 8484   5.369   5.328   0.967
 2529SOL     OW 8485   5.027   4.489   5.239
 2529SOL    HW1 8486   5.116   4.445   5.228
 2529SOL    HW2 8487   4.965   4.427   5.286
 2530SOL     OW 8488   1.192   6.449   3.019
 2530SOL    HW1 8489   1.245   6.372   2.985
 2530SOL    HW2 8490   1.170   6.434   3.116
 2531SOL     OW 8491   5.726   2.300   6.799
 2531SOL    HW1 8492   5.738   2.399   6.789
 2531SOL    HW2 8493   5.789   2.252   6.738
 2532SOL     OW 8494   0.478   5.473   5.962
 2532SOL    HW1 8495   0.428   5.559   5.952
 2532SOL    HW2 8496   0.443   5.405   5.897
 2533SOL     OW 8497   5.553   0.820   4.828
 2533SOL    HW1 8498   5.594   0.766   4.755
 2533SOL    HW2 8499   5.453   0.818   4.820
 2534SOL     OW 8500   6.673   1.191   3.607
 2534SOL    HW1 8501   6.709   1.247   3.681
 2534SOL    HW2 8502   6.688   1.094   3.627
 2535SOL     OW 8503   2.938   1.040   1.989
 2535SOL    HW1 8504   2.900   1.010   1.901
 2535SOL    HW2 8505   3.036   1.056   1.980
 2536SOL     OW 8506   0.473   0.637   3.867
 2536SOL    HW1 8507   0.518   0.581   3.936
 2536SOL    HW2 8508   0.513   0.729   3.866
 2537SOL     OW 8509   2.535   6.188   2.313
 2537SOL    HW1 8510   2.615   6.245   2.297
 2537SOL    HW2 8511   2.492   6.166   2.225
 2538SOL     OW 8512   0.301   5.257   5.365
 2538SOL    HW1 8513   0.268   5.235   5.457
 2538SOL    HW2 8514   0.342   5.348   5.365
 2539SOL     OW 8515   1.914   0.528   5.525
 2539SOL    HW1 8516   1.990   0.585   5.557
 2539SOL    HW2 8517   1.935   0.493   5.433
 2540SOL     OW 8518   4.908   2.599   2.471
 2540SOL    HW1 8519   4.920   2.626   2.376
 2540SOL    HW2 8520   4.949   2.509   2.486
 2541SOL     OW 8521   1.424   1.626   6.947
 2541SOL    HW1 8522   1.491   1.698   6.965
 2541SOL    HW2 8523   1.342   1.667   6.906
 2542SOL     OW 8524   4.050   1.638   3.477
 2542SOL    HW1 8525   4.027   1.709   3.544
 2542SOL    HW2 8526   4.137   1.595   3.502
 2543SOL     OW 8527   5.913   6.929   5.465
 2543SOL    HW1 8528   5.834   6.982   5.436
 2543SOL    HW2 8529   5.940   6.866   5.392
 2544SOL     OW 8530   0.203   6.852   1.083
 2544SOL    HW1 8531   0.261   6.880   1.008
 2544SOL    HW2 8532   0.253   6.790   1.143
 2545SOL     OW 8533   6.545   1.607   6.988
 2545SOL    HW1 8534   6.512   1.689   6.940
 2545SOL    HW2 8535   6.630   1.628   0.013
 2546SOL     OW 8536   6.198   3.546   2.553
 2546SOL    HW1 8537   6.294   3.530   2.532
 2546SOL    HW2 8538   6.152   3.585   2.473
 2547SOL     OW 8539   5.625   3.346   1.055
 2547SOL    HW1 8540   5.630   3.376   0.959
 2547SOL    HW2 8541   5.555   3.275   1.063
 2548SOL     OW 8542   6.945   0.285   5.453
 2548SOL    HW1 8543   6.847   0.277   5.474
 2548SOL    HW2 8544   6.960   0.267   5.356
 2549SOL     OW 8545   2.961   5.283   0.399
 2549SOL    HW1 8546   3.022   5.204   0.389
 2549SOL    HW2 8547   2.870   5.258   0.368
 2550SOL     OW 8548   3.802   0.403   0.903
 2550SOL    HW1 8549   3.782   0.310   0.870
 2550SOL    HW2 8550   3.859   0.398   0.985
 2551SOL     OW 8551   3.451   4.442   1.158
 2551SOL    HW1 8552   3.364   4.397   1.136
 2551SOL    HW2 8553   3.487   4.405   1.244
 2552SOL     OW 8554   2.388   4.730   1.828
 2552SOL    HW1 8555   2.332   4.788   1.886
 2552SOL    HW2 8556   2.332   4.689   1.756
 2553SOL     OW 8557   4.551   1.576   0.102
 2553SOL    HW1 8558   4.617   1.506   0.132
 2553SOL    HW2 8559   4.460   1.536   0.099
 2554SOL     OW 8560   0.912   5.765   0.708
 2554SOL    HW1 8561   0.816   5.792   0.702
 2554SOL    HW2 8562   0.967   5.820   0.646
 2555SOL     OW 8563   1.039   6.294   5.695
 2555SOL    HW1 8564   1.006   6.201   5.708
 2555SOL    HW2 8565   1.133   6.292   5.662
 2556SOL     OW 8566   5.487   0.557   0.710
 2556SOL    HW1 8567   5.438   0.641   0.733
 2556SOL    HW2 8568   5.503   0.503   0.792
 2557SOL     OW 8569   2.597   1.488   0.296
 2557SOL    HW1 8570   2.530   1.424   0.332
 2557SOL    HW2 8571   2.672   1.437   0.253
 2558SOL     OW 8572   5.699   2.204   1.347
 2558SOL    HW1 8573   5.787   2.157   1.334
 2558SOL    HW2 8574   5.660   2.226   1.258
 2559SOL     OW 8575   6.236   5.003   3.540
 2559SOL    HW1 8576   6.170   5.018   3.613
 2559SOL    HW2 8577   6.199   5.039   3.454
 2560SOL     OW 8578   4.210   2.614   1.743
 2560SOL    HW1 8579   4.261   2.559   1.809
 2560SOL    HW2 8580   4.121   2.572   1.727
 2561SOL     OW 8581   3.448   0.202   4.456
 2561SOL    HW1 8582   3.472   0.218   4.552
 2561SOL    HW2 8583   3.477   0.110   4.429
 2562SOL     OW 8584   1.633   6.630   5.062
 2562SOL    HW1 8585   1.587   6.590   4.983
 2562SOL    HW2 8586   1.694   6.703   5.032
 2563SOL     OW 8587   4.113   2.674   6.089
 2563SOL    HW1 8588   4.194   2.615   6.092
 2563SOL    HW2 8589   4.118   2.740   6.164
 2564SOL     OW 8590   1.604   1.219   1.232
 2564SOL    HW1 8591   1.565   1.236   1.142
 2564SOL    HW2 8592   1.701   1.198   1.224
 2565SOL     OW 8593   0.255   0.525   1.187
 2565SOL    HW1 8594   0.167   0.509   1.140
 2565SOL    HW2 8595   0.329   0.521   1.120
 2566SOL     OW 8596   3.018   1.181   0.703
 2566SOL    HW1 8597   3.026   1.090   0.662
 2566SOL    HW2 8598   2.953   1.178   0.779
 2567SOL     OW 8599   2.145   0.973   6.287
 2567SOL    HW1 8600   2.210   1.040   6.322
 2567SOL    HW2 8601   2.183   0.881   6.298
 2568SOL     OW 8602   2.737   6.403   0.912
 2568SOL    HW1 8603   2.693   6.386   1.001
 2568SOL    HW2 8604   2.689   6.351   0.841
 2569SOL     OW 8605   2.435   6.275   6.507
 2569SOL    HW1 8606   2.368   6.349   6.514
 2569SOL    HW2 8607   2.485   6.283   6.421
 2570SOL     OW 8608   0.132   6.988   3.724
 2570SOL    HW1 8609   0.064   6.920   3.696
 2570SOL    HW2 8610   0.192   7.008   3.647
 2571SOL     OW 8611   3.549   3.177   3.107
 2571SOL    HW1 8612   3.544   3.214   3.199
 2571SOL    HW2 8613   3.465   3.200   3.057
 2572SOL     OW 8614   2.661   5.530   2.701
 2572SOL    HW1 8615   2.694   5.600   2.638
 2572SOL    HW2 8616   2.597   5.470   2.654
 2573SOL     OW 8617   6.916   1.002   3.128
 2573SOL    HW1 8618   6.884   0.956   3.045
 2573SOL    HW2 8619   6.856   1.080   3.148
 2574SOL     OW 8620   0.087   4.262   2.044
 2574SOL    HW1 8621   0.042   4.193   2.101
 2574SOL    HW2 8622   0.184   4.239   2.034
 2575SOL     OW 8623   4.728   3.756   5.375
 2575SOL    HW1 8624   4.639   3.782   5.413
 2575SOL    HW2 8625   4.714   3.692   5.299
 2576SOL     OW 8626   0.233   0.146   2.855
 2576SOL    HW1 8627   0.229   0.158   2.756
 2576SOL    HW2 8628   0.224   0.235   2.900
 2577SOL     OW 8629   1.662   4.365   0.849
 2577SOL    HW1 8630   1.651   4.303   0.927
 2577SOL    HW2 8631   1.573   4.387   0.810
 2578SOL     OW 8632   4.422   2.397   4.764
 2578SOL    HW1 8633   4.364   2.327   4.806
 2578SOL    HW2 8634   4.444   2.466   4.832
 2579SOL     OW 8635   0.226   1.054   6.935
 2579SOL    HW1 8636   0.284   0.975   6.950
 2579SOL    HW2 8637   0.235   1.084   6.840
 2580SOL     OW 8638   1.936   1.988   5.851
 2580SOL    HW1 8639   1.962   1.900   5.813
 2580SOL    HW2 8640   1.840   1.985   5.881
 2581SOL     OW 8641   5.591   6.836   4.331
 2581SOL    HW1 8642   5.588   6.838   4.431
 2581SOL    HW2 8643   5.668   6.779   4.301
 2582SOL     OW 8644   6.331   4.025   3.302
 2582SOL    HW1 8645   6.340   4.110   3.250
 2582SOL    HW2 8646   6.254   3.973   3.266
 2583SOL     OW 8647   2.791   0.746   0.490
 2583SOL    HW1 8648   2.880   0.701   0.495
 2583SOL    HW2 8649   2.760   0.750   0.395
 2584SOL     OW 8650   3.933   0.768   3.310
 2584SOL    HW1 8651   4.008   0.742   3.248
 2584SOL    HW2 8652   3.861   0.814   3.257
 2585SOL     OW 8653   3.657   0.711   2.443
 2585SOL    HW1 8654   3.569   0.706   2.490
 2585SOL    HW2 8655   3.711   0.629   2.464
 2586SOL     OW 8656   0.861   1.582   4.075
 2586SOL    HW1 8657   0.902   1.670   4.096
 2586SOL    HW2 8658   0.865   1.523   4.155
 2587SOL     OW 8659   6.301   4.917   2.993
 2587SOL    HW1 8660   6.376   4.927   3.059
 2587SOL    HW2 8661   6.307   4.827   2.950
 2588SOL     OW 8662   3.571   6.631   2.778
 2588SOL    HW1 8663   3.505   6.681   2.835
 2588SOL    HW2 8664   3.658   6.623   2.828
 2589SOL     OW 8665   4.737   6.513   1.936
 2589SOL    HW1 8666   4.783   6.432   1.973
 2589SOL    HW2 8667   4.804   6.570   1.888
 2590SOL     OW 8668   4.126   5.741   3.973
 2590SOL    HW1 8669   4.058   5.812   3.989
 2590SOL    HW2 8670   4.206   5.757   4.031
 2591SOL     OW 8671   6.141   0.525   0.711
 2591SOL    HW1 8672   6.234   0.541   0.677
 2591SOL    HW2 8673   6.076   0.537   0.636
 2592SOL     OW 8674   2.650   4.761   1.774
 2592SOL    HW1 8675   2.551   4.753   1.781
 2592SOL    HW2 8676   2.693   4.703   1.843
 2593SOL     OW 8677   2.952   0.131   3.556
 2593SOL    HW1 8678   3.026   0.178   3.508
 2593SOL    HW2 8679   2.869   0.187   3.551
 2594SOL     OW 8680   2.330   5.939   6.966
 2594SOL    HW1 8681   2.369   6.029   6.946
 2594SOL    HW2 8682   2.295   5.898   6.881
 2595SOL     OW 8683   6.724   2.913   4.179
 2595SOL    HW1 8684   6.787   2.899   4.256
 2595SOL    HW2 8685   6.662   2.834   4.173
 2596SOL     OW 8686   4.249   1.892   1.199
 2596SOL    HW1 8687   4.254   1.800   1.161
 2596SOL    HW2 8688   4.334   1.941   1.181
 2597SOL     OW 8689   2.429   2.131   6.365
 2597SOL    HW1 8690   2.359   2.062   6.382
 2597SOL    HW2 8691   2.397   2.196   6.296
 2598SOL     OW 8692   6.704   1.194   3.224
 2598SOL    HW1 8693   6.647   1.215   3.304
 2598SOL    HW2 8694   6.691   1.265   3.155
 2599SOL     OW 8695   4.812   5.842   6.481
 2599SOL    HW1 8696   4.736   5.906   6.491
 2599SOL    HW2 8697   4.890   5.889   6.439
 2600SOL     OW 8698   0.767   2.511   4.869
 2600SOL    HW1 8699   0.680   2.553   4.843
 2600SOL    HW2 8700   0.768   2.497   4.968
 2601SOL     OW 8701   3.973   4.443   5.508
 2601SOL    HW1 8702   3.946   4.356   5.549
 2601SOL    HW2 8703   3.901   4.511   5.525
 2602SOL     OW 8704   5.899   6.710   6.206
 2602SOL    HW1 8705   5.998   6.715   6.214
 2602SOL    HW2 8706   5.872   6.724   6.111
 2603SOL     OW 8707   1.448   1.872   0.121
 2603SOL    HW1 8708   1.489   1.844   0.207
 2603SOL    HW2 8709   1.508   1.846   0.045
 2604SOL     OW 8710   5.320   1.685   0.429
 2604SOL    HW1 8711   5.312   1.670   0.527
 2604SOL    HW2 8712   5.245   1.744   0.398
 2605SOL     OW 8713   5.587   3.601   4.743
 2605SOL    HW1 8714   5.667   3.650   4.778
 2605SOL    HW2 8715   5.548   3.546   4.817
 2606SOL     OW 8716   6.823   4.829   1.472
 2606SOL    HW1 8717   6.827   4.807   1.375
 2606SOL    HW2 8718   6.753   4.898   1.488
 2607SOL     OW 8719   0.985   1.196   3.728
 2607SOL    HW1 8720   0.957   1.245   3.810
 2607SOL    HW2 8721   1.085   1.191   3.723
 2608SOL     OW 8722   4.775   0.591   0.331
 2608SOL    HW1 8723   4.874   0.584   0.323
 2608SOL    HW2 8724   4.732   0.508   0.296
 2609SOL     OW 8725   0.945   3.593   3.187
 2609SOL    HW1 8726   0.972   3.519   3.126
 2609SOL    HW2 8727   0.918   3.555   3.275
 2610SOL     OW 8728   5.005   5.620   4.958
 2610SOL    HW1 8729   4.976   5.683   5.030
 2610SOL    HW2 8730   5.073   5.556   4.994
 2611SOL     OW 8731   2.766   5.727   2.480
 2611SOL    HW1 8732   2.829   5.726   2.402
 2611SOL    HW2 8733   2.813   5.761   2.561
 2612SOL     OW 8734   0.693   0.060   5.192
 2612SOL    HW1 8735   0.738   7.000   5.155
 2612SOL    HW2 8736   0.642   0.106   5.119
 2613SOL     OW 8737   4.030   1.327   0.321
 2613SOL    HW1 8738   4.120   1.322   0.365
 2613SOL    HW2 8739   4.040   1.363   0.228
 2614SOL     OW 8740   6.289   6.053   6.790
 2614SOL    HW1 8741   6.348   5.973   6.804
 2614SOL    HW2 8742   6.194   6.027   6.804
 2615SOL     OW 8743   6.262   3.836   1.395
 2615SOL    HW1 8744   6.162   3.825   1.395
 2615SOL    HW2 8745   6.305   3.748   1.379
 2616SOL     OW 8746   4.093   3.858   1.811
 2616SOL    HW1 8747   4.032   3.885   1.886
 2616SOL    HW2 8748   4.122   3.939   1.760
 2617SOL     OW 8749   2.519   6.174   1.434
 2617SOL    HW1 8750   2.562   6.090   1.466
 2617SOL    HW2 8751   2.587   6.247   1.428
 2618SOL     OW 8752   0.848   6.066   0.282
 2618SOL    HW1 8753   0.809   6.061   0.190
 2618SOL    HW2 8754   0.812   5.991   0.337
 2619SOL     OW 8755   6.301   1.291   1.896
 2619SOL    HW1 8756   6.383   1.236   1.908
 2619SOL    HW2 8757   6.225   1.233   1.867
 2620SOL     OW 8758   1.499   5.849   3.958
 2620SOL    HW1 8759   1.446   5.784   4.012
 2620SOL    HW2 8760   1.593   5.853   3.994
 2621SOL     OW 8761   0.844   6.208   4.539
 2621SOL    HW1 8762   0.807   6.255   4.619
 2621SOL    HW2 8763   0.910   6.139   4.568
 2622SOL     OW 8764   2.574   2.526   4.653
 2622SOL    HW1 8765   2.636   2.551   4.578
 2622SOL    HW2 8766   2.481   2.520   4.618
 2623SOL     OW 8767   3.219   0.569   6.168
 2623SOL    HW1 8768   3.218   0.645   6.104
 2623SOL    HW2 8769   3.246   0.485   6.121
 2624SOL     OW 8770   5.521   1.917   4.138
 2624SOL    HW1 8771   5.439   1.974   4.125
 2624SOL    HW2 8772   5.499   1.822   4.116
 2625SOL     OW 8773   2.548   0.013   6.039
 2625SOL    HW1 8774   2.482   0.072   5.994
 2625SOL    HW2 8775   2.526   6.939   6.021
 2626SOL     OW 8776   2.210   6.981   3.182
 2626SOL    HW1 8777   2.179   0.021   3.255
 2626SOL    HW2 8778   2.132   6.927   3.150
 2627SOL     OW 8779   0.575   6.806   4.722
 2627SOL    HW1 8780   0.598   6.730   4.661
 2627SOL    HW2 8781   0.608   6.891   4.683
 2628SOL     OW 8782   4.532   5.840   0.298
 2628SOL    HW1 8783   4.440   5.877   0.282
 2628SOL    HW2 8784   4.601   5.906   0.268
 2629SOL     OW 8785   2.927   3.653   1.883
 2629SOL    HW1 8786   3.015   3.700   1.873
 2629SOL    HW2 8787   2.942   3.555   1.891
 2630SOL     OW 8788   3.387   1.897   2.653
 2630SOL    HW1 8789   3.436   1.957   2.716
 2630SOL    HW2 8790   3.432   1.899   2.563
 2631SOL     OW 8791   3.835   6.249   4.231
 2631SOL    HW1 8792   3.861   6.343   4.251
 2631SOL    HW2 8793   3.811   6.241   4.134
 2632SOL     OW 8794   4.816   1.389   1.384
 2632SOL    HW1 8795   4.844   1.470   1.436
 2632SOL    HW2 8796   4.797   1.314   1.446
 2633SOL     OW 8797   0.247   2.404   6.970
 2633SOL    HW1 8798   0.244   2.484   6.910
 2633SOL    HW2 8799   0.192   2.331   6.931
 2634SOL     OW 8800   2.959   4.918   0.631
 2634SOL    HW1 8801   2.990   4.863   0.553
 2634SOL    HW2 8802   3.028   4.915   0.703
 2635SOL     OW 8803   5.905   4.852   3.473
 2635SOL    HW1 8804   5.974   4.780   3.467
 2635SOL    HW2 8805   5.912   4.911   3.392
 2636SOL     OW 8806   5.834   5.868   5.230
 2636SOL    HW1 8807   5.823   5.787   5.288
 2636SOL    HW2 8808   5.891   5.845   5.151
 2637SOL     OW 8809   4.740   5.996   2.945
 2637SOL    HW1 8810   4.662   6.059   2.942
 2637SOL    HW2 8811   4.819   6.041   2.904
 2638SOL     OW 8812   5.091   5.238   1.125
 2638SOL    HW1 8813   5.078   5.140   1.136
 2638SOL    HW2 8814   5.029   5.272   1.055
 2639SOL     OW 8815   6.925   6.809   6.983
 2639SOL    HW1 8816   0.000   6.830   6.992
 2639SOL    HW2 8817   6.878   6.830   0.047
 2640SOL     OW 8818   6.452   6.405   6.550
 2640SOL    HW1 8819   6.384   6.472   6.579
 2640SOL    HW2 8820   6.531   6.408   6.612
 2641SOL     OW 8821   0.076   5.526   0.857
 2641SOL    HW1 8822   0.121   5.444   0.890
 2641SOL    HW2 8823   6.999   5.519   0.872
 2642SOL     OW 8824   6.326   0.641   3.899
 2642SOL    HW1 8825   6.311   0.569   3.831
 2642SOL    HW2 8826   6.407   0.619   3.953
 2643SOL     OW 8827   2.121   0.335   2.317
 2643SOL    HW1 8828   2.035   0.314   2.363
 2643SOL    HW2 8829   2.195   0.282   2.358
 2644SOL     OW 8830   6.658   6.103   4.796
 2644SOL    HW1 8831   6.569   6.119   4.837
 2644SOL    HW2 8832   6.724   6.169   4.830
 2645SOL     OW 8833   5.779   6.236   6.343
 2645SOL    HW1 8834   5.760   6.333   6.329
 2645SOL    HW2 8835   5.859   6.226   6.402
 2646SOL     OW 8836   5.998   5.830   6.266
 2646SOL    HW1 8837   6.079   5.874   6.226
 2646SOL    HW2 8838   6.024   5.741   6.302
 2647SOL     OW 8839   3.277   3.707   0.067
 2647SOL    HW1 8840   3.237   3.617   0.052
 2647SOL    HW2 8841   3.331   3.707   0.151
 2648SOL     OW 8842   4.289   1.383   3.487
 2648SOL    HW1 8843   4.362   1.315   3.493
 2648SOL    HW2 8844   4.249   1.398   3.577
 2649SOL     OW 8845   2.896   3.957   5.338
 2649SOL    HW1 8846   2.919   3.907   5.421
 2649SOL    HW2 8847   2.839   4.036   5.362
 2650SOL     OW 8848   0.834   6.778   2.317
 2650SOL    HW1 8849   0.758   6.842   2.305
 2650SOL    HW2 8850   0.798   6.688   2.341
 2651SOL     OW 8851   0.430   0.100   3.237
 2651SOL    HW1 8852   0.359   0.049   3.189
 2651SOL    HW2 8853   0.389   0.177   3.287
 2652SOL     OW 8854   3.382   3.422   2.659
 2652SOL    HW1 8855   3.322   3.444   2.736
 2652SOL    HW2 8856   3.399   3.324   2.658
 2653SOL     OW 8857   6.988   6.123   0.838
 2653SOL    HW1 8858   6.958   6.028   0.838
 2653SOL    HW2 8859   6.932   6.176   0.901
 2654SOL     OW 8860   6.839   1.958   5.826
 2654SOL    HW1 8861   6.779   1.991   5.900
 2654SOL    HW2 8862   6.791   1.888   5.774
 2655SOL     OW 8863   5.448   5.575   4.371
 2655SOL    HW1 8864   5.387   5.641   4.415
 2655SOL    HW2 8865   5.538   5.617   4.357
 2656SOL     OW 8866   6.022   3.540   4.996
 2656SOL    HW1 8867   6.108   3.511   5.039
 2656SOL    HW2 8868   5.950   3.543   5.065
 2657SOL     OW 8869   3.921   2.447   5.745
 2657SOL    HW1 8870   3.828   2.444   5.709
 2657SOL    HW2 8871   3.979   2.502   5.684
 2658SOL     OW 8872   6.589   4.153   4.930
 2658SOL    HW1 8873   6.591   4.130   4.833
 2658SOL    HW2 8874   6.539   4.239   4.943
 2659SOL     OW 8875   6.591   1.843   3.502
 2659SOL    HW1 8876   6.686   1.869   3.515
 2659SOL    HW2 8877   6.534   1.887   3.571
 2660SOL     OW 8878   0.910   2.192   3.276
 2660SOL    HW1 8879   0.940   2.248   3.199
 2660SOL    HW2 8880   0.811   2.188   3.278
 2661SOL     OW 8881   3.686   6.589   3.196
 2661SOL    HW1 8882   3.780   6.560   3.175
 2661SOL    HW2 8883   3.687   6.684   3.227
 2662SOL     OW 8884   3.796   0.890   3.933
 2662SOL    HW1 8885   3.703   0.927   3.923
 2662SOL    HW2 8886   3.792   0.800   3.977
 2663SOL     OW 8887   0.955   4.222   2.871
 2663SOL    HW1 8888   1.006   4.142   2.900
 2663SOL    HW2 8889   0.861   4.216   2.904
 2664SOL     OW 8890   4.388   4.386   1.620
 2664SOL    HW1 8891   4.416   4.343   1.707
 2664SOL    HW2 8892   4.306   4.440   1.634
 2665SOL     OW 8893   4.639   6.957   5.034
 2665SOL    HW1 8894   4.597   6.957   5.124
 2665SOL    HW2 8895   4.604   6.881   4.980
 2666SOL     OW 8896   5.006   5.567   1.689
 2666SOL    HW1 8897   4.951   5.503   1.743
 2666SOL    HW2 8898   5.039   5.641   1.747
 2667SOL     OW 8899   1.716   5.273   2.966
 2667SOL    HW1 8900   1.748   5.235   3.053
 2667SOL    HW2 8901   1.633   5.226   2.938
 2668SOL     OW 8902   0.169   2.340   4.951
 2668SOL    HW1 8903   0.268   2.343   4.967
 2668SOL    HW2 8904   0.122   2.389   5.025
 2669SOL     OW 8905   3.947   5.882   4.940
 2669SOL    HW1 8906   3.865   5.863   4.886
 2669SOL    HW2 8907   4.018   5.918   4.880
 2670SOL     OW 8908   2.639   6.449   4.253
 2670SOL    HW1 8909   2.564   6.508   4.222
 2670SOL    HW2 8910   2.636   6.363   4.203
 2671SOL     OW 8911   3.177   4.056   6.792
 2671SOL    HW1 8912   3.263   4.039   6.743
 2671SOL    HW2 8913   3.177   4.005   6.878
 2672SOL     OW 8914   0.776   4.387   0.258
 2672SOL    HW1 8915   0.759   4.389   0.357
 2672SOL    HW2 8916   0.724   4.460   0.214
 2673SOL     OW 8917   3.542   2.094   2.759
 2673SOL    HW1 8918   3.507   2.132   2.673
 2673SOL    HW2 8919   3.517   2.155   2.834
 2674SOL     OW 8920   5.685   5.549   5.175
 2674SOL    HW1 8921   5.600   5.498   5.186
 2674SOL    HW2 8922   5.721   5.573   5.265
 2675SOL     OW 8923   0.225   4.698   5.681
 2675SOL    HW1 8924   0.259   4.682   5.774
 2675SOL    HW2 8925   0.253   4.790   5.651
 2676SOL     OW 8926   4.370   0.534   1.862
 2676SOL    HW1 8927   4.306   0.460   1.841
 2676SOL    HW2 8928   4.408   0.520   1.954
 2677SOL     OW 8929   2.355   4.374   2.162
 2677SOL    HW1 8930   2.265   4.350   2.126
 2677SOL    HW2 8931   2.404   4.429   2.094
 2678SOL     OW 8932   0.441   6.340   6.602
 2678SOL    HW1 8933   0.402   6.299   6.520
 2678SOL    HW2 8934   0.489   6.270   6.655
 2679SOL     OW 8935   2.550   5.066   1.869
 2679SOL    HW1 8936   2.552   5.061   1.969
 2679SOL    HW2 8937   2.519   5.157   1.841
 2680SOL     OW 8938   0.855   2.665   1.064
 2680SOL    HW1 8939   0.930   2.694   1.003
 2680SOL    HW2 8940   0.892   2.642   1.154
 2681SOL     OW 8941   2.149   2.074   1.839
 2681SOL    HW1 8942   2.061   2.029   1.820
 2681SOL    HW2 8943   2.159   2.087   1.938
 2682SOL     OW 8944   6.987   2.855   3.609
 2682SOL    HW1 8945   0.035   2.900   3.663
 2682SOL    HW2 8946   6.934   2.794   3.667
 2683SOL     OW 8947   1.441   0.094   0.324
 2683SOL    HW1 8948   1.435   7.019   0.301
 2683SOL    HW2 8949   1.536   0.116   0.347
 2684SOL     OW 8950   2.234   5.608   2.994
 2684SOL    HW1 8951   2.306   5.616   2.926
 2684SOL    HW2 8952   2.231   5.690   3.050
 2685SOL     OW 8953   5.442   5.500   5.802
 2685SOL    HW1 8954   5.536   5.468   5.793
 2685SOL    HW2 8955   5.391   5.437   5.861
 2686SOL     OW 8956   1.054   3.322   5.096
 2686SOL    HW1 8957   1.081   3.397   5.035
 2686SOL    HW2 8958   1.136   3.272   5.125
 2687SOL     OW 8959   4.349   5.266   3.241
 2687SOL    HW1 8960   4.427   5.328   3.255
 2687SOL    HW2 8961   4.332   5.215   3.325
 2688SOL     OW 8962   3.270   4.508   5.579
 2688SOL    HW1 8963   3.206   4.478   5.650
 2688SOL    HW2 8964   3.279   4.436   5.510
 2689SOL     OW 8965   6.044   2.279   4.225
 2689SOL    HW1 8966   6.143   2.285   4.236
 2689SOL    HW2 8967   6.000   2.285   4.315
 2690SOL     OW 8968   3.150   4.009   3.580
 2690SOL    HW1 8969   3.199   4.066   3.514
 2690SOL    HW2 8970   3.188   4.024   3.671
 2691SOL     OW 8971   1.472   6.103   1.868
 2691SOL    HW1 8972   1.404   6.176   1.863
 2691SOL    HW2 8973   1.458   6.039   1.793
 2692SOL     OW 8974   0.148   4.378   3.332
 2692SOL    HW1 8975   0.121   4.289   3.296
 2692SOL    HW2 8976   0.142   4.446   3.259
 2693SOL     OW 8977   1.874   3.397   2.914
 2693SOL    HW1 8978   1.957   3.437   2.951
 2693SOL    HW2 8979   1.872   3.299   2.935
 2694SOL     OW 8980   2.131   1.905   2.841
 2694SOL    HW1 8981   2.127   1.817   2.890
 2694SOL    HW2 8982   2.195   1.897   2.765
 2695SOL     OW 8983   3.774   1.738   2.157
 2695SOL    HW1 8984   3.807   1.665   2.217
 2695SOL    HW2 8985   3.791   1.713   2.062
 2696SOL     OW 8986   3.662   3.569   5.897
 2696SOL    HW1 8987   3.732   3.629   5.936
 2696SOL    HW2 8988   3.705   3.488   5.858
 2697SOL     OW 8989   2.911   1.205   5.156
 2697SOL    HW1 8990   2.968   1.196   5.237
 2697SOL    HW2 8991   2.825   1.250   5.181
 2698SOL     OW 8992   1.272   1.834   6.660
 2698SOL    HW1 8993   1.183   1.866   6.626
 2698SOL    HW2 8994   1.259   1.750   6.713
 2699SOL     OW 8995   1.662   5.068   3.809
 2699SOL    HW1 8996   1.636   5.140   3.873
 2699SOL    HW2 8997   1.674   5.106   3.718
 2700SOL     OW 8998   2.280   4.191   2.663
 2700SOL    HW1 8999   2.271   4.226   2.570
 2700SOL    HW2 9000   2.305   4.265   2.725
 2701SOL     OW 9001   2.704   0.665   5.329
 2701SOL    HW1 9002   2.749   0.747   5.294
 2701SOL    HW2 9003   2.606   0.671   5.313
 2702SOL     OW 9004   6.379   6.279   2.586
 2702SOL    HW1 9005   6.456   6.326   2.542
 2702SOL    HW2 9006   6.414   6.199   2.635
 2703SOL     OW 9007   1.827   2.077   2.995
 2703SOL    HW1 9008   1.816   2.164   3.043
 2703SOL    HW2 9009   1.861   2.095   2.902
 2704SOL     OW 9010   1.298   6.397   0.721
 2704SOL    HW1 9011   1.313   6.336   0.643
 2704SOL    HW2 9012   1.229   6.465   0.696
 2705SOL     OW 9013   0.147   3.669   2.202
 2705SOL    HW1 9014   0.164   3.764   2.229
 2705SOL    HW2 9015   0.229   3.631   2.158
 2706SOL     OW 9016   6.477   2.332   3.693
 2706SOL    HW1 9017   6.420   2.316   3.773
 2706SOL    HW2 9018   6.435   2.288   3.613
 2707SOL     OW 9019   2.281   1.351   6.650
 2707SOL    HW1 9020   2.241   1.276   6.703
 2707SOL    HW2 9021   2.374   1.369   6.682
 2708SOL     OW 9022   1.438   4.995   6.848
 2708SOL    HW1 9023   1.503   5.068   6.868
 2708SOL    HW2 9024   1.487   4.915   6.811
 2709SOL     OW 9025   4.704   6.426   1.665
 2709SOL    HW1 9026   4.678   6.430   1.761
 2709SOL    HW2 9027   4.795   6.466   1.653
 2710SOL     OW 9028   6.575   4.188   2.660
 2710SOL    HW1 9029   6.559   4.287   2.666
 2710SOL    HW2 9030   6.671   4.172   2.635
 2711SOL     OW 9031   1.298   6.994   2.235
 2711SOL    HW1 9032   1.266   0.034   2.307
 2711SOL    HW2 9033   1.220   6.946   2.195
 2712SOL     OW 9034   3.093   5.455   2.773
 2712SOL    HW1 9035   3.081   5.460   2.674
 2712SOL    HW2 9036   3.099   5.359   2.800
 2713SOL     OW 9037   1.671   2.499   5.531
 2713SOL    HW1 9038   1.600   2.558   5.569
 2713SOL    HW2 9039   1.732   2.553   5.473
 2714SOL     OW 9040   5.665   0.035   6.804
 2714SOL    HW1 9041   5.671   0.134   6.815
 2714SOL    HW2 9042   5.573   0.004   6.827
 2715SOL     OW 9043   6.652   0.679   0.182
 2715SOL    HW1 9044   6.607   0.766   0.162
 2715SOL    HW2 9045   6.586   0.604   0.179
 2716SOL     OW 9046   6.354   6.706   1.976
 2716SOL    HW1 9047   6.306   6.665   2.053
 2716SOL    HW2 9048   6.328   6.659   1.891
 2717SOL     OW 9049   0.197   6.782   3.075
 2717SOL    HW1 9050   0.231   6.826   2.992
 2717SOL    HW2 9051   0.205   6.846   3.152
 2718SOL     OW 9052   0.629   4.156   3.440
 2718SOL    HW1 9053   0.684   4.231   3.475
 2718SOL    HW2 9054   0.674   4.114   3.361
 2719SOL     OW 9055   4.059   4.773   2.909
 2719SOL    HW1 9056   4.119   4.749   2.832
 2719SOL    HW2 9057   3.964   4.776   2.878
 2720SOL     OW 9058   0.352   6.058   4.192
 2720SOL    HW1 9059   0.414   6.117   4.140
 2720SOL    HW2 9060   0.298   6.002   4.128
 2721SOL     OW 9061   5.277   6.223   3.586
 2721SOL    HW1 9062   5.289   6.306   3.532
 2721SOL    HW2 9063   5.226   6.245   3.670
 2722SOL     OW 9064   0.688   5.681   2.059
 2722SOL    HW1 9065   0.672   5.742   2.137
 2722SOL    HW2 9066   0.747   5.727   1.992
 2723SOL     OW 9067   2.158   1.700   4.348
 2723SOL    HW1 9068   2.113   1.788   4.334
 2723SOL    HW2 9069   2.166   1.653   4.260
 2724SOL     OW 9070   4.488   5.751   6.256
 2724SOL    HW1 9071   4.489   5.802   6.170
 2724SOL    HW2 9072   4.576   5.704   6.268
 2725SOL     OW 9073   2.786   4.835   3.598
 2725SOL    HW1 9074   2.784   4.809   3.694
 2725SOL    HW2 9075   2.746   4.926   3.587
 2726SOL     OW 9076   4.301   6.095   2.585
 2726SOL    HW1 9077   4.297   6.142   2.497
 2726SOL    HW2 9078   4.380   6.034   2.587
 2727SOL     OW 9079   2.097   6.119   4.155
 2727SOL    HW1 9080   2.189   6.080   4.144
 2727SOL    HW2 9081   2.070   6.113   4.251
 2728SOL     OW 9082   2.917   7.011   5.207
 2728SOL    HW1 9083   2.988   0.044   5.250
 2728SOL    HW2 9084   2.862   0.046   5.147
 2729SOL     OW 9085   0.140   5.006   2.919
 2729SOL    HW1 9086   0.142   4.964   3.010
 2729SOL    HW2 9087   0.153   4.935   2.850
 2730SOL     OW 9088   1.067   4.403   1.186
 2730SOL    HW1 9089   1.112   4.404   1.097
 2730SOL    HW2 9090   0.978   4.358   1.179
 2731SOL     OW 9091   2.591   3.642   0.585
 2731SOL    HW1 9092   2.646   3.639   0.501
 2731SOL    HW2 9093   2.643   3.689   0.656
 2732SOL     OW 9094   5.324   3.139   4.341
 2732SOL    HW1 9095   5.326   3.225   4.392
 2732SOL    HW2 9096   5.261   3.148   4.263
 2733SOL     OW 9097   2.122   0.577   6.686
 2733SOL    HW1 9098   2.139   0.664   6.640
 2733SOL    HW2 9099   2.082   0.512   6.622
 2734SOL     OW 9100   1.668   6.992   4.320
 2734SOL    HW1 9101   1.623   6.904   4.336
 2734SOL    HW2 9102   1.714   6.991   4.232
 2735SOL     OW 9103   1.657   5.768   1.798
 2735SOL    HW1 9104   1.643   5.675   1.766
 2735SOL    HW2 9105   1.718   5.816   1.735
 2736SOL     OW 9106   4.300   6.958   6.618
 2736SOL    HW1 9107   4.268   6.881   6.673
 2736SOL    HW2 9108   4.272   6.945   6.523
 2737SOL     OW 9109   3.904   3.805   5.486
 2737SOL    HW1 9110   3.924   3.823   5.389
 2737SOL    HW2 9111   3.940   3.715   5.511
 2738SOL     OW 9112   6.380   4.061   4.151
 2738SOL    HW1 9113   6.446   4.133   4.172
 2738SOL    HW2 9114   6.401   4.022   4.061
 2739SOL     OW 9115   4.307   4.356   0.062
 2739SOL    HW1 9116   4.211   4.326   0.062
 2739SOL    HW2 9117   4.365   4.283   0.024
 2740SOL     OW 9118   6.066   2.601   4.398
 2740SOL    HW1 9119   6.024   2.596   4.308
 2740SOL    HW2 9120   6.142   2.536   4.402
 2741SOL     OW 9121   2.137   2.939   5.140
 2741SOL    HW1 9122   2.089   2.910   5.057
 2741SOL    HW2 9123   2.235   2.941   5.123
 2742SOL     OW 9124   2.553   6.014   5.771
 2742SOL    HW1 9125   2.478   6.037   5.833
 2742SOL    HW2 9126   2.541   5.921   5.736
 2743SOL     OW 9127   5.632   4.489   6.613
 2743SOL    HW1 9128   5.696   4.516   6.685
 2743SOL    HW2 9129   5.601   4.395   6.630
 2744SOL     OW 9130   4.921   6.770   0.537
 2744SOL    HW1 9131   4.936   6.742   0.632
 2744SOL    HW2 9132   5.000   6.743   0.481
 2745SOL     OW 9133   3.139   5.785   2.069
 2745SOL    HW1 9134   3.081   5.841   2.010
 2745SOL    HW2 9135   3.233   5.818   2.063
 2746SOL     OW 9136   0.758   1.871   6.501
 2746SOL    HW1 9137   0.686   1.930   6.464
 2746SOL    HW2 9138   0.766   1.789   6.444
 2747SOL     OW 9139   4.943   5.977   3.856
 2747SOL    HW1 9140   4.881   5.901   3.873
 2747SOL    HW2 9141   4.941   6.001   3.759
 2748SOL     OW 9142   5.764   1.160   4.860
 2748SOL    HW1 9143   5.763   1.100   4.780
 2748SOL    HW2 9144   5.694   1.131   4.925
 2749SOL     OW 9145   5.153   4.948   3.309
 2749SOL    HW1 9146   5.220   4.884   3.347
 2749SOL    HW2 9147   5.126   5.013   3.380
 2750SOL     OW 9148   1.256   6.672   0.354
 2750SOL    HW1 9149   1.255   6.754   0.411
 2750SOL    HW2 9150   1.169   6.624   0.362
 2751SOL     OW 9151   1.922   0.168   6.640
 2751SOL    HW1 9152   1.998   0.121   6.685
 2751SOL    HW2 9153   1.855   0.101   6.608
 2752SOL     OW 9154   0.854   6.913   6.221
 2752SOL    HW1 9155   0.875   6.998   6.173
 2752SOL    HW2 9156   0.909   6.906   6.304
 2753SOL     OW 9157   3.427   5.270   5.048
 2753SOL    HW1 9158   3.475   5.340   4.995
 2753SOL    HW2 9159   3.341   5.308   5.083
 2754SOL     OW 9160   1.044   5.960   4.182
 2754SOL    HW1 9161   1.108   5.964   4.105
 2754SOL    HW2 9162   0.968   5.899   4.158
 2755SOL     OW 9163   4.655   6.223   2.519
 2755SOL    HW1 9164   4.595   6.294   2.557
 2755SOL    HW2 9165   4.609   6.134   2.525
 2756SOL     OW 9166   0.074   2.589   5.355
 2756SOL    HW1 9167   0.169   2.559   5.353
 2756SOL    HW2 9168   0.040   2.589   5.449
 2757SOL     OW 9169   5.445   3.815   6.260
 2757SOL    HW1 9170   5.359   3.786   6.218
 2757SOL    HW2 9171   5.518   3.753   6.232
 2758SOL     OW 9172   0.180   6.054   1.601
 2758SOL    HW1 9173   0.163   5.957   1.582
 2758SOL    HW2 9174   0.103   6.109   1.568
 2759SOL     OW 9175   3.707   3.721   5.165
 2759SOL    HW1 9176   3.645   3.784   5.119
 2759SOL    HW2 9177   3.661   3.682   5.245
 2760SOL     OW 9178   5.053   5.569   2.479
 2760SOL    HW1 9179   5.034   5.663   2.506
 2760SOL    HW2 9180   5.074   5.566   2.381
 2761SOL     OW 9181   1.668   3.426   4.185
 2761SOL    HW1 9182   1.600   3.484   4.229
 2761SOL    HW2 9183   1.623   3.353   4.134
 2762SOL     OW 9184   4.415   1.312   2.057
 2762SOL    HW1 9185   4.378   1.220   2.046
 2762SOL    HW2 9186   4.443   1.326   2.152
 2763SOL     OW 9187   5.961   0.989   4.224
 2763SOL    HW1 9188   5.924   0.956   4.137
 2763SOL    HW2 9189   5.914   0.942   4.299
 2764SOL     OW 9190   6.736   2.775   3.373
 2764SOL    HW1 9191   6.698   2.716   3.445
 2764SOL    HW2 9192   6.832   2.751   3.359
 2765SOL     OW 9193   0.226   6.469   6.785
 2765SOL    HW1 9194   0.155   6.509   6.726
 2765SOL    HW2 9195   0.297   6.428   6.728
 2766SOL     OW 9196   4.689   0.292   0.561
 2766SOL    HW1 9197   4.724   0.279   0.468
 2766SOL    HW2 9198   4.699   0.207   0.613
 2767SOL     OW 9199   0.480   5.994   5.755
 2767SOL    HW1 9200   0.492   6.051   5.674
 2767SOL    HW2 9201   0.386   6.004   5.789
 2768SOL     OW 9202   4.096   6.489   1.376
 2768SOL    HW1 9203   4.187   6.455   1.400
 2768SOL    HW2 9204   4.079   6.575   1.423
 2769SOL     OW 9205   0.712   4.888   5.318
 2769SOL    HW1 9206   0.666   4.822   5.377
 2769SOL    HW2 9207   0.733   4.846   5.230
 2770SOL     OW 9208   2.587   6.690   0.670
 2770SOL    HW1 9209   2.498   6.706   0.713
 2770SOL    HW2 9210   2.576   6.623   0.597
 2771SOL     OW 9211   4.413   6.826   5.178
 2771SOL    HW1 9212   4.411   6.911   5.231
 2771SOL    HW2 9213   4.423   6.748   5.240
 2772SOL     OW 9214   5.424   2.027   3.472
 2772SOL    HW1 9215   5.364   2.100   3.505
 2772SOL    HW2 9216   5.467   2.055   3.387
 2773SOL     OW 9217   5.646   2.081   6.365
 2773SOL    HW1 9218   5.659   2.163   6.310
 2773SOL    HW2 9219   5.551   2.079   6.399
 2774SOL     OW 9220   6.701   0.349   3.843
 2774SOL    HW1 9221   6.613   0.315   3.877
 2774SOL    HW2 9222   6.747   0.401   3.915
 2775SOL     OW 9223   6.835   2.150   4.430
 2775SOL    HW1 9224   6.908   2.140   4.498
 2775SOL    HW2 9225   6.872   2.138   4.338
 2776SOL     OW 9226   4.566   3.880   5.973
 2776SOL    HW1 9227   4.473   3.851   5.951
 2776SOL    HW2 9228   4.580   3.974   5.940
 2777SOL     OW 9229   1.800   2.042   0.249
 2777SOL    HW1 9230   1.860   1.994   0.312
 2777SOL    HW2 9231   1.719   2.075   0.298
 2778SOL     OW 9232   3.373   0.066   5.701
 2778SOL    HW1 9233   3.431   0.137   5.663
 2778SOL    HW2 9234   3.421   0.019   5.775
 2779SOL     OW 9235   4.733   0.969   2.770
 2779SOL    HW1 9236   4.820   1.004   2.805
 2779SOL    HW2 9237   4.729   0.870   2.784
 2780SOL     OW 9238   0.708   1.203   4.802
 2780SOL    HW1 9239   0.747   1.289   4.834
 2780SOL    HW2 9240   0.655   1.220   4.719
 2781SOL     OW 9241   0.307   0.371   2.570
 2781SOL    HW1 9242   0.296   0.294   2.507
 2781SOL    HW2 9243   0.362   0.342   2.649
 2782SOL     OW 9244   5.809   0.132   5.006
 2782SOL    HW1 9245   5.729   0.126   5.066
 2782SOL    HW2 9246   5.884   0.175   5.055
 2783SOL     OW 9247   6.078   3.023   2.015
 2783SOL    HW1 9248   6.095   3.043   2.111
 2783SOL    HW2 9249   6.078   2.925   2.000
 2784SOL     OW 9250   0.177   2.841   1.938
 2784SOL    HW1 9251   0.211   2.846   1.844
 2784SOL    HW2 9252   0.164   2.745   1.963
 2785SOL     OW 9253   5.465   3.882   3.687
 2785SOL    HW1 9254   5.440   3.844   3.776
 2785SOL    HW2 9255   5.564   3.870   3.674
 2786SOL     OW 9256   6.853   5.585   0.572
 2786SOL    HW1 9257   6.768   5.631   0.546
 2786SOL    HW2 9258   6.873   5.605   0.668
 2787SOL     OW 9259   0.920   6.723   5.777
 2787SOL    HW1 9260   0.976   6.724   5.860
 2787SOL    HW2 9261   0.874   6.812   5.767
 2788SOL     OW 9262   3.026   6.422   0.449
 2788SOL    HW1 9263   3.024   6.435   0.548
 2788SOL    HW2 9264   3.110   6.374   0.423
 2789SOL     OW 9265   1.820   1.597   3.896
 2789SOL    HW1 9266   1.792   1.535   3.823
 2789SOL    HW2 9267   1.816   1.692   3.863
 2790SOL     OW 9268   6.725   5.450   1.361
 2790SOL    HW1 9269   6.746   5.543   1.331
 2790SOL    HW2 9270   6.787   5.423   1.435
 2791SOL     OW 9271   0.339   3.037   5.140
 2791SOL    HW1 9272   0.418   2.998   5.188
 2791SOL    HW2 9273   0.285   3.091   5.204
 2792SOL     OW 9274   2.866   2.541   6.002
 2792SOL    HW1 9275   2.944   2.580   5.953
 2792SOL    HW2 9276   2.877   2.443   6.012
 2793SOL     OW 9277   3.818   3.549   6.231
 2793SOL    HW1 9278   3.720   3.547   6.209
 2793SOL    HW2 9279   3.832   3.597   6.317
 2794SOL     OW 9280   1.636   1.844   6.958
 2794SOL    HW1 9281   1.717   1.804   7.002
 2794SOL    HW2 9282   1.664   1.897   6.878
 2795SOL     OW 9283   1.565   0.031   0.727
 2795SOL    HW1 9284   1.639   0.087   0.689
 2795SOL    HW2 9285   1.540   0.065   0.818
 2796SOL     OW 9286   3.210   6.331   6.890
 2796SOL    HW1 9287   3.151   6.411   6.904
 2796SOL    HW2 9288   3.251   6.304   6.977
 2797SOL     OW 9289   4.757   4.187   4.162
 2797SOL    HW1 9290   4.744   4.117   4.232
 2797SOL    HW2 9291   4.845   4.173   4.117
 2798SOL     OW 9292   5.282   2.314   1.838
 2798SOL    HW1 9293   5.354   2.383   1.844
 2798SOL    HW2 9294   5.271   2.269   1.926
 2799SOL     OW 9295   3.422   6.512   4.938
 2799SOL    HW1 9296   3.370   6.435   4.973
 2799SOL    HW2 9297   3.360   6.578   4.895
 2800SOL     OW 9298   5.034   1.780   6.663
 2800SOL    HW1 9299   5.030   1.833   6.748
 2800SOL    HW2 9300   4.982   1.696   6.675
 2801SOL     OW 9301   0.372   4.248   3.521
 2801SOL    HW1 9302   0.463   4.214   3.498
 2801SOL    HW2 9303   0.323   4.273   3.438
 2802SOL     OW 9304   1.196   4.721   4.319
 2802SOL    HW1 9305   1.202   4.795   4.251
 2802SOL    HW2 9306   1.281   4.718   4.372
 2803SOL     OW 9307   3.341   2.243   6.480
 2803SOL    HW1 9308   3.312   2.331   6.443
 2803SOL    HW2 9309   3.438   2.247   6.502
 2804SOL     OW 9310   5.796   2.506   3.965
 2804SOL    HW1 9311   5.853   2.517   4.047
 2804SOL    HW2 9312   5.721   2.573   3.968
 2805SOL     OW 9313   4.249   4.542   0.284
 2805SOL    HW1 9314   4.346   4.551   0.261
 2805SOL    HW2 9315   4.239   4.531   0.383
 2806SOL     OW 9316   0.347   2.947   4.671
 2806SOL    HW1 9317   0.368   2.989   4.760
 2806SOL    HW2 9318   0.301   2.860   4.687
 2807SOL     OW 9319   4.595   1.842   4.222
 2807SOL    HW1 9320   4.557   1.784   4.295
 2807SOL    HW2 9321   4.682   1.804   4.192
 2808SOL     OW 9322   1.362   6.131   6.375
 2808SOL    HW1 9323   1.410   6.055   6.330
 2808SOL    HW2 9324   1.268   6.135   6.340
 2809SOL     OW 9325   1.132   6.107   0.791
 2809SOL    HW1 9326   1.104   6.048   0.867
 2809SOL    HW2 9327   1.074   6.188   0.788
 2810SOL     OW 9328   0.777   6.166   2.384
 2810SOL    HW1 9329   0.742   6.182   2.292
 2810SOL    HW2 9330   0.700   6.144   2.445
 2811SOL     OW 9331   0.789   0.925   0.491
 2811SOL    HW1 9332   0.868   0.907   0.432
 2811SOL    HW2 9333   0.708   0.941   0.434
 2812SOL     OW 9334   1.902   1.275   1.148
 2812SOL    HW1 9335   1.859   1.231   1.069
 2812SOL    HW2 9336   1.991   1.234   1.165
 2813SOL     OW 9337   6.743   1.946   1.066
 2813SOL    HW1 9338   6.687   1.865   1.083
 2813SOL    HW2 9339   6.820   1.947   1.129
 2814SOL     OW 9340   2.680   4.414   6.909
 2814SOL    HW1 9341   2.702   4.355   6.987
 2814SOL    HW2 9342   2.631   4.360   6.840
 2815SOL     OW 9343   6.878   5.663   5.076
 2815SOL    HW1 9344   6.942   5.596   5.038
 2815SOL    HW2 9345   6.786   5.624   5.077
 2816SOL     OW 9346   0.893   4.873   4.684
 2816SOL    HW1 9347   0.947   4.820   4.618
 2816SOL    HW2 9348   0.907   4.837   4.776
 2817SOL     OW 9349   2.289   0.694   2.057
 2817SOL    HW1 9350   2.343   0.759   2.110
 2817SOL    HW2 9351   2.192   0.715   2.067
 2818SOL     OW 9352   1.800   1.025   0.574
 2818SOL    HW1 9353   1.786   0.967   0.494
 2818SOL    HW2 9354   1.868   0.984   0.634
 2819SOL     OW 9355   6.891   0.307   6.473
 2819SOL    HW1 9356   6.894   0.256   6.387
 2819SOL    HW2 9357   6.796   0.334   6.492
 2820SOL     OW 9358   1.850   1.821   0.462
 2820SOL    HW1 9359   1.871   1.783   0.552
 2820SOL    HW2 9360   1.764   1.782   0.428
 2821SOL     OW 9361   3.144   2.181   6.258
 2821SOL    HW1 9362   3.155   2.209   6.162
 2821SOL    HW2 9363   3.222   2.216   6.311
 2822SOL     OW 9364   4.098   2.927   1.338
 2822SOL    HW1 9365   4.091   2.831   1.365
 2822SOL    HW2 9366   4.167   2.972   1.394
 2823SOL     OW 9367   5.867   4.051   2.793
 2823SOL    HW1 9368   5.833   4.112   2.722
 2823SOL    HW2 9369   5.874   3.958   2.758
 2824SOL     OW 9370   0.522   4.416   5.129
 2824SOL    HW1 9371   0.542   4.322   5.156
 2824SOL    HW2 9372   0.429   4.440   5.157
 2825SOL     OW 9373   5.504   2.335   5.532
 2825SOL    HW1 9374   5.432   2.266   5.526
 2825SOL    HW2 9375   5.590   2.297   5.499
 2826SOL     OW 9376   2.742   3.387   6.908
 2826SOL    HW1 9377   2.836   3.405   6.937
 2826SOL    HW2 9378   2.696   3.473   6.889
 2827SOL     OW 9379   6.422   2.016   0.111
 2827SOL    HW1 9380   6.391   2.056   0.025
 2827SOL    HW2 9381   6.463   2.087   0.168
 2828SOL     OW 9382   1.563   4.346   0.092
 2828SOL    HW1 9383   1.594   4.252   0.103
 2828SOL    HW2 9384   1.566   4.393   0.180
 2829SOL     OW 9385   3.289   4.122   1.638
 2829SOL    HW1 9386   3.225   4.195   1.660
 2829SOL    HW2 9387   3.348   4.105   1.717
 2830SOL     OW 9388   3.029   5.730   4.283
 2830SOL    HW1 9389   3.037   5.759   4.379
 2830SOL    HW2 9390   3.103   5.667   4.261
 2831SOL     OW 9391   6.440   1.534   2.000
 2831SOL    HW1 9392   6.454   1.613   1.939
 2831SOL    HW2 9393   6.350   1.495   1.984
 2832SOL     OW 9394   1.315   4.132   1.505
 2832SOL    HW1 9395   1.246   4.105   1.438
 2832SOL    HW2 9396   1.321   4.062   1.576
 2833SOL     OW 9397   6.527   3.251   3.458
 2833SOL    HW1 9398   6.509   3.290   3.368
 2833SOL    HW2 9399   6.574   3.164   3.448
 2834SOL     OW 9400   2.913   0.696   4.729
 2834SOL    HW1 9401   2.941   0.714   4.635
 2834SOL    HW2 9402   2.814   0.702   4.737
 2835SOL     OW 9403   6.870   1.165   0.614
 2835SOL    HW1 9404   6.784   1.124   0.643
 2835SOL    HW2 9405   6.914   1.209   0.692
 2836SOL     OW 9406   3.172   5.899   1.226
 2836SOL    HW1 9407   3.082   5.937   1.248
 2836SOL    HW2 9408   3.177   5.804   1.258
 2837SOL     OW 9409   5.790   4.250   2.618
 2837SOL    HW1 9410   5.706   4.263   2.565
 2837SOL    HW2 9411   5.828   4.340   2.642
 2838SOL     OW 9412   6.894   3.737   5.996
 2838SOL    HW1 9413   6.915   3.832   5.973
 2838SOL    HW2 9414   6.970   3.678   5.969
 2839SOL     OW 9415   5.937   2.907   5.613
 2839SOL    HW1 9416   5.842   2.905   5.646
 2839SOL    HW2 9417   5.999   2.885   5.689
 2840SOL     OW 9418   6.340   6.218   5.381
 2840SOL    HW1 9419   6.322   6.187   5.287
 2840SOL    HW2 9420   6.333   6.317   5.385
 2841SOL     OW 9421   5.833   3.766   2.940
 2841SOL    HW1 9422   5.827   3.815   3.027
 2841SOL    HW2 9423   5.742   3.737   2.911
 2842SOL     OW 9424   0.880   6.491   3.701
 2842SOL    HW1 9425   0.785   6.523   3.699
 2842SOL    HW2 9426   0.931   6.533   3.627
 2843SOL     OW 9427   1.084   3.156   4.626
 2843SOL    HW1 9428   1.001   3.204   4.597
 2843SOL    HW2 9429   1.163   3.217   4.615
 2844SOL     OW 9430   5.350   4.257   0.185
 2844SOL    HW1 9431   5.300   4.314   0.119
 2844SOL    HW2 9432   5.437   4.301   0.208
 2845SOL     OW 9433   3.869   2.073   1.292
 2845SOL    HW1 9434   3.850   1.979   1.320
 2845SOL    HW2 9435   3.825   2.136   1.355
 2846SOL     OW 9436   5.143   6.976   6.865
 2846SOL    HW1 9437   5.143   0.050   6.840
 2846SOL    HW2 9438   5.086   6.925   6.801
 2847SOL     OW 9439   5.341   4.501   2.587
 2847SOL    HW1 9440   5.322   4.591   2.628
 2847SOL    HW2 9441   5.340   4.431   2.658
 2848SOL     OW 9442   0.448   3.425   6.997
 2848SOL    HW1 9443   0.526   3.480   6.966
 2848SOL    HW2 9444   0.462   3.398   0.070
 2849SOL     OW 9445   5.505   0.677   1.073
 2849SOL    HW1 9446   5.433   0.644   1.013
 2849SOL    HW2 9447   5.468   0.698   1.163
 2850SOL     OW 9448   0.760   1.031   0.924
 2850SOL    HW1 9449   0.786   0.971   1.000
 2850SOL    HW2 9450   0.662   1.021   0.906
 2851SOL     OW 9451   3.711   3.614   1.847
 2851SOL    HW1 9452   3.639   3.557   1.807
 2851SOL    HW2 9453   3.670   3.679   1.912
 2852SOL     OW 9454   0.588   5.293   4.624
 2852SOL    HW1 9455   0.493   5.323   4.624
 2852SOL    HW2 9456   0.640   5.345   4.691
 2853SOL     OW 9457   0.486   4.451   6.099
 2853SOL    HW1 9458   0.517   4.499   6.181
 2853SOL    HW2 9459   0.468   4.355   6.121
 2854SOL     OW 9460   3.429   0.406   6.925
 2854SOL    HW1 9461   3.509   0.346   6.916
 2854SOL    HW2 9462   3.447   0.473   6.997
 2855SOL     OW 9463   2.087   1.941   4.181
 2855SOL    HW1 9464   2.057   2.036   4.171
 2855SOL    HW2 9465   2.186   1.939   4.190
 2856SOL     OW 9466   1.474   5.454   4.745
 2856SOL    HW1 9467   1.556   5.438   4.800
 2856SOL    HW2 9468   1.398   5.478   4.804
 2857SOL     OW 9469   0.377   4.449   0.328
 2857SOL    HW1 9470   0.293   4.473   0.279
 2857SOL    HW2 9471   0.400   4.353   0.309
 2858SOL     OW 9472   5.436   4.818   3.829
 2858SOL    HW1 9473   5.381   4.743   3.793
 2858SOL    HW2 9474   5.530   4.810   3.796
 2859SOL     OW 9475   6.489   4.896   2.067
 2859SOL    HW1 9476   6.535   4.974   2.025
 2859SOL    HW2 9477   6.490   4.819   2.003
 2860SOL     OW 9478   0.968   6.661   3.193
 2860SOL    HW1 9479   0.942   6.588   3.131
 2860SOL    HW2 9480   0.926   6.747   3.163
 2861SOL     OW 9481   5.511   3.123   5.315
 2861SOL    HW1 9482   5.466   3.153   5.230
 2861SOL    HW2 9483   5.530   3.025   5.310
 2862SOL     OW 9484   4.668   1.087   0.448
 2862SOL    HW1 9485   4.694   1.023   0.376
 2862SOL    HW2 9486   4.568   1.098   0.448
 2863SOL     OW 9487   5.567   1.641   6.154
 2863SOL    HW1 9488   5.606   1.557   6.192
 2863SOL    HW2 9489   5.623   1.719   6.180
 2864SOL     OW 9490   4.045   4.744   0.999
 2864SOL    HW1 9491   3.975   4.682   1.034
 2864SOL    HW2 9492   4.136   4.706   1.017
 2865SOL     OW 9493   5.370   5.140   6.124
 2865SOL    HW1 9494   5.432   5.078   6.075
 2865SOL    HW2 9495   5.367   5.114   6.220
 2866SOL     OW 9496   4.135   5.755   0.970
 2866SOL    HW1 9497   4.201   5.686   1.000
 2866SOL    HW2 9498   4.076   5.715   0.899
 2867SOL     OW 9499   0.106   6.191   2.685
 2867SOL    HW1 9500   0.165   6.265   2.654
 2867SOL    HW2 9501   0.154   6.104   2.677
 2868SOL     OW 9502   6.711   0.045   5.194
 2868SOL    HW1 9503   6.700   0.026   5.292
 2868SOL    HW2 9504   6.723   6.981   5.145
 2869SOL     OW 9505   5.136   4.910   5.489
 2869SOL    HW1 9506   5.151   4.989   5.548
 2869SOL    HW2 9507   5.090   4.838   5.542
 2870SOL     OW 9508   0.439   1.453   1.445
 2870SOL    HW1 9509   0.474   1.533   1.397
 2870SOL    HW2 9510   0.514   1.405   1.490
 2871SOL     OW 9511   4.492   1.139   3.294
 2871SOL    HW1 9512   4.472   1.221   3.239
 2871SOL    HW2 9513   4.498   1.060   3.234
 2872SOL     OW 9514   3.747   1.659   2.835
 2872SOL    HW1 9515   3.730   1.593   2.909
 2872SOL    HW2 9516   3.710   1.748   2.862
 2873SOL     OW 9517   0.853   6.934   2.605
 2873SOL    HW1 9518   0.820   6.939   2.510
 2873SOL    HW2 9519   0.952   6.922   2.605
 2874SOL     OW 9520   2.020   0.735   2.962
 2874SOL    HW1 9521   2.049   0.798   3.034
 2874SOL    HW2 9522   2.094   0.670   2.942
 2875SOL     OW 9523   2.664   0.674   2.729
 2875SOL    HW1 9524   2.699   0.603   2.667
 2875SOL    HW2 9525   2.719   0.757   2.719
 2876SOL     OW 9526   0.873   6.869   1.081
 2876SOL    HW1 9527   0.936   6.806   1.127
 2876SOL    HW2 9528   0.869   6.955   1.132
 2877SOL     OW 9529   1.347   3.485   6.555
 2877SOL    HW1 9530   1.386   3.482   6.462
 2877SOL    HW2 9531   1.304   3.397   6.576
 2878SOL     OW 9532   3.224   3.178   4.407
 2878SOL    HW1 9533   3.292   3.251   4.403
 2878SOL    HW2 9534   3.139   3.213   4.445
 2879SOL     OW 9535   5.939   5.810   0.570
 2879SOL    HW1 9536   5.956   5.880   0.639
 2879SOL    HW2 9537   5.975   5.722   0.602
 2880SOL     OW 9538   1.496   1.867   2.735
 2880SOL    HW1 9539   1.516   1.819   2.821
 2880SOL    HW2 9540   1.531   1.814   2.658
 2881SOL     OW 9541   4.979   4.976   6.977
 2881SOL    HW1 9542   5.079   4.976   6.985
 2881SOL    HW2 9543   4.952   4.906   6.911
 2882SOL     OW 9544   4.829   6.645   6.995
 2882SOL    HW1 9545   4.769   6.678   6.922
 2882SOL    HW2 9546   4.829   6.710   0.049
 2883SOL     OW 9547   5.161   6.586   3.077
 2883SOL    HW1 9548   5.179   6.626   2.988
 2883SOL    HW2 9549   5.189   6.490   3.077
 2884SOL     OW 9550   6.010   5.632   3.325
 2884SOL    HW1 9551   5.995   5.728   3.350
 2884SOL    HW2 9552   5.958   5.573   3.386
 2885SOL     OW 9553   0.201   3.716   3.298
 2885SOL    HW1 9554   0.130   3.661   3.341
 2885SOL    HW2 9555   0.220   3.681   3.206
 2886SOL     OW 9556   2.252   4.190   4.758
 2886SOL    HW1 9557   2.187   4.134   4.707
 2886SOL    HW2 9558   2.270   4.148   4.847
 2887SOL     OW 9559   0.096   4.773   3.050
 2887SOL    HW1 9560   0.014   4.764   3.107
 2887SOL    HW2 9561   0.080   4.728   2.962
 2888SOL     OW 9562   4.332   6.022   6.299
 2888SOL    HW1 9563   4.422   5.997   6.262
 2888SOL    HW2 9564   4.344   6.077   6.381
 2889SOL     OW 9565   3.913   5.638   4.636
 2889SOL    HW1 9566   4.004   5.673   4.613
 2889SOL    HW2 9567   3.920   5.540   4.658
 2890SOL     OW 9568   1.633   2.225   0.653
 2890SOL    HW1 9569   1.638   2.169   0.736
 2890SOL    HW2 9570   1.719   2.273   0.639
 2891SOL     OW 9571   1.229   1.246   5.566
 2891SOL    HW1 9572   1.294   1.265   5.492
 2891SOL    HW2 9573   1.137   1.241   5.527
 2892SOL     OW 9574   5.522   4.085   1.985
 2892SOL    HW1 9575   5.620   4.098   1.994
 2892SOL    HW2 9576   5.504   4.006   1.926
 2893SOL     OW 9577   6.843   5.684   5.425
 2893SOL    HW1 9578   6.934   5.671   5.385
 2893SOL    HW2 9579   6.778   5.622   5.381
 2894SOL     OW 9580   1.818   5.685   1.067
 2894SOL    HW1 9581   1.777   5.652   1.152
 2894SOL    HW2 9582   1.846   5.780   1.079
 2895SOL     OW 9583   4.792   6.674   6.081
 2895SOL    HW1 9584   4.883   6.700   6.112
 2895SOL    HW2 9585   4.766   6.729   6.002
 2896SOL     OW 9586   6.377   0.387   5.740
 2896SOL    HW1 9587   6.365   0.309   5.678
 2896SOL    HW2 9588   6.458   0.371   5.797
 2897SOL     OW 9589   3.637   5.866   3.356
 2897SOL    HW1 9590   3.645   5.799   3.430
 2897SOL    HW2 9591   3.629   5.818   3.269
 2898SOL     OW 9592   5.065   2.680   2.931
 2898SOL    HW1 9593   5.112   2.745   2.872
 2898SOL    HW2 9594   5.127   2.649   3.003
 2899SOL     OW 9595   6.487   2.959   0.940
 2899SOL    HW1 9596   6.468   2.988   0.847
 2899SOL    HW2 9597   6.581   2.927   0.947
 2900SOL     OW 9598   3.140   3.131   5.264
 2900SOL    HW1 9599   3.119   3.192   5.340
 2900SOL    HW2 9600   3.100   3.041   5.282
 2901SOL     OW 9601   1.439   3.800   1.577
 2901SOL    HW1 9602   1.513   3.740   1.608
 2901SOL    HW2 9603   1.406   3.854   1.654
 2902SOL     OW 9604   5.544   6.167   3.327
 2902SOL    HW1 9605   5.612   6.099   3.298
 2902SOL    HW2 9606   5.532   6.163   3.426
 2903SOL     OW 9607   0.934   5.458   1.000
 2903SOL    HW1 9608   0.838   5.473   1.025
 2903SOL    HW2 9609   0.978   5.546   0.983
 2904SOL     OW 9610   2.790   4.766   4.783
 2904SOL    HW1 9611   2.742   4.834   4.838
 2904SOL    HW2 9612   2.825   4.694   4.842
 2905SOL     OW 9613   1.193   4.802   1.404
 2905SOL    HW1 9614   1.147   4.886   1.374
 2905SOL    HW2 9615   1.287   4.802   1.370
 2906SOL     OW 9616   0.168   6.223   6.082
 2906SOL    HW1 9617   0.225   6.170   6.146
 2906SOL    HW2 9618   0.111   6.286   6.134
 2907SOL     OW 9619   6.690   1.021   5.715
 2907SOL    HW1 9620   6.660   0.928   5.695
 2907SOL    HW2 9621   6.638   1.086   5.660
 2908SOL     OW 9622   4.275   6.385   4.007
 2908SOL    HW1 9623   4.366   6.352   3.983
 2908SOL    HW2 9624   4.213   6.372   3.929
 2909SOL     OW 9625   0.441   6.685   1.419
 2909SOL    HW1 9626   0.417   6.609   1.479
 2909SOL    HW2 9627   0.511   6.741   1.463
 2910SOL     OW 9628   1.124   1.036   4.392
 2910SOL    HW1 9629   1.158   0.971   4.323
 2910SOL    HW2 9630   1.055   0.991   4.448
 2911SOL     OW 9631   6.504   3.692   4.131
 2911SOL    HW1 9632   6.543   3.711   4.041
 2911SOL    HW2 9633   6.562   3.628   4.180
 2912SOL     OW 9634   0.472   1.403   2.431
 2912SOL    HW1 9635   0.557   1.452   2.415
 2912SOL    HW2 9636   0.430   1.434   2.516
 2913SOL     OW 9637   0.889   6.289   4.063
 2913SOL    HW1 9638   0.827   6.213   4.042
 2913SOL    HW2 9639   0.944   6.311   3.983
 2914SOL     OW 9640   3.712   4.487   1.035
 2914SOL    HW1 9641   3.638   4.548   1.064
 2914SOL    HW2 9642   3.677   4.394   1.025
 2915SOL     OW 9643   2.027   0.596   4.169
 2915SOL    HW1 9644   1.978   0.655   4.106
 2915SOL    HW2 9645   2.094   0.650   4.221
 2916SOL     OW 9646   0.125   5.463   6.367
 2916SOL    HW1 9647   0.065   5.541   6.383
 2916SOL    HW2 9648   0.149   5.458   6.270
 2917SOL     OW 9649   2.335   0.691   3.446
 2917SOL    HW1 9650   2.382   0.639   3.375
 2917SOL    HW2 9651   2.236   0.674   3.440
 2918SOL     OW 9652   4.907   2.280   1.208
 2918SOL    HW1 9653   4.899   2.181   1.223
 2918SOL    HW2 9654   5.002   2.303   1.188
 2919SOL     OW 9655   0.988   6.351   5.173
 2919SOL    HW1 9656   0.967   6.345   5.271
 2919SOL    HW2 9657   0.982   6.446   5.143
 2920SOL     OW 9658   2.726   2.223   1.876
 2920SOL    HW1 9659   2.790   2.270   1.936
 2920SOL    HW2 9660   2.764   2.216   1.784
 2921SOL     OW 9661   0.604   5.511   3.195
 2921SOL    HW1 9662   0.619   5.486   3.291
 2921SOL    HW2 9663   0.509   5.540   3.183
 2922SOL     OW 9664   3.852   4.856   3.142
 2922SOL    HW1 9665   3.935   4.811   3.175
 2922SOL    HW2 9666   3.874   4.915   3.064
 2923SOL     OW 9667   1.257   5.524   4.048
 2923SOL    HW1 9668   1.281   5.620   4.062
 2923SOL    HW2 9669   1.328   5.465   4.086
 2924SOL     OW 9670   5.722   1.683   6.690
 2924SOL    HW1 9671   5.767   1.598   6.664
 2924SOL    HW2 9672   5.783   1.738   6.747
 2925SOL     OW 9673   5.546   6.907   4.621
 2925SOL    HW1 9674   5.558   6.864   4.711
 2925SOL    HW2 9675   5.516   7.001   4.634
 2926SOL     OW 9676   6.341   2.721   4.589
 2926SOL    HW1 9677   6.424   2.756   4.633
 2926SOL    HW2 9678   6.262   2.742   4.645
 2927SOL     OW 9679   0.961   2.497   2.221
 2927SOL    HW1 9680   1.009   2.516   2.308
 2927SOL    HW2 9681   0.897   2.571   2.202
 2928SOL     OW 9682   4.884   4.324   0.741
 2928SOL    HW1 9683   4.905   4.271   0.824
 2928SOL    HW2 9684   4.954   4.395   0.729
 2929SOL     OW 9685   2.093   2.056   3.453
 2929SOL    HW1 9686   2.074   2.151   3.428
 2929SOL    HW2 9687   2.174   2.024   3.404
 2930SOL     OW 9688   0.642   3.347   4.250
 2930SOL    HW1 9689   0.580   3.367   4.326
 2930SOL    HW2 9690   0.709   3.421   4.243
 2931SOL     OW 9691   6.005   4.076   6.035
 2931SOL    HW1 9692   6.066   3.997   6.043
 2931SOL    HW2 9693   5.911   4.045   6.032
 2932SOL     OW 9694   6.624   6.065   0.919
 2932SOL    HW1 9695   6.692   6.139   0.925
 2932SOL    HW2 9696   6.542   6.099   0.872
 2933SOL     OW 9697   0.890   6.876   0.256
 2933SOL    HW1 9698   0.947   6.954   0.234
 2933SOL    HW2 9699   0.922   6.796   0.205
 2934SOL     OW 9700   5.692   5.052   2.070
 2934SOL    HW1 9701   5.640   5.119   2.123
 2934SOL    HW2 9702   5.630   5.003   2.009
 2935SOL     OW 9703   0.993   3.907   5.769
 2935SOL    HW1 9704   1.069   3.914   5.834
 2935SOL    HW2 9705   0.964   3.812   5.761
 2936SOL     OW 9706   4.012   5.928   2.212
 2936SOL    HW1 9707   4.052   5.966   2.128
 2936SOL    HW2 9708   4.085   5.888   2.268
 2937SOL     OW 9709   6.317   3.642   3.224
 2937SOL    HW1 9710   6.231   3.592   3.233
 2937SOL    HW2 9711   6.354   3.628   3.132
 2938SOL     OW 9712   0.706   5.602   1.053
 2938SOL    HW1 9713   0.657   5.600   0.966
 2938SOL    HW2 9714   0.726   5.697   1.078
 2939SOL     OW 9715   5.973   6.434   1.362
 2939SOL    HW1 9716   5.990   6.411   1.458
 2939SOL    HW2 9717   5.917   6.363   1.320
 2940SOL     OW 9718   4.738   6.494   3.956
 2940SOL    HW1 9719   4.793   6.480   4.039
 2940SOL    HW2 9720   4.658   6.433   3.958
 2941SOL     OW 9721   2.571   5.101   2.737
 2941SOL    HW1 9722   2.497   5.033   2.737
 2941SOL    HW2 9723   2.557   5.165   2.812
 2942SOL     OW 9724   3.515   1.953   1.364
 2942SOL    HW1 9725   3.547   1.875   1.310
 2942SOL    HW2 9726   3.582   1.975   1.435
 2943SOL     OW 9727   0.440   3.906   3.793
 2943SOL    HW1 9728   0.431   3.869   3.701
 2943SOL    HW2 9729   0.455   4.005   3.789
 2944SOL     OW 9730   0.586   5.808   3.041
 2944SOL    HW1 9731   0.642   5.732   3.007
 2944SOL    HW2 9732   0.495   5.773   3.066
 2945SOL     OW 9733   5.723   3.820   0.587
 2945SOL    HW1 9734   5.742   3.905   0.540
 2945SOL    HW2 9735   5.669   3.838   0.669
 2946SOL     OW 9736   3.121   4.070   4.591
 2946SOL    HW1 9737   3.060   4.002   4.632
 2946SOL    HW2 9738   3.135   4.049   4.495
 2947SOL     OW 9739   6.122   5.264   6.892
 2947SOL    HW1 9740   6.156   5.294   6.981
 2947SOL    HW2 9741   6.047   5.200   6.905
 2948SOL     OW 9742   6.244   4.379   0.763
 2948SOL    HW1 9743   6.302   4.307   0.726
 2948SOL    HW2 9744   6.295   4.433   0.829
 2949SOL     OW 9745   1.482   6.059   1.176
 2949SOL    HW1 9746   1.500   6.041   1.273
 2949SOL    HW2 9747   1.567   6.048   1.124
 2950SOL     OW 9748   5.435   5.425   2.313
 2950SOL    HW1 9749   5.446   5.482   2.231
 2950SOL    HW2 9750   5.455   5.480   2.394
 2951SOL     OW 9751   0.723   2.286   1.302
 2951SOL    HW1 9752   0.790   2.359   1.308
 2951SOL    HW2 9753   0.716   2.240   1.390
 2952SOL     OW 9754   0.484   1.462   4.123
 2952SOL    HW1 9755   0.546   1.457   4.201
 2952SOL    HW2 9756   0.404   1.518   4.147
 2953SOL     OW 9757   1.451   5.902   3.092
 2953SOL    HW1 9758   1.505   5.818   3.097
 2953SOL    HW2 9759   1.370   5.886   3.034
 2954SOL     OW 9760   0.829   4.377   6.263
 2954SOL    HW1 9761   0.765   4.428   6.321
 2954SOL    HW2 9762   0.841   4.284   6.300
 2955SOL     OW 9763   2.146   4.738   6.690
 2955SOL    HW1 9764   2.102   4.689   6.765
 2955SOL    HW2 9765   2.108   4.830   6.684
 2956SOL     OW 9766   5.539   3.964   4.532
 2956SOL    HW1 9767   5.604   3.893   4.504
 2956SOL    HW2 9768   5.559   4.049   4.483
 2957SOL     OW 9769   1.500   5.115   2.898
 2957SOL    HW1 9770   1.409   5.134   2.937
 2957SOL    HW2 9771   1.527   5.022   2.923
 2958SOL     OW 9772   1.583   4.212   1.625
 2958SOL    HW1 9773   1.541   4.136   1.575
 2958SOL    HW2 9774   1.682   4.199   1.630
 2959SOL     OW 9775   0.244   4.478   3.777
 2959SOL    HW1 9776   0.164   4.417   3.772
 2959SOL    HW2 9777   0.304   4.458   3.700
 2960SOL     OW 9778   5.112   6.098   0.911
 2960SOL    HW1 9779   5.013   6.094   0.925
 2960SOL    HW2 9780   5.158   6.069   0.995
 2961SOL     OW 9781   5.860   2.509   1.534
 2961SOL    HW1 9782   5.929   2.456   1.582
 2961SOL    HW2 9783   5.903   2.564   1.463
 2962SOL     OW 9784   0.063   0.066   4.091
 2962SOL    HW1 9785   0.063   0.166   4.086
 2962SOL    HW2 9786   0.158   0.034   4.097
 2963SOL     OW 9787   2.000   1.720   5.428
 2963SOL    HW1 9788   2.010   1.803   5.483
 2963SOL    HW2 9789   1.904   1.692   5.428
 2964SOL     OW 9790   1.227   0.537   6.042
 2964SOL    HW1 9791   1.164   0.483   6.097
 2964SOL    HW2 9792   1.282   0.476   5.985
 2965SOL     OW 9793   6.226   0.280   6.460
 2965SOL    HW1 9794   6.312   0.318   6.426
 2965SOL    HW2 9795   6.198   0.204   6.402
 2966SOL     OW 9796   3.550   5.944   2.839
 2966SOL    HW1 9797   3.584   5.936   2.745
 2966SOL    HW2 9798   3.487   6.021   2.845
 2967SOL     OW 9799   5.838   6.889   4.997
 2967SOL    HW1 9800   5.932   6.894   5.029
 2967SOL    HW2 9801   5.801   6.982   4.987
 2968SOL     OW 9802   1.272   4.398   1.587
 2968SOL    HW1 9803   1.268   4.305   1.552
 2968SOL    HW2 9804   1.339   4.450   1.534
 2969SOL     OW 9805   4.591   2.668   4.650
 2969SOL    HW1 9806   4.545   2.684   4.737
 2969SOL    HW2 9807   4.597   2.570   4.634
 2970SOL     OW 9808   2.552   2.188   6.066
 2970SOL    HW1 9809   2.578   2.282   6.089
 2970SOL    HW2 9810   2.611   2.153   5.993
 2971SOL     OW 9811   4.361   3.662   6.141
 2971SOL    HW1 9812   4.278   3.686   6.192
 2971SOL    HW2 9813   4.371   3.723   6.062
 2972SOL     OW 9814   0.556   6.072   6.181
 2972SOL    HW1 9815   0.501   6.101   6.259
 2972SOL    HW2 9816   0.502   6.010   6.123
 2973SOL     OW 9817   5.488   0.787   4.104
 2973SOL    HW1 9818   5.548   0.707   4.104
 2973SOL    HW2 9819   5.504   0.841   4.186
 2974SOL     OW 9820   5.406   6.159   2.585
 2974SOL    HW1 9821   5.503   6.142   2.603
 2974SOL    HW2 9822   5.355   6.074   2.594
 2975SOL     OW 9823   0.075   3.657   4.587
 2975SOL    HW1 9824   0.143   3.728   4.570
 2975SOL    HW2 9825   7.010   3.683   4.545
 2976SOL     OW 9826   3.820   0.467   1.476
 2976SOL    HW1 9827   3.793   0.494   1.384
 2976SOL    HW2 9828   3.891   0.530   1.509
 2977SOL     OW 9829   1.475   0.872   2.281
 2977SOL    HW1 9830   1.564   0.878   2.326
 2977SOL    HW2 9831   1.403   0.874   2.350
 2978SOL     OW 9832   3.663   6.179   6.958
 2978SOL    HW1 9833   3.748   6.127   6.949
 2978SOL    HW2 9834   3.595   6.143   6.894
 2979SOL     OW 9835   2.861   1.282   5.695
 2979SOL    HW1 9836   2.776   1.304   5.647
 2979SOL    HW2 9837   2.937   1.329   5.651
 2980SOL     OW 9838   3.390   3.027   3.983
 2980SOL    HW1 9839   3.467   3.083   4.011
 2980SOL    HW2 9840   3.334   3.005   4.063
 2981SOL     OW 9841   2.924   1.956   1.703
 2981SOL    HW1 9842   3.006   1.899   1.704
 2981SOL    HW2 9843   2.913   1.996   1.612
 2982SOL     OW 9844   1.720   0.791   1.676
 2982SOL    HW1 9845   1.752   0.768   1.768
 2982SOL    HW2 9846   1.635   0.740   1.657
 2983SOL     OW 9847   6.754   2.784   6.419
 2983SOL    HW1 9848   6.806   2.800   6.335
 2983SOL    HW2 9849   6.738   2.686   6.430
 2984SOL     OW 9850   0.487   6.269   0.981
 2984SOL    HW1 9851   0.519   6.240   1.071
 2984SOL    HW2 9852   0.394   6.236   0.967
 2985SOL     OW 9853   6.782   0.015   5.748
 2985SOL    HW1 9854   6.735   6.967   5.801
 2985SOL    HW2 9855   6.874   0.030   5.784
 2986SOL     OW 9856   3.813   3.223   2.990
 2986SOL    HW1 9857   3.877   3.273   3.047
 2986SOL    HW2 9858   3.723   3.220   3.034
 2987SOL     OW 9859   2.340   5.713   4.963
 2987SOL    HW1 9860   2.433   5.748   4.970
 2987SOL    HW2 9861   2.320   5.654   5.042
 2988SOL     OW 9862   0.843   1.486   6.536
 2988SOL    HW1 9863   0.898   1.552   6.485
 2988SOL    HW2 9864   0.748   1.492   6.505
 2989SOL     OW 9865   5.699   3.767   5.880
 2989SOL    HW1 9866   5.749   3.838   5.929
 2989SOL    HW2 9867   5.730   3.764   5.785
 2990SOL     OW 9868   4.810   0.743   5.408
 2990SOL    HW1 9869   4.876   0.758   5.334
 2990SOL    HW2 9870   4.787   0.646   5.412
 2991SOL     OW 9871   6.405   2.934   0.044
 2991SOL    HW1 9872   6.405   2.976   6.975
 2991SOL    HW2 9873   6.325   2.966   0.095
 2992SOL     OW 9874   1.273   4.021   5.521
 2992SOL    HW1 9875   1.252   3.928   5.490
 2992SOL    HW2 9876   1.188   4.070   5.540
 2993SOL     OW 9877   3.630   4.955   6.701
 2993SOL    HW1 9878   3.638   4.997   6.610
 2993SOL    HW2 9879   3.534   4.955   6.728
 2994SOL     OW 9880   2.381   4.928   4.866
 2994SOL    HW1 9881   2.471   4.969   4.880
 2994SOL    HW2 9882   2.390   4.828   4.867
 2995SOL     OW 9883   4.884   0.082   1.802
 2995SOL    HW1 9884   4.959   0.103   1.865
 2995SOL    HW2 9885   4.800   0.127   1.834
 2996SOL     OW 9886   6.807   0.786   4.113
 2996SOL    HW1 9887   6.894   0.835   4.112
 2996SOL    HW2 9888   6.731   0.850   4.105
 2997SOL     OW 9889   4.704   6.032   4.302
 2997SOL    HW1 9890   4.794   5.989   4.303
 2997SOL    HW2 9891   4.659   6.019   4.391
 2998SOL     OW 9892   2.480   0.062   2.041
 2998SOL    HW1 9893   2.544   0.050   1.965
 2998SOL    HW2 9894   2.517   0.019   2.123
 2999SOL     OW 9895   1.693   4.873   0.335
 2999SOL    HW1 9896   1.744   4.903   0.255
 2999SOL    HW2 9897   1.595   4.883   0.318
 3000SOL     OW 9898   1.879   4.380   6.208
 3000SOL    HW1 9899   1.915   4.413   6.296
 3000SOL    HW2 9900   1.791   4.335   6.222
 3001SOL     OW 9901   3.816   0.412   6.293
 3001SOL    HW1 9902   3.867   0.478   6.238
 3001SOL    HW2 9903   3.754   0.360   6.233
 3002SOL     OW 9904   1.156   2.298   2.126
 3002SOL    HW1 9905   1.252   2.315   2.145
 3002SOL    HW2 9906   1.102   2.380   2.147
 3003SOL     OW 9907   1.461   6.251   0.529
 3003SOL    HW1 9908   1.523   6.239   0.607
 3003SOL    HW2 9909   1.514   6.255   0.445
 3004SOL     OW 9910   2.976   0.059   4.516
 3004SOL    HW1 9911   2.931   0.065   4.427
 3004SOL    HW2 9912   2.999   0.152   4.548
 3005SOL     OW 9913   2.632   2.199   0.523
 3005SOL    HW1 9914   2.577   2.188   0.606
 3005SOL    HW2 9915   2.680   2.287   0.526
 3006SOL     OW 9916   5.597   1.034   5.784
 3006SOL    HW1 9917   5.604   1.030   5.685
 3006SOL    HW2 9918   5.504   1.058   5.811
 3007SOL     OW 9919   6.298   5.628   6.091
 3007SOL    HW1 9920   6.324   5.531   6.090
 3007SOL    HW2 9921   6.297   5.663   5.997
 3008SOL     OW 9922   5.365   4.301   5.458
 3008SOL    HW1 9923   5.309   4.257   5.529
 3008SOL    HW2 9924   5.322   4.288   5.369
 3009SOL     OW 9925   5.316   3.513   1.994
 3009SOL    HW1 9926   5.408   3.484   1.968
 3009SOL    HW2 9927   5.316   3.542   2.090
 3010SOL     OW 9928   4.191   4.598   1.594
 3010SOL    HW1 9929   4.107   4.619   1.543
 3010SOL    HW2 9930   4.268   4.647   1.554
 3011SOL     OW 9931   6.093   6.932   0.214
 3011SOL    HW1 9932   6.061   7.018   0.175
 3011SOL    HW2 9933   6.191   6.936   0.231
 3012SOL     OW 9934   2.598   1.500   4.746
 3012SOL    HW1 9935   2.508   1.468   4.717
 3012SOL    HW2 9936   2.664   1.425   4.736
 3013SOL     OW 9937   0.617   5.489   5.412
 3013SOL    HW1 9938   0.528   5.519   5.376
 3013SOL    HW2 9939   0.645   5.549   5.486
 3014SOL     OW 9940   3.876   0.498   0.048
 3014SOL    HW1 9941   3.805   0.501   7.000
 3014SOL    HW2 9942   3.849   0.432   0.119
 3015SOL     OW 9943   2.087   6.611   6.137
 3015SOL    HW1 9944   2.122   6.650   6.222
 3015SOL    HW2 9945   2.081   6.682   6.067
 3016SOL     OW 9946   3.392   1.091   4.463
 3016SOL    HW1 9947   3.416   1.135   4.376
 3016SOL    HW2 9948   3.315   1.029   4.449
 3017SOL     OW 9949   1.549   6.249   0.252
 3017SOL    HW1 9950   1.606   6.327   0.277
 3017SOL    HW2 9951   1.467   6.281   0.206
 3018SOL     OW 9952   2.478   2.323   1.762
 3018SOL    HW1 9953   2.527   2.254   1.816
 3018SOL    HW2 9954   2.492   2.413   1.804
 3019SOL     OW 9955   1.385   0.677   5.152
 3019SOL    HW1 9956   1.344   0.594   5.188
 3019SOL    HW2 9957   1.468   0.699   5.204
 3020SOL     OW 9958   4.703   4.193   6.758
 3020SOL    HW1 9959   4.674   4.278   6.713
 3020SOL    HW2 9960   4.803   4.188   6.758
 3021SOL     OW 9961   4.352   6.153   4.581
 3021SOL    HW1 9962   4.255   6.129   4.588
 3021SOL    HW2 9963   4.365   6.218   4.506
 3022SOL     OW 9964   3.947   6.938   3.322
 3022SOL    HW1 9965   4.028   6.996   3.320
 3022SOL    HW2 9966   3.963   6.856   3.267
 3023SOL     OW 9967   5.022   4.645   4.975
 3023SOL    HW1 9968   5.094   4.634   5.044
 3023SOL    HW2 9969   5.010   4.559   4.926
 3024SOL     OW 9970   6.348   1.410   0.376
 3024SOL    HW1 9971   6.341   1.447   0.284
 3024SOL    HW2 9972   6.434   1.359   0.385
 3025SOL     OW 9973   4.283   5.064   0.800
 3025SOL    HW1 9974   4.278   5.068   0.700
 3025SOL    HW2 9975   4.379   5.056   0.828
 3026SOL     OW 9976   0.252   0.160   2.400
 3026SOL    HW1 9977   0.325   0.138   2.334
 3026SOL    HW2 9978   0.171   0.189   2.350
 3027SOL     OW 9979   4.204   0.389   0.572
 3027SOL    HW1 9980   4.191   0.318   0.642
 3027SOL    HW2 9981   4.295   0.380   0.533
 3028SOL     OW 9982   3.981   3.058   4.207
 3028SOL    HW1 9983   4.046   2.982   4.204
 3028SOL    HW2 9984   3.909   3.043   4.139
 3029SOL     OW 9985   7.007   2.398   4.601
 3029SOL    HW1 9986   0.003   2.401   4.503
 3029SOL    HW2 9987   6.955   2.479   4.628
 3030SOL     OW 9988   0.510   3.493   6.251
 3030SOL    HW1 9989   0.459   3.575   6.222
 3030SOL    HW2 9990   0.512   3.428   6.175
 3031SOL     OW 9991   0.447   4.559   6.837
 3031SOL    HW1 9992   0.495   4.490   6.892
 3031SOL    HW2 9993   0.512   4.606   6.778
 3032SOL     OW 9994   3.603   0.131   3.941
 3032SOL    HW1 9995   3.656   0.115   3.857
 3032SOL    HW2 9996   3.507   0.110   3.923
 3033SOL     OW 9997   1.950   0.840   6.734
 3033SOL    HW1 9998   1.960   0.925   6.785
 3033SOL    HW2 9999   2.033   0.825   6.679
 3034SOL     OW10000   5.543   3.395   3.367
 3034SOL    HW110001   5.531   3.484   3.412
 3034SOL    HW210002   5.462   3.339   3.384
 3035SOL     OW10003   6.469   3.859   6.497
 3035SOL    HW110004   6.383   3.908   6.510
 3035SOL    HW210005   6.544   3.913   6.537
 3036SOL     OW10006   3.122   2.275   5.896
 3036SOL    HW110007   3.166   2.353   5.942
 3036SOL    HW210008   3.024   2.280   5.910
 3037SOL     OW10009   0.399   5.240   6.335
 3037SOL    HW110010   0.486   5.243   6.385
 3037SOL    HW210011   0.385   5.328   6.289
 3038SOL     OW10012   5.673   4.630   5.074
 3038SOL    HW110013   5.643   4.583   5.157
 3038SOL    HW210014   5.621   4.595   4.996
 3039SOL     OW10015   6.001   3.297   6.096
 3039SOL    HW110016   6.061   3.330   6.169
 3039SOL    HW210017   5.973   3.375   6.039
 3040SOL     OW10018   4.218   6.424   6.570
 3040SOL    HW110019   4.305   6.376   6.585
 3040SOL    HW210020   4.196   6.422   6.472
 3041SOL     OW10021   2.489   5.903   6.647
 3041SOL    HW110022   2.579   5.887   6.607
 3041SOL    HW210023   2.486   5.996   6.685
 3042SOL     OW10024   0.007   5.464   3.822
 3042SOL    HW110025   6.987   5.553   3.839
 3042SOL    HW210026   0.063   5.469   3.740
 3043SOL     OW10027   2.308   3.912   1.160
 3043SOL    HW110028   2.314   4.006   1.195
 3043SOL    HW210029   2.398   3.870   1.162
 3044SOL     OW10030   3.791   3.861   4.741
 3044SOL    HW110031   3.779   3.772   4.784
 3044SOL    HW210032   3.853   3.917   4.796
 3045SOL     OW10033   5.668   0.560   3.270
 3045SOL    HW110034   5.613   0.579   3.188
 3045SOL    HW210035   5.731   0.636   3.285
 3046SOL     OW10036   6.528   5.673   1.169
 3046SOL    HW110037   6.433   5.660   1.139
 3046SOL    HW210038   6.562   5.760   1.133
 3047SOL     OW10039   5.014   1.532   3.568
 3047SOL    HW110040   4.960   1.537   3.484
 3047SOL    HW210041   5.109   1.556   3.550
 3048SOL     OW10042   4.661   5.244   0.999
 3048SOL    HW110043   4.660   5.338   0.964
 3048SOL    HW210044   4.604   5.186   0.941
 3049SOL     OW10045   0.086   0.744   1.586
 3049SOL    HW110046   0.119   0.823   1.637
 3049SOL    HW210047   0.121   0.748   1.493
 3050SOL     OW10048   3.968   2.381   6.164
 3050SOL    HW110049   4.060   2.392   6.199
 3050SOL    HW210050   3.922   2.470   6.162
 3051SOL     OW10051   2.258   4.739   6.302
 3051SOL    HW110052   2.162   4.724   6.281
 3051SOL    HW210053   2.286   4.830   6.271
 3052SOL     OW10054   5.883   6.285   3.810
 3052SOL    HW110055   5.843   6.376   3.808
 3052SOL    HW210056   5.982   6.292   3.823
 3053SOL     OW10057   0.703   5.545   6.320
 3053SOL    HW110058   0.663   5.561   6.230
 3053SOL    HW210059   0.793   5.588   6.325
 3054SOL     OW10060   6.213   6.609   3.422
 3054SOL    HW110061   6.290   6.635   3.480
 3054SOL    HW210062   6.129   6.646   3.461
 3055SOL     OW10063   5.188   6.403   0.710
 3055SOL    HW110064   5.200   6.470   0.784
 3055SOL    HW210065   5.091   6.380   0.701
 3056SOL     OW10066   4.051   2.220   0.692
 3056SOL    HW110067   4.092   2.210   0.783
 3056SOL    HW210068   4.122   2.246   0.626
 3057SOL     OW10069   6.663   3.396   3.847
 3057SOL    HW110070   6.580   3.340   3.856
 3057SOL    HW210071   6.679   3.416   3.751
 3058SOL     OW10072   6.149   4.329   6.102
 3058SOL    HW110073   6.236   4.311   6.056
 3058SOL    HW210074   6.101   4.242   6.118
 3059SOL     OW10075   1.634   2.732   3.612
 3059SOL    HW110076   1.682   2.701   3.694
 3059SOL    HW210077   1.642   2.662   3.541
 3060SOL     OW10078   5.761   3.937   3.548
 3060SOL    HW110079   5.842   3.987   3.579
 3060SOL    HW210080   5.787   3.870   3.478
 3061SOL     OW10081   5.774   6.416   2.349
 3061SOL    HW110082   5.730   6.494   2.395
 3061SOL    HW210083   5.858   6.392   2.398
 3062SOL     OW10084   3.766   5.192   0.677
 3062SOL    HW110085   3.756   5.216   0.580
 3062SOL    HW210086   3.854   5.146   0.690
 3063SOL     OW10087   6.550   5.265   0.516
 3063SOL    HW110088   6.628   5.271   0.578
 3063SOL    HW210089   6.579   5.220   0.431
 3064SOL     OW10090   4.492   1.724   6.072
 3064SOL    HW110091   4.529   1.776   5.995
 3064SOL    HW210092   4.510   1.626   6.058
 3065SOL     OW10093   5.244   0.749   6.766
 3065SOL    HW110094   5.258   0.734   6.864
 3065SOL    HW210095   5.148   0.736   6.744
 3066SOL     OW10096   5.559   6.756   6.035
 3066SOL    HW110097   5.561   6.778   6.132
 3066SOL    HW210098   5.475   6.707   6.013
 3067SOL     OW10099   1.834   2.247   4.570
 3067SOL    HW110100   1.898   2.287   4.636
 3067SOL    HW210101   1.864   2.156   4.545
 3068SOL     OW10102   5.740   6.942   0.377
 3068SOL    HW110103   5.758   6.868   0.312
 3068SOL    HW210104   5.824   6.994   0.391
 3069SOL     OW10105   5.505   6.080   3.620
 3069SOL    HW110106   5.486   5.987   3.651
 3069SOL    HW210107   5.421   6.134   3.620
 3070SOL     OW10108   3.016   1.261   1.280
 3070SOL    HW110109   2.987   1.171   1.249
 3070SOL    HW210110   2.950   1.297   1.346
 3071SOL     OW10111   5.567   4.532   4.834
 3071SOL    HW110112   5.555   4.436   4.808
 3071SOL    HW210113   5.518   4.590   4.769
 3072SOL     OW10114   1.648   6.539   5.330
 3072SOL    HW110115   1.743   6.507   5.332
 3072SOL    HW210116   1.624   6.568   5.237
 3073SOL     OW10117   6.941   5.395   3.120
 3073SOL    HW110118   0.017   5.406   3.108
 3073SOL    HW210119   6.894   5.437   3.042
 3074SOL     OW10120   3.375   3.128   1.834
 3074SOL    HW110121   3.302   3.187   1.800
 3074SOL    HW210122   3.455   3.184   1.857
 3075SOL     OW10123   3.693   4.938   0.496
 3075SOL    HW110124   3.778   4.897   0.464
 3075SOL    HW210125   3.655   4.997   0.426
 3076SOL     OW10126   1.960   1.512   4.105
 3076SOL    HW110127   1.892   1.529   4.033
 3076SOL    HW210128   2.037   1.575   4.094
 3077SOL     OW10129   6.939   3.810   2.396
 3077SOL    HW110130   0.001   3.809   2.343
 3077SOL    HW210131   6.863   3.837   2.338
 3078SOL     OW10132   6.789   4.682   1.162
 3078SOL    HW110133   6.784   4.660   1.065
 3078SOL    HW210134   6.696   4.702   1.196
 3079SOL     OW10135   0.945   4.030   3.506
 3079SOL    HW110136   1.032   3.980   3.507
 3079SOL    HW210137   0.943   4.095   3.582
 3080SOL     OW10138   3.839   4.671   1.716
 3080SOL    HW110139   3.872   4.579   1.695
 3080SOL    HW210140   3.740   4.668   1.729
 3081SOL     OW10141   1.995   2.814   6.278
 3081SOL    HW110142   1.908   2.773   6.306
 3081SOL    HW210143   2.049   2.747   6.227
 3082SOL     OW10144   5.844   4.199   4.731
 3082SOL    HW110145   5.901   4.169   4.655
 3082SOL    HW210146   5.824   4.297   4.720
 3083SOL     OW10147   3.929   5.857   1.161
 3083SOL    HW110148   3.836   5.856   1.124
 3083SOL    HW210149   3.993   5.824   1.092
 3084SOL     OW10150   6.653   5.281   4.078
 3084SOL    HW110151   6.626   5.339   4.155
 3084SOL    HW210152   6.727   5.220   4.107
 3085SOL     OW10153   6.443   5.276   6.699
 3085SOL    HW110154   6.503   5.347   6.734
 3085SOL    HW210155   6.492   5.221   6.631
 3086SOL     OW10156   6.062   6.243   6.440
 3086SOL    HW110157   6.101   6.215   6.527
 3086SOL    HW210158   6.133   6.287   6.384
 3087SOL     OW10159   2.778   0.284   1.733
 3087SOL    HW110160   2.870   0.323   1.735
 3087SOL    HW210161   2.715   0.345   1.781
 3088SOL     OW10162   2.297   3.192   5.310
 3088SOL    HW110163   2.375   3.141   5.274
 3088SOL    HW210164   2.235   3.130   5.356
 3089SOL     OW10165   3.924   6.655   7.004
 3089SOL    HW110166   3.966   6.629   6.917
 3089SOL    HW210167   3.886   6.574   0.026
 3090SOL     OW10168   1.592   2.363   2.423
 3090SOL    HW110169   1.679   2.323   2.449
 3090SOL    HW210170   1.523   2.343   2.493
 3091SOL     OW10171   1.335   2.723   6.775
 3091SOL    HW110172   1.407   2.791   6.787
 3091SOL    HW210173   1.280   2.746   6.695
 3092SOL     OW10174   4.894   1.579   3.335
 3092SOL    HW110175   4.908   1.677   3.347
 3092SOL    HW210176   4.936   1.550   3.249
 3093SOL     OW10177   6.254   4.915   0.060
 3093SOL    HW110178   6.321   4.986   0.037
 3093SOL    HW210179   6.241   4.913   0.159
 3094SOL     OW10180   2.495   0.893   5.824
 3094SOL    HW110181   2.485   0.972   5.763
 3094SOL    HW210182   2.418   0.831   5.812
 3095SOL     OW10183   1.923   3.445   5.548
 3095SOL    HW110184   1.928   3.497   5.463
 3095SOL    HW210185   1.983   3.488   5.616
 3096SOL     OW10186   1.556   3.041   3.815
 3096SOL    HW110187   1.467   3.053   3.860
 3096SOL    HW210188   1.604   2.965   3.858
 3097SOL     OW10189   5.274   2.867   6.014
 3097SOL    HW110190   5.262   2.955   6.061
 3097SOL    HW210191   5.372   2.850   6.000
 3098SOL     OW10192   1.105   3.409   2.161
 3098SOL    HW110193   1.185   3.359   2.130
 3098SOL    HW210194   1.071   3.369   2.246
 3099SOL     OW10195   0.548   6.718   5.922
 3099SOL    HW110196   0.611   6.693   5.849
 3099SOL    HW210197   0.483   6.786   5.888
 3100SOL     OW10198   6.085   4.319   2.619
 3100SOL    HW110199   6.117   4.362   2.535
 3100SOL    HW210200   6.043   4.389   2.678
 3101SOL     OW10201   5.665   0.986   4.382
 3101SOL    HW110202   5.643   1.072   4.336
 3101SOL    HW210203   5.736   1.002   4.450
 3102SOL     OW10204   6.254   4.143   2.777
 3102SOL    HW110205   6.351   4.157   2.757
 3102SOL    HW210206   6.199   4.208   2.726
 3103SOL     OW10207   1.252   0.957   2.448
 3103SOL    HW110208   1.154   0.946   2.467
 3103SOL    HW210209   1.298   0.988   2.531
 3104SOL     OW10210   5.993   2.113   6.103
 3104SOL    HW110211   5.972   2.039   6.167
 3104SOL    HW210212   6.007   2.198   6.155
 3105SOL     OW10213   5.733   4.080   0.532
 3105SOL    HW110214   5.808   4.097   0.595
 3105SOL    HW210215   5.703   4.166   0.491
 3106SOL     OW10216   5.443   1.761   5.931
 3106SOL    HW110217   5.435   1.714   5.842
 3106SOL    HW210218   5.502   1.706   5.991
 3107SOL     OW10219   3.983   2.107   4.783
 3107SOL    HW110220   3.898   2.155   4.760
 3107SOL    HW210221   3.968   2.008   4.777
 3108SOL     OW10222   1.781   4.569   3.765
 3108SOL    HW110223   1.773   4.642   3.697
 3108SOL    HW210224   1.853   4.505   3.737
 3109SOL     OW10225   0.367   5.309   3.393
 3109SOL    HW110226   0.390   5.230   3.450
 3109SOL    HW210227   0.379   5.284   3.296
 3110SOL     OW10228   1.402   5.781   4.400
 3110SOL    HW110229   1.445   5.871   4.400
 3110SOL    HW210230   1.418   5.736   4.487
 3111SOL     OW10231   6.900   4.100   3.910
 3111SOL    HW110232   6.901   4.047   3.995
 3111SOL    HW210233   6.810   4.093   3.867
 3112SOL     OW10234   4.460   0.565   1.099
 3112SOL    HW110235   4.541   0.618   1.072
 3112SOL    HW210236   4.474   0.469   1.075
 3113SOL     OW10237   1.311   6.894   4.063
 3113SOL    HW110238   1.272   6.961   4.126
 3113SOL    HW210239   1.285   6.802   4.091
 3114SOL     OW10240   4.607   5.967   5.201
 3114SOL    HW110241   4.697   5.972   5.158
 3114SOL    HW210242   4.616   5.940   5.296
 3115SOL     OW10243   4.590   6.025   4.598
 3115SOL    HW110244   4.509   6.078   4.571
 3115SOL    HW210245   4.664   6.087   4.623
 3116SOL     OW10246   0.774   2.023   6.732
 3116SOL    HW110247   0.771   1.995   6.636
 3116SOL    HW210248   0.704   2.093   6.748
 3117SOL     OW10249   4.636   0.097   1.163
 3117SOL    HW110250   4.633   0.079   1.262
 3117SOL    HW210251   4.689   0.025   1.118
 3118SOL     OW10252   1.214   2.032   3.112
 3118SOL    HW110253   1.210   2.113   3.053
 3118SOL    HW210254   1.122   2.005   3.138
 3119SOL     OW10255   4.424   6.850   4.054
 3119SOL    HW110256   4.445   6.790   3.977
 3119SOL    HW210257   4.375   6.799   4.125
 3120SOL     OW10258   3.418   6.385   6.717
 3120SOL    HW110259   3.334   6.361   6.764
 3120SOL    HW210260   3.472   6.448   6.773
 3121SOL     OW10261   3.512   2.138   3.047
 3121SOL    HW110262   3.611   2.147   3.045
 3121SOL    HW210263   3.479   2.146   3.141
 3122SOL     OW10264   5.584   3.644   6.092
 3122SOL    HW110265   5.596   3.545   6.102
 3122SOL    HW210266   5.617   3.674   6.003
 3123SOL     OW10267   2.037   2.993   2.657
 3123SOL    HW110268   2.065   3.086   2.680
 3123SOL    HW210269   2.026   2.984   2.558
 3124SOL     OW10270   4.992   6.559   5.807
 3124SOL    HW110271   5.008   6.657   5.818
 3124SOL    HW210272   4.948   6.523   5.889
 3125SOL     OW10273   1.794   1.986   5.027
 3125SOL    HW110274   1.797   1.922   5.103
 3125SOL    HW210275   1.807   2.079   5.061
 3126SOL     OW10276   4.753   4.563   5.518
 3126SOL    HW110277   4.792   4.472   5.506
 3126SOL    HW210278   4.656   4.555   5.541
 3127SOL     OW10279   6.303   2.435   5.785
 3127SOL    HW110280   6.260   2.349   5.814
 3127SOL    HW210281   6.244   2.480   5.718
 3128SOL     OW10282   3.873   1.202   1.166
 3128SOL    HW110283   3.854   1.266   1.092
 3128SOL    HW210284   3.971   1.187   1.173
 3129SOL     OW10285   4.414   4.800   0.004
 3129SOL    HW110286   4.353   4.820   0.081
 3129SOL    HW210287   4.501   4.847   0.018
 3130SOL     OW10288   6.590   6.096   2.350
 3130SOL    HW110289   6.654   6.085   2.275
 3130SOL    HW210290   6.583   6.011   2.402
 3131SOL     OW10291   6.645   2.677   3.136
 3131SOL    HW110292   6.579   2.731   3.084
 3131SOL    HW210293   6.670   2.727   3.219
 3132SOL     OW10294   4.704   4.232   6.397
 3132SOL    HW110295   4.652   4.148   6.378
 3132SOL    HW210296   4.651   4.291   6.458
 3133SOL     OW10297   5.536   6.394   3.675
 3133SOL    HW110298   5.594   6.313   3.665
 3133SOL    HW210299   5.543   6.429   3.768
 3134SOL     OW10300   4.962   4.987   2.783
 3134SOL    HW110301   4.963   4.887   2.779
 3134SOL    HW210302   4.964   5.015   2.879
 3135SOL     OW10303   3.509   1.094   6.363
 3135SOL    HW110304   3.539   1.188   6.380
 3135SOL    HW210305   3.571   1.031   6.410
 3136SOL     OW10306   6.537   6.317   1.963
 3136SOL    HW110307   6.551   6.405   2.009
 3136SOL    HW210308   6.481   6.331   1.881
 3137SOL     OW10309   4.793   4.677   6.895
 3137SOL    HW110310   4.750   4.593   6.930
 3137SOL    HW210311   4.888   4.658   6.873
 3138SOL     OW10312   6.793   6.689   4.789
 3138SOL    HW110313   6.712   6.646   4.829
 3138SOL    HW210314   6.787   6.688   4.689
 3139SOL     OW10315   1.373   4.687   1.885
 3139SOL    HW110316   1.472   4.700   1.875
 3139SOL    HW210317   1.331   4.680   1.794
 3140SOL     OW10318   5.192   5.965   0.113
 3140SOL    HW110319   5.127   6.033   0.079
 3140SOL    HW210320   5.234   5.918   0.035
 3141SOL     OW10321   5.932   1.627   0.239
 3141SOL    HW110322   6.010   1.658   0.185
 3141SOL    HW210323   5.914   1.531   0.220
 3142SOL     OW10324   4.485   1.289   4.052
 3142SOL    HW110325   4.481   1.383   4.088
 3142SOL    HW210326   4.510   1.227   4.126
 3143SOL     OW10327   6.663   1.375   0.791
 3143SOL    HW110328   6.564   1.387   0.787
 3143SOL    HW210329   6.685   1.278   0.780
 3144SOL     OW10330   4.039   5.020   6.903
 3144SOL    HW110331   3.985   4.943   6.936
 3144SOL    HW210332   4.121   4.986   6.856
 3145SOL     OW10333   1.181   5.541   5.203
 3145SOL    HW110334   1.236   5.625   5.210
 3145SOL    HW210335   1.195   5.500   5.114
 3146SOL     OW10336   6.313   2.003   4.614
 3146SOL    HW110337   6.222   2.044   4.615
 3146SOL    HW210338   6.359   2.025   4.528
 3147SOL     OW10339   4.922   6.463   0.913
 3147SOL    HW110340   4.880   6.495   0.998
 3147SOL    HW210341   4.880   6.376   0.886
 3148SOL     OW10342   6.017   4.761   0.371
 3148SOL    HW110343   6.101   4.800   0.409
 3148SOL    HW210344   5.938   4.798   0.419
 3149SOL     OW10345   4.008   3.314   6.739
 3149SOL    HW110346   4.046   3.371   6.666
 3149SOL    HW210347   3.936   3.256   6.702
 3150SOL     OW10348   0.373   0.031   5.133
 3150SOL    HW110349   0.388   0.129   5.141
 3150SOL    HW210350   0.357   7.014   5.224
 3151SOL     OW10351   6.937   1.105   5.815
 3151SOL    HW110352   6.855   1.054   5.791
 3151SOL    HW210353   7.009   1.087   5.747
 3152SOL     OW10354   2.688   2.147   5.826
 3152SOL    HW110355   2.715   2.059   5.864
 3152SOL    HW210356   2.631   2.134   5.746
 3153SOL     OW10357   5.734   5.750   1.734
 3153SOL    HW110358   5.827   5.780   1.758
 3153SOL    HW210359   5.695   5.813   1.667
 3154SOL     OW10360   3.246   1.942   0.882
 3154SOL    HW110361   3.188   2.019   0.908
 3154SOL    HW210362   3.223   1.862   0.937
 3155SOL     OW10363   0.324   5.707   6.712
 3155SOL    HW110364   0.328   5.700   6.812
 3155SOL    HW210365   0.414   5.685   6.674
 3156SOL     OW10366   3.190   3.932   1.232
 3156SOL    HW110367   3.266   3.898   1.177
 3156SOL    HW210368   3.135   3.995   1.177
 3157SOL     OW10369   1.641   1.229   3.884
 3157SOL    HW110370   1.644   1.254   3.787
 3157SOL    HW210371   1.589   1.297   3.935
 3158SOL     OW10372   2.608   0.862   6.712
 3158SOL    HW110373   2.660   0.925   6.769
 3158SOL    HW210374   2.629   0.767   6.738
 3159SOL     OW10375   4.992   6.447   1.475
 3159SOL    HW110376   4.963   6.540   1.457
 3159SOL    HW210377   5.009   6.435   1.573
 3160SOL     OW10378   2.600   1.220   4.946
 3160SOL    HW110379   2.646   1.137   4.915
 3160SOL    HW210380   2.644   1.252   5.031
 3161SOL     OW10381   1.981   2.799   2.066
 3161SOL    HW110382   1.923   2.864   2.116
 3161SOL    HW210383   2.016   2.843   1.983
 3162SOL     OW10384   1.040   5.662   2.030
 3162SOL    HW110385   1.139   5.676   2.026
 3162SOL    HW210386   0.995   5.727   1.969
 3163SOL     OW10387   4.928   4.542   1.171
 3163SOL    HW110388   4.833   4.565   1.191
 3163SOL    HW210389   4.941   4.443   1.178
 3164SOL     OW10390   2.649   0.115   4.047
 3164SOL    HW110391   2.735   0.165   4.040
 3164SOL    HW210392   2.660   0.041   4.114
 3165SOL     OW10393   1.168   5.484   6.792
 3165SOL    HW110394   1.073   5.470   6.764
 3165SOL    HW210395   1.180   5.456   6.887
 3166SOL     OW10396   3.908   1.831   4.722
 3166SOL    HW110397   3.930   1.825   4.624
 3166SOL    HW210398   3.816   1.793   4.737
 3167SOL     OW10399   6.472   3.089   2.077
 3167SOL    HW110400   6.433   3.102   1.986
 3167SOL    HW210401   6.561   3.044   2.070
 3168SOL     OW10402   5.284   1.323   1.307
 3168SOL    HW110403   5.338   1.310   1.390
 3168SOL    HW210404   5.212   1.254   1.303
 3169SOL     OW10405   0.668   3.202   1.582
 3169SOL    HW110406   0.652   3.123   1.641
 3169SOL    HW210407   0.584   3.257   1.576
 3170SOL     OW10408   2.309   4.207   3.941
 3170SOL    HW110409   2.369   4.269   3.991
 3170SOL    HW210410   2.335   4.206   3.845
 3171SOL     OW10411   5.103   1.344   5.061
 3171SOL    HW110412   5.147   1.418   5.112
 3171SOL    HW210413   5.173   1.288   5.016
 3172SOL     OW10414   6.015   3.773   1.381
 3172SOL    HW110415   5.955   3.835   1.431
 3172SOL    HW210416   5.975   3.681   1.382
 3173SOL     OW10417   5.437   3.168   0.188
 3173SOL    HW110418   5.507   3.236   0.167
 3173SOL    HW210419   5.347   3.203   0.164
 3174SOL     OW10420   3.252   2.734   6.448
 3174SOL    HW110421   3.172   2.776   6.491
 3174SOL    HW210422   3.277   2.787   6.368
 3175SOL     OW10423   5.928   6.111   5.263
 3175SOL    HW110424   5.941   6.114   5.362
 3175SOL    HW210425   5.893   6.021   5.237
 3176SOL     OW10426   0.536   5.091   4.291
 3176SOL    HW110427   0.589   5.171   4.265
 3176SOL    HW210428   0.592   5.009   4.280
 3177SOL     OW10429   5.043   2.846   2.511
 3177SOL    HW110430   5.007   2.754   2.494
 3177SOL    HW210431   4.971   2.913   2.494
 3178SOL     OW10432   1.039   0.664   2.828
 3178SOL    HW110433   1.003   0.571   2.821
 3178SOL    HW210434   0.992   0.712   2.902
 3179SOL     OW10435   0.759   3.278   2.217
 3179SOL    HW110436   0.822   3.219   2.166
 3179SOL    HW210437   0.757   3.369   2.174
 3180SOL     OW10438   6.548   6.993   7.019
 3180SOL    HW110439   6.568   0.069   0.004
 3180SOL    HW210440   6.450   6.980   7.009
 3181SOL     OW10441   0.714   6.342   4.753
 3181SOL    HW110442   0.667   6.342   4.841
 3181SOL    HW210443   0.657   6.388   4.685
 3182SOL     OW10444   1.291   6.842   0.968
 3182SOL    HW110445   1.310   6.757   1.018
 3182SOL    HW210446   1.378   6.884   0.940
 3183SOL     OW10447   4.361   4.152   0.613
 3183SOL    HW110448   4.274   4.181   0.653
 3183SOL    HW210449   4.414   4.100   0.680
 3184SOL     OW10450   6.347   1.105   3.907
 3184SOL    HW110451   6.327   1.035   3.839
 3184SOL    HW210452   6.374   1.190   3.861
 3185SOL     OW10453   1.432   0.143   5.750
 3185SOL    HW110454   1.515   0.098   5.717
 3185SOL    HW210455   1.367   0.075   5.782
 3186SOL     OW10456   0.523   2.237   5.598
 3186SOL    HW110457   0.425   2.257   5.601
 3186SOL    HW210458   0.549   2.210   5.506
 3187SOL     OW10459   5.419   0.155   3.154
 3187SOL    HW110460   5.385   0.101   3.077
 3187SOL    HW210461   5.519   0.151   3.155
 3188SOL     OW10462   1.494   5.743   1.200
 3188SOL    HW110463   1.526   5.824   1.248
 3188SOL    HW210464   1.557   5.667   1.217
 3189SOL     OW10465   2.584   1.284   6.281
 3189SOL    HW110466   2.556   1.218   6.211
 3189SOL    HW210467   2.590   1.375   6.241
 3190SOL     OW10468   5.786   6.264   4.461
 3190SOL    HW110469   5.877   6.261   4.502
 3190SOL    HW210470   5.773   6.184   4.402
 3191SOL     OW10471   3.883   4.911   1.499
 3191SOL    HW110472   3.814   4.839   1.498
 3191SOL    HW210473   3.868   4.973   1.421
 3192SOL     OW10474   5.491   0.702   3.142
 3192SOL    HW110475   5.409   0.645   3.141
 3192SOL    HW210476   5.486   0.767   3.218
 3193SOL     OW10477   3.213   5.679   5.003
 3193SOL    HW110478   3.169   5.733   4.931
 3193SOL    HW210479   3.289   5.730   5.041
 3194SOL     OW10480   2.132   6.501   4.994
 3194SOL    HW110481   2.184   6.417   4.977
 3194SOL    HW210482   2.170   6.547   5.075
 3195SOL     OW10483   0.566   6.658   0.213
 3195SOL    HW110484   0.515   6.580   0.251
 3195SOL    HW210485   0.504   6.734   0.195
 3196SOL     OW10486   6.393   6.597   2.378
 3196SOL    HW110487   6.426   6.517   2.329
 3196SOL    HW210488   6.470   6.659   2.396
 3197SOL     OW10489   2.756   0.792   0.221
 3197SOL    HW110490   2.826   0.725   0.198
 3197SOL    HW210491   2.679   0.782   0.157
 3198SOL     OW10492   5.231   3.700   4.145
 3198SOL    HW110493   5.209   3.762   4.219
 3198SOL    HW210494   5.330   3.688   4.139
 3199SOL     OW10495   4.898   3.585   3.485
 3199SOL    HW110496   4.930   3.515   3.421
 3199SOL    HW210497   4.888   3.545   3.576
 3200SOL     OW10498   6.071   3.626   4.631
 3200SOL    HW110499   6.080   3.529   4.656
 3200SOL    HW210500   5.987   3.662   4.672
 3201SOL     OW10501   6.392   4.045   2.112
 3201SOL    HW110502   6.393   4.109   2.189
 3201SOL    HW210503   6.405   3.952   2.145
 3202SOL     OW10504   2.905   2.843   6.174
 3202SOL    HW110505   2.889   2.829   6.076
 3202SOL    HW210506   2.875   2.762   6.224
 3203SOL     OW10507   3.206   6.248   1.973
 3203SOL    HW110508   3.280   6.203   1.922
 3203SOL    HW210509   3.124   6.252   1.915
 3204SOL     OW10510   4.821   0.789   4.005
 3204SOL    HW110511   4.775   0.872   4.037
 3204SOL    HW210512   4.917   0.792   4.032
 3205SOL     OW10513   4.614   2.681   6.800
 3205SOL    HW110514   4.591   2.778   6.786
 3205SOL    HW210515   4.543   2.624   6.759
 3206SOL     OW10516   2.968   4.613   0.681
 3206SOL    HW110517   2.974   4.637   0.584
 3206SOL    HW210518   2.980   4.515   0.692
 3207SOL     OW10519   2.259   6.049   3.647
 3207SOL    HW110520   2.344   6.015   3.687
 3207SOL    HW210521   2.181   6.008   3.694
 3208SOL     OW10522   6.691   3.527   6.319
 3208SOL    HW110523   6.764   3.595   6.311
 3208SOL    HW210524   6.654   3.506   6.229
 3209SOL     OW10525   5.044   0.033   6.018
 3209SOL    HW110526   5.048   0.091   5.937
 3209SOL    HW210527   4.958   0.050   6.067
 3210SOL     OW10528   5.317   4.993   2.081
 3210SOL    HW110529   5.368   4.941   2.148
 3210SOL    HW210530   5.219   4.983   2.098
 3211SOL     OW10531   2.223   6.427   6.515
 3211SOL    HW110532   2.196   6.521   6.497
 3211SOL    HW210533   2.150   6.380   6.565
 3212SOL     OW10534   3.383   6.749   4.125
 3212SOL    HW110535   3.312   6.679   4.113
 3212SOL    HW210536   3.439   6.754   4.042
 3213SOL     OW10537   1.223   0.528   5.592
 3213SOL    HW110538   1.272   0.474   5.660
 3213SOL    HW210539   1.125   0.528   5.612
 3214SOL     OW10540   3.592   0.843   2.914
 3214SOL    HW110541   3.624   0.937   2.921
 3214SOL    HW210542   3.492   0.842   2.905
 3215SOL     OW10543   2.176   3.063   2.105
 3215SOL    HW110544   2.212   3.150   2.072
 3215SOL    HW210545   2.227   2.987   2.064
 3216SOL     OW10546   5.840   5.177   0.544
 3216SOL    HW110547   5.836   5.269   0.505
 3216SOL    HW210548   5.796   5.176   0.634
 3217SOL     OW10549   6.555   6.040   3.929
 3217SOL    HW110550   6.591   6.131   3.908
 3217SOL    HW210551   6.577   5.978   3.853
 3218SOL     OW10552   6.006   1.412   3.390
 3218SOL    HW110553   5.997   1.403   3.291
 3218SOL    HW210554   5.992   1.507   3.417
 3219SOL     OW10555   5.590   1.844   4.438
 3219SOL    HW110556   5.566   1.906   4.363
 3219SOL    HW210557   5.571   1.889   4.526
 3220SOL     OW10558   6.759   3.687   5.593
 3220SOL    HW110559   6.742   3.766   5.651
 3220SOL    HW210560   6.786   3.609   5.649
 3221SOL     OW10561   4.155   1.393   1.967
 3221SOL    HW110562   4.238   1.397   2.023
 3221SOL    HW210563   4.084   1.344   2.017
 3222SOL     OW10564   3.086   0.937   3.992
 3222SOL    HW110565   2.991   0.916   3.969
 3222SOL    HW210566   3.088   1.011   4.059
 3223SOL     OW10567   1.631   5.891   0.681
 3223SOL    HW110568   1.594   5.883   0.588
 3223SOL    HW210569   1.560   5.926   0.742
 3224SOL     OW10570   4.667   2.688   4.396
 3224SOL    HW110571   4.635   2.693   4.491
 3224SOL    HW210572   4.766   2.707   4.393
 3225SOL     OW10573   4.558   1.135   4.550
 3225SOL    HW110574   4.476   1.098   4.594
 3225SOL    HW210575   4.571   1.091   4.461
 3226SOL     OW10576   5.973   0.822   0.610
 3226SOL    HW110577   5.948   0.726   0.595
 3226SOL    HW210578   6.041   0.850   0.542
 3227SOL     OW10579   5.798   4.251   5.737
 3227SOL    HW110580   5.742   4.273   5.817
 3227SOL    HW210581   5.891   4.228   5.767
 3228SOL     OW10582   2.328   4.367   0.433
 3228SOL    HW110583   2.340   4.315   0.518
 3228SOL    HW210584   2.235   4.352   0.399
 3229SOL     OW10585   1.336   1.431   1.527
 3229SOL    HW110586   1.255   1.385   1.490
 3229SOL    HW210587   1.341   1.415   1.626
 3230SOL     OW10588   2.920   6.265   4.742
 3230SOL    HW110589   2.941   6.194   4.810
 3230SOL    HW210590   2.835   6.241   4.694
 3231SOL     OW10591   2.389   2.652   2.545
 3231SOL    HW110592   2.348   2.732   2.589
 3231SOL    HW210593   2.320   2.605   2.491
 3232SOL     OW10594   2.565   4.515   3.205
 3232SOL    HW110595   2.546   4.417   3.199
 3232SOL    HW210596   2.617   4.544   3.125
 3233SOL     OW10597   2.977   0.257   6.462
 3233SOL    HW110598   3.004   0.202   6.542
 3233SOL    HW210599   3.031   0.229   6.383
 3234SOL     OW10600   3.411   3.460   0.946
 3234SOL    HW110601   3.318   3.452   0.908
 3234SOL    HW210602   3.415   3.540   1.006
 3235SOL     OW10603   6.726   1.517   2.698
 3235SOL    HW110604   6.648   1.502   2.637
 3235SOL    HW210605   6.699   1.580   2.771
 3236SOL     OW10606   5.546   0.008   0.187
 3236SOL    HW110607   5.615   7.008   0.256
 3236SOL    HW210608   5.556   0.104   0.161
 3237SOL     OW10609   6.109   0.992   5.450
 3237SOL    HW110610   6.120   1.047   5.367
 3237SOL    HW210611   6.040   1.034   5.509
 3238SOL     OW10612   6.676   5.124   1.610
 3238SOL    HW110613   6.584   5.162   1.621
 3238SOL    HW210614   6.743   5.188   1.648
 3239SOL     OW10615   6.164   0.106   5.377
 3239SOL    HW110616   6.195   0.016   5.407
 3239SOL    HW210617   6.072   0.098   5.338
 3240SOL     OW10618   1.097   1.831   1.209
 3240SOL    HW110619   1.156   1.825   1.289
 3240SOL    HW210620   1.053   1.921   1.206
 3241SOL     OW10621   0.304   2.717   5.894
 3241SOL    HW110622   0.397   2.705   5.861
 3241SOL    HW210623   0.299   2.798   5.952
 3242SOL     OW10624   6.941   4.447   4.944
 3242SOL    HW110625   6.908   4.353   4.935
 3242SOL    HW210626   0.018   4.449   4.929
 3243SOL     OW10627   5.667   5.737   4.341
 3243SOL    HW110628   5.671   5.737   4.241
 3243SOL    HW210629   5.649   5.830   4.374
 3244SOL     OW10630   4.838   0.063   6.697
 3244SOL    HW110631   4.901   7.018   6.656
 3244SOL    HW210632   4.745   0.042   6.669
 3245SOL     OW10633   3.239   6.397   4.238
 3245SOL    HW110634   3.209   6.306   4.209
 3245SOL    HW210635   3.223   6.462   4.164
 3246SOL     OW10636   6.675   5.816   3.359
 3246SOL    HW110637   6.603   5.763   3.404
 3246SOL    HW210638   6.736   5.854   3.428
 3247SOL     OW10639   2.093   4.103   4.060
 3247SOL    HW110640   2.020   4.141   4.003
 3247SOL    HW210641   2.182   4.129   4.023
 3248SOL     OW10642   6.166   2.742   3.712
 3248SOL    HW110643   6.118   2.663   3.751
 3248SOL    HW210644   6.262   2.741   3.741
 3249SOL     OW10645   3.871   3.999   4.358
 3249SOL    HW110646   3.893   4.059   4.436
 3249SOL    HW210647   3.948   3.937   4.342
 3250SOL     OW10648   4.511   6.357   3.648
 3250SOL    HW110649   4.441   6.427   3.663
 3250SOL    HW210650   4.595   6.399   3.615
 3251SOL     OW10651   2.382   2.258   2.336
 3251SOL    HW110652   2.459   2.321   2.328
 3251SOL    HW210653   2.352   2.230   2.245
 3252SOL     OW10654   1.721   1.528   2.949
 3252SOL    HW110655   1.643   1.591   2.942
 3252SOL    HW210656   1.750   1.502   2.857
 3253SOL     OW10657   6.770   4.007   0.450
 3253SOL    HW110658   6.718   4.092   0.456
 3253SOL    HW210659   6.859   4.019   0.494
 3254SOL     OW10660   6.333   6.818   0.311
 3254SOL    HW110661   6.257   6.761   0.340
 3254SOL    HW210662   6.412   6.760   0.289
 3255SOL     OW10663   3.594   5.503   2.160
 3255SOL    HW110664   3.689   5.524   2.139
 3255SOL    HW210665   3.584   5.486   2.258
 3256SOL     OW10666   5.430   2.631   1.486
 3256SOL    HW110667   5.348   2.620   1.430
 3256SOL    HW210668   5.475   2.542   1.496
 3257SOL     OW10669   2.600   1.250   3.032
 3257SOL    HW110670   2.555   1.264   2.943
 3257SOL    HW210671   2.605   1.337   3.080
 3258SOL     OW10672   1.059   5.518   3.847
 3258SOL    HW110673   1.031   5.586   3.780
 3258SOL    HW210674   1.135   5.553   3.901
 3259SOL     OW10675   5.717   4.843   4.123
 3259SOL    HW110676   5.727   4.773   4.052
 3259SOL    HW210677   5.808   4.875   4.151
 3260SOL     OW10678   1.698   4.672   3.342
 3260SOL    HW110679   1.683   4.726   3.425
 3260SOL    HW210680   1.750   4.590   3.365
 3261SOL     OW10681   6.152   0.148   3.853
 3261SOL    HW110682   6.198   0.120   3.937
 3261SOL    HW210683   6.064   0.190   3.876
 3262SOL     OW10684   3.012   2.162   3.293
 3262SOL    HW110685   2.967   2.096   3.233
 3262SOL    HW210686   3.087   2.206   3.242
 3263SOL     OW10687   5.974   0.345   1.074
 3263SOL    HW110688   5.947   0.432   1.116
 3263SOL    HW210689   6.066   0.353   1.037
 3264SOL     OW10690   1.442   4.624   6.777
 3264SOL    HW110691   1.387   4.688   6.724
 3264SOL    HW210692   1.383   4.552   6.814
 3265SOL     OW10693   0.260   5.764   6.401
 3265SOL    HW110694   0.346   5.729   6.436
 3265SOL    HW210695   0.184   5.713   6.440
 3266SOL     OW10696   3.539   4.960   6.192
 3266SOL    HW110697   3.443   4.987   6.185
 3266SOL    HW210698   3.597   5.039   6.173
 3267SOL     OW10699   3.582   0.187   1.270
 3267SOL    HW110700   3.550   0.256   1.334
 3267SOL    HW210701   3.531   0.196   1.184
 3268SOL     OW10702   5.311   4.287   1.641
 3268SOL    HW110703   5.402   4.325   1.659
 3268SOL    HW210704   5.308   4.251   1.548
 3269SOL     OW10705   2.076   4.801   1.218
 3269SOL    HW110706   2.175   4.788   1.227
 3269SOL    HW210707   2.047   4.878   1.275
 3270SOL     OW10708   1.257   3.358   6.041
 3270SOL    HW110709   1.288   3.263   6.041
 3270SOL    HW210710   1.336   3.419   6.033
 3271SOL     OW10711   1.363   3.640   1.109
 3271SOL    HW110712   1.393   3.621   1.203
 3271SOL    HW210713   1.439   3.624   1.047
 3272SOL     OW10714   4.280   6.853   1.174
 3272SOL    HW110715   4.291   6.886   1.081
 3272SOL    HW210716   4.238   6.762   1.173
 3273SOL     OW10717   3.823   3.747   6.783
 3273SOL    HW110718   3.783   3.810   6.717
 3273SOL    HW210719   3.820   3.654   6.747
 3274SOL     OW10720   4.661   0.198   1.927
 3274SOL    HW110721   4.576   0.185   1.876
 3274SOL    HW210722   4.648   0.269   1.996
 3275SOL     OW10723   5.145   0.460   2.185
 3275SOL    HW110724   5.089   0.415   2.115
 3275SOL    HW210725   5.171   0.551   2.153
 3276SOL     OW10726   6.127   5.438   0.412
 3276SOL    HW110727   6.222   5.413   0.395
 3276SOL    HW210728   6.081   5.454   0.324
 3277SOL     OW10729   3.609   1.335   2.515
 3277SOL    HW110730   3.532   1.302   2.569
 3277SOL    HW210731   3.611   1.435   2.518
 3278SOL     OW10732   5.270   1.218   6.619
 3278SOL    HW110733   5.304   1.157   6.691
 3278SOL    HW210734   5.312   1.308   6.628
 3279SOL     OW10735   4.007   0.232   2.171
 3279SOL    HW110736   4.051   0.171   2.105
 3279SOL    HW210737   4.072   0.255   2.244
 3280SOL     OW10738   0.421   2.686   4.215
 3280SOL    HW110739   0.439   2.785   4.210
 3280SOL    HW210740   0.406   2.651   4.123
 3281SOL     OW10741   5.718   2.061   1.959
 3281SOL    HW110742   5.794   2.123   1.940
 3281SOL    HW210743   5.666   2.094   2.038
 3282SOL     OW10744   6.211   4.331   5.361
 3282SOL    HW110745   6.192   4.365   5.453
 3282SOL    HW210746   6.304   4.356   5.335
 3283SOL     OW10747   3.085   1.462   0.374
 3283SOL    HW110748   3.166   1.486   0.320
 3283SOL    HW210749   3.069   1.532   0.444
 3284SOL     OW10750   2.174   0.483   5.368
 3284SOL    HW110751   2.186   0.540   5.287
 3284SOL    HW210752   2.172   0.540   5.450
 3285SOL     OW10753   3.806   2.156   3.647
 3285SOL    HW110754   3.891   2.137   3.696
 3285SOL    HW210755   3.731   2.166   3.712
 3286SOL     OW10756   1.369   3.700   2.845
 3286SOL    HW110757   1.438   3.731   2.910
 3286SOL    HW210758   1.401   3.617   2.799
 3287SOL     OW10759   2.479   1.284   0.726
 3287SOL    HW110760   2.508   1.259   0.818
 3287SOL    HW210761   2.498   1.209   0.662
 3288SOL     OW10762   2.989   5.577   1.733
 3288SOL    HW110763   3.081   5.562   1.770
 3288SOL    HW210764   2.961   5.497   1.681
 3289SOL     OW10765   4.837   0.672   0.002
 3289SOL    HW110766   4.875   0.601   0.061
 3289SOL    HW210767   4.737   0.665   0.001
 3290SOL     OW10768   1.193   5.075   6.894
 3290SOL    HW110769   1.286   5.041   6.908
 3290SOL    HW210770   1.161   5.120   6.978
 3291SOL     OW10771   4.954   6.195   5.191
 3291SOL    HW110772   5.044   6.158   5.173
 3291SOL    HW210773   4.888   6.120   5.200
 3292SOL     OW10774   0.292   3.177   0.156
 3292SOL    HW110775   0.333   3.179   0.065
 3292SOL    HW210776   0.194   3.159   0.147
 3293SOL     OW10777   6.538   4.447   2.653
 3293SOL    HW110778   6.620   4.491   2.615
 3293SOL    HW210779   6.456   4.488   2.613
 3294SOL     OW10780   3.729   2.898   5.530
 3294SOL    HW110781   3.686   2.925   5.444
 3294SOL    HW210782   3.671   2.833   5.578
 3295SOL     OW10783   1.614   2.991   3.531
 3295SOL    HW110784   1.611   2.891   3.537
 3295SOL    HW210785   1.582   3.031   3.616
 3296SOL     OW10786   2.742   0.635   6.818
 3296SOL    HW110787   2.820   0.591   6.862
 3296SOL    HW210788   2.658   0.588   6.843
 3297SOL     OW10789   3.429   0.499   5.686
 3297SOL    HW110790   3.364   0.444   5.633
 3297SOL    HW210791   3.404   0.595   5.678
 3298SOL     OW10792   3.259   4.378   6.012
 3298SOL    HW110793   3.300   4.324   5.938
 3298SOL    HW210794   3.318   4.373   6.093
 3299SOL     OW10795   2.884   0.066   4.240
 3299SOL    HW110796   2.921   6.997   4.223
 3299SOL    HW210797   2.917   0.130   4.170
 3300SOL     OW10798   2.060   0.656   3.539
 3300SOL    HW110799   2.014   0.745   3.536
 3300SOL    HW210800   2.039   0.611   3.626
 3301SOL     OW10801   1.378   1.456   2.520
 3301SOL    HW110802   1.442   1.383   2.546
 3301SOL    HW210803   1.287   1.416   2.506
 3302SOL     OW10804   1.244   5.069   5.098
 3302SOL    HW110805   1.310   5.001   5.066
 3302SOL    HW210806   1.161   5.023   5.128
 3303SOL     OW10807   3.760   3.581   0.516
 3303SOL    HW110808   3.780   3.540   0.427
 3303SOL    HW210809   3.789   3.677   0.516
 3304SOL     OW10810   2.384   3.946   0.505
 3304SOL    HW110811   2.341   3.887   0.574
 3304SOL    HW210812   2.396   4.038   0.543
 3305SOL     OW10813   2.885   2.772   0.192
 3305SOL    HW110814   2.867   2.720   0.276
 3305SOL    HW210815   2.828   2.853   0.190
 3306SOL     OW10816   3.000   0.231   1.334
 3306SOL    HW110817   2.971   0.173   1.257
 3306SOL    HW210818   2.921   0.280   1.371
 3307SOL     OW10819   2.204   5.936   4.812
 3307SOL    HW110820   2.262   5.873   4.864
 3307SOL    HW210821   2.218   5.923   4.714
 3308SOL     OW10822   4.684   5.157   1.250
 3308SOL    HW110823   4.615   5.205   1.303
 3308SOL    HW210824   4.673   5.178   1.153
 3309SOL     OW10825   5.720   4.283   3.758
 3309SOL    HW110826   5.631   4.239   3.759
 3309SOL    HW210827   5.710   4.380   3.778
 3310SOL     OW10828   6.358   4.367   6.643
 3310SOL    HW110829   6.404   4.455   6.629
 3310SOL    HW210830   6.334   4.358   6.740
 3311SOL     OW10831   2.246   2.863   6.916
 3311SOL    HW110832   2.243   2.770   6.954
 3311SOL    HW210833   2.228   2.859   6.818
 3312SOL     OW10834   4.724   3.438   0.230
 3312SOL    HW110835   4.739   3.458   0.133
 3312SOL    HW210836   4.647   3.492   0.263
 3313SOL     OW10837   0.294   0.407   4.111
 3313SOL    HW110838   0.337   0.464   4.040
 3313SOL    HW210839   0.352   0.405   4.192
 3314SOL     OW10840   3.662   6.152   3.012
 3314SOL    HW110841   3.730   6.084   3.039
 3314SOL    HW210842   3.676   6.178   2.917
 3315SOL     OW10843   1.025   6.297   3.828
 3315SOL    HW110844   1.001   6.386   3.789
 3315SOL    HW210845   0.978   6.225   3.776
 3316SOL     OW10846   3.520   1.970   0.015
 3316SOL    HW110847   3.454   1.948   6.965
 3316SOL    HW210848   3.554   1.886   0.056
 3317SOL     OW10849   5.964   2.094   1.342
 3317SOL    HW110850   6.063   2.081   1.336
 3317SOL    HW210851   5.938   2.114   1.436
 3318SOL     OW10852   3.652   2.911   0.651
 3318SOL    HW110853   3.713   2.987   0.631
 3318SOL    HW210854   3.566   2.945   0.689
 3319SOL     OW10855   6.810   6.819   4.158
 3319SOL    HW110856   6.754   6.792   4.080
 3319SOL    HW210857   6.760   6.886   4.214
 3320SOL     OW10858   6.340   0.372   2.326
 3320SOL    HW110859   6.366   0.322   2.409
 3320SOL    HW210860   6.417   0.374   2.263
 3321SOL     OW10861   4.523   1.797   6.936
 3321SOL    HW110862   4.526   1.709   6.983
 3321SOL    HW210863   4.430   1.835   6.942
 3322SOL     OW10864   5.653   2.740   1.414
 3322SOL    HW110865   5.561   2.707   1.433
 3322SOL    HW210866   5.701   2.760   1.499
 3323SOL     OW10867   1.508   1.035   2.059
 3323SOL    HW110868   1.465   0.975   2.127
 3323SOL    HW210869   1.469   1.127   2.068
 3324SOL     OW10870   5.824   4.919   5.863
 3324SOL    HW110871   5.907   4.886   5.816
 3324SOL    HW210872   5.779   4.988   5.806
 3325SOL     OW10873   2.868   5.227   5.769
 3325SOL    HW110874   2.956   5.262   5.737
 3325SOL    HW210875   2.878   5.191   5.861
 3326SOL     OW10876   3.662   1.979   1.908
 3326SOL    HW110877   3.588   1.928   1.953
 3326SOL    HW210878   3.661   2.074   1.941
 3327SOL     OW10879   1.716   5.857   5.995
 3327SOL    HW110880   1.794   5.820   6.044
 3327SOL    HW210881   1.748   5.922   5.926
 3328SOL     OW10882   4.782   2.945   5.380
 3328SOL    HW110883   4.766   3.009   5.304
 3328SOL    HW210884   4.864   2.891   5.361
 3329SOL     OW10885   0.487   6.316   5.972
 3329SOL    HW110886   0.423   6.244   5.998
 3329SOL    HW210887   0.573   6.303   6.021
 3330SOL     OW10888   6.593   3.069   2.947
 3330SOL    HW110889   6.665   3.106   3.006
 3330SOL    HW210890   6.633   3.033   2.863
 3331SOL     OW10891   2.130   2.523   0.536
 3331SOL    HW110892   2.145   2.618   0.564
 3331SOL    HW210893   2.205   2.466   0.568
 3332SOL     OW10894   0.116   4.118   1.240
 3332SOL    HW110895   0.026   4.153   1.215
 3332SOL    HW210896   0.171   4.193   1.278
 3333SOL     OW10897   3.088   5.721   5.674
 3333SOL    HW110898   3.065   5.632   5.713
 3333SOL    HW210899   3.136   5.775   5.743
 3334SOL     OW10900   1.355   2.907   0.765
 3334SOL    HW110901   1.260   2.881   0.748
 3334SOL    HW210902   1.415   2.849   0.710
 3335SOL     OW10903   5.513   4.744   4.675
 3335SOL    HW110904   5.463   4.831   4.673
 3335SOL    HW210905   5.608   4.762   4.702
 3336SOL     OW10906   3.135   6.429   5.529
 3336SOL    HW110907   3.163   6.441   5.434
 3336SOL    HW210908   3.207   6.465   5.589
 3337SOL     OW10909   3.604   1.805   0.779
 3337SOL    HW110910   3.580   1.825   0.874
 3337SOL    HW210911   3.523   1.817   0.721
 3338SOL     OW10912   6.810   4.791   0.033
 3338SOL    HW110913   6.862   4.783   0.119
 3338SOL    HW210914   6.855   4.856   6.995
 3339SOL     OW10915   0.737   4.772   6.018
 3339SOL    HW110916   0.687   4.858   6.009
 3339SOL    HW210917   0.824   4.789   6.065
 3340SOL     OW10918   4.310   0.199   2.010
 3340SOL    HW110919   4.263   0.112   1.992
 3340SOL    HW210920   4.267   0.272   1.957
 3341SOL     OW10921   0.979   0.013   0.820
 3341SOL    HW110922   0.948   0.005   0.915
 3341SOL    HW210923   1.067   6.988   0.810
 3342SOL     OW10924   2.351   0.068   5.262
 3342SOL    HW110925   2.340   7.008   5.206
 3342SOL    HW210926   2.420   0.127   5.220
 3343SOL     OW10927   0.250   2.664   1.336
 3343SOL    HW110928   0.269   2.581   1.389
 3343SOL    HW210929   0.238   2.639   1.240
 3344SOL     OW10930   1.145   2.790   6.592
 3344SOL    HW110931   1.130   2.889   6.586
 3344SOL    HW210932   1.062   2.746   6.627
 3345SOL     OW10933   1.977   3.165   5.610
 3345SOL    HW110934   2.017   3.123   5.528
 3345SOL    HW210935   1.945   3.257   5.588
 3346SOL     OW10936   2.156   6.107   2.665
 3346SOL    HW110937   2.103   6.139   2.587
 3346SOL    HW210938   2.171   6.009   2.658
 3347SOL     OW10939   5.939   4.166   3.644
 3347SOL    HW110940   5.870   4.227   3.684
 3347SOL    HW210941   6.024   4.174   3.696
 3348SOL     OW10942   3.775   3.708   3.547
 3348SOL    HW110943   3.807   3.672   3.635
 3348SOL    HW210944   3.689   3.757   3.560
 3349SOL     OW10945   5.248   3.114   6.435
 3349SOL    HW110946   5.195   3.120   6.520
 3349SOL    HW210947   5.335   3.068   6.454
 3350SOL     OW10948   1.830   2.884   1.195
 3350SOL    HW110949   1.765   2.944   1.149
 3350SOL    HW210950   1.920   2.928   1.198
 3351SOL     OW10951   5.924   2.688   0.359
 3351SOL    HW110952   5.924   2.588   0.357
 3351SOL    HW210953   5.831   2.721   0.371
 3352SOL     OW10954   0.042   3.062   0.129
 3352SOL    HW110955   0.006   3.114   0.052
 3352SOL    HW210956   0.002   2.971   0.130
 3353SOL     OW10957   1.801   6.654   5.977
 3353SOL    HW110958   1.702   6.647   5.991
 3353SOL    HW210959   1.844   6.569   6.008
 3354SOL     OW10960   0.687   0.616   1.898
 3354SOL    HW110961   0.766   0.673   1.876
 3354SOL    HW210962   0.619   0.671   1.948
 3355SOL     OW10963   6.023   0.758   2.764
 3355SOL    HW110964   6.019   0.857   2.747
 3355SOL    HW210965   6.096   0.718   2.710
 3356SOL     OW10966   1.034   3.745   6.157
 3356SOL    HW110967   1.049   3.647   6.145
 3356SOL    HW210968   1.121   3.789   6.180
 3357SOL     OW10969   2.635   5.411   2.218
 3357SOL    HW110970   2.662   5.411   2.121
 3357SOL    HW210971   2.548   5.364   2.228
 3358SOL     OW10972   6.842   4.407   3.510
 3358SOL    HW110973   6.887   4.423   3.597
 3358SOL    HW210974   6.821   4.494   3.466
 3359SOL     OW10975   2.109   1.639   1.938
 3359SOL    HW110976   2.051   1.689   2.002
 3359SOL    HW210977   2.082   1.543   1.936
 3360SOL     OW10978   2.410   0.896   6.533
 3360SOL    HW110979   2.415   0.994   6.514
 3360SOL    HW210980   2.481   0.871   6.599
 3361SOL     OW10981   3.226   1.057   3.042
 3361SOL    HW110982   3.155   1.127   3.049
 3361SOL    HW210983   3.305   1.085   3.098
 3362SOL     OW10984   3.197   1.830   4.194
 3362SOL    HW110985   3.169   1.862   4.103
 3362SOL    HW210986   3.241   1.905   4.244
 3363SOL     OW10987   6.919   0.657   6.650
 3363SOL    HW110988   6.864   0.579   6.679
 3363SOL    HW210989   6.890   0.687   6.558
 3364SOL     OW10990   2.305   4.989   5.631
 3364SOL    HW110991   2.307   4.891   5.653
 3364SOL    HW210992   2.364   5.006   5.551
 3365SOL     OW10993   6.597   2.606   5.525
 3365SOL    HW110994   6.526   2.642   5.585
 3365SOL    HW210995   6.596   2.506   5.527
 3366SOL     OW10996   5.564   1.301   0.013
 3366SOL    HW110997   5.469   1.289   0.039
 3366SOL    HW210998   5.570   1.316   6.936
 3367SOL     OW10999   1.995   0.050   2.745
 3367SOL    HW111000   2.037   0.103   2.819
 3367SOL    HW211001   2.000   0.103   2.660
 3368SOL     OW11002   6.365   1.496   4.466
 3368SOL    HW111003   6.449   1.486   4.519
 3368SOL    HW211004   6.344   1.410   4.419
 3369SOL     OW11005   3.754   5.882   6.507
 3369SOL    HW111006   3.734   5.949   6.436
 3369SOL    HW211007   3.678   5.878   6.572
 3370SOL     OW11008   5.730   6.936   5.241
 3370SOL    HW111009   5.668   7.014   5.236
 3370SOL    HW211010   5.769   6.918   5.151
 3371SOL     OW11011   0.018   4.606   1.272
 3371SOL    HW111012   0.074   4.689   1.276
 3371SOL    HW211013   6.956   4.624   1.220
 3372SOL     OW11014   0.473   2.400   2.467
 3372SOL    HW111015   0.518   2.489   2.473
 3372SOL    HW211016   0.494   2.346   2.549
 3373SOL     OW11017   0.674   2.605   6.517
 3373SOL    HW111018   0.623   2.535   6.466
 3373SOL    HW211019   0.619   2.689   6.522
 3374SOL     OW11020   3.625   5.993   5.113
 3374SOL    HW111021   3.709   6.000   5.168
 3374SOL    HW211022   3.592   6.085   5.092
 3375SOL     OW11023   3.403   3.599   4.556
 3375SOL    HW111024   3.439   3.673   4.499
 3375SOL    HW211025   3.328   3.634   4.612
 3376SOL     OW11026   3.005   2.948   1.855
 3376SOL    HW111027   2.979   3.042   1.835
 3376SOL    HW211028   2.953   2.885   1.797
 3377SOL     OW11029   2.680   5.483   5.598
 3377SOL    HW111030   2.753   5.424   5.563
 3377SOL    HW211031   2.645   5.540   5.524
 3378SOL     OW11032   0.475   1.107   0.833
 3378SOL    HW111033   0.434   1.098   0.742
 3378SOL    HW211034   0.457   1.199   0.868
 3379SOL     OW11035   5.951   4.853   5.400
 3379SOL    HW111036   5.956   4.846   5.300
 3379SOL    HW211037   6.032   4.810   5.440
 3380SOL     OW11038   0.493   3.528   5.114
 3380SOL    HW111039   0.525   3.434   5.120
 3380SOL    HW211040   0.431   3.548   5.190
 3381SOL     OW11041   3.285   2.401   1.685
 3381SOL    HW111042   3.294   2.492   1.725
 3381SOL    HW211043   3.342   2.336   1.737
 3382SOL     OW11044   0.370   6.821   0.163
 3382SOL    HW111045   0.363   6.921   0.168
 3382SOL    HW211046   0.359   6.792   0.069
 3383SOL     OW11047   0.719   4.333   1.679
 3383SOL    HW111048   0.699   4.351   1.775
 3383SOL    HW211049   0.815   4.352   1.661
 3384SOL     OW11050   3.242   2.991   4.204
 3384SOL    HW111051   3.227   2.892   4.210
 3384SOL    HW211052   3.238   3.031   4.295
 3385SOL     OW11053   0.002   4.345   3.795
 3385SOL    HW111054   6.992   4.254   3.822
 3385SOL    HW211055   6.963   4.415   3.832
 3386SOL     OW11056   5.913   4.418   4.408
 3386SOL    HW111057   5.838   4.483   4.419
 3386SOL    HW211058   5.969   4.416   4.491
 3387SOL     OW11059   3.226   1.848   2.874
 3387SOL    HW111060   3.284   1.793   2.935
 3387SOL    HW211061   3.280   1.875   2.794
 3388SOL     OW11062   5.474   2.094   1.465
 3388SOL    HW111063   5.419   2.164   1.511
 3388SOL    HW211064   5.545   2.139   1.412
 3389SOL     OW11065   4.227   5.487   2.638
 3389SOL    HW111066   4.159   5.484   2.565
 3389SOL    HW211067   4.185   5.525   2.721
 3390SOL     OW11068   4.479   1.999   5.440
 3390SOL    HW111069   4.524   2.025   5.354
 3390SOL    HW211070   4.453   2.082   5.490
 3391SOL     OW11071   3.589   2.144   3.869
 3391SOL    HW111072   3.558   2.114   3.960
 3391SOL    HW211073   3.513   2.135   3.804
 3392SOL     OW11074   4.875   6.088   3.301
 3392SOL    HW111075   4.779   6.107   3.281
 3392SOL    HW211076   4.885   5.994   3.333
 3393SOL     OW11077   0.070   0.292   0.116
 3393SOL    HW111078   0.161   0.313   0.081
 3393SOL    HW211079   0.068   0.305   0.215
 3394SOL     OW11080   5.669   0.964   2.585
 3394SOL    HW111081   5.705   0.954   2.678
 3394SOL    HW211082   5.640   0.875   2.551
 3395SOL     OW11083   1.145   3.783   5.504
 3395SOL    HW111084   1.119   3.724   5.428
 3395SOL    HW211085   1.097   3.753   5.587
 3396SOL     OW11086   6.379   3.445   4.420
 3396SOL    HW111087   6.437   3.379   4.373
 3396SOL    HW211088   6.309   3.396   4.473
 3397SOL     OW11089   3.574   5.923   6.046
 3397SOL    HW111090   3.667   5.938   6.012
 3397SOL    HW211091   3.570   5.837   6.097
 3398SOL     OW11092   0.361   0.855   2.832
 3398SOL    HW111093   0.456   0.861   2.800
 3398SOL    HW211094   0.357   0.877   2.930
 3399SOL     OW11095   4.120   5.678   5.088
 3399SOL    HW111096   4.110   5.768   5.046
 3399SOL    HW211097   4.139   5.688   5.185
 3400SOL     OW11098   5.185   2.520   0.263
 3400SOL    HW111099   5.165   2.432   0.220
 3400SOL    HW211100   5.102   2.574   0.269
 3401SOL     OW11101   6.769   4.296   6.237
 3401SOL    HW111102   6.858   4.317   6.278
 3401SOL    HW211103   6.721   4.230   6.294
 3402SOL     OW11104   5.246   5.265   2.142
 3402SOL    HW111105   5.301   5.295   2.220
 3402SOL    HW211106   5.272   5.171   2.117
 3403SOL     OW11107   3.658   1.697   5.297
 3403SOL    HW111108   3.570   1.730   5.262
 3403SOL    HW211109   3.651   1.682   5.396
 3404SOL     OW11110   4.765   6.899   1.573
 3404SOL    HW111111   4.789   6.952   1.655
 3404SOL    HW211112   4.683   6.938   1.531
 3405SOL     OW11113   6.238   4.081   0.065
 3405SOL    HW111114   6.207   4.038   7.002
 3405SOL    HW211115   6.172   4.062   0.137
 3406SOL     OW11116   0.831   4.255   1.151
 3406SOL    HW111117   0.890   4.211   1.083
 3406SOL    HW211118   0.819   4.194   1.230
 3407SOL     OW11119   1.412   4.862   2.985
 3407SOL    HW111120   1.324   4.884   2.943
 3407SOL    HW211121   1.398   4.842   3.082
 3408SOL     OW11122   5.439   3.796   3.139
 3408SOL    HW111123   5.382   3.846   3.204
 3408SOL    HW211124   5.387   3.780   3.055
 3409SOL     OW11125   2.738   0.884   5.934
 3409SOL    HW111126   2.655   0.851   5.891
 3409SOL    HW211127   2.721   0.903   6.031
 3410SOL     OW11128   0.038   1.739   0.159
 3410SOL    HW111129   0.131   1.703   0.149
 3410SOL    HW211130   0.033   1.796   0.241
 3411SOL     OW11131   4.216   2.282   2.156
 3411SOL    HW111132   4.169   2.363   2.190
 3411SOL    HW211133   4.314   2.301   2.149
 3412SOL     OW11134   4.354   5.616   6.878
 3412SOL    HW111135   4.384   5.666   6.797
 3412SOL    HW211136   4.359   5.518   6.862
 3413SOL     OW11137   4.907   1.386   2.320
 3413SOL    HW111138   4.924   1.391   2.221
 3413SOL    HW211139   4.992   1.406   2.369
 3414SOL     OW11140   3.915   0.899   5.282
 3414SOL    HW111141   3.984   0.860   5.222
 3414SOL    HW211142   3.930   0.869   5.376
 3415SOL     OW11143   0.975   5.095   4.339
 3415SOL    HW111144   1.056   5.153   4.333
 3415SOL    HW211145   0.929   5.110   4.427
 3416SOL     OW11146   2.215   4.472   5.973
 3416SOL    HW111147   2.284   4.461   5.902
 3416SOL    HW211148   2.127   4.496   5.931
 3417SOL     OW11149   5.383   1.045   1.196
 3417SOL    HW111150   5.292   1.086   1.199
 3417SOL    HW211151   5.434   1.083   1.118
 3418SOL     OW11152   3.168   2.910   6.210
 3418SOL    HW111153   3.076   2.877   6.189
 3418SOL    HW211154   3.228   2.892   6.132
 3419SOL     OW11155   4.861   3.635   6.750
 3419SOL    HW111156   4.858   3.717   6.693
 3419SOL    HW211157   4.917   3.565   6.706
 3420SOL     OW11158   4.177   1.620   4.002
 3420SOL    HW111159   4.126   1.706   4.008
 3420SOL    HW211160   4.195   1.599   3.906
 3421SOL     OW11161   0.285   6.663   2.406
 3421SOL    HW111162   0.363   6.679   2.467
 3421SOL    HW211163   0.271   6.565   2.396
 3422SOL     OW11164   2.883   2.249   2.908
 3422SOL    HW111165   2.876   2.283   2.814
 3422SOL    HW211166   2.965   2.192   2.917
 3423SOL     OW11167   3.015   0.368   1.823
 3423SOL    HW111168   3.101   0.382   1.873
 3423SOL    HW211169   2.980   0.457   1.792
 3424SOL     OW11170   4.315   0.961   1.828
 3424SOL    HW111171   4.247   0.980   1.757
 3424SOL    HW211172   4.406   0.964   1.788
 3425SOL     OW11173   4.570   4.106   1.656
 3425SOL    HW111174   4.500   4.154   1.710
 3425SOL    HW211175   4.555   4.007   1.664
 3426SOL     OW11176   4.648   3.746   0.754
 3426SOL    HW111177   4.661   3.725   0.851
 3426SOL    HW211178   4.724   3.802   0.721
 3427SOL     OW11179   0.726   1.418   0.601
 3427SOL    HW111180   0.670   1.427   0.683
 3427SOL    HW211181   0.764   1.325   0.598
 3428SOL     OW11182   4.120   4.744   3.170
 3428SOL    HW111183   4.194   4.809   3.186
 3428SOL    HW211184   4.105   4.734   3.072
 3429SOL     OW11185   0.286   2.938   0.544
 3429SOL    HW111186   0.314   2.967   0.452
 3429SOL    HW211187   0.190   2.912   0.543
 3430SOL     OW11188   1.487   5.106   6.523
 3430SOL    HW111189   1.427   5.121   6.445
 3430SOL    HW211190   1.496   5.008   6.541
 3431SOL     OW11191   1.747   6.331   6.737
 3431SOL    HW111192   1.775   6.341   6.642
 3431SOL    HW211193   1.666   6.272   6.741
 3432SOL     OW11194   2.734   1.708   6.738
 3432SOL    HW111195   2.824   1.748   6.724
 3432SOL    HW211196   2.668   1.781   6.759
 3433SOL     OW11197   5.309   1.262   4.699
 3433SOL    HW111198   5.263   1.173   4.704
 3433SOL    HW211199   5.361   1.269   4.614
 3434SOL     OW11200   4.522   1.774   3.268
 3434SOL    HW111201   4.453   1.837   3.303
 3434SOL    HW211202   4.606   1.824   3.250
 3435SOL     OW11203   0.844   1.168   0.123
 3435SOL    HW111204   0.897   1.204   0.200
 3435SOL    HW211205   0.838   1.237   0.051
 3436SOL     OW11206   4.686   6.919   2.939
 3436SOL    HW111207   4.667   6.902   2.842
 3436SOL    HW211208   4.785   6.925   2.953
 3437SOL     OW11209   4.611   0.686   6.601
 3437SOL    HW111210   4.650   0.594   6.606
 3437SOL    HW211211   4.548   0.700   6.678
 3438SOL     OW11212   1.291   4.829   6.665
 3438SOL    HW111213   1.332   4.903   6.717
 3438SOL    HW211214   1.283   4.855   6.569
 3439SOL     OW11215   2.485   6.916   3.944
 3439SOL    HW111216   2.492   6.838   4.005
 3439SOL    HW211217   2.557   6.982   3.965
 3440SOL     OW11218   3.118   2.148   0.550
 3440SOL    HW111219   3.104   2.208   0.628
 3440SOL    HW211220   3.029   2.125   0.510
 3441SOL     OW11221   4.835   0.340   4.203
 3441SOL    HW111222   4.792   0.417   4.156
 3441SOL    HW211223   4.808   0.341   4.299
 3442SOL     OW11224   0.932   4.828   3.208
 3442SOL    HW111225   0.972   4.822   3.300
 3442SOL    HW211226   0.961   4.748   3.155
 3443SOL     OW11227   5.468   6.438   4.377
 3443SOL    HW111228   5.542   6.502   4.355
 3443SOL    HW211229   5.493   6.384   4.457
 3444SOL     OW11230   4.283   4.848   0.227
 3444SOL    HW111231   4.338   4.884   0.302
 3444SOL    HW211232   4.251   4.756   0.250
 3445SOL     OW11233   5.778   5.299   4.434
 3445SOL    HW111234   5.707   5.241   4.474
 3445SOL    HW211235   5.759   5.395   4.454
 3446SOL     OW11236   2.741   6.359   2.317
 3446SOL    HW111237   2.815   6.419   2.289
 3446SOL    HW211238   2.693   6.400   2.395
 3447SOL     OW11239   6.041   4.644   5.626
 3447SOL    HW111240   6.107   4.717   5.645
 3447SOL    HW211241   6.090   4.562   5.595
 3448SOL     OW11242   3.543   3.231   0.903
 3448SOL    HW111243   3.634   3.246   0.863
 3448SOL    HW211244   3.498   3.319   0.917
 3449SOL     OW11245   6.708   6.013   2.749
 3449SOL    HW111246   6.692   5.945   2.820
 3449SOL    HW211247   6.676   6.103   2.779
 3450SOL     OW11248   0.849   1.978   1.324
 3450SOL    HW111249   0.776   1.973   1.257
 3450SOL    HW211250   0.925   2.030   1.287
 3451SOL     OW11251   1.509   4.422   4.326
 3451SOL    HW111252   1.560   4.349   4.281
 3451SOL    HW211253   1.414   4.421   4.295
 3452SOL     OW11254   6.909   1.859   0.759
 3452SOL    HW111255   6.939   1.953   0.744
 3452SOL    HW211256   6.989   1.800   0.773
 3453SOL     OW11257   6.076   6.161   5.513
 3453SOL    HW111258   6.106   6.233   5.575
 3453SOL    HW211259   6.132   6.161   5.431
 3454SOL     OW11260   1.265   1.370   0.797
 3454SOL    HW111261   1.205   1.439   0.837
 3454SOL    HW211262   1.360   1.393   0.818
 3455SOL     OW11263   2.211   2.501   3.881
 3455SOL    HW111264   2.120   2.486   3.921
 3455SOL    HW211265   2.223   2.441   3.803
 3456SOL     OW11266   6.961   6.703   0.612
 3456SOL    HW111267   0.035   6.728   0.599
 3456SOL    HW211268   6.952   6.603   0.607
 3457SOL     OW11269   2.050   6.304   3.917
 3457SOL    HW111270   1.982   6.372   3.942
 3457SOL    HW211271   2.088   6.262   4.000
 3458SOL     OW11272   5.194   4.617   0.432
 3458SOL    HW111273   5.142   4.702   0.439
 3458SOL    HW211274   5.262   4.626   0.359
 3459SOL     OW11275   6.522   6.237   3.122
 3459SOL    HW111276   6.570   6.158   3.158
 3459SOL    HW211277   6.425   6.214   3.108
 3460SOL     OW11278   3.654   2.780   5.927
 3460SOL    HW111279   3.674   2.868   5.970
 3460SOL    HW211280   3.733   2.720   5.937
 3461SOL     OW11281   2.556   5.337   2.955
 3461SOL    HW111282   2.456   5.350   2.959
 3461SOL    HW211283   2.595   5.396   2.885
 3462SOL     OW11284   5.288   2.830   2.380
 3462SOL    HW111285   5.199   2.861   2.412
 3462SOL    HW211286   5.288   2.731   2.371
 3463SOL     OW11287   1.639   3.155   1.343
 3463SOL    HW111288   1.678   3.246   1.333
 3463SOL    HW211289   1.675   3.111   1.425
 3464SOL     OW11290   5.419   1.957   6.122
 3464SOL    HW111291   5.444   1.888   6.054
 3464SOL    HW211292   5.325   1.942   6.152
 3465SOL     OW11293   1.514   4.401   1.437
 3465SOL    HW111294   1.477   4.356   1.356
 3465SOL    HW211295   1.547   4.332   1.501
 3466SOL     OW11296   6.065   4.690   4.124
 3466SOL    HW111297   6.062   4.790   4.134
 3466SOL    HW211298   6.159   4.661   4.106
 3467SOL     OW11299   3.189   2.930   1.178
 3467SOL    HW111300   3.197   2.842   1.131
 3467SOL    HW211301   3.093   2.950   1.194
 3468SOL     OW11302   3.616   1.525   0.941
 3468SOL    HW111303   3.711   1.526   0.974
 3468SOL    HW211304   3.614   1.557   0.846
 3469SOL     OW11305   3.587   5.738   4.955
 3469SOL    HW111306   3.656   5.706   5.020
 3469SOL    HW211307   3.563   5.833   4.976
 3470SOL     OW11308   0.432   2.517   2.038
 3470SOL    HW111309   0.424   2.440   2.101
 3470SOL    HW211310   0.457   2.599   2.088
 3471SOL     OW11311   4.882   3.022   4.876
 3471SOL    HW111312   4.939   3.076   4.814
 3471SOL    HW211313   4.786   3.029   4.848
 3472SOL     OW11314   4.172   1.982   3.108
 3472SOL    HW111315   4.150   2.077   3.129
 3472SOL    HW211316   4.195   1.974   3.010
 3473SOL     OW11317   6.043   4.584   1.728
 3473SOL    HW111318   6.021   4.659   1.790
 3473SOL    HW211319   5.968   4.572   1.663
 3474SOL     OW11320   4.649   4.844   3.844
 3474SOL    HW111321   4.710   4.848   3.765
 3474SOL    HW211322   4.608   4.934   3.859
 3475SOL     OW11323   6.756   4.378   3.900
 3475SOL    HW111324   6.693   4.308   3.866
 3475SOL    HW211325   6.703   4.456   3.932
 3476SOL     OW11326   1.829   1.283   3.236
 3476SOL    HW111327   1.758   1.318   3.296
 3476SOL    HW211328   1.796   1.282   3.142
 3477SOL     OW11329   0.614   4.477   1.457
 3477SOL    HW111330   0.640   4.418   1.533
 3477SOL    HW211331   0.676   4.461   1.380
 3478SOL     OW11332   2.087   0.503   1.231
 3478SOL    HW111333   2.150   0.430   1.203
 3478SOL    HW211334   2.025   0.524   1.156
 3479SOL     OW11335   1.420   4.605   5.288
 3479SOL    HW111336   1.463   4.611   5.198
 3479SOL    HW211337   1.323   4.627   5.280
 3480SOL     OW11338   1.403   4.640   6.318
 3480SOL    HW111339   1.443   4.678   6.234
 3480SOL    HW211340   1.304   4.652   6.316
 3481SOL     OW11341   6.006   0.413   4.688
 3481SOL    HW111342   6.100   0.382   4.701
 3481SOL    HW211343   5.943   0.353   4.738
 3482SOL     OW11344   5.900   3.449   6.588
 3482SOL    HW111345   5.866   3.542   6.575
 3482SOL    HW211346   5.888   3.397   6.504
 3483SOL     OW11347   5.704   2.575   5.598
 3483SOL    HW111348   5.653   2.494   5.627
 3483SOL    HW211349   5.671   2.655   5.648
 3484SOL     OW11350   1.063   3.692   5.050
 3484SOL    HW111351   1.064   3.601   5.008
 3484SOL    HW211352   1.153   3.734   5.042
 3485SOL     OW11353   0.030   2.998   6.673
 3485SOL    HW111354   0.108   2.935   6.667
 3485SOL    HW211355   6.968   2.946   6.682
 3486SOL     OW11356   1.683   6.461   5.726
 3486SOL    HW111357   1.628   6.526   5.777
 3486SOL    HW211358   1.777   6.495   5.718
 3487SOL     OW11359   4.758   1.387   0.190
 3487SOL    HW111360   4.763   1.296   0.147
 3487SOL    HW211361   4.844   1.435   0.173
 3488SOL     OW11362   5.885   6.912   4.630
 3488SOL    HW111363   5.871   6.879   4.723
 3488SOL    HW211364   5.912   7.009   4.632
 3489SOL     OW11365   3.187   6.009   0.849
 3489SOL    HW111366   3.188   6.078   0.777
 3489SOL    HW211367   3.184   5.918   0.808
 3490SOL     OW11368   3.334   6.305   0.963
 3490SOL    HW111369   3.291   6.258   1.040
 3490SOL    HW211370   3.433   6.300   0.972
 3491SOL     OW11371   4.011   4.752   6.074
 3491SOL    HW111372   4.025   4.795   5.985
 3491SOL    HW211373   4.027   4.653   6.066
 3492SOL     OW11374   6.042   4.403   3.020
 3492SOL    HW111375   5.978   4.449   2.958
 3492SOL    HW211376   5.991   4.354   3.090
 3493SOL     OW11377   6.611   2.759   5.312
 3493SOL    HW111378   6.710   2.750   5.308
 3493SOL    HW211379   6.574   2.691   5.375
 3494SOL     OW11380   4.204   1.566   2.421
 3494SOL    HW111381   4.185   1.664   2.424
 3494SOL    HW211382   4.127   1.518   2.379
 3495SOL     OW11383   1.380   3.447   3.071
 3495SOL    HW111384   1.477   3.452   3.093
 3495SOL    HW211385   1.357   3.352   3.047
 3496SOL     OW11386   6.295   4.982   1.392
 3496SOL    HW111387   6.334   5.020   1.309
 3496SOL    HW211388   6.229   5.046   1.431
 3497SOL     OW11389   3.282   6.988   2.205
 3497SOL    HW111390   3.193   6.944   2.217
 3497SOL    HW211391   3.318   6.965   2.115
 3498SOL     OW11392   1.788   2.861   1.661
 3498SOL    HW111393   1.731   2.831   1.738
 3498SOL    HW211394   1.768   2.806   1.581
 3499SOL     OW11395   5.751   6.658   4.581
 3499SOL    HW111396   5.677   6.716   4.618
 3499SOL    HW211397   5.775   6.690   4.490
 3500SOL     OW11398   2.384   2.136   3.826
 3500SOL    HW111399   2.367   2.150   3.923
 3500SOL    HW211400   2.357   2.217   3.775
 3501SOL     OW11401   1.338   0.153   6.112
 3501SOL    HW111402   1.338   0.211   6.031
 3501SOL    HW211403   1.245   0.144   6.148
 3502SOL     OW11404   4.295   2.273   2.460
 3502SOL    HW111405   4.198   2.252   2.474
 3502SOL    HW211406   4.305   2.330   2.378
 3503SOL     OW11407   6.982   5.887   6.429
 3503SOL    HW111408   6.899   5.931   6.465
 3503SOL    HW211409   6.958   5.833   6.348
 3504SOL     OW11410   1.982   0.752   0.473
 3504SOL    HW111411   1.941   0.662   0.489
 3504SOL    HW211412   1.933   0.797   0.398
 3505SOL     OW11413   4.899   3.652   5.841
 3505SOL    HW111414   4.996   3.676   5.850
 3505SOL    HW211415   4.846   3.697   5.912
 3506SOL     OW11416   4.237   4.835   5.183
 3506SOL    HW111417   4.158   4.826   5.122
 3506SOL    HW211418   4.321   4.844   5.129
 3507SOL     OW11419   3.379   0.962   0.761
 3507SOL    HW111420   3.425   1.048   0.738
 3507SOL    HW211421   3.328   0.929   0.682
 3508SOL     OW11422   3.555   1.297   5.481
 3508SOL    HW111423   3.630   1.334   5.426
 3508SOL    HW211424   3.564   1.330   5.575
 3509SOL     OW11425   3.992   5.746   6.512
 3509SOL    HW111426   3.901   5.780   6.486
 3509SOL    HW211427   4.034   5.811   6.576
 3510SOL     OW11428   2.618   1.610   1.512
 3510SOL    HW111429   2.596   1.609   1.414
 3510SOL    HW211430   2.717   1.618   1.524
 3511SOL     OW11431   2.713   4.474   1.656
 3511SOL    HW111432   2.758   4.431   1.578
 3511SOL    HW211433   2.780   4.489   1.729
 3512SOL     OW11434   6.706   5.104   5.470
 3512SOL    HW111435   6.663   5.018   5.498
 3512SOL    HW211436   6.668   5.179   5.525
 3513SOL     OW11437   6.306   1.846   0.857
 3513SOL    HW111438   6.350   1.935   0.866
 3513SOL    HW211439   6.207   1.857   0.855
 3514SOL     OW11440   3.378   1.589   1.896
 3514SOL    HW111441   3.310   1.596   1.969
 3514SOL    HW211442   3.370   1.668   1.835
 3515SOL     OW11443   0.093   5.124   4.341
 3515SOL    HW111444   0.130   5.033   4.356
 3515SOL    HW211445   0.074   5.167   4.430
 3516SOL     OW11446   4.786   0.538   1.387
 3516SOL    HW111447   4.695   0.575   1.367
 3516SOL    HW211448   4.793   0.517   1.484
 3517SOL     OW11449   5.300   0.798   1.291
 3517SOL    HW111450   5.346   0.882   1.263
 3517SOL    HW211451   5.202   0.816   1.305
 3518SOL     OW11452   5.100   1.000   5.105
 3518SOL    HW111453   5.037   1.072   5.134
 3518SOL    HW211454   5.191   1.040   5.093
 3519SOL     OW11455   3.287   0.908   1.197
 3519SOL    HW111456   3.241   0.894   1.284
 3519SOL    HW211457   3.369   0.964   1.211
 3520SOL     OW11458   3.106   6.175   4.158
 3520SOL    HW111459   3.060   6.144   4.074
 3520SOL    HW211460   3.060   6.135   4.237
 3521SOL     OW11461   2.763   3.082   6.273
 3521SOL    HW111462   2.819   3.014   6.226
 3521SOL    HW211463   2.816   3.165   6.286
 3522SOL     OW11464   1.085   6.234   6.389
 3522SOL    HW111465   1.093   6.316   6.334
 3522SOL    HW211466   0.999   6.186   6.366
 3523SOL     OW11467   3.045   6.546   6.851
 3523SOL    HW111468   2.981   6.603   6.903
 3523SOL    HW211469   3.072   6.593   6.768
 3524SOL     OW11470   4.710   1.443   3.932
 3524SOL    HW111471   4.737   1.495   3.851
 3524SOL    HW211472   4.642   1.375   3.907
 3525SOL     OW11473   0.017   3.534   3.441
 3525SOL    HW111474   7.012   3.524   3.536
 3525SOL    HW211475   0.105   3.488   3.426
 3526SOL     OW11476   0.200   6.500   1.750
 3526SOL    HW111477   0.135   6.463   1.683
 3526SOL    HW211478   0.158   6.577   1.797
 3527SOL     OW11479   0.201   3.110   6.258
 3527SOL    HW111480   0.141   3.187   6.235
 3527SOL    HW211481   0.226   3.115   6.355
 3528SOL     OW11482   2.373   5.750   4.277
 3528SOL    HW111483   2.391   5.668   4.331
 3528SOL    HW211484   2.399   5.734   4.182
 3529SOL     OW11485   4.253   4.579   1.036
 3529SOL    HW111486   4.250   4.525   0.951
 3529SOL    HW211487   4.275   4.519   1.112
 3530SOL     OW11488   6.726   6.776   0.480
 3530SOL    HW111489   6.658   6.833   0.526
 3530SOL    HW211490   6.813   6.782   0.529
 3531SOL     OW11491   4.910   2.311   0.524
 3531SOL    HW111492   4.927   2.317   0.426
 3531SOL    HW211493   4.822   2.356   0.545
 3532SOL     OW11494   1.870   1.168   1.431
 3532SOL    HW111495   1.868   1.145   1.528
 3532SOL    HW211496   1.881   1.084   1.377
 3533SOL     OW11497   1.197   1.692   3.135
 3533SOL    HW111498   1.269   1.706   3.203
 3533SOL    HW211499   1.229   1.628   3.065
 3534SOL     OW11500   0.178   0.911   1.137
 3534SOL    HW111501   0.166   0.897   1.038
 3534SOL    HW211502   0.223   0.999   1.153
 3535SOL     OW11503   3.245   5.869   4.083
 3535SOL    HW111504   3.171   5.932   4.059
 3535SOL    HW211505   3.291   5.839   3.999
 3536SOL     OW11506   3.923   1.600   3.246
 3536SOL    HW111507   3.968   1.627   3.331
 3536SOL    HW211508   3.987   1.610   3.170
 3537SOL     OW11509   1.859   6.852   3.860
 3537SOL    HW111510   1.893   6.771   3.813
 3537SOL    HW211511   1.766   6.872   3.829
 3538SOL     OW11512   2.901   5.659   2.210
 3538SOL    HW111513   2.859   5.615   2.131
 3538SOL    HW211514   2.948   5.742   2.181
 3539SOL     OW11515   3.477   3.771   4.353
 3539SOL    HW111516   3.401   3.798   4.294
 3539SOL    HW211517   3.512   3.852   4.400
 3540SOL     OW11518   1.558   2.355   3.520
 3540SOL    HW111519   1.499   2.395   3.590
 3540SOL    HW211520   1.502   2.317   3.447
 3541SOL     OW11521   4.056   3.803   4.361
 3541SOL    HW111522   4.064   3.819   4.459
 3541SOL    HW211523   4.080   3.707   4.341
 3542SOL     OW11524   6.597   5.478   0.981
 3542SOL    HW111525   6.554   5.538   1.048
 3542SOL    HW211526   6.551   5.389   0.980
 3543SOL     OW11527   5.588   2.690   4.706
 3543SOL    HW111528   5.677   2.711   4.746
 3543SOL    HW211529   5.522   2.762   4.730
 3544SOL     OW11530   2.395   6.770   0.029
 3544SOL    HW111531   2.407   6.730   0.119
 3544SOL    HW211532   2.307   6.818   0.025
 3545SOL     OW11533   3.276   4.653   0.636
 3545SOL    HW111534   3.331   4.671   0.717
 3545SOL    HW211535   3.243   4.740   0.599
 3546SOL     OW11536   0.195   4.848   2.405
 3546SOL    HW111537   0.248   4.784   2.350
 3546SOL    HW211538   0.097   4.833   2.390
 3547SOL     OW11539   4.856   4.724   4.345
 3547SOL    HW111540   4.939   4.675   4.318
 3547SOL    HW211541   4.815   4.766   4.264
 3548SOL     OW11542   5.205   3.582   5.739
 3548SOL    HW111543   5.266   3.612   5.812
 3548SOL    HW211544   5.166   3.662   5.693
 3549SOL     OW11545   5.385   3.555   2.524
 3549SOL    HW111546   5.418   3.528   2.433
 3549SOL    HW211547   5.285   3.549   2.526
 3550SOL     OW11548   5.194   1.336   3.293
 3550SOL    HW111549   5.198   1.436   3.286
 3550SOL    HW211550   5.225   1.296   3.207
 3551SOL     OW11551   2.200   6.425   3.121
 3551SOL    HW111552   2.271   6.495   3.122
 3551SOL    HW211553   2.111   6.468   3.140
 3552SOL     OW11554   6.619   4.236   3.315
 3552SOL    HW111555   6.668   4.322   3.332
 3552SOL    HW211556   6.525   4.256   3.287
 3553SOL     OW11557   5.717   2.270   3.283
 3553SOL    HW111558   5.641   2.334   3.273
 3553SOL    HW211559   5.804   2.320   3.272
 3554SOL     OW11560   4.063   5.911   6.911
 3554SOL    HW111561   4.041   6.008   6.922
 3554SOL    HW211562   3.983   5.855   6.936
 3555SOL     OW11563   0.272   2.358   3.432
 3555SOL    HW111564   0.224   2.445   3.440
 3555SOL    HW211565   0.284   2.334   3.336
 3556SOL     OW11566   4.441   0.952   6.509
 3556SOL    HW111567   4.362   1.001   6.545
 3556SOL    HW211568   4.524   1.004   6.528
 3557SOL     OW11569   1.043   0.322   4.514
 3557SOL    HW111570   1.115   0.273   4.563
 3557SOL    HW211571   1.047   0.299   4.417
 3558SOL     OW11572   6.742   6.632   1.497
 3558SOL    HW111573   6.690   6.571   1.439
 3558SOL    HW211574   6.818   6.672   1.445
 3559SOL     OW11575   1.289   0.430   5.255
 3559SOL    HW111576   1.328   0.420   5.346
 3559SOL    HW211577   1.189   0.430   5.261
 3560SOL     OW11578   6.650   6.887   1.321
 3560SOL    HW111579   6.569   6.829   1.308
 3560SOL    HW211580   6.695   6.861   1.406
 3561SOL     OW11581   5.332   4.590   3.682
 3561SOL    HW111582   5.245   4.594   3.730
 3561SOL    HW211583   5.339   4.504   3.632
 3562SOL     OW11584   3.785   2.092   3.138
 3562SOL    HW111585   3.820   2.006   3.100
 3562SOL    HW211586   3.832   2.112   3.224
 3563SOL     OW11587   5.088   6.850   1.613
 3563SOL    HW111588   5.035   6.787   1.556
 3563SOL    HW211589   5.108   6.807   1.701
 3564SOL     OW11590   6.830   4.184   3.112
 3564SOL    HW111591   6.773   4.159   3.191
 3564SOL    HW211592   6.921   4.145   3.124
 3565SOL     OW11593   1.595   0.766   5.332
 3565SOL    HW111594   1.553   0.787   5.420
 3565SOL    HW211595   1.647   0.680   5.339
 3566SOL     OW11596   1.086   4.591   6.335
 3566SOL    HW111597   1.039   4.638   6.260
 3566SOL    HW211598   1.097   4.494   6.311
 3567SOL     OW11599   0.105   2.874   1.256
 3567SOL    HW111600   0.142   2.819   1.332
 3567SOL    HW211601   0.181   2.914   1.205
 3568SOL     OW11602   4.751   4.082   3.404
 3568SOL    HW111603   4.740   4.111   3.499
 3568SOL    HW211604   4.802   3.996   3.400
 3569SOL     OW11605   4.080   3.295   3.380
 3569SOL    HW111606   4.077   3.218   3.316
 3569SOL    HW211607   4.035   3.269   3.465
 3570SOL     OW11608   0.357   1.859   5.007
 3570SOL    HW111609   0.356   1.927   5.080
 3570SOL    HW211610   0.449   1.854   4.967
 3571SOL     OW11611   2.641   6.990   4.754
 3571SOL    HW111612   2.566   6.938   4.712
 3571SOL    HW211613   2.635   0.063   4.726
 3572SOL     OW11614   4.853   3.883   1.830
 3572SOL    HW111615   4.784   3.926   1.888
 3572SOL    HW211616   4.936   3.939   1.830
 3573SOL     OW11617   7.006   4.712   3.711
 3573SOL    HW111618   7.020   4.677   3.618
 3573SOL    HW211619   0.071   4.708   3.761
 3574SOL     OW11620   2.057   1.759   5.767
 3574SOL    HW111621   2.093   1.728   5.855
 3574SOL    HW211622   2.116   1.726   5.693
 3575SOL     OW11623   5.466   0.368   6.654
 3575SOL    HW111624   5.384   0.331   6.611
 3575SOL    HW211625   5.441   0.443   6.715
 3576SOL     OW11626   1.218   2.700   0.524
 3576SOL    HW111627   1.313   2.700   0.555
 3576SOL    HW211628   1.209   2.761   0.445
 3577SOL     OW11629   1.367   2.776   4.982
 3577SOL    HW111630   1.312   2.693   4.968
 3577SOL    HW211631   1.350   2.840   4.907
 3578SOL     OW11632   3.653   2.979   6.762
 3578SOL    HW111633   3.672   3.015   6.854
 3578SOL    HW211634   3.726   3.007   6.700
 3579SOL     OW11635   1.026   4.125   0.997
 3579SOL    HW111636   0.976   4.045   0.966
 3579SOL    HW211637   1.068   4.171   0.919
 3580SOL     OW11638   6.949   4.033   2.123
 3580SOL    HW111639   6.867   4.017   2.179
 3580SOL    HW211640   6.950   3.968   2.047
 3581SOL     OW11641   1.442   0.479   2.837
 3581SOL    HW111642   1.490   0.551   2.886
 3581SOL    HW211643   1.487   0.391   2.854
 3582SOL     OW11644   4.634   6.164   6.955
 3582SOL    HW111645   4.707   6.191   7.017
 3582SOL    HW211646   4.635   6.065   6.943
 3583SOL     OW11647   1.729   5.617   1.509
 3583SOL    HW111648   1.678   5.588   1.591
 3583SOL    HW211649   1.827   5.621   1.530
 3584SOL     OW11650   5.896   5.030   4.652
 3584SOL    HW111651   5.989   5.053   4.623
 3584SOL    HW211652   5.857   4.964   4.588
 3585SOL     OW11653   3.588   2.025   3.512
 3585SOL    HW111654   3.638   2.104   3.547
 3585SOL    HW211655   3.634   1.941   3.540
 3586SOL     OW11656   6.938   2.003   5.451
 3586SOL    HW111657   6.999   1.951   5.391
 3586SOL    HW211658   6.857   1.948   5.470
 3587SOL     OW11659   2.896   0.652   5.913
 3587SOL    HW111660   2.835   0.584   5.872
 3587SOL    HW211661   2.861   0.743   5.894
 3588SOL     OW11662   5.783   4.865   4.452
 3588SOL    HW111663   5.818   4.903   4.366
 3588SOL    HW211664   5.700   4.813   4.433
 3589SOL     OW11665   0.900   0.150   6.131
 3589SOL    HW111666   0.946   0.177   6.046
 3589SOL    HW211667   0.802   0.142   6.114
 3590SOL     OW11668   6.063   5.461   5.343
 3590SOL    HW111669   6.101   5.553   5.336
 3590SOL    HW211670   6.108   5.401   5.277
 3591SOL     OW11671   4.668   1.891   0.689
 3591SOL    HW111672   4.620   1.962   0.740
 3591SOL    HW211673   4.760   1.923   0.664
 3592SOL     OW11674   1.166   5.963   1.044
 3592SOL    HW111675   1.088   5.918   1.088
 3592SOL    HW211676   1.206   6.030   1.107
 3593SOL     OW11677   3.805   3.341   5.828
 3593SOL    HW111678   3.769   3.268   5.770
 3593SOL    HW211679   3.904   3.346   5.818
 3594SOL     OW11680   4.546   4.941   5.111
 3594SOL    HW111681   4.490   5.023   5.115
 3594SOL    HW211682   4.561   4.906   5.204
 3595SOL     OW11683   4.758   6.234   4.634
 3595SOL    HW111684   4.739   6.268   4.541
 3595SOL    HW211685   4.733   6.305   4.700
 3596SOL     OW11686   4.021   1.677   2.847
 3596SOL    HW111687   3.924   1.657   2.837
 3596SOL    HW211688   4.042   1.765   2.805
 3597SOL     OW11689   3.350   4.302   5.421
 3597SOL    HW111690   3.407   4.301   5.339
 3597SOL    HW211691   3.390   4.244   5.492
 3598SOL     OW11692   0.083   5.625   5.378
 3598SOL    HW111693   0.114   5.638   5.284
 3598SOL    HW211694   0.132   5.687   5.439
 3599SOL     OW11695   2.662   1.548   5.002
 3599SOL    HW111696   2.690   1.641   5.026
 3599SOL    HW211697   2.644   1.542   4.904
 3600SOL     OW11698   2.800   3.836   0.044
 3600SOL    HW111699   2.822   3.804   0.136
 3600SOL    HW211700   2.720   3.786   0.009
 3601SOL     OW11701   4.708   0.870   5.092
 3601SOL    HW111702   4.635   0.871   5.160
 3601SOL    HW211703   4.694   0.943   5.025
 3602SOL     OW11704   1.534   2.422   1.666
 3602SOL    HW111705   1.632   2.438   1.650
 3602SOL    HW211706   1.483   2.505   1.643
 3603SOL     OW11707   2.376   0.462   5.703
 3603SOL    HW111708   2.408   0.534   5.764
 3603SOL    HW211709   2.398   0.373   5.743
 3604SOL     OW11710   6.830   0.960   3.488
 3604SOL    HW111711   6.846   1.038   3.428
 3604SOL    HW211712   6.915   0.909   3.500
 3605SOL     OW11713   1.368   0.171   5.026
 3605SOL    HW111714   1.404   0.246   5.082
 3605SOL    HW211715   1.277   0.195   4.994
 3606SOL     OW11716   2.290   6.816   2.412
 3606SOL    HW111717   2.252   6.746   2.352
 3606SOL    HW211718   2.240   6.815   2.499
 3607SOL     OW11719   6.564   1.486   3.343
 3607SOL    HW111720   6.529   1.404   3.388
 3607SOL    HW211721   6.518   1.496   3.254
 3608SOL     OW11722   3.616   1.722   5.621
 3608SOL    HW111723   3.650   1.807   5.581
 3608SOL    HW211724   3.688   1.653   5.621
 3609SOL     OW11725   3.410   0.253   5.368
 3609SOL    HW111726   3.472   0.289   5.299
 3609SOL    HW211727   3.366   0.328   5.417
 3610SOL     OW11728   2.230   0.907   5.583
 3610SOL    HW111729   2.146   0.954   5.612
 3610SOL    HW211730   2.289   0.972   5.535
 3611SOL     OW11731   5.701   3.906   3.130
 3611SOL    HW111732   5.603   3.893   3.120
 3611SOL    HW211733   5.728   3.993   3.090
 3612SOL     OW11734   4.593   2.023   0.407
 3612SOL    HW111735   4.576   1.926   0.388
 3612SOL    HW211736   4.553   2.047   0.495
 3613SOL     OW11737   3.667   0.110   2.747
 3613SOL    HW111738   3.744   0.054   2.718
 3613SOL    HW211739   3.581   0.067   2.719
 3614SOL     OW11740   3.599   5.665   0.299
 3614SOL    HW111741   3.565   5.634   0.388
 3614SOL    HW211742   3.567   5.758   0.282
 3615SOL     OW11743   4.902   2.957   5.688
 3615SOL    HW111744   4.811   2.971   5.725
 3615SOL    HW211745   4.907   2.994   5.595
 3616SOL     OW11746   1.412   2.387   0.919
 3616SOL    HW111747   1.373   2.382   0.827
 3616SOL    HW211748   1.395   2.301   0.967
 3617SOL     OW11749   4.217   5.448   5.330
 3617SOL    HW111750   4.170   5.371   5.372
 3617SOL    HW211751   4.160   5.530   5.336
 3618SOL     OW11752   1.170   5.379   4.621
 3618SOL    HW111753   1.129   5.293   4.651
 3618SOL    HW211754   1.098   5.448   4.607
 3619SOL     OW11755   6.516   2.085   2.505
 3619SOL    HW111756   6.535   2.103   2.408
 3619SOL    HW211757   6.437   2.024   2.513
 3620SOL     OW11758   5.285   6.287   5.302
 3620SOL    HW111759   5.351   6.213   5.289
 3620SOL    HW211760   5.215   6.257   5.368
 3621SOL     OW11761   3.604   3.013   3.828
 3621SOL    HW111762   3.619   3.112   3.826
 3621SOL    HW211763   3.512   2.994   3.864
 3622SOL     OW11764   1.846   5.461   6.270
 3622SOL    HW111765   1.833   5.558   6.246
 3622SOL    HW211766   1.944   5.443   6.285
 3623SOL     OW11767   1.503   5.942   6.270
 3623SOL    HW111768   1.597   5.973   6.282
 3623SOL    HW211769   1.480   5.877   6.343
 3624SOL     OW11770   2.464   1.992   2.922
 3624SOL    HW111771   2.408   2.074   2.935
 3624SOL    HW211772   2.538   2.012   2.858
 3625SOL     OW11773   6.290   2.515   1.296
 3625SOL    HW111774   6.202   2.559   1.314
 3625SOL    HW211775   6.363   2.584   1.301
 3626SOL     OW11776   1.487   2.786   6.313
 3626SOL    HW111777   1.408   2.846   6.328
 3626SOL    HW211778   1.565   2.840   6.282
 3627SOL     OW11779   3.223   1.235   2.765
 3627SOL    HW111780   3.257   1.225   2.859
 3627SOL    HW211781   3.234   1.330   2.736
 3628SOL     OW11782   6.758   1.328   1.629
 3628SOL    HW111783   6.774   1.292   1.537
 3628SOL    HW211784   6.791   1.422   1.634
 3629SOL     OW11785   1.600   0.585   4.073
 3629SOL    HW111786   1.580   0.585   4.171
 3629SOL    HW211787   1.563   0.667   4.030
 3630SOL     OW11788   6.250   2.277   2.975
 3630SOL    HW111789   6.288   2.308   3.062
 3630SOL    HW211790   6.166   2.227   2.992
 3631SOL     OW11791   2.195   5.848   2.634
 3631SOL    HW111792   2.217   5.819   2.541
 3631SOL    HW211793   2.278   5.856   2.687
 3632SOL     OW11794   4.867   3.209   2.620
 3632SOL    HW111795   4.853   3.150   2.541
 3632SOL    HW211796   4.882   3.303   2.589
 3633SOL     OW11797   4.113   4.390   6.386
 3633SOL    HW111798   4.138   4.297   6.415
 3633SOL    HW211799   4.193   4.449   6.392
 3634SOL     OW11800   3.132   5.567   6.338
 3634SOL    HW111801   3.068   5.643   6.339
 3634SOL    HW211802   3.108   5.503   6.264
 3635SOL     OW11803   1.333   6.970   2.963
 3635SOL    HW111804   1.428   6.992   2.942
 3635SOL    HW211805   1.322   6.870   2.967
 3636SOL     OW11806   0.265   5.831   4.996
 3636SOL    HW111807   0.325   5.832   4.917
 3636SOL    HW211808   0.202   5.909   4.992
 3637SOL     OW11809   5.818   2.689   6.622
 3637SOL    HW111810   5.912   2.722   6.620
 3637SOL    HW211811   5.801   2.632   6.541
 3638SOL     OW11812   0.099   3.232   3.549
 3638SOL    HW111813   0.163   3.306   3.523
 3638SOL    HW211814   0.151   3.157   3.590
 3639SOL     OW11815   4.062   3.857   4.633
 3639SOL    HW111816   4.072   3.781   4.697
 3639SOL    HW211817   4.140   3.919   4.642
 3640SOL     OW11818   4.518   1.791   2.107
 3640SOL    HW111819   4.533   1.702   2.150
 3640SOL    HW211820   4.420   1.813   2.109
 3641SOL     OW11821   6.587   3.468   1.914
 3641SOL    HW111822   6.503   3.521   1.909
 3641SOL    HW211823   6.569   3.373   1.887
 3642SOL     OW11824   5.115   4.350   6.129
 3642SOL    HW111825   5.039   4.362   6.192
 3642SOL    HW211826   5.083   4.368   6.035
 3643SOL     OW11827   4.163   5.969   4.815
 3643SOL    HW111828   4.172   5.894   4.750
 3643SOL    HW211829   4.253   5.994   4.850
 3644SOL     OW11830   2.733   0.984   2.145
 3644SOL    HW111831   2.807   1.007   2.082
 3644SOL    HW211832   2.764   0.911   2.207
 3645SOL     OW11833   2.137   4.262   3.468
 3645SOL    HW111834   2.160   4.176   3.422
 3645SOL    HW211835   2.111   4.330   3.400
 3646SOL     OW11836   1.962   5.408   5.402
 3646SOL    HW111837   2.048   5.407   5.454
 3646SOL    HW211838   1.921   5.316   5.403
 3647SOL     OW11839   3.893   6.818   0.430
 3647SOL    HW111840   3.940   6.848   0.347
 3647SOL    HW211841   3.935   6.734   0.464
 3648SOL     OW11842   5.100   4.566   3.501
 3648SOL    HW111843   5.018   4.513   3.480
 3648SOL    HW211844   5.109   4.577   3.600
 3649SOL     OW11845   5.150   2.278   0.690
 3649SOL    HW111846   5.078   2.318   0.633
 3649SOL    HW211847   5.238   2.320   0.668
 3650SOL     OW11848   5.430   6.040   6.038
 3650SOL    HW111849   5.454   5.963   5.979
 3650SOL    HW211850   5.514   6.085   6.069
 3651SOL     OW11851   1.213   2.232   6.219
 3651SOL    HW111852   1.194   2.234   6.317
 3651SOL    HW211853   1.128   2.242   6.169
 3652SOL     OW11854   5.357   2.481   2.719
 3652SOL    HW111855   5.265   2.498   2.684
 3652SOL    HW211856   5.353   2.458   2.816
 3653SOL     OW11857   2.041   1.238   0.795
 3653SOL    HW111858   2.115   1.270   0.735
 3653SOL    HW211859   2.075   1.228   0.888
 3654SOL     OW11860   4.318   6.366   1.465
 3654SOL    HW111861   4.375   6.426   1.522
 3654SOL    HW211862   4.286   6.289   1.520
 3655SOL     OW11863   1.268   0.867   4.221
 3655SOL    HW111864   1.278   0.808   4.140
 3655SOL    HW211865   1.345   0.852   4.283
 3656SOL     OW11866   0.349   6.949   0.880
 3656SOL    HW111867   0.403   6.877   0.837
 3656SOL    HW211868   0.402   0.012   0.879
 3657SOL     OW11869   5.763   4.986   6.130
 3657SOL    HW111870   5.745   4.934   6.047
 3657SOL    HW211871   5.825   4.934   6.189
 3658SOL     OW11872   1.580   4.029   5.421
 3658SOL    HW111873   1.631   3.994   5.342
 3658SOL    HW211874   1.488   3.988   5.422
 3659SOL     OW11875   1.047   2.105   6.823
 3659SOL    HW111876   1.039   2.171   6.898
 3659SOL    HW211877   0.959   2.099   6.775
 3660SOL     OW11878   3.964   4.819   5.116
 3660SOL    HW111879   3.930   4.742   5.170
 3660SOL    HW211880   3.893   4.889   5.108
 3661SOL     OW11881   0.849   1.444   4.791
 3661SOL    HW111882   0.863   1.500   4.873
 3661SOL    HW211883   0.924   1.459   4.727
 3662SOL     OW11884   3.811   1.547   5.561
 3662SOL    HW111885   3.826   1.496   5.476
 3662SOL    HW211886   3.841   1.491   5.639
 3663SOL     OW11887   1.662   2.454   6.084
 3663SOL    HW111888   1.728   2.423   6.153
 3663SOL    HW211889   1.573   2.411   6.102
 3664SOL     OW11890   2.724   1.695   1.218
 3664SOL    HW111891   2.750   1.783   1.179
 3664SOL    HW211892   2.649   1.656   1.163
 3665SOL     OW11893   0.077   6.045   5.045
 3665SOL    HW111894   0.006   6.018   5.110
 3665SOL    HW211895   0.041   6.041   4.952
 3666SOL     OW11896   1.919   3.693   4.756
 3666SOL    HW111897   2.002   3.641   4.776
 3666SOL    HW211898   1.892   3.678   4.661
 3667SOL     OW11899   2.123   6.611   1.216
 3667SOL    HW111900   2.183   6.665   1.276
 3667SOL    HW211901   2.148   6.627   1.121
 3668SOL     OW11902   4.990   1.394   1.180
 3668SOL    HW111903   5.051   1.316   1.193
 3668SOL    HW211904   4.932   1.405   1.261
 3669SOL     OW11905   6.396   0.845   1.691
 3669SOL    HW111906   6.388   0.843   1.791
 3669SOL    HW211907   6.388   0.939   1.659
 3670SOL     OW11908   2.029   0.056   2.188
 3670SOL    HW111909   2.048   0.148   2.222
 3670SOL    HW211910   2.082   0.041   2.104
 3671SOL     OW11911   0.165   0.543   5.286
 3671SOL    HW111912   0.152   0.641   5.272
 3671SOL    HW211913   0.246   0.527   5.342
 3672SOL     OW11914   4.293   0.324   3.658
 3672SOL    HW111915   4.203   0.327   3.613
 3672SOL    HW211916   4.311   0.231   3.689
 3673SOL     OW11917   3.448   1.200   1.875
 3673SOL    HW111918   3.474   1.103   1.878
 3673SOL    HW211919   3.529   1.256   1.859
 3674SOL     OW11920   0.131   4.611   6.086
 3674SOL    HW111921   0.166   4.540   6.147
 3674SOL    HW211922   0.201   4.636   6.020
 3675SOL     OW11923   6.771   0.997   4.682
 3675SOL    HW111924   6.743   0.903   4.662
 3675SOL    HW211925   6.775   1.010   4.781
 3676SOL     OW11926   2.768   0.674   5.593
 3676SOL    HW111927   2.788   0.766   5.626
 3676SOL    HW211928   2.739   0.678   5.497
 3677SOL     OW11929   1.523   0.892   4.673
 3677SOL    HW111930   1.479   0.872   4.585
 3677SOL    HW211931   1.552   0.987   4.674
 3678SOL     OW11932   2.924   0.905   3.328
 3678SOL    HW111933   2.983   0.946   3.397
 3678SOL    HW211934   2.888   0.976   3.268
 3679SOL     OW11935   3.193   1.047   2.183
 3679SOL    HW111936   3.279   1.081   2.220
 3679SOL    HW211937   3.146   0.991   2.252
 3680SOL     OW11938   3.946   2.148   4.148
 3680SOL    HW111939   4.040   2.163   4.114
 3680SOL    HW211940   3.899   2.085   4.087
 3681SOL     OW11941   1.087   6.204   3.484
 3681SOL    HW111942   1.074   6.303   3.479
 3681SOL    HW211943   1.002   6.161   3.514
 3682SOL     OW11944   5.411   1.593   1.534
 3682SOL    HW111945   5.369   1.655   1.601
 3682SOL    HW211946   5.465   1.646   1.469
 3683SOL     OW11947   6.634   1.696   1.110
 3683SOL    HW111948   6.538   1.676   1.089
 3683SOL    HW211949   6.691   1.666   1.034
 3684SOL     OW11950   2.571   6.164   5.478
 3684SOL    HW111951   2.556   6.100   5.553
 3684SOL    HW211952   2.657   6.141   5.432
 3685SOL     OW11953   2.246   6.922   3.623
 3685SOL    HW111954   2.183   6.875   3.562
 3685SOL    HW211955   2.318   6.967   3.570
 3686SOL     OW11956   0.032   4.506   0.131
 3686SOL    HW111957   0.061   4.416   0.163
 3686SOL    HW211958   0.042   4.510   0.031
 3687SOL     OW11959   6.665   4.677   4.327
 3687SOL    HW111960   6.666   4.777   4.339
 3687SOL    HW211961   6.597   4.637   4.388
 3688SOL     OW11962   7.008   2.951   1.620
 3688SOL    HW111963   0.083   2.968   1.636
 3688SOL    HW211964   6.980   2.994   1.535
 3689SOL     OW11965   1.734   1.702   5.513
 3689SOL    HW111966   1.691   1.618   5.481
 3689SOL    HW211967   1.751   1.696   5.612
 3690SOL     OW11968   6.303   4.784   1.605
 3690SOL    HW111969   6.336   4.858   1.546
 3690SOL    HW211970   6.252   4.719   1.550
 3691SOL     OW11971   1.891   2.229   0.922
 3691SOL    HW111972   1.926   2.149   0.873
 3691SOL    HW211973   1.935   2.312   0.886
 3692SOL     OW11974   0.841   2.948   5.454
 3692SOL    HW111975   0.783   2.869   5.473
 3692SOL    HW211976   0.875   2.943   5.360
 3693SOL     OW11977   0.031   2.153   2.969
 3693SOL    HW111978   6.969   2.205   2.983
 3693SOL    HW211979   0.013   2.056   2.986
 3694SOL     OW11980   0.136   6.740   1.879
 3694SOL    HW111981   0.046   6.733   1.837
 3694SOL    HW211982   0.127   6.774   1.973
 3695SOL     OW11983   6.230   3.784   3.837
 3695SOL    HW111984   6.151   3.842   3.856
 3695SOL    HW211985   6.225   3.702   3.894
 3696SOL     OW11986   4.671   6.890   4.176
 3696SOL    HW111987   4.599   6.901   4.108
 3696SOL    HW211988   4.753   6.938   4.146
 3697SOL     OW11989   6.005   5.287   3.334
 3697SOL    HW111990   6.098   5.310   3.360
 3697SOL    HW211991   5.951   5.265   3.415
 3698SOL     OW11992   1.052   6.862   4.419
 3698SOL    HW111993   1.077   6.792   4.487
 3698SOL    HW211994   1.135   6.892   4.371
 3699SOL     OW11995   3.200   2.097   3.048
 3699SOL    HW111996   3.191   2.019   2.986
 3699SOL    HW211997   3.294   2.131   3.045
 3700SOL     OW11998   0.688   5.327   4.252
 3700SOL    HW111999   0.729   5.302   4.339
 3700SOL    HW212000   0.627   5.405   4.266
 3701SOL     OW12001   6.535   0.465   2.146
 3701SOL    HW112002   6.597   0.460   2.224
 3701SOL    HW212003   6.577   0.421   2.066
 3702SOL     OW12004   6.370   4.550   3.523
 3702SOL    HW112005   6.333   4.622   3.582
 3702SOL    HW212006   6.469   4.544   3.535
 3703SOL     OW12007   0.814   2.285   3.582
 3703SOL    HW112008   0.782   2.296   3.488
 3703SOL    HW212009   0.892   2.222   3.583
 3704SOL     OW12010   6.313   0.079   0.765
 3704SOL    HW112011   6.333   7.007   0.739
 3704SOL    HW212012   6.284   0.083   0.861
 3705SOL     OW12013   6.272   4.194   3.693
 3705SOL    HW112014   6.307   4.114   3.643
 3705SOL    HW212015   6.254   4.268   3.628
 3706SOL     OW12016   0.901   5.599   6.687
 3706SOL    HW112017   0.936   5.693   6.689
 3706SOL    HW212018   0.890   5.565   6.780
 3707SOL     OW12019   0.636   4.590   3.389
 3707SOL    HW112020   0.733   4.598   3.371
 3707SOL    HW212021   0.584   4.600   3.304
 3708SOL     OW12022   1.851   5.839   0.417
 3708SOL    HW112023   1.940   5.812   0.452
 3708SOL    HW212024   1.843   5.939   0.422
 3709SOL     OW12025   1.032   1.665   2.200
 3709SOL    HW112026   1.078   1.708   2.122
 3709SOL    HW212027   1.088   1.677   2.282
 3710SOL     OW12028   2.146   3.652   5.500
 3710SOL    HW112029   2.121   3.682   5.408
 3710SOL    HW212030   2.245   3.659   5.512
 3711SOL     OW12031   2.052   5.098   5.057
 3711SOL    HW112032   2.047   5.040   5.138
 3711SOL    HW212033   1.989   5.175   5.067
 3712SOL     OW12034   2.914   4.858   4.300
 3712SOL    HW112035   2.828   4.872   4.349
 3712SOL    HW212036   2.988   4.846   4.366
 3713SOL     OW12037   5.757   0.302   5.567
 3713SOL    HW112038   5.811   0.337   5.644
 3713SOL    HW212039   5.713   0.216   5.593
 3714SOL     OW12040   0.319   5.290   0.117
 3714SOL    HW112041   0.288   5.205   0.159
 3714SOL    HW212042   0.260   5.365   0.147
 3715SOL     OW12043   6.252   4.500   3.173
 3715SOL    HW112044   6.167   4.497   3.120
 3715SOL    HW212045   6.306   4.579   3.145
 3716SOL     OW12046   5.703   5.757   5.614
 3716SOL    HW112047   5.707   5.844   5.565
 3716SOL    HW212048   5.632   5.761   5.684
 3717SOL     OW12049   4.853   0.276   1.020
 3717SOL    HW112050   4.892   0.301   1.109
 3717SOL    HW212051   4.793   0.197   1.032
 3718SOL     OW12052   5.499   6.765   6.327
 3718SOL    HW112053   5.558   6.719   6.394
 3718SOL    HW212054   5.423   6.810   6.375
 3719SOL     OW12055   2.510   4.498   0.202
 3719SOL    HW112056   2.589   4.440   0.182
 3719SOL    HW212057   2.483   4.484   0.297
 3720SOL     OW12058   0.814   2.462   0.809
 3720SOL    HW112059   0.788   2.388   0.870
 3720SOL    HW212060   0.845   2.540   0.863
 3721SOL     OW12061   6.593   6.967   5.972
 3721SOL    HW112062   6.519   0.011   5.970
 3721SOL    HW212063   6.649   6.981   6.054
 3722SOL     OW12064   5.693   6.715   0.834
 3722SOL    HW112065   5.731   6.805   0.813
 3722SOL    HW212066   5.767   6.647   0.838
 3723SOL     OW12067   4.710   4.285   5.978
 3723SOL    HW112068   4.757   4.348   5.917
 3723SOL    HW212069   4.777   4.238   6.036
 3724SOL     OW12070   6.580   4.813   4.857
 3724SOL    HW112071   6.674   4.839   4.881
 3724SOL    HW212072   6.516   4.870   4.909
 3725SOL     OW12073   0.314   6.126   0.553
 3725SOL    HW112074   0.359   6.067   0.621
 3725SOL    HW212075   0.256   6.191   0.600
 3726SOL     OW12076   6.039   3.727   5.326
 3726SOL    HW112077   5.998   3.651   5.274
 3726SOL    HW212078   5.989   3.811   5.306
 3727SOL     OW12079   6.653   1.519   4.337
 3727SOL    HW112080   6.642   1.500   4.434
 3727SOL    HW212081   6.675   1.616   4.325
 3728SOL     OW12082   1.895   4.664   0.328
 3728SOL    HW112083   1.922   4.678   0.423
 3728SOL    HW212084   1.809   4.712   0.311
 3729SOL     OW12085   0.450   7.005   6.187
 3729SOL    HW112086   0.432   6.940   6.260
 3729SOL    HW212087   0.372   7.008   6.124
 3730SOL     OW12088   4.946   4.913   4.612
 3730SOL    HW112089   4.863   4.969   4.613
 3730SOL    HW212090   4.925   4.822   4.577
 3731SOL     OW12091   0.076   1.705   1.440
 3731SOL    HW112092   7.000   1.720   1.449
 3731SOL    HW212093   0.094   1.646   1.361
 3732SOL     OW12094   4.028   3.061   0.052
 3732SOL    HW112095   3.996   2.976   0.010
 3732SOL    HW212096   4.085   3.112   7.009
 3733SOL     OW12097   1.562   0.989   3.326
 3733SOL    HW112098   1.525   0.972   3.234
 3733SOL    HW212099   1.661   0.977   3.324
 3734SOL     OW12100   3.829   0.448   2.014
 3734SOL    HW112101   3.794   0.381   2.079
 3734SOL    HW212102   3.752   0.499   1.974
 3735SOL     OW12103   4.489   1.029   2.885
 3735SOL    HW112104   4.435   0.977   2.819
 3735SOL    HW212105   4.581   0.990   2.890
 3736SOL     OW12106   0.928   1.850   0.205
 3736SOL    HW112107   0.912   1.886   0.297
 3736SOL    HW212108   1.006   1.898   0.164
 3737SOL     OW12109   5.261   2.061   4.133
 3737SOL    HW112110   5.220   2.153   4.135
 3737SOL    HW212111   5.295   2.042   4.041
 3738SOL     OW12112   0.474   0.818   0.950
 3738SOL    HW112113   0.507   0.836   1.043
 3738SOL    HW212114   0.492   0.898   0.892
 3739SOL     OW12115   3.276   4.617   6.967
 3739SOL    HW112116   3.267   4.601   6.869
 3739SOL    HW212117   3.193   4.588   7.013
 3740SOL     OW12118   5.673   6.355   6.726
 3740SOL    HW112119   5.685   6.355   6.825
 3740SOL    HW212120   5.575   6.347   6.705
 3741SOL     OW12121   5.792   4.257   0.267
 3741SOL    HW112122   5.842   4.268   0.180
 3741SOL    HW212123   5.726   4.182   0.258
 3742SOL     OW12124   5.168   5.194   1.548
 3742SOL    HW112125   5.161   5.124   1.620
 3742SOL    HW212126   5.078   5.205   1.505
 3743SOL     OW12127   2.553   3.970   0.930
 3743SOL    HW112128   2.593   4.057   0.959
 3743SOL    HW212129   2.476   3.987   0.868
 3744SOL     OW12130   6.562   5.879   2.562
 3744SOL    HW112131   6.466   5.872   2.588
 3744SOL    HW212132   6.606   5.950   2.616
 3745SOL     OW12133   5.582   1.851   2.770
 3745SOL    HW112134   5.618   1.827   2.860
 3745SOL    HW212135   5.496   1.902   2.780
 3746SOL     OW12136   5.153   0.220   5.222
 3746SOL    HW112137   5.054   0.216   5.237
 3746SOL    HW212138   5.171   0.231   5.124
 3747SOL     OW12139   2.306   6.110   5.347
 3747SOL    HW112140   2.382   6.046   5.334
 3747SOL    HW212141   2.330   6.174   5.421
 3748SOL     OW12142   4.875   2.305   3.163
 3748SOL    HW112143   4.919   2.378   3.216
 3748SOL    HW212144   4.896   2.318   3.066
 3749SOL     OW12145   6.398   6.759   1.558
 3749SOL    HW112146   6.340   6.840   1.568
 3749SOL    HW212147   6.420   6.746   1.461
 3750SOL     OW12148   5.526   3.936   1.233
 3750SOL    HW112149   5.558   3.847   1.200
 3750SOL    HW212150   5.597   4.004   1.221
 3751SOL     OW12151   1.420   4.639   0.482
 3751SOL    HW112152   1.472   4.692   0.549
 3751SOL    HW212153   1.346   4.590   0.528
 3752SOL     OW12154   1.108   6.856   6.060
 3752SOL    HW112155   1.168   6.791   6.106
 3752SOL    HW212156   1.019   6.857   6.106
 3753SOL     OW12157   0.840   0.741   5.779
 3753SOL    HW112158   0.742   0.739   5.760
 3753SOL    HW212159   0.883   0.813   5.726
 3754SOL     OW12160   6.633   6.158   1.662
 3754SOL    HW112161   6.631   6.102   1.744
 3754SOL    HW212162   6.541   6.192   1.643
 3755SOL     OW12163   4.492   2.304   2.880
 3755SOL    HW112164   4.547   2.387   2.880
 3755SOL    HW212165   4.412   2.317   2.821
 3756SOL     OW12166   3.425   6.666   0.736
 3756SOL    HW112167   3.400   6.762   0.746
 3756SOL    HW212168   3.355   6.608   0.778
 3757SOL     OW12169   3.072   4.439   6.284
 3757SOL    HW112170   3.134   4.432   6.206
 3757SOL    HW212171   2.978   4.442   6.252
 3758SOL     OW12172   6.807   0.675   2.389
 3758SOL    HW112173   6.858   0.756   2.360
 3758SOL    HW212174   6.739   0.701   2.458
 3759SOL     OW12175   4.897   3.854   0.695
 3759SOL    HW112176   4.970   3.911   0.733
 3759SOL    HW212177   4.938   3.772   0.653
 3760SOL     OW12178   1.797   1.672   5.800
 3760SOL    HW112179   1.764   1.736   5.869
 3760SOL    HW212180   1.897   1.670   5.801
 3761SOL     OW12181   6.569   6.344   3.944
 3761SOL    HW112182   6.515   6.404   3.885
 3761SOL    HW212183   6.528   6.343   4.036
 3762SOL     OW12184   0.328   2.912   0.254
 3762SOL    HW112185   0.246   2.866   0.220
 3762SOL    HW212186   0.328   3.008   0.223
 3763SOL     OW12187   6.982   3.027   4.588
 3763SOL    HW112188   0.009   3.040   4.501
 3763SOL    HW212189   0.013   2.966   4.647
 3764SOL     OW12190   2.315   0.073   4.182
 3764SOL    HW112191   2.331   0.168   4.208
 3764SOL    HW212192   2.306   0.067   4.083
 3765SOL     OW12193   6.280   1.071   3.477
 3765SOL    HW112194   6.311   0.991   3.426
 3765SOL    HW212195   6.199   1.110   3.433
 3766SOL     OW12196   1.988   1.399   5.177
 3766SOL    HW112197   2.053   1.455   5.125
 3766SOL    HW212198   1.907   1.453   5.198
 3767SOL     OW12199   0.032   4.580   0.569
 3767SOL    HW112200   0.077   4.639   0.502
 3767SOL    HW212201   0.079   4.586   0.657
 3768SOL     OW12202   4.664   6.372   1.307
 3768SOL    HW112203   4.718   6.310   1.250
 3768SOL    HW212204   4.662   6.463   1.266
 3769SOL     OW12205   4.320   6.763   4.599
 3769SOL    HW112206   4.351   6.857   4.610
 3769SOL    HW212207   4.386   6.701   4.641
 3770SOL     OW12208   1.883   2.677   0.375
 3770SOL    HW112209   1.966   2.676   0.431
 3770SOL    HW212210   1.820   2.607   0.408
 3771SOL     OW12211   4.210   1.318   5.810
 3771SOL    HW112212   4.215   1.331   5.909
 3771SOL    HW212213   4.237   1.402   5.764
 3772SOL     OW12214   4.772   0.658   2.799
 3772SOL    HW112215   4.730   0.641   2.710
 3772SOL    HW212216   4.730   0.599   2.867
 3773SOL     OW12217   6.474   3.039   0.672
 3773SOL    HW112218   6.524   2.993   0.599
 3773SOL    HW212219   6.392   3.081   0.635
 3774SOL     OW12220   1.358   1.718   2.057
 3774SOL    HW112221   1.284   1.718   1.990
 3774SOL    HW212222   1.324   1.753   2.144
 3775SOL     OW12223   5.427   2.716   3.483
 3775SOL    HW112224   5.499   2.766   3.532
 3775SOL    HW212225   5.380   2.778   3.420
 3776SOL     OW12226   2.532   1.854   6.869
 3776SOL    HW112227   2.436   1.843   6.894
 3776SOL    HW212228   2.590   1.831   6.947
 3777SOL     OW12229   1.357   4.193   3.069
 3777SOL    HW112230   1.326   4.103   3.038
 3777SOL    HW212231   1.383   4.187   3.165
 3778SOL     OW12232   1.751   0.382   2.144
 3778SOL    HW112233   1.779   0.445   2.216
 3778SOL    HW212234   1.651   0.371   2.146
 3779SOL     OW12235   2.023   5.233   6.973
 3779SOL    HW112236   2.089   5.159   6.958
 3779SOL    HW212237   1.930   5.197   6.965
 3780SOL     OW12238   2.240   6.826   4.228
 3780SOL    HW112239   2.175   6.795   4.159
 3780SOL    HW212240   2.254   6.925   4.219
 3781SOL     OW12241   2.869   5.378   4.620
 3781SOL    HW112242   2.956   5.367   4.572
 3781SOL    HW212243   2.795   5.341   4.564
 3782SOL     OW12244   2.454   1.039   2.450
 3782SOL    HW112245   2.506   1.041   2.535
 3782SOL    HW212246   2.478   1.118   2.393
 3783SOL     OW12247   5.190   4.974   4.514
 3783SOL    HW112248   5.105   4.945   4.556
 3783SOL    HW212249   5.186   5.072   4.494
 3784SOL     OW12250   4.818   2.181   4.516
 3784SOL    HW112251   4.817   2.277   4.546
 3784SOL    HW212252   4.811   2.178   4.416
 3785SOL     OW12253   0.882   0.403   2.029
 3785SOL    HW112254   0.976   0.368   2.018
 3785SOL    HW212255   0.847   0.431   1.940
 3786SOL     OW12256   2.646   6.329   2.000
 3786SOL    HW112257   2.618   6.359   1.909
 3786SOL    HW212258   2.572   6.279   2.044
 3787SOL     OW12259   4.820   1.066   4.098
 3787SOL    HW112260   4.905   1.084   4.147
 3787SOL    HW212261   4.831   1.094   4.002
 3788SOL     OW12262   6.474   3.485   2.477
 3788SOL    HW112263   6.520   3.412   2.426
 3788SOL    HW212264   6.542   3.545   2.518
 3789SOL     OW12265   1.648   5.188   2.088
 3789SOL    HW112266   1.679   5.261   2.149
 3789SOL    HW212267   1.656   5.100   2.134
 3790SOL     OW12268   2.170   3.273   3.188
 3790SOL    HW112269   2.097   3.265   3.256
 3790SOL    HW212270   2.189   3.370   3.171
 3791SOL     OW12271   6.225   0.325   2.640
 3791SOL    HW112272   6.228   0.385   2.720
 3791SOL    HW212273   6.315   0.322   2.597
 3792SOL     OW12274   0.975   5.874   6.635
 3792SOL    HW112275   1.052   5.934   6.654
 3792SOL    HW212276   0.956   5.875   6.536
 3793SOL     OW12277   0.586   5.390   2.438
 3793SOL    HW112278   0.630   5.472   2.401
 3793SOL    HW212279   0.488   5.407   2.447
 3794SOL     OW12280   4.711   0.216   3.941
 3794SOL    HW112281   4.763   0.268   4.008
 3794SOL    HW212282   4.615   0.244   3.944
 3795SOL     OW12283   5.456   0.476   0.264
 3795SOL    HW112284   5.457   0.431   0.353
 3795SOL    HW212285   5.389   0.550   0.264
 3796SOL     OW12286   0.056   2.940   0.961
 3796SOL    HW112287   0.126   2.981   0.903
 3796SOL    HW212288   0.099   2.901   1.043
 3797SOL     OW12289   0.286   5.419   2.517
 3797SOL    HW112290   0.234   5.371   2.588
 3797SOL    HW212291   0.223   5.456   2.449
 3798SOL     OW12292   1.142   4.164   0.761
 3798SOL    HW112293   1.186   4.077   0.784
 3798SOL    HW212294   1.106   4.160   0.667
 3799SOL     OW12295   1.699   0.674   5.614
 3799SOL    HW112296   1.770   0.615   5.575
 3799SOL    HW212297   1.621   0.618   5.642
 3800SOL     OW12298   5.433   2.581   5.159
 3800SOL    HW112299   5.445   2.664   5.105
 3800SOL    HW212300   5.434   2.604   5.256
 3801SOL     OW12301   6.846   0.041   6.100
 3801SOL    HW112302   6.858   6.978   6.151
 3801SOL    HW212303   6.903   0.039   6.018
 3802SOL     OW12304   1.855   2.573   5.174
 3802SOL    HW112305   1.769   2.606   5.136
 3802SOL    HW212306   1.878   2.626   5.256
 3803SOL     OW12307   4.063   1.451   1.222
 3803SOL    HW112308   4.125   1.385   1.178
 3803SOL    HW212309   4.113   1.499   1.294
 3804SOL     OW12310   5.070   3.536   5.141
 3804SOL    HW112311   5.055   3.503   5.235
 3804SOL    HW212312   4.983   3.558   5.099
 3805SOL     OW12313   1.987   3.521   1.337
 3805SOL    HW112314   2.058   3.483   1.277
 3805SOL    HW212315   1.991   3.621   1.335
 3806SOL     OW12316   3.902   1.024   6.975
 3806SOL    HW112317   3.877   1.099   6.914
 3806SOL    HW212318   3.868   0.938   6.938
 3807SOL     OW12319   1.090   0.095   2.942
 3807SOL    HW112320   1.013   0.033   2.931
 3807SOL    HW212321   1.172   0.043   2.965
 3808SOL     OW12322   3.735   0.923   0.263
 3808SOL    HW112323   3.823   0.881   0.244
 3808SOL    HW212324   3.718   0.923   0.362
 3809SOL     OW12325   4.377   0.862   0.421
 3809SOL    HW112326   4.406   0.842   0.515
 3809SOL    HW212327   4.391   0.958   0.401
 3810SOL     OW12328   1.676   3.892   6.798
 3810SOL    HW112329   1.683   3.901   6.699
 3810SOL    HW212330   1.762   3.859   6.835
 3811SOL     OW12331   0.509   0.406   6.717
 3811SOL    HW112332   0.534   0.446   6.806
 3811SOL    HW212333   0.412   0.423   6.700
 3812SOL     OW12334   5.118   1.253   5.653
 3812SOL    HW112335   5.082   1.220   5.740
 3812SOL    HW212336   5.043   1.286   5.596
 3813SOL     OW12337   3.607   4.907   2.284
 3813SOL    HW112338   3.554   4.895   2.200
 3813SOL    HW212339   3.547   4.940   2.357
 3814SOL     OW12340   2.434   0.957   1.509
 3814SOL    HW112341   2.450   1.023   1.582
 3814SOL    HW212342   2.346   0.911   1.524
 3815SOL     OW12343   5.421   1.908   1.900
 3815SOL    HW112344   5.421   1.914   1.800
 3815SOL    HW212345   5.507   1.944   1.935
 3816SOL     OW12346   0.212   6.274   0.334
 3816SOL    HW112347   0.156   6.234   0.262
 3816SOL    HW212348   0.241   6.203   0.398
 3817SOL     OW12349   5.280   2.032   5.095
 3817SOL    HW112350   5.344   1.969   5.139
 3817SOL    HW212351   5.239   1.987   5.015
 3818SOL     OW12352   3.810   5.443   2.686
 3818SOL    HW112353   3.859   5.394   2.758
 3818SOL    HW212354   3.767   5.377   2.624
 3819SOL     OW12355   5.752   3.971   6.070
 3819SOL    HW112356   5.797   3.937   6.153
 3819SOL    HW212357   5.666   4.015   6.095
 3820SOL     OW12358   4.749   6.451   3.351
 3820SOL    HW112359   4.700   6.519   3.406
 3820SOL    HW212360   4.824   6.494   3.302
 3821SOL     OW12361   0.227   4.815   1.325
 3821SOL    HW112362   0.325   4.801   1.312
 3821SOL    HW212363   0.207   4.831   1.421
 3822SOL     OW12364   0.692   4.508   1.095
 3822SOL    HW112365   0.594   4.511   1.115
 3822SOL    HW212366   0.718   4.416   1.066
 3823SOL     OW12367   2.695   3.706   5.726
 3823SOL    HW112368   2.738   3.616   5.716
 3823SOL    HW212369   2.631   3.721   5.651
 3824SOL     OW12370   0.440   2.116   6.057
 3824SOL    HW112371   0.432   2.167   6.143
 3824SOL    HW212372   0.352   2.116   6.009
 3825SOL     OW12373   0.296   6.497   6.283
 3825SOL    HW112374   0.384   6.522   6.324
 3825SOL    HW212375   0.302   6.509   6.183
 3826SOL     OW12376   6.829   1.728   1.484
 3826SOL    HW112377   6.734   1.749   1.463
 3826SOL    HW212378   6.833   1.660   1.558
 3827SOL     OW12379   5.477   1.517   2.238
 3827SOL    HW112380   5.548   1.516   2.168
 3827SOL    HW212381   5.421   1.435   2.230
 3828SOL     OW12382   4.168   1.088   1.600
 3828SOL    HW112383   4.073   1.077   1.629
 3828SOL    HW212384   4.192   1.185   1.597
 3829SOL     OW12385   0.701   5.190   3.736
 3829SOL    HW112386   0.736   5.156   3.824
 3829SOL    HW212387   0.621   5.247   3.752
 3830SOL     OW12388   3.037   0.910   5.366
 3830SOL    HW112389   3.037   1.009   5.355
 3830SOL    HW212390   3.035   0.866   5.276
 3831SOL     OW12391   4.862   1.751   2.294
 3831SOL    HW112392   4.795   1.676   2.296
 3831SOL    HW212393   4.949   1.717   2.258
 3832SOL     OW12394   5.765   6.884   1.991
 3832SOL    HW112395   5.709   6.938   2.054
 3832SOL    HW212396   5.842   6.845   2.041
 3833SOL     OW12397   1.519   6.324   2.424
 3833SOL    HW112398   1.601   6.342   2.370
 3833SOL    HW212399   1.539   6.341   2.521
 3834SOL     OW12400   2.673   3.227   0.563
 3834SOL    HW112401   2.768   3.195   0.567
 3834SOL    HW212402   2.669   3.312   0.509
 3835SOL     OW12403   3.375   5.351   2.851
 3835SOL    HW112404   3.297   5.292   2.828
 3835SOL    HW212405   3.459   5.312   2.812
 3836SOL     OW12406   1.186   2.968   5.977
 3836SOL    HW112407   1.173   2.876   6.014
 3836SOL    HW212408   1.251   3.018   6.034
 3837SOL     OW12409   3.002   4.270   0.197
 3837SOL    HW112410   3.066   4.243   0.125
 3837SOL    HW212411   2.989   4.195   0.260
 3838SOL     OW12412   6.199   3.788   4.813
 3838SOL    HW112413   6.162   3.738   4.736
 3838SOL    HW212414   6.134   3.786   4.889
 3839SOL     OW12415   0.975   5.918   6.375
 3839SOL    HW112416   0.914   5.973   6.318
 3839SOL    HW212417   1.069   5.948   6.363
 3840SOL     OW12418   2.694   1.711   3.466
 3840SOL    HW112419   2.600   1.679   3.451
 3840SOL    HW212420   2.727   1.756   3.383
 3841SOL     OW12421   0.602   3.548   3.933
 3841SOL    HW112422   0.579   3.509   3.844
 3841SOL    HW212423   0.601   3.476   4.002
 3842SOL     OW12424   1.822   4.962   0.106
 3842SOL    HW112425   1.744   4.987   0.050
 3842SOL    HW212426   1.885   4.905   0.053
 3843SOL     OW12427   5.944   4.278   0.044
 3843SOL    HW112428   5.939   4.234   6.976
 3843SOL    HW212429   5.936   4.377   0.033
 3844SOL     OW12430   2.400   4.483   5.457
 3844SOL    HW112431   2.484   4.432   5.437
 3844SOL    HW212432   2.348   4.495   5.373
 3845SOL     OW12433   3.249   3.470   4.363
 3845SOL    HW112434   3.320   3.474   4.433
 3845SOL    HW212435   3.159   3.464   4.407
 3846SOL     OW12436   0.079   4.756   4.863
 3846SOL    HW112437   0.096   4.672   4.812
 3846SOL    HW212438   0.162   4.784   4.911
 3847SOL     OW12439   1.198   0.235   0.950
 3847SOL    HW112440   1.198   0.288   0.865
 3847SOL    HW212441   1.278   0.262   1.005
 3848SOL     OW12442   3.106   6.377   1.680
 3848SOL    HW112443   3.013   6.348   1.658
 3848SOL    HW212444   3.106   6.471   1.713
 3849SOL     OW12445   2.687   1.762   5.704
 3849SOL    HW112446   2.598   1.728   5.733
 3849SOL    HW212447   2.701   1.739   5.607
 3850SOL     OW12448   1.663   3.754   1.370
 3850SOL    HW112449   1.612   3.685   1.320
 3850SOL    HW212450   1.611   3.783   1.451
 3851SOL     OW12451   2.361   2.758   1.184
 3851SOL    HW112452   2.459   2.780   1.185
 3851SOL    HW212453   2.349   2.658   1.184
 3852SOL     OW12454   4.775   1.451   5.159
 3852SOL    HW112455   4.794   1.388   5.083
 3852SOL    HW212456   4.859   1.501   5.181
 3853SOL     OW12457   0.584   4.094   1.942
 3853SOL    HW112458   0.667   4.135   1.905
 3853SOL    HW212459   0.551   4.024   1.879
 3854SOL     OW12460   1.719   3.453   4.667
 3854SOL    HW112461   1.660   3.532   4.647
 3854SOL    HW212462   1.673   3.393   4.732
 3855SOL     OW12463   0.119   1.382   5.250
 3855SOL    HW112464   0.033   1.370   5.299
 3855SOL    HW212465   0.101   1.417   5.159
 3856SOL     OW12466   1.496   6.289   6.175
 3856SOL    HW112467   1.433   6.236   6.232
 3856SOL    HW212468   1.495   6.252   6.082
 3857SOL     OW12469   0.914   0.054   6.686
 3857SOL    HW112470   0.952   0.027   6.775
 3857SOL    HW212471   0.817   0.075   6.697
 3858SOL     OW12472   3.634   4.371   0.152
 3858SOL    HW112473   3.577   4.385   0.234
 3858SOL    HW212474   3.619   4.446   0.088
 3859SOL     OW12475   6.189   2.489   2.497
 3859SOL    HW112476   6.227   2.581   2.507
 3859SOL    HW212477   6.259   2.422   2.522
 3860SOL     OW12478   2.551   5.852   4.478
 3860SOL    HW112479   2.592   5.885   4.563
 3860SOL    HW212480   2.607   5.779   4.440
 3861SOL     OW12481   3.329   4.281   6.909
 3861SOL    HW112482   3.394   4.221   6.860
 3861SOL    HW212483   3.237   4.266   6.872
 3862SOL     OW12484   1.126   5.622   6.047
 3862SOL    HW112485   1.216   5.627   6.005
 3862SOL    HW212486   1.058   5.663   5.985
 3863SOL     OW12487   2.457   3.165   0.300
 3863SOL    HW112488   2.549   3.128   0.290
 3863SOL    HW212489   2.401   3.136   0.222
 3864SOL     OW12490   3.137   2.129   1.080
 3864SOL    HW112491   3.226   2.133   1.125
 3864SOL    HW212492   3.077   2.065   1.128
 3865SOL     OW12493   4.154   0.701   2.696
 3865SOL    HW112494   4.155   0.635   2.622
 3865SOL    HW212495   4.060   0.730   2.714
 3866SOL     OW12496   3.998   6.636   6.734
 3866SOL    HW112497   3.942   6.674   6.659
 3866SOL    HW212498   4.020   6.541   6.714
 3867SOL     OW12499   1.949   4.963   3.226
 3867SOL    HW112500   1.959   5.057   3.193
 3867SOL    HW212501   1.996   4.901   3.163
 3868SOL     OW12502   1.927   5.701   2.945
 3868SOL    HW112503   2.011   5.664   2.984
 3868SOL    HW212504   1.874   5.748   3.016
 3869SOL     OW12505   0.621   1.703   3.737
 3869SOL    HW112506   0.528   1.734   3.720
 3869SOL    HW212507   0.619   1.620   3.793
 3870SOL     OW12508   3.516   3.754   0.247
 3870SOL    HW112509   3.488   3.681   0.308
 3870SOL    HW212510   3.612   3.743   0.223
 3871SOL     OW12511   3.218   0.905   4.444
 3871SOL    HW112512   3.128   0.901   4.401
 3871SOL    HW212513   3.276   0.833   4.405
 3872SOL     OW12514   4.474   3.988   0.784
 3872SOL    HW112515   4.496   3.898   0.747
 3872SOL    HW212516   4.496   3.990   0.882
 3873SOL     OW12517   6.253   4.415   1.788
 3873SOL    HW112518   6.217   4.324   1.766
 3873SOL    HW212519   6.180   4.482   1.777
 3874SOL     OW12520   5.295   6.283   6.084
 3874SOL    HW112521   5.319   6.187   6.066
 3874SOL    HW212522   5.330   6.340   6.010
 3875SOL     OW12523   2.621   3.665   0.262
 3875SOL    HW112524   2.720   3.672   0.252
 3875SOL    HW212525   2.580   3.756   0.251
 3876SOL     OW12526   6.146   4.094   2.441
 3876SOL    HW112527   6.125   4.149   2.523
 3876SOL    HW212528   6.127   4.148   2.359
 3877SOL     OW12529   4.264   1.879   2.063
 3877SOL    HW112530   4.210   1.934   2.126
 3877SOL    HW212531   4.206   1.808   2.022
 3878SOL     OW12532   4.889   5.723   4.746
 3878SOL    HW112533   4.791   5.741   4.759
 3878SOL    HW212534   4.919   5.655   4.814
 3879SOL     OW12535   2.707   6.055   0.545
 3879SOL    HW112536   2.683   5.995   0.469
 3879SOL    HW212537   2.790   6.022   0.590
 3880SOL     OW12538   6.206   1.577   4.014
 3880SOL    HW112539   6.289   1.611   3.971
 3880SOL    HW212540   6.126   1.610   3.964
 3881SOL     OW12541   0.145   5.612   6.105
 3881SOL    HW112542   0.197   5.669   6.041
 3881SOL    HW212543   0.053   5.649   6.116
 3882SOL     OW12544   6.829   6.610   6.485
 3882SOL    HW112545   6.904   6.577   6.428
 3882SOL    HW212546   6.865   6.646   6.571
 3883SOL     OW12547   3.931   2.063   0.010
 3883SOL    HW112548   3.851   2.115   0.042
 3883SOL    HW212549   4.001   2.127   7.000
 3884SOL     OW12550   2.503   5.489   5.831
 3884SOL    HW112551   2.447   5.409   5.814
 3884SOL    HW212552   2.586   5.485   5.775
 3885SOL     OW12553   6.855   0.546   3.992
 3885SOL    HW112554   6.918   0.495   4.051
 3885SOL    HW212555   6.819   0.624   4.043
 3886SOL     OW12556   0.081   6.055   4.769
 3886SOL    HW112557   0.038   6.136   4.730
 3886SOL    HW212558   0.180   6.068   4.772
 3887SOL     OW12559   6.471   3.110   4.930
 3887SOL    HW112560   6.551   3.166   4.948
 3887SOL    HW212561   6.488   3.015   4.958
 3888SOL     OW12562   5.441   1.106   2.898
 3888SOL    HW112563   5.392   1.160   2.966
 3888SOL    HW212564   5.374   1.051   2.846
 3889SOL     OW12565   6.647   5.286   6.365
 3889SOL    HW112566   6.672   5.296   6.461
 3889SOL    HW212567   6.556   5.325   6.350
 3890SOL     OW12568   6.180   3.393   3.178
 3890SOL    HW112569   6.273   3.375   3.210
 3890SOL    HW212570   6.168   3.351   3.088
 3891SOL     OW12571   4.386   4.324   5.684
 3891SOL    HW112572   4.411   4.351   5.777
 3891SOL    HW212573   4.314   4.255   5.688
 3892SOL     OW12574   5.390   5.759   3.982
 3892SOL    HW112575   5.291   5.767   3.973
 3892SOL    HW212576   5.424   5.684   3.926
 3893SOL     OW12577   2.709   6.369   4.592
 3893SOL    HW112578   2.706   6.463   4.560
 3893SOL    HW212579   2.676   6.308   4.520
 3894SOL     OW12580   5.920   5.446   6.561
 3894SOL    HW112581   5.889   5.427   6.468
 3894SOL    HW212582   5.881   5.377   6.623
 3895SOL     OW12583   1.449   2.304   6.119
 3895SOL    HW112584   1.500   2.222   6.094
 3895SOL    HW212585   1.373   2.279   6.179
 3896SOL     OW12586   6.289   2.536   0.491
 3896SOL    HW112587   6.327   2.624   0.463
 3896SOL    HW212588   6.361   2.480   0.532
 3897SOL     OW12589   2.884   6.806   2.913
 3897SOL    HW112590   2.847   6.855   2.992
 3897SOL    HW212591   2.944   6.867   2.861
 3898SOL     OW12592   3.274   4.116   4.058
 3898SOL    HW112593   3.306   4.114   3.963
 3898SOL    HW212594   3.285   4.208   4.094
 3899SOL     OW12595   4.928   2.239   6.790
 3899SOL    HW112596   5.007   2.254   6.731
 3899SOL    HW212597   4.945   2.280   6.880
 3900SOL     OW12598   0.865   2.566   3.392
 3900SOL    HW112599   0.826   2.596   3.479
 3900SOL    HW212600   0.792   2.538   3.330
 3901SOL     OW12601   3.569   6.254   5.019
 3901SOL    HW112602   3.485   6.231   4.970
 3901SOL    HW212603   3.599   6.346   4.993
 3902SOL     OW12604   3.397   5.572   3.106
 3902SOL    HW112605   3.357   5.582   3.198
 3902SOL    HW212606   3.473   5.635   3.096
 3903SOL     OW12607   3.511   4.012   6.483
 3903SOL    HW112608   3.430   3.971   6.440
 3903SOL    HW212609   3.484   4.053   6.571
 3904SOL     OW12610   2.770   6.281   6.928
 3904SOL    HW112611   2.821   6.195   6.917
 3904SOL    HW212612   2.772   6.308   0.002
 3905SOL     OW12613   4.204   0.404   5.288
 3905SOL    HW112614   4.134   0.473   5.305
 3905SOL    HW212615   4.161   0.314   5.281
 3906SOL     OW12616   6.328   6.128   4.076
 3906SOL    HW112617   6.394   6.100   4.006
 3906SOL    HW212618   6.255   6.061   4.081
 3907SOL     OW12619   0.548   1.500   4.402
 3907SOL    HW112620   0.584   1.593   4.410
 3907SOL    HW212621   0.460   1.495   4.449
 3908SOL     OW12622   2.331   1.789   4.710
 3908SOL    HW112623   2.271   1.712   4.735
 3908SOL    HW212624   2.294   1.836   4.630
 3909SOL     OW12625   5.817   3.515   2.353
 3909SOL    HW112626   5.889   3.448   2.337
 3909SOL    HW212627   5.854   3.607   2.343
 3910SOL     OW12628   2.131   2.233   1.251
 3910SOL    HW112629   2.124   2.316   1.196
 3910SOL    HW212630   2.220   2.190   1.235
 3911SOL     OW12631   6.006   1.214   1.354
 3911SOL    HW112632   5.984   1.117   1.345
 3911SOL    HW212633   5.938   1.257   1.414
 3912SOL     OW12634   5.015   4.001   0.372
 3912SOL    HW112635   4.920   4.005   0.402
 3912SOL    HW212636   5.034   3.911   0.333
 3913SOL     OW12637   3.881   4.553   1.432
 3913SOL    HW112638   3.800   4.609   1.449
 3913SOL    HW212639   3.883   4.476   1.496
 3914SOL     OW12640   0.423   0.628   0.638
 3914SOL    HW112641   0.410   0.693   0.563
 3914SOL    HW212642   0.512   0.644   0.681
 3915SOL     OW12643   5.288   0.531   5.089
 3915SOL    HW112644   5.197   0.511   5.126
 3915SOL    HW212645   5.279   0.577   5.001
 3916SOL     OW12646   2.127   2.489   2.114
 3916SOL    HW112647   2.174   2.500   2.026
 3916SOL    HW212648   2.045   2.546   2.114
 3917SOL     OW12649   4.228   5.664   2.306
 3917SOL    HW112650   4.157   5.629   2.367
 3917SOL    HW212651   4.270   5.588   2.256
 3918SOL     OW12652   3.986   6.856   1.119
 3918SOL    HW112653   4.072   6.886   1.159
 3918SOL    HW212654   3.924   6.933   1.110
 3919SOL     OW12655   5.140   5.394   3.154
 3919SOL    HW112656   5.180   5.321   3.098
 3919SOL    HW212657   5.062   5.434   3.106
 3920SOL     OW12658   4.495   1.455   6.287
 3920SOL    HW112659   4.454   1.411   6.367
 3920SOL    HW212660   4.592   1.469   6.304
 3921SOL     OW12661   0.793   3.231   6.100
 3921SOL    HW112662   0.871   3.203   6.045
 3921SOL    HW212663   0.781   3.330   6.092
 3922SOL     OW12664   5.256   2.303   3.907
 3922SOL    HW112665   5.278   2.208   3.887
 3922SOL    HW212666   5.174   2.306   3.964
 3923SOL     OW12667   5.526   1.149   0.963
 3923SOL    HW112668   5.577   1.066   0.986
 3923SOL    HW212669   5.569   1.193   0.884
 3924SOL     OW12670   5.332   5.241   3.754
 3924SOL    HW112671   5.247   5.199   3.722
 3924SOL    HW212672   5.340   5.228   3.853
 3925SOL     OW12673   3.504   4.357   1.679
 3925SOL    HW112674   3.503   4.446   1.726
 3925SOL    HW212675   3.577   4.300   1.717
 3926SOL     OW12676   1.282   5.821   5.178
 3926SOL    HW112677   1.280   5.827   5.278
 3926SOL    HW212678   1.358   5.762   5.150
 3927SOL     OW12679   6.314   6.758   5.365
 3927SOL    HW112680   6.265   6.695   5.305
 3927SOL    HW212681   6.379   6.812   5.312
 3928SOL     OW12682   4.458   5.490   2.807
 3928SOL    HW112683   4.385   5.437   2.764
 3928SOL    HW212684   4.485   5.564   2.746
 3929SOL     OW12685   1.740   1.456   5.250
 3929SOL    HW112686   1.695   1.383   5.199
 3929SOL    HW212687   1.699   1.463   5.341
 3930SOL     OW12688   2.543   5.389   4.085
 3930SOL    HW112689   2.472   5.334   4.042
 3930SOL    HW212690   2.633   5.362   4.049
 3931SOL     OW12691   0.398   2.335   0.588
 3931SOL    HW112692   0.357   2.295   0.507
 3931SOL    HW212693   0.414   2.432   0.573
 3932SOL     OW12694   2.019   4.204   2.759
 3932SOL    HW112695   1.993   4.284   2.705
 3932SOL    HW212696   2.111   4.174   2.732
 3933SOL     OW12697   1.497   6.473   1.504
 3933SOL    HW112698   1.549   6.451   1.586
 3933SOL    HW212699   1.559   6.489   1.427
 3934SOL     OW12700   1.951   6.792   2.115
 3934SOL    HW112701   1.966   6.882   2.072
 3934SOL    HW212702   2.038   6.757   2.150
 3935SOL     OW12703   0.164   0.860   5.383
 3935SOL    HW112704   0.193   0.945   5.341
 3935SOL    HW212705   0.223   0.838   5.461
 3936SOL     OW12706   6.237   4.469   3.831
 3936SOL    HW112707   6.272   4.514   3.913
 3936SOL    HW212708   6.308   4.464   3.762
 3937SOL     OW12709   1.285   6.280   0.086
 3937SOL    HW112710   1.213   6.326   0.138
 3937SOL    HW212711   1.334   6.347   0.031
 3938SOL     OW12712   0.586   4.320   6.718
 3938SOL    HW112713   0.633   4.274   6.793
 3938SOL    HW212714   0.489   4.329   6.740
 3939SOL     OW12715   2.397   6.439   4.409
 3939SOL    HW112716   2.490   6.418   4.380
 3939SOL    HW212717   2.373   6.532   4.382
 3940SOL     OW12718   2.715   6.410   6.698
 3940SOL    HW112719   2.646   6.481   6.705
 3940SOL    HW212720   2.730   6.369   6.788
 3941SOL     OW12721   5.603   5.242   2.241
 3941SOL    HW112722   5.691   5.287   2.224
 3941SOL    HW212723   5.531   5.310   2.246
 3942SOL     OW12724   0.377   6.328   6.966
 3942SOL    HW112725   0.426   6.275   6.896
 3942SOL    HW212726   0.301   6.378   6.924
 3943SOL     OW12727   0.753   5.046   0.474
 3943SOL    HW112728   0.719   5.117   0.536
 3943SOL    HW212729   0.683   5.027   0.404
 3944SOL     OW12730   4.506   3.006   0.639
 3944SOL    HW112731   4.605   3.010   0.630
 3944SOL    HW212732   4.465   2.972   0.555
 3945SOL     OW12733   6.888   0.809   2.882
 3945SOL    HW112734   6.979   0.768   2.886
 3945SOL    HW212735   6.823   0.744   2.844
 3946SOL     OW12736   5.885   1.699   1.266
 3946SOL    HW112737   5.881   1.715   1.364
 3946SOL    HW212738   5.796   1.718   1.225
 3947SOL     OW12739   5.487   0.085   1.649
 3947SOL    HW112740   5.585   0.105   1.654
 3947SOL    HW212741   5.446   0.141   1.577
 3948SOL     OW12742   1.953   1.345   4.334
 3948SOL    HW112743   1.951   1.394   4.248
 3948SOL    HW212744   1.918   1.403   4.407
 3949SOL     OW12745   6.195   6.954   2.483
 3949SOL    HW112746   6.262   6.950   2.409
 3949SOL    HW212747   6.242   6.967   2.570
 3950SOL     OW12748   2.038   5.037   1.743
 3950SOL    HW112749   2.014   4.981   1.664
 3950SOL    HW212750   1.957   5.049   1.802
 3951SOL     OW12751   6.862   2.400   3.860
 3951SOL    HW112752   6.807   2.361   3.934
 3951SOL    HW212753   6.828   2.367   3.772
 3952SOL     OW12754   5.699   5.000   6.706
 3952SOL    HW112755   5.729   5.019   6.612
 3952SOL    HW212756   5.767   4.945   6.753
 3953SOL     OW12757   3.894   3.375   5.470
 3953SOL    HW112758   3.968   3.308   5.483
 3953SOL    HW212759   3.811   3.340   5.512
 3954SOL     OW12760   0.956   4.327   5.404
 3954SOL    HW112761   0.941   4.280   5.317
 3954SOL    HW212762   0.963   4.260   5.478
 3955SOL     OW12763   5.879   3.533   0.289
 3955SOL    HW112764   5.953   3.518   0.223
 3955SOL    HW212765   5.833   3.619   0.269
 3956SOL     OW12766   6.591   2.898   5.044
 3956SOL    HW112767   6.656   2.875   5.117
 3956SOL    HW212768   6.635   2.881   4.955
 3957SOL     OW12769   2.024   2.921   1.801
 3957SOL    HW112770   1.953   2.878   1.744
 3957SOL    HW212771   2.093   2.963   1.742
 3958SOL     OW12772   5.881   5.479   1.235
 3958SOL    HW112773   5.781   5.487   1.239
 3958SOL    HW212774   5.914   5.427   1.314
 3959SOL     OW12775   3.058   5.033   1.204
 3959SOL    HW112776   3.048   4.975   1.123
 3959SOL    HW212777   3.117   5.111   1.182
 3960SOL     OW12778   5.970   3.001   1.058
 3960SOL    HW112779   5.988   2.903   1.070
 3960SOL    HW212780   5.936   3.017   0.965
 3961SOL     OW12781   6.922   1.236   1.068
 3961SOL    HW112782   6.906   1.144   1.104
 3961SOL    HW212783   6.864   1.302   1.116
 3962SOL     OW12784   0.058   6.689   6.680
 3962SOL    HW112785   0.051   6.762   6.749
 3962SOL    HW212786   0.098   6.727   6.596
 3963SOL     OW12787   5.314   3.816   4.599
 3963SOL    HW112788   5.281   3.818   4.694
 3963SOL    HW212789   5.390   3.881   4.589
 3964SOL     OW12790   5.518   4.239   6.642
 3964SOL    HW112791   5.438   4.187   6.672
 3964SOL    HW212792   5.600   4.205   6.689
 3965SOL     OW12793   2.351   4.163   1.273
 3965SOL    HW112794   2.316   4.238   1.329
 3965SOL    HW212795   2.379   4.198   1.183
 3966SOL     OW12796   6.886   2.753   5.281
 3966SOL    HW112797   6.915   2.806   5.201
 3966SOL    HW212798   6.960   2.692   5.309
 3967SOL     OW12799   1.966   0.514   0.032
 3967SOL    HW112800   1.996   0.419   0.024
 3967SOL    HW212801   1.897   0.521   0.104
 3968SOL     OW12802   4.224   2.834   0.962
 3968SOL    HW112803   4.244   2.802   0.869
 3968SOL    HW212804   4.198   2.756   1.019
 3969SOL     OW12805   5.938   6.296   0.708
 3969SOL    HW112806   6.024   6.344   0.689
 3969SOL    HW212807   5.861   6.350   0.674
 3970SOL     OW12808   5.768   4.210   4.089
 3970SOL    HW112809   5.782   4.305   4.118
 3970SOL    HW212810   5.814   4.195   4.002
 3971SOL     OW12811   0.097   5.885   4.156
 3971SOL    HW112812   0.035   5.807   4.143
 3971SOL    HW212813   0.059   5.947   4.224
 3972SOL     OW12814   0.834   0.692   6.721
 3972SOL    HW112815   0.821   0.642   6.635
 3972SOL    HW212816   0.912   0.754   6.712
 3973SOL     OW12817   3.951   3.128   2.101
 3973SOL    HW112818   3.979   3.110   2.006
 3973SOL    HW212819   3.950   3.227   2.117
 3974SOL     OW12820   5.330   1.024   6.796
 3974SOL    HW112821   5.269   0.952   6.763
 3974SOL    HW212822   5.372   0.996   6.882
 3975SOL     OW12823   6.986   6.014   4.350
 3975SOL    HW112824   6.935   5.937   4.313
 3975SOL    HW212825   6.923   6.088   4.374
 3976SOL     OW12826   1.301   2.945   5.704
 3976SOL    HW112827   1.364   2.868   5.702
 3976SOL    HW212828   1.264   2.956   5.797
 3977SOL     OW12829   2.577   4.725   5.773
 3977SOL    HW112830   2.609   4.661   5.844
 3977SOL    HW212831   2.655   4.779   5.741
 3978SOL     OW12832   4.783   2.413   5.910
 3978SOL    HW112833   4.768   2.486   5.844
 3978SOL    HW212834   4.775   2.324   5.865
 3979SOL     OW12835   1.158   5.260   2.750
 3979SOL    HW112836   1.197   5.184   2.803
 3979SOL    HW212837   1.062   5.239   2.729
 3980SOL     OW12838   5.351   4.222   4.577
 3980SOL    HW112839   5.385   4.136   4.539
 3980SOL    HW212840   5.426   4.269   4.624
 3981SOL     OW12841   0.080   0.893   6.556
 3981SOL    HW112842   7.005   0.897   6.579
 3981SOL    HW212843   0.098   0.954   6.479
 3982SOL     OW12844   1.991   2.935   4.668
 3982SOL    HW112845   2.089   2.934   4.689
 3982SOL    HW212846   1.975   2.986   4.583
 3983SOL     OW12847   3.071   0.578   3.762
 3983SOL    HW112848   3.129   0.644   3.810
 3983SOL    HW212849   3.104   0.486   3.781
 3984SOL     OW12850   1.462   5.968   2.105
 3984SOL    HW112851   1.489   6.015   2.021
 3984SOL    HW212852   1.404   6.030   2.159
 3985SOL     OW12853   1.582   3.004   2.022
 3985SOL    HW112854   1.615   2.930   2.081
 3985SOL    HW212855   1.660   3.052   1.981
 3986SOL     OW12856   0.545   1.770   3.158
 3986SOL    HW112857   0.461   1.784   3.106
 3986SOL    HW212858   0.624   1.792   3.100
 3987SOL     OW12859   0.508   4.048   5.587
 3987SOL    HW112860   0.570   4.074   5.661
 3987SOL    HW212861   0.461   3.964   5.611
 3988SOL     OW12862   5.241   6.901   1.983
 3988SOL    HW112863   5.297   6.977   1.950
 3988SOL    HW212864   5.283   6.814   1.956
 3989SOL     OW12865   4.404   0.274   5.670
 3989SOL    HW112866   4.397   0.367   5.703
 3989SOL    HW212867   4.498   0.256   5.641
 3990SOL     OW12868   5.916   0.608   4.105
 3990SOL    HW112869   5.910   0.566   4.015
 3990SOL    HW212870   6.012   0.621   4.130
 3991SOL     OW12871   6.261   2.022   3.457
 3991SOL    HW112872   6.188   2.020   3.388
 3991SOL    HW212873   6.311   2.108   3.451
 3992SOL     OW12874   6.004   3.685   5.835
 3992SOL    HW112875   5.929   3.732   5.788
 3992SOL    HW212876   6.066   3.644   5.769
 3993SOL     OW12877   1.702   0.826   4.234
 3993SOL    HW112878   1.661   0.914   4.212
 3993SOL    HW212879   1.774   0.805   4.167
 3994SOL     OW12880   3.063   2.209   3.708
 3994SOL    HW112881   3.129   2.207   3.633
 3994SOL    HW212882   3.028   2.116   3.723
 3995SOL     OW12883   1.353   3.670   1.864
 3995SOL    HW112884   1.269   3.648   1.914
 3995SOL    HW212885   1.406   3.587   1.848
 3996SOL     OW12886   0.171   6.469   5.081
 3996SOL    HW112887   0.115   6.452   5.000
 3996SOL    HW212888   0.243   6.534   5.057
 3997SOL     OW12889   5.798   3.873   4.449
 3997SOL    HW112890   5.792   3.967   4.484
 3997SOL    HW212891   5.881   3.864   4.394
 3998SOL     OW12892   4.420   2.251   3.544
 3998SOL    HW112893   4.420   2.350   3.558
 3998SOL    HW212894   4.487   2.209   3.605
 3999SOL     OW12895   5.048   2.689   1.135
 3999SOL    HW112896   4.953   2.662   1.123
 3999SOL    HW212897   5.097   2.679   1.048
 4000SOL     OW12898   2.281   4.640   2.984
 4000SOL    HW112899   2.353   4.691   3.032
 4000SOL    HW212900   2.323   4.565   2.932
 4001SOL     OW12901   0.589   6.155   4.421
 4001SOL    HW112902   0.543   6.243   4.406
 4001SOL    HW212903   0.688   6.170   4.422
 4002SOL     OW12904   3.723   4.163   4.700
 4002SOL    HW112905   3.742   4.066   4.685
 4002SOL    HW212906   3.809   4.214   4.699
 4003SOL     OW12907   2.727   1.002   4.889
 4003SOL    HW112908   2.731   0.973   4.794
 4003SOL    HW212909   2.787   0.945   4.945
 4004SOL     OW12910   1.781   3.300   5.274
 4004SOL    HW112911   1.875   3.272   5.291
 4004SOL    HW212912   1.780   3.389   5.230
 4005SOL     OW12913   5.640   3.031   1.023
 4005SOL    HW112914   5.571   3.089   1.066
 4005SOL    HW212915   5.665   2.957   1.086
 4006SOL     OW12916   6.936   5.992   1.853
 4006SOL    HW112917   7.022   5.960   1.813
 4006SOL    HW212918   6.940   6.091   1.864
 4007SOL     OW12919   0.481   1.135   1.370
 4007SOL    HW112920   0.571   1.178   1.362
 4007SOL    HW212921   0.418   1.177   1.304
 4008SOL     OW12922   4.256   0.821   1.473
 4008SOL    HW112923   4.254   0.745   1.539
 4008SOL    HW212924   4.217   0.902   1.515
 4009SOL     OW12925   3.258   2.076   1.461
 4009SOL    HW112926   3.354   2.048   1.468
 4009SOL    HW212927   3.240   2.150   1.526
 4010SOL     OW12928   1.815   4.614   0.772
 4010SOL    HW112929   1.756   4.687   0.806
 4010SOL    HW212930   1.759   4.534   0.749
 4011SOL     OW12931   6.170   6.696   6.216
 4011SOL    HW112932   6.259   6.652   6.229
 4011SOL    HW212933   6.183   6.783   6.168
 4012SOL     OW12934   5.322   5.285   1.757
 4012SOL    HW112935   5.326   5.257   1.661
 4012SOL    HW212936   5.229   5.274   1.791
 4013SOL     OW12937   0.399   1.830   0.255
 4013SOL    HW112938   0.353   1.743   0.235
 4013SOL    HW212939   0.482   1.836   0.201
 4014SOL     OW12940   2.759   6.080   2.554
 4014SOL    HW112941   2.832   6.098   2.488
 4014SOL    HW212942   2.685   6.029   2.509
 4015SOL     OW12943   4.075   6.268   5.039
 4015SOL    HW112944   3.993   6.257   4.983
 4015SOL    HW212945   4.055   6.329   5.115
 4016SOL     OW12946   4.604   5.360   4.348
 4016SOL    HW112947   4.581   5.455   4.325
 4016SOL    HW212948   4.564   5.337   4.436
 4017SOL     OW12949   1.932   5.775   6.141
 4017SOL    HW112950   2.009   5.753   6.081
 4017SOL    HW212951   1.964   5.789   6.234
 4018SOL     OW12952   4.940   5.291   0.895
 4018SOL    HW112953   4.898   5.219   0.840
 4018SOL    HW212954   4.877   5.369   0.901
 4019SOL     OW12955   0.379   2.450   3.116
 4019SOL    HW112956   0.321   2.368   3.120
 4019SOL    HW212957   0.431   2.449   3.031
 4020SOL     OW12958   6.549   5.936   4.594
 4020SOL    HW112959   6.578   5.968   4.504
 4020SOL    HW212960   6.591   5.992   4.665
 4021SOL     OW12961   4.943   5.358   6.091
 4021SOL    HW112962   5.008   5.399   6.155
 4021SOL    HW212963   4.852   5.395   6.109
 4022SOL     OW12964   3.367   6.922   1.469
 4022SOL    HW112965   3.299   6.985   1.506
 4022SOL    HW212966   3.345   6.903   1.373
 4023SOL     OW12967   0.918   1.857   4.068
 4023SOL    HW112968   0.906   1.902   3.980
 4023SOL    HW212969   0.982   1.910   4.124
 4024SOL     OW12970   0.896   6.466   6.205
 4024SOL    HW112971   0.843   6.533   6.154
 4024SOL    HW212972   0.878   6.476   6.303
 4025SOL     OW12973   0.161   4.528   4.710
 4025SOL    HW112974   0.199   4.610   4.669
 4025SOL    HW212975   0.154   4.456   4.640
 4026SOL     OW12976   0.676   6.674   3.997
 4026SOL    HW112977   0.622   6.755   4.020
 4026SOL    HW212978   0.750   6.664   4.063
 4027SOL     OW12979   2.910   5.443   5.035
 4027SOL    HW112980   2.844   5.416   5.105
 4027SOL    HW212981   2.999   5.460   5.078
 4028SOL     OW12982   4.986   1.949   4.527
 4028SOL    HW112983   4.947   2.039   4.543
 4028SOL    HW212984   4.919   1.878   4.550
 4029SOL     OW12985   1.498   6.846   0.534
 4029SOL    HW112986   1.527   6.925   0.588
 4029SOL    HW212987   1.398   6.839   0.536
 4030SOL     OW12988   0.991   1.197   1.944
 4030SOL    HW112989   1.072   1.141   1.929
 4030SOL    HW212990   0.977   1.257   1.865
 4031SOL     OW12991   5.343   5.884   0.553
 4031SOL    HW112992   5.303   5.838   0.474
 4031SOL    HW212993   5.382   5.816   0.615
 4032SOL     OW12994   5.088   2.075   2.210
 4032SOL    HW112995   5.098   2.056   2.112
 4032SOL    HW212996   5.015   2.142   2.223
 4033SOL     OW12997   1.584   3.217   2.900
 4033SOL    HW112998   1.665   3.209   2.958
 4033SOL    HW212999   1.502   3.221   2.957
 4034SOL     OW13000   2.020   2.447   4.473
 4034SOL    HW113001   2.030   2.460   4.374
 4034SOL    HW213002   1.945   2.384   4.492
 4035SOL     OW13003   3.810   2.217   1.677
 4035SOL    HW113004   3.732   2.244   1.733
 4035SOL    HW213005   3.855   2.138   1.718
 4036SOL     OW13006   3.902   6.222   3.514
 4036SOL    HW113007   3.807   6.205   3.485
 4036SOL    HW213008   3.951   6.136   3.522
 4037SOL     OW13009   1.574   1.462   6.154
 4037SOL    HW113010   1.508   1.486   6.083
 4037SOL    HW213011   1.539   1.489   6.244
 4038SOL     OW13012   3.705   4.441   6.101
 4038SOL    HW113013   3.672   4.393   6.019
 4038SOL    HW213014   3.643   4.517   6.122
 4039SOL     OW13015   6.150   4.610   1.424
 4039SOL    HW113016   6.194   4.531   1.381
 4039SOL    HW213017   6.118   4.585   1.516
 4040SOL     OW13018   2.834   0.478   5.094
 4040SOL    HW113019   2.914   0.424   5.120
 4040SOL    HW213020   2.855   0.575   5.104
 4041SOL     OW13021   1.208   6.130   1.707
 4041SOL    HW113022   1.235   6.204   1.769
 4041SOL    HW213023   1.182   6.050   1.762
 4042SOL     OW13024   0.247   1.447   3.638
 4042SOL    HW113025   0.330   1.402   3.605
 4042SOL    HW213026   0.269   1.540   3.667
 4043SOL     OW13027   4.179   2.025   6.316
 4043SOL    HW113028   4.206   1.929   6.306
 4043SOL    HW213029   4.259   2.079   6.343
 4044SOL     OW13030   4.361   4.621   3.301
 4044SOL    HW113031   4.390   4.618   3.397
 4044SOL    HW213032   4.280   4.565   3.289
 4045SOL     OW13033   4.726   1.556   4.878
 4045SOL    HW113034   4.675   1.571   4.962
 4045SOL    HW213035   4.738   1.458   4.863
 4046SOL     OW13036   4.833   1.722   4.044
 4046SOL    HW113037   4.814   1.680   3.955
 4046SOL    HW213038   4.835   1.651   4.114
 4047SOL     OW13039   2.884   2.192   6.412
 4047SOL    HW113040   2.811   2.236   6.360
 4047SOL    HW213041   2.968   2.192   6.358
 4048SOL     OW13042   4.790   2.389   3.547
 4048SOL    HW113043   4.778   2.396   3.646
 4048SOL    HW213044   4.765   2.476   3.504
 4049SOL     OW13045   4.329   3.970   1.251
 4049SOL    HW113046   4.298   3.879   1.276
 4049SOL    HW213047   4.368   4.015   1.331
 4050SOL     OW13048   6.780   4.616   2.876
 4050SOL    HW113049   6.818   4.586   2.789
 4050SOL    HW213050   6.783   4.716   2.881
 4051SOL     OW13051   5.682   1.359   4.417
 4051SOL    HW113052   5.774   1.366   4.456
 4051SOL    HW213053   5.684   1.299   4.337
 4052SOL     OW13054   4.834   1.697   4.526
 4052SOL    HW113055   4.742   1.716   4.493
 4052SOL    HW213056   4.835   1.610   4.575
 4053SOL     OW13057   0.794   4.919   3.946
 4053SOL    HW113058   0.784   4.988   4.017
 4053SOL    HW213059   0.871   4.942   3.887
 4054SOL     OW13060   4.829   3.749   1.302
 4054SOL    HW113061   4.883   3.809   1.243
 4054SOL    HW213062   4.825   3.787   1.394
 4055SOL     OW13063   0.201   4.680   6.890
 4055SOL    HW113064   0.277   4.620   6.866
 4055SOL    HW213065   0.115   4.643   6.853
 4056SOL     OW13066   5.043   3.415   7.020
 4056SOL    HW113067   5.022   3.450   6.929
 4056SOL    HW213068   4.983   3.338   0.020
 4057SOL     OW13069   7.019   4.101   6.027
 4057SOL    HW113070   0.072   4.037   6.042
 4057SOL    HW213071   0.031   4.183   5.980
 4058SOL     OW13072   3.764   0.607   4.351
 4058SOL    HW113073   3.669   0.586   4.329
 4058SOL    HW213074   3.772   0.703   4.378
 4059SOL     OW13075   0.900   1.264   3.982
 4059SOL    HW113076   0.843   1.325   4.038
 4059SOL    HW213077   0.992   1.302   3.975
 4060SOL     OW13078   0.018   6.465   4.852
 4060SOL    HW113079   0.006   6.399   4.777
 4060SOL    HW213080   6.984   6.546   4.833
 4061SOL     OW13081   0.939   4.632   1.877
 4061SOL    HW113082   0.922   4.600   1.783
 4061SOL    HW213083   0.920   4.730   1.882
 4062SOL     OW13084   2.107   3.957   0.363
 4062SOL    HW113085   2.045   4.018   0.412
 4062SOL    HW213086   2.200   3.967   0.399
 4063SOL     OW13087   3.784   0.820   0.981
 4063SOL    HW113088   3.687   0.805   0.959
 4063SOL    HW213089   3.791   0.871   1.066
 4064SOL     OW13090   2.443   0.665   5.297
 4064SOL    HW113091   2.441   0.644   5.199
 4064SOL    HW213092   2.376   0.609   5.344
 4065SOL     OW13093   2.413   1.530   1.655
 4065SOL    HW113094   2.370   1.464   1.593
 4065SOL    HW213095   2.482   1.582   1.605
 4066SOL     OW13096   0.203   4.307   4.540
 4066SOL    HW113097   0.142   4.272   4.469
 4066SOL    HW213098   0.298   4.297   4.511
 4067SOL     OW13099   6.568   4.436   0.726
 4067SOL    HW113100   6.594   4.339   0.732
 4067SOL    HW213101   6.565   4.463   0.629
 4068SOL     OW13102   2.002   2.785   5.707
 4068SOL    HW113103   2.056   2.784   5.623
 4068SOL    HW213104   1.906   2.767   5.686
 4069SOL     OW13105   4.810   6.748   5.358
 4069SOL    HW113106   4.762   6.734   5.444
 4069SOL    HW213107   4.887   6.684   5.351
 4070SOL     OW13108   1.605   2.903   4.099
 4070SOL    HW113109   1.536   2.842   4.139
 4070SOL    HW213110   1.586   2.997   4.127
 4071SOL     OW13111   1.942   0.418   4.926
 4071SOL    HW113112   1.909   0.510   4.945
 4071SOL    HW213113   1.869   0.352   4.942
 4072SOL     OW13114   3.282   6.702   2.350
 4072SOL    HW113115   3.289   6.673   2.255
 4072SOL    HW213116   3.339   6.642   2.407
 4073SOL     OW13117   4.080   5.282   6.879
 4073SOL    HW113118   4.020   5.342   6.933
 4073SOL    HW213119   4.063   5.187   6.906
 4074SOL     OW13120   1.147   5.620   2.286
 4074SOL    HW113121   1.113   5.636   2.193
 4074SOL    HW213122   1.219   5.550   2.283
 4075SOL     OW13123   5.782   0.972   0.167
 4075SOL    HW113124   5.732   0.960   0.082
 4075SOL    HW213125   5.880   0.962   0.150
 4076SOL     OW13126   1.749   5.800   4.113
 4076SOL    HW113127   1.752   5.708   4.073
 4076SOL    HW213128   1.828   5.852   4.082
 4077SOL     OW13129   2.908   1.684   1.516
 4077SOL    HW113130   2.943   1.617   1.451
 4077SOL    HW213131   2.885   1.769   1.468
 4078SOL     OW13132   4.307   4.755   2.355
 4078SOL    HW113133   4.389   4.809   2.374
 4078SOL    HW213134   4.241   4.768   2.429
 4079SOL     OW13135   0.655   1.881   4.128
 4079SOL    HW113136   0.642   1.943   4.051
 4079SOL    HW213137   0.749   1.845   4.126
 4080SOL     OW13138   6.606   1.881   4.654
 4080SOL    HW113139   6.563   1.812   4.712
 4080SOL    HW213140   6.680   1.838   4.601
 4081SOL     OW13141   0.719   4.215   2.974
 4081SOL    HW113142   0.697   4.129   2.930
 4081SOL    HW213143   0.669   4.289   2.929
 4082SOL     OW13144   0.401   3.171   6.931
 4082SOL    HW113145   0.487   3.135   6.969
 4082SOL    HW213146   0.399   3.270   6.941
 4083SOL     OW13147   6.608   3.312   4.699
 4083SOL    HW113148   6.642   3.224   4.733
 4083SOL    HW213149   6.678   3.383   4.713
 4084SOL     OW13150   6.008   0.818   4.644
 4084SOL    HW113151   6.027   0.762   4.563
 4084SOL    HW213152   5.980   0.760   4.720
 4085SOL     OW13153   3.064   5.473   6.621
 4085SOL    HW113154   3.108   5.496   6.534
 4085SOL    HW213155   3.133   5.472   6.693
 4086SOL     OW13156   0.973   3.436   1.296
 4086SOL    HW113157   1.067   3.406   1.280
 4086SOL    HW213158   0.947   3.417   1.391
 4087SOL     OW13159   2.128   1.210   3.040
 4087SOL    HW113160   2.085   1.280   3.097
 4087SOL    HW213161   2.102   1.225   2.945
 4088SOL     OW13162   6.785   1.713   0.093
 4088SOL    HW113163   6.744   1.797   0.058
 4088SOL    HW213164   6.871   1.735   0.140
 4089SOL     OW13165   0.568   0.828   5.606
 4089SOL    HW113166   0.609   0.766   5.540
 4089SOL    HW213167   0.471   0.805   5.617
 4090SOL     OW13168   3.295   5.118   6.255
 4090SOL    HW113169   3.224   5.116   6.325
 4090SOL    HW213170   3.375   5.168   6.290
 4091SOL     OW13171   4.898   6.701   1.418
 4091SOL    HW113172   4.855   6.772   1.474
 4091SOL    HW213173   4.944   6.744   1.340
 4092SOL     OW13174   0.015   1.247   4.146
 4092SOL    HW113175   0.062   1.286   4.067
 4092SOL    HW213176   6.958   1.303   4.168
 4093SOL     OW13177   5.463   0.022   4.190
 4093SOL    HW113178   5.483   6.951   4.221
 4093SOL    HW213179   5.543   0.079   4.202
 4094SOL     OW13180   3.224   3.856   6.046
 4094SOL    HW113181   3.297   3.804   6.002
 4094SOL    HW213182   3.188   3.805   6.123
 4095SOL     OW13183   1.441   3.610   6.056
 4095SOL    HW113184   1.524   3.663   6.040
 4095SOL    HW213185   1.371   3.636   5.990
 4096SOL     OW13186   4.469   4.767   1.543
 4096SOL    HW113187   4.545   4.721   1.588
 4096SOL    HW213188   4.440   4.845   1.598
 4097SOL     OW13189   3.521   3.855   3.605
 4097SOL    HW113190   3.547   3.950   3.622
 4097SOL    HW213191   3.503   3.809   3.692
 4098SOL     OW13192   0.710   3.512   2.057
 4098SOL    HW113193   0.615   3.541   2.072
 4098SOL    HW213194   0.722   3.482   1.963
 4099SOL     OW13195   2.701   5.942   1.809
 4099SOL    HW113196   2.655   5.855   1.829
 4099SOL    HW213197   2.633   6.011   1.785
 4100SOL     OW13198   3.701   6.953   3.064
 4100SOL    HW113199   3.703   0.030   3.075
 4100SOL    HW213200   3.713   6.909   3.153
 4101SOL     OW13201   4.381   2.043   6.730
 4101SOL    HW113202   4.441   2.040   6.810
 4101SOL    HW213203   4.396   1.961   6.675
 4102SOL     OW13204   4.250   1.906   6.973
 4102SOL    HW113205   4.180   1.925   0.019
 4102SOL    HW213206   4.291   1.991   6.942
 4103SOL     OW13207   0.324   0.161   1.770
 4103SOL    HW113208   0.230   0.196   1.772
 4103SOL    HW213209   0.334   0.088   1.838
 4104SOL     OW13210   2.208   4.581   2.295
 4104SOL    HW113211   2.227   4.495   2.342
 4104SOL    HW213212   2.292   4.635   2.290
 4105SOL     OW13213   5.964   4.908   0.109
 4105SOL    HW113214   6.058   4.890   0.080
 4105SOL    HW213215   5.958   4.900   0.209
 4106SOL     OW13216   6.667   3.572   4.930
 4106SOL    HW113217   6.637   3.479   4.950
 4106SOL    HW213218   6.587   3.631   4.919
 4107SOL     OW13219   0.046   0.394   0.797
 4107SOL    HW113220   6.972   0.382   0.772
 4107SOL    HW213221   0.053   0.441   0.884
 4108SOL     OW13222   6.433   2.464   5.122
 4108SOL    HW113223   6.506   2.410   5.162
 4108SOL    HW213224   6.345   2.436   5.161
 4109SOL     OW13225   2.808   6.249   4.104
 4109SOL    HW113226   2.901   6.283   4.115
 4109SOL    HW213227   2.761   6.302   4.033
 4110SOL     OW13228   4.732   3.379   5.339
 4110SOL    HW113229   4.722   3.474   5.309
 4110SOL    HW213230   4.732   3.319   5.260
 4111SOL     OW13231   3.607   2.940   6.407
 4111SOL    HW113232   3.518   2.947   6.362
 4111SOL    HW213233   3.661   3.021   6.387
 4112SOL     OW13234   4.134   0.319   5.864
 4112SOL    HW113235   4.201   0.384   5.828
 4112SOL    HW213236   4.047   0.367   5.879
 4113SOL     OW13237   3.504   5.015   5.039
 4113SOL    HW113238   3.447   4.974   4.968
 4113SOL    HW213239   3.486   5.113   5.044
 4114SOL     OW13240   3.656   1.903   2.939
 4114SOL    HW113241   3.596   1.954   2.877
 4114SOL    HW213242   3.642   1.936   3.033
 4115SOL     OW13243   4.953   4.506   2.514
 4115SOL    HW113244   4.938   4.513   2.415
 4115SOL    HW213245   4.921   4.417   2.546
 4116SOL     OW13246   3.089   0.856   2.336
 4116SOL    HW113247   3.105   0.781   2.271
 4116SOL    HW213248   3.124   0.830   2.426
 4117SOL     OW13249   0.954   5.765   1.250
 4117SOL    HW113250   0.962   5.673   1.288
 4117SOL    HW213251   0.955   5.760   1.150
 4118SOL     OW13252   2.161   0.060   6.769
 4118SOL    HW113253   2.200   0.129   6.829
 4118SOL    HW213254   2.217   0.049   6.687
 4119SOL     OW13255   4.668   1.431   3.448
 4119SOL    HW113256   4.627   1.448   3.358
 4119SOL    HW213257   4.764   1.460   3.446
 4120SOL     OW13258   5.256   1.164   2.656
 4120SOL    HW113259   5.324   1.137   2.588
 4120SOL    HW213260   5.190   1.090   2.669
 4121SOL     OW13261   6.405   2.280   4.337
 4121SOL    HW113262   6.367   2.346   4.402
 4121SOL    HW213263   6.458   2.210   4.386
 4122SOL     OW13264   2.003   5.507   6.868
 4122SOL    HW113265   2.093   5.502   6.911
 4122SOL    HW213266   1.977   5.416   6.836
 4123SOL     OW13267   4.355   3.489   5.539
 4123SOL    HW113268   4.329   3.584   5.558
 4123SOL    HW213269   4.352   3.473   5.441
 4124SOL     OW13270   4.026   5.943   3.503
 4124SOL    HW113271   3.998   5.892   3.422
 4124SOL    HW213272   3.987   5.901   3.584
 4125SOL     OW13273   4.875   1.063   1.418
 4125SOL    HW113274   4.892   1.040   1.514
 4125SOL    HW213275   4.786   1.108   1.409
 4126SOL     OW13276   1.701   4.562   4.463
 4126SOL    HW113277   1.796   4.532   4.476
 4126SOL    HW213278   1.652   4.494   4.407
 4127SOL     OW13279   5.921   4.673   4.616
 4127SOL    HW113280   5.861   4.718   4.683
 4127SOL    HW213281   5.910   4.717   4.527
 4128SOL     OW13282   0.733   1.856   1.993
 4128SOL    HW113283   0.799   1.922   1.958
 4128SOL    HW213284   0.649   1.904   2.021
 4129SOL     OW13285   6.885   2.756   6.161
 4129SOL    HW113286   6.933   2.795   6.083
 4129SOL    HW213287   6.820   2.686   6.129
 4130SOL     OW13288   6.756   2.859   0.951
 4130SOL    HW113289   6.802   2.856   1.040
 4130SOL    HW213290   6.823   2.848   0.878
 4131SOL     OW13291   6.932   3.772   3.034
 4131SOL    HW113292   6.846   3.803   2.994
 4131SOL    HW213293   6.928   3.779   3.133
 4132SOL     OW13294   4.685   2.211   4.931
 4132SOL    HW113295   4.775   2.168   4.923
 4132SOL    HW213296   4.614   2.141   4.924
 4133SOL     OW13297   2.354   2.500   1.160
 4133SOL    HW113298   2.330   2.490   1.256
 4133SOL    HW213299   2.418   2.428   1.133
 4134SOL     OW13300   1.849   1.269   0.476
 4134SOL    HW113301   1.864   1.180   0.521
 4134SOL    HW213302   1.907   1.274   0.394
 4135SOL     OW13303   1.894   0.536   1.034
 4135SOL    HW113304   1.807   0.577   1.005
 4135SOL    HW213305   1.913   0.456   0.977
 4136SOL     OW13306   0.712   1.616   3.508
 4136SOL    HW113307   0.657   1.538   3.480
 4136SOL    HW213308   0.673   1.656   3.592
 4137SOL     OW13309   3.914   3.017   5.686
 4137SOL    HW113310   3.864   2.950   5.632
 4137SOL    HW213311   3.937   2.978   5.775
 4138SOL     OW13312   4.303   5.549   1.906
 4138SOL    HW113313   4.368   5.482   1.870
 4138SOL    HW213314   4.229   5.561   1.840
 4139SOL     OW13315   2.929   1.512   0.731
 4139SOL    HW113316   2.833   1.520   0.760
 4139SOL    HW213317   2.947   1.419   0.701
 4140SOL     OW13318   4.105   2.011   5.572
 4140SOL    HW113319   4.058   1.926   5.598
 4140SOL    HW213320   4.147   2.051   5.654
 4141SOL     OW13321   5.329   5.487   0.484
 4141SOL    HW113322   5.273   5.466   0.404
 4141SOL    HW213323   5.413   5.433   0.481
 4142SOL     OW13324   5.996   3.289   1.693
 4142SOL    HW113325   5.950   3.270   1.780
 4142SOL    HW213326   5.960   3.228   1.623
 4143SOL     OW13327   0.541   2.990   1.737
 4143SOL    HW113328   0.446   2.960   1.723
 4143SOL    HW213329   0.602   2.911   1.730
 4144SOL     OW13330   4.159   0.721   2.139
 4144SOL    HW113331   4.092   0.795   2.132
 4144SOL    HW213332   4.249   0.759   2.161
 4145SOL     OW13333   3.155   6.645   3.248
 4145SOL    HW113334   3.128   6.729   3.201
 4145SOL    HW213335   3.251   6.653   3.277
 4146SOL     OW13336   4.538   4.614   0.254
 4146SOL    HW113337   4.585   4.686   0.203
 4146SOL    HW213338   4.591   4.591   0.335
 4147SOL     OW13339   2.603   1.928   6.283
 4147SOL    HW113340   2.567   2.018   6.304
 4147SOL    HW213341   2.558   1.892   6.201
 4148SOL     OW13342   6.664   0.049   2.621
 4148SOL    HW113343   6.687   0.145   2.602
 4148SOL    HW213344   6.745   0.001   2.652
 4149SOL     OW13345   4.700   4.206   2.244
 4149SOL    HW113346   4.616   4.244   2.204
 4149SOL    HW213347   4.699   4.221   2.343
 4150SOL     OW13348   4.384   0.256   5.142
 4150SOL    HW113349   4.343   0.328   5.199
 4150SOL    HW213350   4.312   0.210   5.090
 4151SOL     OW13351   0.232   5.733   0.760
 4151SOL    HW113352   0.156   5.672   0.785
 4151SOL    HW213353   0.280   5.763   0.842
 4152SOL     OW13354   3.145   3.951   1.503
 4152SOL    HW113355   3.200   4.030   1.531
 4152SOL    HW213356   3.152   3.939   1.404
 4153SOL     OW13357   6.138   5.606   6.320
 4153SOL    HW113358   6.205   5.590   6.392
 4153SOL    HW213359   6.185   5.613   6.232
 4154SOL     OW13360   4.468   2.564   5.019
 4154SOL    HW113361   4.541   2.621   4.982
 4154SOL    HW213362   4.424   2.611   5.096
 4155SOL     OW13363   1.681   2.871   0.598
 4155SOL    HW113364   1.757   2.844   0.539
 4155SOL    HW213365   1.690   2.968   0.620
 4156SOL     OW13366   5.810   0.832   5.000
 4156SOL    HW113367   5.879   0.773   4.956
 4156SOL    HW213368   5.723   0.822   4.952
 4157SOL     OW13369   2.891   0.679   3.183
 4157SOL    HW113370   2.838   0.695   3.099
 4157SOL    HW213371   2.897   0.764   3.235
 4158SOL     OW13372   0.870   0.395   3.834
 4158SOL    HW113373   0.855   0.399   3.735
 4158SOL    HW213374   0.858   0.487   3.873
 4159SOL     OW13375   0.224   3.922   5.650
 4159SOL    HW113376   0.194   4.012   5.683
 4159SOL    HW213377   0.201   3.912   5.553
 4160SOL     OW13378   0.448   0.537   0.931
 4160SOL    HW113379   0.524   0.520   0.995
 4160SOL    HW213380   0.454   0.631   0.898
 4161SOL     OW13381   6.350   1.729   1.087
 4161SOL    HW113382   6.324   1.772   1.000
 4161SOL    HW213383   6.288   1.654   1.107
 4162SOL     OW13384   0.774   6.838   5.434
 4162SOL    HW113385   0.860   6.788   5.439
 4162SOL    HW213386   0.757   6.865   5.339
 4163SOL     OW13387   6.476   1.469   5.489
 4163SOL    HW113388   6.477   1.511   5.399
 4163SOL    HW213389   6.404   1.510   5.545
 4164SOL     OW13390   2.891   6.927   5.656
 4164SOL    HW113391   2.853   7.019   5.657
 4164SOL    HW213392   2.837   6.868   5.717
 4165SOL     OW13393   2.385   6.175   2.069
 4165SOL    HW113394   2.350   6.265   2.043
 4165SOL    HW213395   2.346   6.105   2.008
 4166SOL     OW13396   6.419   1.748   1.796
 4166SOL    HW113397   6.397   1.711   1.705
 4166SOL    HW213398   6.355   1.821   1.818
 4167SOL     OW13399   1.837   2.701   1.409
 4167SOL    HW113400   1.804   2.617   1.366
 4167SOL    HW213401   1.825   2.777   1.346
 4168SOL     OW13402   1.873   5.349   1.215
 4168SOL    HW113403   1.875   5.275   1.148
 4168SOL    HW213404   1.827   5.318   1.298
 4169SOL     OW13405   6.349   3.597   6.198
 4169SOL    HW113406   6.282   3.670   6.217
 4169SOL    HW213407   6.420   3.599   6.268
 4170SOL     OW13408   3.544   1.179   5.142
 4170SOL    HW113409   3.497   1.129   5.069
 4170SOL    HW213410   3.547   1.276   5.119
 4171SOL     OW13411   5.838   3.557   1.400
 4171SOL    HW113412   5.788   3.533   1.484
 4171SOL    HW213413   5.838   3.479   1.338
 4172SOL     OW13414   2.619   0.684   0.710
 4172SOL    HW113415   2.696   0.691   0.773
 4172SOL    HW213416   2.646   0.716   0.620
 4173SOL     OW13417   4.988   3.190   5.420
 4173SOL    HW113418   4.896   3.189   5.381
 4173SOL    HW213419   5.032   3.277   5.401
 4174SOL     OW13420   4.977   0.695   3.208
 4174SOL    HW113421   4.948   0.601   3.229
 4174SOL    HW213422   4.969   0.751   3.290
 4175SOL     OW13423   2.354   1.418   2.498
 4175SOL    HW113424   2.275   1.447   2.550
 4175SOL    HW213425   2.337   1.432   2.400
 4176SOL     OW13426   5.789   4.536   2.956
 4176SOL    HW113427   5.700   4.525   2.911
 4176SOL    HW213428   5.777   4.534   3.055
 4177SOL     OW13429   6.654   5.393   3.192
 4177SOL    HW113430   6.592   5.420   3.266
 4177SOL    HW213431   6.687   5.300   3.209
 4178SOL     OW13432   4.245   2.453   5.479
 4178SOL    HW113433   4.192   2.468   5.562
 4178SOL    HW213434   4.324   2.514   5.478
 4179SOL     OW13435   6.584   2.300   0.246
 4179SOL    HW113436   6.608   2.397   0.240
 4179SOL    HW213437   6.490   2.290   0.278
 4180SOL     OW13438   4.876   3.552   1.580
 4180SOL    HW113439   4.818   3.591   1.651
 4180SOL    HW213440   4.874   3.452   1.586
 4181SOL     OW13441   6.726   0.565   0.617
 4181SOL    HW113442   6.773   0.650   0.642
 4181SOL    HW213443   6.742   0.545   0.520
 4182SOL     OW13444   5.790   1.014   3.426
 4182SOL    HW113445   5.793   0.951   3.349
 4182SOL    HW213446   5.696   1.047   3.439
 4183SOL     OW13447   1.447   0.807   1.886
 4183SOL    HW113448   1.496   0.876   1.939
 4183SOL    HW213449   1.387   0.852   1.820
 4184SOL     OW13450   4.283   4.690   6.626
 4184SOL    HW113451   4.360   4.734   6.580
 4184SOL    HW213452   4.318   4.623   6.692
 4185SOL     OW13453   0.024   0.332   4.019
 4185SOL    HW113454   0.042   0.308   3.924
 4185SOL    HW213455   0.107   0.368   4.061
 4186SOL     OW13456   3.726   4.207   1.793
 4186SOL    HW113457   3.667   4.221   1.872
 4186SOL    HW213458   3.725   4.110   1.768
 4187SOL     OW13459   3.875   4.909   6.536
 4187SOL    HW113460   3.807   4.888   6.606
 4187SOL    HW213461   3.915   4.999   6.555
 4188SOL     OW13462   4.810   6.288   3.570
 4188SOL    HW113463   4.844   6.357   3.633
 4188SOL    HW213464   4.785   6.331   3.483
 4189SOL     OW13465   1.663   3.348   3.303
 4189SOL    HW113466   1.677   3.406   3.224
 4189SOL    HW213467   1.715   3.263   3.293
 4190SOL     OW13468   2.349   0.046   1.375
 4190SOL    HW113469   2.447   0.047   1.393
 4190SOL    HW213470   2.299   0.043   1.462
 4191SOL     OW13471   0.677   2.099   3.074
 4191SOL    HW113472   0.724   2.167   3.017
 4191SOL    HW213473   0.684   2.009   3.032
 4192SOL     OW13474   5.946   0.643   3.409
 4192SOL    HW113475   5.915   0.718   3.468
 4192SOL    HW213476   6.043   0.626   3.425
 4193SOL     OW13477   1.585   6.399   3.852
 4193SOL    HW113478   1.490   6.386   3.824
 4193SOL    HW213479   1.626   6.310   3.873
 4194SOL     OW13480   5.906   0.003   3.093
 4194SOL    HW113481   5.974   0.074   3.107
 4194SOL    HW213482   5.841   0.033   3.023
 4195SOL     OW13483   5.124   0.905   3.416
 4195SOL    HW113484   5.032   0.885   3.449
 4195SOL    HW213485   5.128   1.000   3.383
 4196SOL     OW13486   4.772   3.056   3.354
 4196SOL    HW113487   4.843   3.064   3.285
 4196SOL    HW213488   4.715   3.138   3.354
 4197SOL     OW13489   5.559   4.236   4.757
 4197SOL    HW113490   5.527   4.169   4.825
 4197SOL    HW213491   5.650   4.211   4.726
 4198SOL     OW13492   6.613   3.769   6.047
 4198SOL    HW113493   6.606   3.670   6.035
 4198SOL    HW213494   6.696   3.802   6.001
 4199SOL     OW13495   2.876   4.162   6.575
 4199SOL    HW113496   2.953   4.128   6.521
 4199SOL    HW213497   2.843   4.247   6.536
 4200SOL     OW13498   3.203   0.588   0.125
 4200SOL    HW113499   3.301   0.599   0.108
 4200SOL    HW213500   3.151   0.631   0.051
 4201SOL     OW13501   6.262   6.990   4.824
 4201SOL    HW113502   6.275   6.987   4.725
 4201SOL    HW213503   6.324   6.925   4.868
 4202SOL     OW13504   5.581   3.647   5.530
 4202SOL    HW113505   5.547   3.725   5.582
 4202SOL    HW213506   5.532   3.564   5.559
 4203SOL     OW13507   3.779   5.747   4.431
 4203SOL    HW113508   3.862   5.706   4.392
 4203SOL    HW213509   3.787   5.748   4.531
 4204SOL     OW13510   1.780   3.900   0.396
 4204SOL    HW113511   1.806   3.843   0.317
 4204SOL    HW213512   1.719   3.848   0.455
 4205SOL     OW13513   2.852   6.069   3.159
 4205SOL    HW113514   2.760   6.071   3.119
 4205SOL    HW213515   2.914   6.125   3.104
 4206SOL     OW13516   5.323   6.683   4.100
 4206SOL    HW113517   5.411   6.637   4.087
 4206SOL    HW213518   5.249   6.623   4.070
 4207SOL     OW13519   0.939   6.393   0.121
 4207SOL    HW113520   0.974   6.324   0.184
 4207SOL    HW213521   0.847   6.369   0.092
 4208SOL     OW13522   0.324   2.944   1.069
 4208SOL    HW113523   0.419   2.915   1.071
 4208SOL    HW213524   0.308   3.000   0.987
 4209SOL     OW13525   2.870   0.450   5.416
 4209SOL    HW113526   2.953   0.502   5.437
 4209SOL    HW213527   2.813   0.503   5.353
 4210SOL     OW13528   3.677   2.900   0.205
 4210SOL    HW113529   3.647   2.818   0.155
 4210SOL    HW213530   3.708   2.874   0.296
 4211SOL     OW13531   5.174   3.847   4.345
 4211SOL    HW113532   5.156   3.944   4.330
 4211SOL    HW213533   5.221   3.835   4.433
 4212SOL     OW13534   6.340   6.989   1.921
 4212SOL    HW113535   6.408   0.011   1.979
 4212SOL    HW213536   6.340   6.890   1.938
 4213SOL     OW13537   0.514   6.964   1.218
 4213SOL    HW113538   0.518   6.918   1.129
 4213SOL    HW213539   0.470   6.904   1.284
 4214SOL     OW13540   2.959   5.484   4.038
 4214SOL    HW113541   2.919   5.395   4.059
 4214SOL    HW213542   3.046   5.494   4.087
 4215SOL     OW13543   1.254   6.049   7.002
 4215SOL    HW113544   1.314   6.068   6.925
 4215SOL    HW213545   1.238   6.133   0.031
 4216SOL     OW13546   2.709   3.220   5.335
 4216SOL    HW113547   2.627   3.176   5.298
 4216SOL    HW213548   2.755   3.158   5.398
 4217SOL     OW13549   6.660   0.827   4.469
 4217SOL    HW113550   6.662   0.917   4.427
 4217SOL    HW213551   6.578   0.818   4.526
 4218SOL     OW13552   3.183   5.493   1.972
 4218SOL    HW113553   3.150   5.508   2.066
 4218SOL    HW213554   3.266   5.546   1.958
 4219SOL     OW13555   5.691   0.050   2.919
 4219SOL    HW113556   5.643   0.137   2.905
 4219SOL    HW213557   5.750   0.031   2.840
 4220SOL     OW13558   0.449   4.297   3.157
 4220SOL    HW113559   0.497   4.239   3.224
 4220SOL    HW213560   0.434   4.245   3.073
 4221SOL     OW13561   5.445   6.441   5.865
 4221SOL    HW113562   5.486   6.369   5.810
 4221SOL    HW213563   5.393   6.503   5.806
 4222SOL     OW13564   2.694   3.011   0.214
 4222SOL    HW113565   2.688   3.043   0.120
 4222SOL    HW213566   2.634   2.931   0.226
 4223SOL     OW13567   3.556   3.840   3.003
 4223SOL    HW113568   3.592   3.911   2.943
 4223SOL    HW213569   3.509   3.883   3.081
 4224SOL     OW13570   3.372   1.660   5.700
 4224SOL    HW113571   3.462   1.701   5.684
 4224SOL    HW213572   3.334   1.694   5.786
 4225SOL     OW13573   5.315   0.116   4.461
 4225SOL    HW113574   5.342   0.057   4.385
 4225SOL    HW213575   5.241   0.072   4.512
 4226SOL     OW13576   1.972   1.602   2.446
 4226SOL    HW113577   2.039   1.646   2.386
 4226SOL    HW213578   1.880   1.612   2.407
 4227SOL     OW13579   5.345   3.908   6.511
 4227SOL    HW113580   5.277   3.837   6.530
 4227SOL    HW213581   5.397   3.883   6.429
 4228SOL     OW13582   4.676   4.921   2.921
 4228SOL    HW113583   4.671   4.974   2.837
 4228SOL    HW213584   4.669   4.982   3.000
 4229SOL     OW13585   4.135   5.192   5.455
 4229SOL    HW113586   4.142   5.093   5.441
 4229SOL    HW213587   4.040   5.221   5.443
 4230SOL     OW13588   2.566   1.593   6.252
 4230SOL    HW113589   2.630   1.617   6.178
 4230SOL    HW213590   2.581   1.653   6.330
 4231SOL     OW13591   3.745   6.455   6.181
 4231SOL    HW113592   3.829   6.494   6.144
 4231SOL    HW213593   3.755   6.444   6.280
 4232SOL     OW13594   1.818   3.984   1.345
 4232SOL    HW113595   1.732   3.933   1.341
 4232SOL    HW213596   1.895   3.920   1.340
 4233SOL     OW13597   5.610   5.396   1.228
 4233SOL    HW113598   5.587   5.432   1.318
 4233SOL    HW213599   5.542   5.428   1.161
 4234SOL     OW13600   3.569   3.591   5.363
 4234SOL    HW113601   3.554   3.512   5.422
 4234SOL    HW213602   3.497   3.595   5.293
 4235SOL     OW13603   0.110   4.109   4.679
 4235SOL    HW113604   0.111   4.126   4.778
 4235SOL    HW213605   0.159   4.183   4.632
 4236SOL     OW13606   0.778   3.556   4.749
 4236SOL    HW113607   0.788   3.495   4.670
 4236SOL    HW213608   0.828   3.640   4.732
 4237SOL     OW13609   6.370   3.962   5.302
 4237SOL    HW113610   6.325   3.877   5.275
 4237SOL    HW213611   6.343   4.035   5.240
 4238SOL     OW13612   4.579   5.127   4.877
 4238SOL    HW113613   4.589   5.167   4.786
 4238SOL    HW213614   4.483   5.107   4.894
 4239SOL     OW13615   5.178   5.960   5.375
 4239SOL    HW113616   5.124   5.954   5.459
 4239SOL    HW213617   5.136   5.904   5.304
 4240SOL     OW13618   2.803   4.559   6.271
 4240SOL    HW113619   2.813   4.558   6.171
 4240SOL    HW213620   2.840   4.645   6.307
 4241SOL     OW13621   3.069   1.992   1.290
 4241SOL    HW113622   3.159   1.984   1.332
 4241SOL    HW213623   3.007   2.041   1.353
 4242SOL     OW13624   2.499   0.276   2.276
 4242SOL    HW113625   2.557   0.195   2.284
 4242SOL    HW213626   2.404   0.251   2.297
 4243SOL     OW13627   1.597   2.546   2.717
 4243SOL    HW113628   1.570   2.452   2.693
 4243SOL    HW213629   1.564   2.567   2.809
 4244SOL     OW13630   3.103   0.569   1.106
 4244SOL    HW113631   3.102   0.476   1.070
 4244SOL    HW213632   3.136   0.567   1.201
 4245SOL     OW13633   0.064   1.540   1.235
 4245SOL    HW113634   0.075   1.518   1.138
 4245SOL    HW213635   0.103   1.467   1.291
 4246SOL     OW13636   4.673   2.691   3.874
 4246SOL    HW113637   4.645   2.756   3.945
 4246SOL    HW213638   4.751   2.728   3.824
 4247SOL     OW13639   2.710   5.680   6.995
 4247SOL    HW113640   2.700   5.778   7.005
 4247SOL    HW213641   2.628   5.642   6.953
 4248SOL     OW13642   2.641   0.163   2.853
 4248SOL    HW113643   2.585   0.081   2.854
 4248SOL    HW213644   2.692   0.170   2.939
 4249SOL     OW13645   5.937   1.147   5.566
 4249SOL    HW113646   5.881   1.224   5.537
 4249SOL    HW213647   5.916   1.124   5.661
 4250SOL     OW13648   0.832   5.686   4.656
 4250SOL    HW113649   0.905   5.651   4.598
 4250SOL    HW213650   0.805   5.616   4.721
 4251SOL     OW13651   4.820   2.130   5.205
 4251SOL    HW113652   4.844   2.046   5.254
 4251SOL    HW213653   4.803   2.110   5.109
 4252SOL     OW13654   0.909   6.895   6.493
 4252SOL    HW113655   0.969   6.816   6.505
 4252SOL    HW213656   0.923   6.960   6.567
 4253SOL     OW13657   4.140   0.019   3.056
 4253SOL    HW113658   4.135   0.108   3.101
 4253SOL    HW213659   4.049   7.012   3.030
 4254SOL     OW13660   1.076   2.064   5.456
 4254SOL    HW113661   1.121   2.075   5.367
 4254SOL    HW213662   1.058   1.967   5.471
 4255SOL     OW13663   1.078   3.205   3.864
 4255SOL    HW113664   0.985   3.187   3.896
 4255SOL    HW213665   1.075   3.258   3.780
 4256SOL     OW13666   6.080   6.184   0.349
 4256SOL    HW113667   6.084   6.254   0.278
 4256SOL    HW213668   6.159   6.193   0.409
 4257SOL     OW13669   0.017   0.734   2.571
 4257SOL    HW113670   6.939   0.728   2.563
 4257SOL    HW213671   0.054   0.782   2.491
 4258SOL     OW13672   2.802   5.634   0.832
 4258SOL    HW113673   2.785   5.599   0.740
 4258SOL    HW213674   2.718   5.624   0.887
 4259SOL     OW13675   0.678   6.348   0.074
 4259SOL    HW113676   0.657   6.253   0.053
 4259SOL    HW213677   0.627   6.376   0.156
 4260SOL     OW13678   0.027   0.306   5.202
 4260SOL    HW113679   0.083   0.370   5.253
 4260SOL    HW213680   0.082   0.260   5.132
 4261SOL     OW13681   2.595   6.246   3.356
 4261SOL    HW113682   2.582   6.147   3.356
 4261SOL    HW213683   2.510   6.290   3.384
 4262SOL     OW13684   1.582   4.103   4.806
 4262SOL    HW113685   1.628   4.016   4.791
 4262SOL    HW213686   1.646   4.178   4.787
 4263SOL     OW13687   3.423   1.005   2.379
 4263SOL    HW113688   3.445   1.094   2.340
 4263SOL    HW213689   3.483   0.935   2.339
 4264SOL     OW13690   4.735   2.344   6.611
 4264SOL    HW113691   4.687   2.288   6.543
 4264SOL    HW213692   4.794   2.285   6.666
 4265SOL     OW13693   3.591   6.600   6.788
 4265SOL    HW113694   3.649   6.673   6.824
 4265SOL    HW213695   3.580   6.612   6.689
 4266SOL     OW13696   1.453   4.374   1.800
 4266SOL    HW113697   1.500   4.300   1.752
 4266SOL    HW213698   1.394   4.423   1.736
 4267SOL     OW13699   1.516   3.344   4.487
 4267SOL    HW113700   1.607   3.332   4.528
 4267SOL    HW213701   1.516   3.424   4.429
 4268SOL     OW13702   1.414   4.412   6.038
 4268SOL    HW113703   1.408   4.462   6.125
 4268SOL    HW213704   1.469   4.330   6.051
 4269SOL     OW13705   2.629   1.612   4.003
 4269SOL    HW113706   2.617   1.594   4.101
 4269SOL    HW213707   2.547   1.656   3.967
 4270SOL     OW13708   4.292   4.165   1.074
 4270SOL    HW113709   4.197   4.181   1.102
 4270SOL    HW213710   4.328   4.085   1.121
 4271SOL     OW13711   6.459   0.592   0.670
 4271SOL    HW113712   6.479   0.515   0.729
 4271SOL    HW213713   6.543   0.625   0.627
 4272SOL     OW13714   6.404   1.912   5.518
 4272SOL    HW113715   6.347   1.835   5.548
 4272SOL    HW213716   6.384   1.932   5.422
 4273SOL     OW13717   3.771   5.245   3.573
 4273SOL    HW113718   3.830   5.301   3.631
 4273SOL    HW213719   3.821   5.217   3.491
 4274SOL     OW13720   0.009   0.462   1.062
 4274SOL    HW113721   6.999   0.423   1.147
 4274SOL    HW213722   6.984   0.549   1.045
 4275SOL     OW13723   6.416   1.896   4.125
 4275SOL    HW113724   6.441   1.877   4.220
 4275SOL    HW213725   6.459   1.828   4.065
 4276SOL     OW13726   1.628   6.977   2.943
 4276SOL    HW113727   1.688   0.004   3.006
 4276SOL    HW213728   1.681   6.946   2.864
 4277SOL     OW13729   6.229   5.764   2.914
 4277SOL    HW113730   6.188   5.692   2.970
 4277SOL    HW213731   6.206   5.749   2.818
 4278SOL     OW13732   0.286   0.195   1.223
 4278SOL    HW113733   0.305   0.127   1.294
 4278SOL    HW213734   0.273   0.284   1.265
 4279SOL     OW13735   1.072   3.355   3.053
 4279SOL    HW113736   1.172   3.361   3.052
 4279SOL    HW213737   1.045   3.259   3.054
 4280SOL     OW13738   2.884   6.515   6.517
 4280SOL    HW113739   2.829   6.484   6.595
 4280SOL    HW213740   2.978   6.481   6.528
 4281SOL     OW13741   0.092   6.425   2.237
 4281SOL    HW113742   0.157   6.418   2.313
 4281SOL    HW213743   0.142   6.424   2.151
 4282SOL     OW13744   5.135   4.954   1.718
 4282SOL    HW113745   5.228   4.942   1.683
 4282SOL    HW213746   5.071   4.902   1.662
 4283SOL     OW13747   6.007   1.175   5.022
 4283SOL    HW113748   5.972   1.105   5.084
 4283SOL    HW213749   5.938   1.195   4.952
 4284SOL     OW13750   4.861   6.228   0.106
 4284SOL    HW113751   4.910   6.245   0.192
 4284SOL    HW213752   4.927   6.213   0.033
 4285SOL     OW13753   2.996   1.585   6.211
 4285SOL    HW113754   2.964   1.667   6.258
 4285SOL    HW213755   2.982   1.505   6.269
 4286SOL     OW13756   5.280   6.259   6.850
 4286SOL    HW113757   5.219   6.191   6.809
 4286SOL    HW213758   5.302   6.329   6.782
 4287SOL     OW13759   4.017   0.666   1.061
 4287SOL    HW113760   3.931   0.683   1.013
 4287SOL    HW213761   4.042   0.747   1.114
 4288SOL     OW13762   0.244   6.406   2.011
 4288SOL    HW113763   0.226   6.434   1.917
 4288SOL    HW213764   0.339   6.377   2.020
 4289SOL     OW13765   0.224   4.316   5.908
 4289SOL    HW113766   0.278   4.380   5.854
 4289SOL    HW213767   0.220   4.348   6.003
 4290SOL     OW13768   0.035   1.227   2.891
 4290SOL    HW113769   0.035   1.315   2.843
 4290SOL    HW213770   0.105   1.228   2.963
 4291SOL     OW13771   4.193   4.795   6.391
 4291SOL    HW113772   4.236   4.886   6.392
 4291SOL    HW213773   4.223   4.743   6.471
 4292SOL     OW13774   6.918   6.992   0.580
 4292SOL    HW113775   6.954   6.899   0.582
 4292SOL    HW213776   6.971   0.028   0.641
 4293SOL     OW13777   3.828   3.265   6.127
 4293SOL    HW113778   3.798   3.359   6.138
 4293SOL    HW213779   3.805   3.233   6.035
 4294SOL     OW13780   3.301   1.908   0.190
 4294SOL    HW113781   3.317   1.810   0.182
 4294SOL    HW213782   3.374   1.958   0.142
 4295SOL     OW13783   4.227   6.404   2.662
 4295SOL    HW113784   4.324   6.429   2.665
 4295SOL    HW213785   4.207   6.343   2.739
 4296SOL     OW13786   2.117   5.567   2.399
 4296SOL    HW113787   2.032   5.601   2.439
 4296SOL    HW213788   2.102   5.475   2.363
 4297SOL     OW13789   5.120   4.868   0.215
 4297SOL    HW113790   5.184   4.905   0.148
 4297SOL    HW213791   5.095   4.774   0.189
 4298SOL     OW13792   1.788   6.767   0.938
 4298SOL    HW113793   1.701   6.785   0.984
 4298SOL    HW213794   1.819   6.675   0.961
 4299SOL     OW13795   0.102   3.156   5.856
 4299SOL    HW113796   0.059   3.146   5.766
 4299SOL    HW213797   0.167   3.232   5.854
 4300SOL     OW13798   3.599   0.743   1.651
 4300SOL    HW113799   3.508   0.741   1.610
 4300SOL    HW213800   3.667   0.758   1.580
 4301SOL     OW13801   1.616   6.264   5.062
 4301SOL    HW113802   1.700   6.307   5.029
 4301SOL    HW213803   1.545   6.272   4.992
 4302SOL     OW13804   4.208   5.080   0.102
 4302SOL    HW113805   4.163   5.067   0.014
 4302SOL    HW213806   4.224   4.991   0.145
 4303SOL     OW13807   4.247   5.047   3.157
 4303SOL    HW113808   4.293   5.133   3.177
 4303SOL    HW213809   4.160   5.043   3.207
 4304SOL     OW13810   3.075   4.327   1.708
 4304SOL    HW113811   3.033   4.370   1.788
 4304SOL    HW213812   3.140   4.390   1.666
 4305SOL     OW13813   1.156   6.454   6.225
 4305SOL    HW113814   1.183   6.550   6.221
 4305SOL    HW213815   1.057   6.446   6.208
 4306SOL     OW13816   5.636   3.728   5.284
 4306SOL    HW113817   5.583   3.703   5.364
 4306SOL    HW213818   5.652   3.827   5.284
 4307SOL     OW13819   6.788   1.746   5.304
 4307SOL    HW113820   6.766   1.803   5.383
 4307SOL    HW213821   6.887   1.739   5.295
 4308SOL     OW13822   4.378   5.822   5.596
 4308SOL    HW113823   4.424   5.782   5.517
 4308SOL    HW213824   4.427   5.796   5.680
 4309SOL     OW13825   3.101   1.773   1.057
 4309SOL    HW113826   3.119   1.791   1.153
 4309SOL    HW213827   3.142   1.686   1.030
 4310SOL     OW13828   6.668   1.722   3.995
 4310SOL    HW113829   6.688   1.721   3.897
 4310SOL    HW213830   6.742   1.767   4.045
 4311SOL     OW13831   0.693   6.617   1.059
 4311SOL    HW113832   0.688   6.564   0.974
 4311SOL    HW213833   0.752   6.696   1.046
 4312SOL     OW13834   0.178   3.661   2.751
 4312SOL    HW113835   0.086   3.665   2.712
 4312SOL    HW213836   0.244   3.637   2.680
 4313SOL     OW13837   0.791   3.350   0.733
 4313SOL    HW113838   0.717   3.306   0.682
 4313SOL    HW213839   0.764   3.443   0.756
 4314SOL     OW13840   2.378   1.377   6.081
 4314SOL    HW113841   2.395   1.428   5.997
 4314SOL    HW213842   2.311   1.425   6.137
 4315SOL     OW13843   2.613   2.554   5.515
 4315SOL    HW113844   2.516   2.531   5.523
 4315SOL    HW213845   2.667   2.489   5.568
 4316SOL     OW13846   4.665   4.644   1.257
 4316SOL    HW113847   4.659   4.601   1.347
 4316SOL    HW213848   4.588   4.614   1.200
 4317SOL     OW13849   5.007   0.744   4.707
 4317SOL    HW113850   4.913   0.767   4.731
 4317SOL    HW213851   5.050   0.823   4.663
 4318SOL     OW13852   1.514   6.111   3.861
 4318SOL    HW113853   1.416   6.132   3.854
 4318SOL    HW213854   1.526   6.013   3.876
 4319SOL     OW13855   1.979   4.438   1.705
 4319SOL    HW113856   2.074   4.437   1.736
 4319SOL    HW213857   1.919   4.463   1.781
 4320SOL     OW13858   3.877   1.022   1.674
 4320SOL    HW113859   3.832   0.975   1.749
 4320SOL    HW213860   3.819   1.097   1.642
 4321SOL     OW13861   6.669   5.671   3.118
 4321SOL    HW113862   6.674   5.723   3.203
 4321SOL    HW213863   6.665   5.573   3.139
 4322SOL     OW13864   2.713   2.114   4.663
 4322SOL    HW113865   2.624   2.073   4.645
 4322SOL    HW213866   2.740   2.171   4.585
 4323SOL     OW13867   5.312   4.113   1.420
 4323SOL    HW113868   5.251   4.036   1.438
 4323SOL    HW213869   5.385   4.084   1.359
 4324SOL     OW13870   6.640   3.803   5.168
 4324SOL    HW113871   6.654   3.766   5.260
 4324SOL    HW213872   6.575   3.746   5.118
 4325SOL     OW13873   1.484   0.739   1.247
 4325SOL    HW113874   1.535   0.804   1.304
 4325SOL    HW213875   1.430   0.789   1.179
 4326SOL     OW13876   4.822   2.800   2.980
 4326SOL    HW113877   4.918   2.775   2.970
 4326SOL    HW213878   4.807   2.891   2.942
 4327SOL     OW13879   3.155   6.889   3.793
 4327SOL    HW113880   3.113   6.813   3.843
 4327SOL    HW213881   3.173   6.860   3.699
 4328SOL     OW13882   6.379   7.017   2.291
 4328SOL    HW113883   6.333   0.081   2.310
 4328SOL    HW213884   6.411   7.017   2.196
 4329SOL     OW13885   6.067   4.232   0.357
 4329SOL    HW113886   5.968   4.245   0.360
 4329SOL    HW213887   6.111   4.321   0.340
 4330SOL     OW13888   2.655   5.460   5.181
 4330SOL    HW113889   2.559   5.456   5.207
 4330SOL    HW213890   2.665   5.513   5.096
 4331SOL     OW13891   5.986   1.574   2.932
 4331SOL    HW113892   5.935   1.542   2.852
 4331SOL    HW213893   5.988   1.501   3.001
 4332SOL     OW13894   7.000   5.718   1.072
 4332SOL    HW113895   7.007   5.688   0.977
 4332SOL    HW213896   6.905   5.716   1.101
 4333SOL     OW13897   3.357   2.800   6.045
 4333SOL    HW113898   3.445   2.765   6.015
 4333SOL    HW213899   3.284   2.741   6.011
 4334SOL     OW13900   0.478   2.362   3.859
 4334SOL    HW113901   0.477   2.275   3.908
 4334SOL    HW213902   0.499   2.346   3.763
 4335SOL     OW13903   2.260   3.653   1.550
 4335SOL    HW113904   2.186   3.607   1.598
 4335SOL    HW213905   2.291   3.732   1.603
 4336SOL     OW13906   2.294   5.163   5.303
 4336SOL    HW113907   2.367   5.104   5.337
 4336SOL    HW213908   2.212   5.109   5.286
 4337SOL     OW13909   6.963   4.565   4.166
 4337SOL    HW113910   6.870   4.601   4.173
 4337SOL    HW213911   6.958   4.466   4.149
 4338SOL     OW13912   3.417   3.006   5.394
 4338SOL    HW113913   3.435   3.084   5.334
 4338SOL    HW213914   3.333   2.961   5.365
 4339SOL     OW13915   4.223   4.045   5.473
 4339SOL    HW113916   4.237   4.000   5.385
 4339SOL    HW213917   4.232   4.144   5.463
 4340SOL     OW13918   0.025   3.948   0.302
 4340SOL    HW113919   6.998   3.861   0.306
 4340SOL    HW213920   0.007   4.001   0.384
 4341SOL     OW13921   6.211   5.912   1.110
 4341SOL    HW113922   6.170   5.833   1.155
 4341SOL    HW213923   6.281   5.881   1.045
 4342SOL     OW13924   4.943   3.738   2.619
 4342SOL    HW113925   4.945   3.761   2.716
 4342SOL    HW213926   4.942   3.821   2.565
 4343SOL     OW13927   4.648   0.388   6.305
 4343SOL    HW113928   4.677   0.418   6.214
 4343SOL    HW213929   4.589   0.307   6.297
 4344SOL     OW13930   1.285   3.964   1.764
 4344SOL    HW113931   1.261   3.874   1.800
 4344SOL    HW213932   1.298   4.028   1.839
 4345SOL     OW13933   3.935   2.978   2.974
 4345SOL    HW113934   3.874   3.057   2.973
 4345SOL    HW213935   3.976   2.966   2.883
 4346SOL     OW13936   1.194   3.957   2.724
 4346SOL    HW113937   1.196   3.979   2.821
 4346SOL    HW213938   1.126   3.885   2.707
 4347SOL     OW13939   6.330   5.757   0.869
 4347SOL    HW113940   6.312   5.685   0.802
 4347SOL    HW213941   6.306   5.846   0.830
 4348SOL     OW13942   6.413   4.211   6.019
 4348SOL    HW113943   6.502   4.257   6.023
 4348SOL    HW213944   6.421   4.121   6.062
 4349SOL     OW13945   1.038   4.217   4.246
 4349SOL    HW113946   0.948   4.196   4.207
 4349SOL    HW213947   1.080   4.133   4.281
 4350SOL     OW13948   5.291   0.244   4.165
 4350SOL    HW113949   5.294   0.291   4.076
 4350SOL    HW213950   5.335   0.155   4.157
 4351SOL     OW13951   0.623   5.868   1.063
 4351SOL    HW113952   0.535   5.847   1.021
 4351SOL    HW213953   0.667   5.942   1.012
 4352SOL     OW13954   3.445   4.168   1.392
 4352SOL    HW113955   3.380   4.169   1.468
 4352SOL    HW213956   3.500   4.252   1.393
 4353SOL     OW13957   2.056   3.996   0.106
 4353SOL    HW113958   2.057   3.956   0.198
 4353SOL    HW213959   2.130   4.062   0.097
 4354SOL     OW13960   5.127   5.478   2.000
 4354SOL    HW113961   5.190   5.417   2.049
 4354SOL    HW213962   5.039   5.434   1.990
 4355SOL     OW13963   1.928   4.916   3.492
 4355SOL    HW113964   2.009   4.859   3.508
 4355SOL    HW213965   1.917   4.930   3.393
 4356SOL     OW13966   6.010   1.839   5.686
 4356SOL    HW113967   5.956   1.879   5.760
 4356SOL    HW213968   5.980   1.878   5.598
 4357SOL     OW13969   5.346   5.843   2.956
 4357SOL    HW113970   5.431   5.871   2.911
 4357SOL    HW213971   5.316   5.914   3.019
 4358SOL     OW13972   2.707   0.647   1.295
 4358SOL    HW113973   2.620   0.643   1.247
 4358SOL    HW213974   2.709   0.578   1.367
 4359SOL     OW13975   2.553   2.303   1.068
 4359SOL    HW113976   2.600   2.318   0.980
 4359SOL    HW213977   2.614   2.252   1.129
 4360SOL     OW13978   3.139   5.957   3.679
 4360SOL    HW113979   3.208   5.918   3.617
 4360SOL    HW213980   3.182   6.027   3.736
 4361SOL     OW13981   1.551   1.127   6.792
 4361SOL    HW113982   1.525   1.221   6.816
 4361SOL    HW213983   1.528   1.110   6.696
 4362SOL     OW13984   0.059   5.748   2.643
 4362SOL    HW113985   0.017   5.661   2.669
 4362SOL    HW213986   7.013   5.805   2.598
 4363SOL     OW13987   3.747   0.295   2.245
 4363SOL    HW113988   3.839   0.256   2.240
 4363SOL    HW213989   3.725   0.316   2.341
 4364SOL     OW13990   3.035   3.811   3.458
 4364SOL    HW113991   3.061   3.900   3.497
 4364SOL    HW213992   2.984   3.758   3.525
 4365SOL     OW13993   2.729   1.398   1.009
 4365SOL    HW113994   2.811   1.342   1.000
 4365SOL    HW213995   2.751   1.493   0.985
 4366SOL     OW13996   4.772   5.282   5.025
 4366SOL    HW113997   4.804   5.329   4.943
 4366SOL    HW213998   4.694   5.224   5.002
 4367SOL     OW13999   2.194   6.939   1.605
 4367SOL    HW114000   2.182   6.840   1.611
 4367SOL    HW214001   2.252   6.970   1.680
 4368SOL     OW14002   4.920   4.381   4.503
 4368SOL    HW114003   5.019   4.385   4.489
 4368SOL    HW214004   4.895   4.295   4.547
 4369SOL     OW14005   5.998   4.553   3.700
 4369SOL    HW114006   6.027   4.462   3.731
 4369SOL    HW214007   5.912   4.546   3.650
 4370SOL     OW14008   4.470   4.747   0.645
 4370SOL    HW114009   4.563   4.734   0.678
 4370SOL    HW214010   4.418   4.662   0.654
 4371SOL     OW14011   3.634   1.450   3.271
 4371SOL    HW114012   3.639   1.549   3.283
 4371SOL    HW214013   3.583   1.409   3.346
 4372SOL     OW14014   1.684   4.564   4.733
 4372SOL    HW114015   1.691   4.601   4.640
 4372SOL    HW214016   1.589   4.563   4.762
 4373SOL     OW14017   4.436   0.336   0.448
 4373SOL    HW114018   4.528   0.310   0.478
 4373SOL    HW214019   4.442   0.408   0.380
 4374SOL     OW14020   2.387   6.028   0.494
 4374SOL    HW114021   2.365   6.116   0.451
 4374SOL    HW214022   2.381   6.038   0.593
 4375SOL     OW14023   4.985   1.224   5.914
 4375SOL    HW114024   4.941   1.271   5.991
 4375SOL    HW214025   4.956   1.129   5.912
 4376SOL     OW14026   3.255   5.173   0.011
 4376SOL    HW114027   3.160   5.202   7.021
 4376SOL    HW214028   3.266   5.079   6.998
 4377SOL     OW14029   5.409   5.806   6.379
 4377SOL    HW114030   5.336   5.829   6.314
 4377SOL    HW214031   5.445   5.890   6.419
 4378SOL     OW14032   3.336   4.841   1.484
 4378SOL    HW114033   3.249   4.889   1.469
 4378SOL    HW214034   3.408   4.908   1.498
 4379SOL     OW14035   6.795   6.153   0.393
 4379SOL    HW114036   6.775   6.251   0.396
 4379SOL    HW214037   6.854   6.134   0.315
 4380SOL     OW14038   2.085   5.516   4.963
 4380SOL    HW114039   2.037   5.501   4.876
 4380SOL    HW214040   2.064   5.607   4.998
 4381SOL     OW14041   3.374   6.118   4.616
 4381SOL    HW114042   3.469   6.090   4.606
 4381SOL    HW214043   3.359   6.204   4.567
 4382SOL     OW14044   5.204   4.292   3.035
 4382SOL    HW114045   5.118   4.305   2.985
 4382SOL    HW214046   5.185   4.286   3.133
 4383SOL     OW14047   1.471   0.486   0.608
 4383SOL    HW114048   1.446   0.555   0.540
 4383SOL    HW214049   1.388   0.455   0.655
 4384SOL     OW14050   3.764   6.730   2.012
 4384SOL    HW114051   3.764   6.800   1.941
 4384SOL    HW214052   3.829   6.756   2.084
 4385SOL     OW14053   6.365   2.628   4.012
 4385SOL    HW114054   6.338   2.539   3.974
 4385SOL    HW214055   6.283   2.683   4.030
 4386SOL     OW14056   2.047   5.004   6.717
 4386SOL    HW114057   1.986   5.004   6.638
 4386SOL    HW214058   2.135   5.044   6.692
 4387SOL     OW14059   5.919   1.992   1.079
 4387SOL    HW114060   5.966   2.080   1.069
 4387SOL    HW214061   5.919   1.965   1.176
 4388SOL     OW14062   4.080   1.144   6.066
 4388SOL    HW114063   4.023   1.106   5.993
 4388SOL    HW214064   4.176   1.118   6.050
 4389SOL     OW14065   0.193   2.660   2.885
 4389SOL    HW114066   0.245   2.746   2.884
 4389SOL    HW214067   0.256   2.584   2.902
 4390SOL     OW14068   4.264   3.777   1.014
 4390SOL    HW114069   4.340   3.715   0.994
 4390SOL    HW214070   4.265   3.801   1.111
 4391SOL     OW14071   0.800   5.877   0.465
 4391SOL    HW114072   0.727   5.851   0.529
 4391SOL    HW214073   0.799   5.815   0.387
 4392SOL     OW14074   5.293   5.144   5.212
 4392SOL    HW114075   5.215   5.101   5.167
 4392SOL    HW214076   5.353   5.074   5.249
 4393SOL     OW14077   5.234   6.703   2.842
 4393SOL    HW114078   5.244   6.662   2.752
 4393SOL    HW214079   5.325   6.721   2.880
 4394SOL     OW14080   4.422   0.431   2.108
 4394SOL    HW114081   4.339   0.468   2.148
 4394SOL    HW214082   4.403   0.340   2.071
 4395SOL     OW14083   4.500   2.251   1.059
 4395SOL    HW114084   4.444   2.331   1.077
 4395SOL    HW214085   4.491   2.225   0.963
 4396SOL     OW14086   1.290   1.480   2.923
 4396SOL    HW114087   1.292   1.405   2.988
 4396SOL    HW214088   1.211   1.471   2.863
 4397SOL     OW14089   4.551   0.698   6.917
 4397SOL    HW114090   4.457   0.727   6.933
 4397SOL    HW214091   4.552   0.602   6.890
 4398SOL     OW14092   0.429   5.083   4.536
 4398SOL    HW114093   0.456   5.074   4.440
 4398SOL    HW214094   0.480   5.158   4.578
 4399SOL     OW14095   2.975   0.702   2.020
 4399SOL    HW114096   2.913   0.714   1.943
 4399SOL    HW214097   3.018   0.789   2.042
 4400SOL     OW14098   3.292   4.898   2.634
 4400SOL    HW114099   3.294   4.898   2.734
 4400SOL    HW214100   3.200   4.873   2.603
 4401SOL     OW14101   5.457   6.075   4.806
 4401SOL    HW114102   5.436   6.165   4.845
 4401SOL    HW214103   5.536   6.036   4.853
 4402SOL     OW14104   6.546   6.465   1.326
 4402SOL    HW114105   6.521   6.402   1.399
 4402SOL    HW214106   6.589   6.414   1.251
 4403SOL     OW14107   6.461   1.320   2.926
 4403SOL    HW114108   6.482   1.226   2.951
 4403SOL    HW214109   6.378   1.323   2.871
 4404SOL     OW14110   2.078   4.102   2.378
 4404SOL    HW114111   1.993   4.130   2.422
 4404SOL    HW214112   2.077   4.004   2.361
 4405SOL     OW14113   2.529   3.906   6.239
 4405SOL    HW114114   2.487   3.996   6.243
 4405SOL    HW214115   2.535   3.876   6.144
 4406SOL     OW14116   6.327   2.672   2.010
 4406SOL    HW114117   6.282   2.608   2.072
 4406SOL    HW214118   6.426   2.669   2.026
 4407SOL     OW14119   1.131   1.030   0.276
 4407SOL    HW114120   1.180   1.104   0.230
 4407SOL    HW214121   1.054   1.001   0.218
 4408SOL     OW14122   3.854   6.350   1.316
 4408SOL    HW114123   3.937   6.375   1.367
 4408SOL    HW214124   3.853   6.252   1.299
 4409SOL     OW14125   3.384   2.151   2.539
 4409SOL    HW114126   3.411   2.185   2.449
 4409SOL    HW214127   3.297   2.102   2.532
 4410SOL     OW14128   2.123   5.802   1.112
 4410SOL    HW114129   2.208   5.767   1.153
 4410SOL    HW214130   2.098   5.746   1.034
 4411SOL     OW14131   3.894   3.403   2.432
 4411SOL    HW114132   3.851   3.386   2.521
 4411SOL    HW214133   3.825   3.403   2.360
 4412SOL     OW14134   4.109   1.431   6.458
 4412SOL    HW114135   4.075   1.490   6.384
 4412SOL    HW214136   4.205   1.408   6.441
 4413SOL     OW14137   4.129   5.462   4.017
 4413SOL    HW114138   4.170   5.406   3.946
 4413SOL    HW214139   4.121   5.556   3.985
 4414SOL     OW14140   3.463   4.936   2.061
 4414SOL    HW114141   3.482   5.026   2.022
 4414SOL    HW214142   3.519   4.866   2.015
 4415SOL     OW14143   4.763   1.668   1.934
 4415SOL    HW114144   4.749   1.736   2.006
 4415SOL    HW214145   4.682   1.610   1.926
 4416SOL     OW14146   2.331   2.309   4.334
 4416SOL    HW114147   2.340   2.263   4.423
 4416SOL    HW214148   2.370   2.401   4.340
 4417SOL     OW14149   6.153   6.828   0.909
 4417SOL    HW114150   6.121   6.911   0.954
 4417SOL    HW214151   6.080   6.759   0.910
 4418SOL     OW14152   4.934   0.444   3.252
 4418SOL    HW114153   5.023   0.399   3.243
 4418SOL    HW214154   4.862   0.375   3.246
 4419SOL     OW14155   5.985   5.353   6.294
 4419SOL    HW114156   5.973   5.326   6.199
 4419SOL    HW214157   6.034   5.440   6.298
 4420SOL     OW14158   5.040   1.035   0.965
 4420SOL    HW114159   5.095   1.117   0.949
 4420SOL    HW214160   5.061   0.967   0.896
 4421SOL     OW14161   6.997   1.174   3.365
 4421SOL    HW114162   0.010   1.108   3.298
 4421SOL    HW214163   6.942   1.243   3.318
 4422SOL     OW14164   1.654   3.860   5.726
 4422SOL    HW114165   1.671   3.946   5.677
 4422SOL    HW214166   1.737   3.804   5.724
 4423SOL     OW14167   0.029   1.743   6.101
 4423SOL    HW114168   0.081   1.705   6.024
 4423SOL    HW214169   0.079   1.822   6.138
 4424SOL     OW14170   1.839   5.354   3.660
 4424SOL    HW114171   1.762   5.410   3.691
 4424SOL    HW214172   1.807   5.290   3.590
 4425SOL     OW14173   4.841   3.620   1.848
 4425SOL    HW114174   4.822   3.718   1.839
 4425SOL    HW214175   4.936   3.602   1.823
 4426SOL     OW14176   0.254   6.952   6.795
 4426SOL    HW114177   0.180   6.968   6.860
 4426SOL    HW214178   0.303   6.868   6.820
 4427SOL     OW14179   1.071   5.436   3.110
 4427SOL    HW114180   1.092   5.421   3.206
 4427SOL    HW214181   1.025   5.355   3.073
 4428SOL     OW14182   1.023   6.840   2.838
 4428SOL    HW114183   0.962   6.856   2.916
 4428SOL    HW214184   1.042   6.742   2.831
 4429SOL     OW14185   3.078   0.451   2.864
 4429SOL    HW114186   3.062   0.442   2.962
 4429SOL    HW214187   3.013   0.393   2.814
 4430SOL     OW14188   2.004   0.740   2.012
 4430SOL    HW114189   1.981   0.779   2.101
 4430SOL    HW214190   1.922   0.700   1.971
 4431SOL     OW14191   1.979   2.196   3.246
 4431SOL    HW114192   2.019   2.113   3.206
 4431SOL    HW214193   1.881   2.184   3.256
 4432SOL     OW14194   2.917   3.653   4.513
 4432SOL    HW114195   2.906   3.560   4.479
 4432SOL    HW214196   2.923   3.716   4.436
 4433SOL     OW14197   6.761   0.306   2.569
 4433SOL    HW114198   6.832   0.355   2.620
 4433SOL    HW214199   6.757   0.341   2.476
 4434SOL     OW14200   5.849   2.092   5.280
 4434SOL    HW114201   5.817   2.121   5.370
 4434SOL    HW214202   5.771   2.087   5.217
 4435SOL     OW14203   3.519   2.951   1.696
 4435SOL    HW114204   3.462   3.012   1.751
 4435SOL    HW214205   3.493   2.960   1.600
 4436SOL     OW14206   5.677   0.317   6.862
 4436SOL    HW114207   5.693   0.392   6.927
 4436SOL    HW214208   5.595   0.337   6.808
 4437SOL     OW14209   3.322   0.134   6.000
 4437SOL    HW114210   3.228   0.100   6.009
 4437SOL    HW214211   3.321   0.232   5.979
 4438SOL     OW14212   3.781   2.496   6.562
 4438SOL    HW114213   3.734   2.430   6.504
 4438SOL    HW214214   3.754   2.589   6.536
 4439SOL     OW14215   1.578   4.345   3.006
 4439SOL    HW114216   1.620   4.348   2.915
 4439SOL    HW214217   1.503   4.278   3.005
 4440SOL     OW14218   6.393   1.063   0.634
 4440SOL    HW114219   6.352   0.975   0.612
 4440SOL    HW214220   6.323   1.135   0.628
 4441SOL     OW14221   6.579   0.137   4.030
 4441SOL    HW114222   6.661   0.166   4.079
 4441SOL    HW214223   6.605   0.074   3.956
 4442SOL     OW14224   1.596   5.551   2.249
 4442SOL    HW114225   1.594   5.613   2.328
 4442SOL    HW214226   1.667   5.482   2.262
 4443SOL     OW14227   2.537   1.209   0.980
 4443SOL    HW114228   2.596   1.284   1.010
 4443SOL    HW214229   2.529   1.141   1.054
 4444SOL     OW14230   5.004   1.504   3.094
 4444SOL    HW114231   5.071   1.548   3.034
 4444SOL    HW214232   4.932   1.462   3.039
 4445SOL     OW14233   0.644   1.305   6.191
 4445SOL    HW114234   0.728   1.286   6.243
 4445SOL    HW214235   0.663   1.297   6.093
 4446SOL     OW14236   6.026   5.131   3.955
 4446SOL    HW114237   5.988   5.070   4.025
 4446SOL    HW214238   6.107   5.177   3.991
 4447SOL     OW14239   4.893   3.851   5.152
 4447SOL    HW114240   4.890   3.767   5.098
 4447SOL    HW214241   4.838   3.840   5.235
 4448SOL     OW14242   2.293   3.488   6.834
 4448SOL    HW114243   2.298   3.475   6.735
 4448SOL    HW214244   2.287   3.400   6.880
 4449SOL     OW14245   0.156   1.046   5.660
 4449SOL    HW114246   0.198   1.121   5.608
 4449SOL    HW214247   0.080   1.009   5.607
 4450SOL     OW14248   3.789   3.701   3.280
 4450SOL    HW114249   3.861   3.665   3.221
 4450SOL    HW214250   3.807   3.675   3.375
 4451SOL     OW14251   0.189   4.682   0.942
 4451SOL    HW114252   0.289   4.687   0.938
 4451SOL    HW214253   0.156   4.742   1.016
 4452SOL     OW14254   6.956   3.497   6.455
 4452SOL    HW114255   6.893   3.574   6.459
 4452SOL    HW214256   0.023   3.528   6.425
 4453SOL     OW14257   5.603   0.756   0.531
 4453SOL    HW114258   5.598   0.831   0.597
 4453SOL    HW214259   5.565   0.673   0.572
 4454SOL     OW14260   5.415   2.829   1.682
 4454SOL    HW114261   5.400   2.773   1.601
 4454SOL    HW214262   5.514   2.841   1.696
 4455SOL     OW14263   4.305   2.384   2.712
 4455SOL    HW114264   4.235   2.342   2.769
 4455SOL    HW214265   4.282   2.371   2.616
 4456SOL     OW14266   0.401   5.663   2.313
 4456SOL    HW114267   0.316   5.709   2.339
 4456SOL    HW214268   0.474   5.730   2.305
 4457SOL     OW14269   4.263   2.449   6.572
 4457SOL    HW114270   4.173   2.440   6.615
 4457SOL    HW214271   4.256   2.428   6.475
 4458SOL     OW14272   4.203   1.655   1.353
 4458SOL    HW114273   4.203   1.752   1.327
 4458SOL    HW214274   4.296   1.620   1.351
 4459SOL     OW14275   5.898   6.028   5.709
 4459SOL    HW114276   5.846   6.092   5.765
 4459SOL    HW214277   5.958   6.078   5.647
 4460SOL     OW14278   1.299   1.694   0.507
 4460SOL    HW114279   1.236   1.677   0.431
 4460SOL    HW214280   1.247   1.703   0.592
 4461SOL     OW14281   1.845   6.824   2.801
 4461SOL    HW114282   1.890   6.742   2.767
 4461SOL    HW214283   1.894   6.905   2.767
 4462SOL     OW14284   0.002   3.988   0.592
 4462SOL    HW114285   0.002   3.892   0.622
 4462SOL    HW214286   0.095   4.025   0.600
 4463SOL     OW14287   0.883   4.252   6.862
 4463SOL    HW114288   0.971   4.299   6.862
 4463SOL    HW214289   0.810   4.316   6.888
 4464SOL     OW14290   6.674   2.633   6.816
 4464SOL    HW114291   6.699   2.536   6.829
 4464SOL    HW214292   6.599   2.657   6.878
 4465SOL     OW14293   6.162   5.112   0.891
 4465SOL    HW114294   6.182   5.026   0.937
 4465SOL    HW214295   6.151   5.185   0.959
 4466SOL     OW14296   7.019   3.214   3.282
 4466SOL    HW114297   0.071   3.222   3.215
 4466SOL    HW214298   0.032   3.236   3.373
 4467SOL     OW14299   1.257   0.690   4.028
 4467SOL    HW114300   1.289   0.595   4.020
 4467SOL    HW214301   1.204   0.714   3.947
 4468SOL     OW14302   1.437   2.005   0.733
 4468SOL    HW114303   1.420   1.987   0.636
 4468SOL    HW214304   1.532   1.983   0.755
 4469SOL     OW14305   4.996   6.693   0.779
 4469SOL    HW114306   5.034   6.766   0.836
 4469SOL    HW214307   4.975   6.614   0.836
 4470SOL     OW14308   4.727   4.772   1.693
 4470SOL    HW114309   4.763   4.688   1.733
 4470SOL    HW214310   4.801   4.821   1.646
 4471SOL     OW14311   5.860   2.578   1.987
 4471SOL    HW114312   5.803   2.559   1.906
 4471SOL    HW214313   5.863   2.497   2.045
 4472SOL     OW14314   2.252   5.036   1.462
 4472SOL    HW114315   2.283   5.131   1.462
 4472SOL    HW214316   2.331   4.975   1.471
 4473SOL     OW14317   6.025   0.665   0.287
 4473SOL    HW114318   5.957   0.689   0.218
 4473SOL    HW214319   6.063   0.748   0.327
 4474SOL     OW14320   6.294   0.804   4.379
 4474SOL    HW114321   6.202   0.775   4.355
 4474SOL    HW214322   6.314   0.893   4.337
 4475SOL     OW14323   1.519   3.127   0.524
 4475SOL    HW114324   1.572   3.142   0.607
 4475SOL    HW214325   1.423   3.110   0.548
 4476SOL     OW14326   4.207   6.294   2.914
 4476SOL    HW114327   4.225   6.375   2.969
 4476SOL    HW214328   4.207   6.213   2.973
 4477SOL     OW14329   1.836   2.188   1.171
 4477SOL    HW114330   1.930   2.175   1.200
 4477SOL    HW214331   1.832   2.198   1.071
 4478SOL     OW14332   1.377   4.935   1.061
 4478SOL    HW114333   1.343   4.886   0.981
 4478SOL    HW214334   1.413   4.869   1.128
 4479SOL     OW14335   1.789   0.201   6.060
 4479SOL    HW114336   1.744   0.127   6.009
 4479SOL    HW214337   1.825   0.269   5.996
 4480SOL     OW14338   0.086   4.126   3.199
 4480SOL    HW114339   0.182   4.100   3.191
 4480SOL    HW214340   0.037   4.058   3.254
 4481SOL     OW14341   0.560   1.117   4.182
 4481SOL    HW114342   0.636   1.082   4.128
 4481SOL    HW214343   0.532   1.206   4.146
 4482SOL     OW14344   1.020   4.072   3.107
 4482SOL    HW114345   1.112   4.048   3.075
 4482SOL    HW214346   0.965   3.989   3.118
 4483SOL     OW14347   5.318   3.491   0.383
 4483SOL    HW114348   5.323   3.403   0.429
 4483SOL    HW214349   5.403   3.507   0.332
 4484SOL     OW14350   3.225   3.755   6.687
 4484SOL    HW114351   3.156   3.786   6.753
 4484SOL    HW214352   3.227   3.655   6.685
 4485SOL     OW14353   4.835   6.961   6.214
 4485SOL    HW114354   4.774   6.923   6.284
 4485SOL    HW214355   4.785   0.007   6.160
 4486SOL     OW14356   6.222   3.493   4.110
 4486SOL    HW114357   6.312   3.500   4.154
 4486SOL    HW214358   6.152   3.524   4.173
 4487SOL     OW14359   3.046   3.320   5.790
 4487SOL    HW114360   2.995   3.401   5.817
 4487SOL    HW214361   3.129   3.312   5.846
 4488SOL     OW14362   6.774   2.122   6.493
 4488SOL    HW114363   6.696   2.070   6.459
 4488SOL    HW214364   6.855   2.099   6.439
 4489SOL     OW14365   0.959   0.879   2.433
 4489SOL    HW114366   0.913   0.842   2.352
 4489SOL    HW214367   0.904   0.955   2.470
 4490SOL     OW14368   6.800   1.783   4.448
 4490SOL    HW114369   6.878   1.743   4.497
 4490SOL    HW214370   6.821   1.878   4.423
 4491SOL     OW14371   1.705   4.239   2.300
 4491SOL    HW114372   1.708   4.153   2.250
 4491SOL    HW214373   1.665   4.223   2.391
 4492SOL     OW14374   4.980   4.144   5.989
 4492SOL    HW114375   5.040   4.203   6.043
 4492SOL    HW214376   4.951   4.065   6.043
 4493SOL     OW14377   5.929   4.433   3.334
 4493SOL    HW114378   5.965   4.340   3.345
 4493SOL    HW214379   5.996   4.499   3.366
 4494SOL     OW14380   5.874   1.846   2.018
 4494SOL    HW114381   5.894   1.902   2.097
 4494SOL    HW214382   5.828   1.901   1.948
 4495SOL     OW14383   5.363   5.703   1.582
 4495SOL    HW114384   5.319   5.614   1.574
 4495SOL    HW214385   5.303   5.765   1.633
 4496SOL     OW14386   6.313   3.539   5.943
 4496SOL    HW114387   6.343   3.564   6.035
 4496SOL    HW214388   6.290   3.621   5.891
 4497SOL     OW14389   6.710   5.866   0.771
 4497SOL    HW114390   6.766   5.900   0.696
 4497SOL    HW214391   6.682   5.943   0.828
 4498SOL     OW14392   1.134   4.316   6.376
 4498SOL    HW114393   1.195   4.371   6.433
 4498SOL    HW214394   1.054   4.289   6.430
 4499SOL     OW14395   5.248   3.627   0.007
 4499SOL    HW114396   5.179   3.554   0.010
 4499SOL    HW214397   5.316   3.611   0.078
 4500SOL     OW14398   4.071   3.686   2.570
 4500SOL    HW114399   4.128   3.649   2.497
 4500SOL    HW214400   4.054   3.616   2.639
 4501SOL     OW14401   1.394   4.837   4.987
 4501SOL    HW114402   1.374   4.789   4.902
 4501SOL    HW214403   1.415   4.770   5.059
 4502SOL     OW14404   5.614   2.439   0.165
 4502SOL    HW114405   5.576   2.531   0.159
 4502SOL    HW214406   5.690   2.430   0.100
 4503SOL     OW14407   1.256   3.281   2.609
 4503SOL    HW114408   1.311   3.205   2.645
 4503SOL    HW214409   1.307   3.366   2.618
 4504SOL     OW14410   4.433   2.401   4.507
 4504SOL    HW114411   4.348   2.394   4.455
 4504SOL    HW214412   4.413   2.411   4.604
 4505SOL     OW14413   1.955   4.972   0.689
 4505SOL    HW114414   2.037   4.927   0.725
 4505SOL    HW214415   1.923   5.041   0.754
 4506SOL     OW14416   3.565   0.338   5.849
 4506SOL    HW114417   3.555   0.410   5.780
 4506SOL    HW214418   3.608   0.258   5.807
 4507SOL     OW14419   6.135   3.627   2.314
 4507SOL    HW114420   6.132   3.580   2.226
 4507SOL    HW214421   6.063   3.696   2.318
 4508SOL     OW14422   1.920   4.125   0.501
 4508SOL    HW114423   1.907   4.146   0.598
 4508SOL    HW214424   1.874   4.039   0.479
 4509SOL     OW14425   0.562   2.717   2.921
 4509SOL    HW114426   0.490   2.778   2.954
 4509SOL    HW214427   0.592   2.746   2.830
 4510SOL     OW14428   2.863   6.687   6.087
 4510SOL    HW114429   2.833   6.638   6.169
 4510SOL    HW214430   2.922   6.627   6.033
 4511SOL     OW14431   6.786   2.139   0.192
 4511SOL    HW114432   6.720   2.213   0.207
 4511SOL    HW214433   6.762   2.061   0.249
 4512SOL     OW14434   2.452   4.029   6.877
 4512SOL    HW114435   2.534   4.016   6.933
 4512SOL    HW214436   2.472   4.095   6.804
 4513SOL     OW14437   6.094   1.102   3.011
 4513SOL    HW114438   6.066   1.143   2.924
 4513SOL    HW214439   6.192   1.084   3.010
 4514SOL     OW14440   2.591   0.395   5.427
 4514SOL    HW114441   2.528   0.462   5.467
 4514SOL    HW214442   2.685   0.424   5.442
 4515SOL     OW14443   0.024   5.088   0.204
 4515SOL    HW114444   0.011   5.159   0.135
 4515SOL    HW214445   0.118   5.055   0.201
 4516SOL     OW14446   0.543   6.943   3.599
 4516SOL    HW114447   0.548   6.892   3.513
 4516SOL    HW214448   0.613   6.909   3.662
 4517SOL     OW14449   2.730   1.086   6.841
 4517SOL    HW114450   2.647   1.108   6.891
 4517SOL    HW214451   2.809   1.129   6.886
 4518SOL     OW14452   1.553   6.679   3.689
 4518SOL    HW114453   1.476   6.690   3.625
 4518SOL    HW214454   1.573   6.582   3.700
 4519SOL     OW14455   6.763   1.959   4.922
 4519SOL    HW114456   6.828   2.034   4.931
 4519SOL    HW214457   6.748   1.939   4.825
 4520SOL     OW14458   6.966   3.732   2.654
 4520SOL    HW114459   6.991   3.816   2.702
 4520SOL    HW214460   6.951   3.752   2.557
 4521SOL     OW14461   5.356   1.487   6.625
 4521SOL    HW114462   5.434   1.543   6.598
 4521SOL    HW214463   5.274   1.544   6.633
 4522SOL     OW14464   5.764   6.625   3.255
 4522SOL    HW114465   5.735   6.538   3.296
 4522SOL    HW214466   5.691   6.692   3.264
 4523SOL     OW14467   4.893   2.371   5.493
 4523SOL    HW114468   4.910   2.452   5.548
 4523SOL    HW214469   4.795   2.361   5.477
 4524SOL     OW14470   5.992   0.240   5.158
 4524SOL    HW114471   6.069   0.272   5.103
 4524SOL    HW214472   5.984   0.296   5.241
 4525SOL     OW14473   6.589   1.136   4.324
 4525SOL    HW114474   6.573   1.214   4.262
 4525SOL    HW214475   6.642   1.167   4.403
 4526SOL     OW14476   3.226   1.534   1.639
 4526SOL    HW114477   3.280   1.539   1.722
 4526SOL    HW214478   3.211   1.627   1.603
 4527SOL     OW14479   4.471   6.282   4.352
 4527SOL    HW114480   4.483   6.215   4.278
 4527SOL    HW214481   4.447   6.371   4.313
 4528SOL     OW14482   4.761   0.138   6.028
 4528SOL    HW114483   4.668   0.173   6.013
 4528SOL    HW214484   4.828   0.210   6.010
 4529SOL     OW14485   3.339   0.047   3.937
 4529SOL    HW114486   3.292   0.051   4.025
 4529SOL    HW214487   3.291   7.005   3.877
 4530SOL     OW14488   0.099   2.366   4.307
 4530SOL    HW114489   0.081   2.369   4.208
 4530SOL    HW214490   0.129   2.456   4.338
 4531SOL     OW14491   0.826   4.164   4.060
 4531SOL    HW114492   0.813   4.066   4.045
 4531SOL    HW214493   0.766   4.215   3.999
 4532SOL     OW14494   0.581   2.164   0.399
 4532SOL    HW114495   0.584   2.065   0.381
 4532SOL    HW214496   0.660   2.190   0.453
 4533SOL     OW14497   3.395   6.123   2.415
 4533SOL    HW114498   3.439   6.213   2.416
 4533SOL    HW214499   3.320   6.122   2.482
 4534SOL     OW14500   6.672   4.289   5.981
 4534SOL    HW114501   6.712   4.343   5.907
 4534SOL    HW214502   6.738   4.280   6.055
 4535SOL     OW14503   5.228   2.498   3.115
 4535SOL    HW114504   5.298   2.477   3.047
 4535SOL    HW214505   5.149   2.438   3.102
 4536SOL     OW14506   6.862   0.145   3.755
 4536SOL    HW114507   6.816   0.225   3.793
 4536SOL    HW214508   6.955   0.139   3.792
 4537SOL     OW14509   4.816   3.362   6.030
 4537SOL    HW114510   4.851   3.353   5.937
 4537SOL    HW214511   4.802   3.272   6.070
 4538SOL     OW14512   3.423   2.200   1.786
 4538SOL    HW114513   3.443   2.144   1.706
 4538SOL    HW214514   3.507   2.245   1.818
 4539SOL     OW14515   2.404   2.561   1.915
 4539SOL    HW114516   2.459   2.621   1.857
 4539SOL    HW214517   2.419   2.584   2.011
 4540SOL     OW14518   3.502   2.919   4.960
 4540SOL    HW114519   3.493   2.828   5.001
 4540SOL    HW214520   3.544   2.910   4.870
 4541SOL     OW14521   6.093   1.097   1.876
 4541SOL    HW114522   6.098   1.086   1.777
 4541SOL    HW214523   6.171   1.052   1.919
 4542SOL     OW14524   5.274   6.704   3.295
 4542SOL    HW114525   5.249   6.644   3.219
 4542SOL    HW214526   5.219   6.787   3.292
 4543SOL     OW14527   5.800   2.800   2.337
 4543SOL    HW114528   5.882   2.747   2.356
 4543SOL    HW214529   5.755   2.823   2.424
 4544SOL     OW14530   5.421   5.285   6.401
 4544SOL    HW114531   5.388   5.351   6.334
 4544SOL    HW214532   5.499   5.236   6.363
 4545SOL     OW14533   3.717   4.176   6.118
 4545SOL    HW114534   3.639   4.113   6.124
 4545SOL    HW214535   3.685   4.270   6.122
 4546SOL     OW14536   0.496   6.131   6.802
 4546SOL    HW114537   0.565   6.078   6.851
 4546SOL    HW214538   0.449   6.072   6.736
 4547SOL     OW14539   4.689   1.539   2.321
 4547SOL    HW114540   4.755   1.465   2.337
 4547SOL    HW214541   4.599   1.511   2.354
 4548SOL     OW14542   0.856   3.528   4.212
 4548SOL    HW114543   0.871   3.540   4.310
 4548SOL    HW214544   0.937   3.556   4.162
 4549SOL     OW14545   5.656   1.691   2.570
 4549SOL    HW114546   5.621   1.747   2.645
 4549SOL    HW214547   5.626   1.729   2.483
 4550SOL     OW14548   2.435   5.453   4.309
 4550SOL    HW114549   2.473   5.439   4.218
 4550SOL    HW214550   2.338   5.429   4.309
 4551SOL     OW14551   6.711   3.454   0.550
 4551SOL    HW114552   6.783   3.468   0.618
 4551SOL    HW214553   6.726   3.367   0.503
 4552SOL     OW14554   6.888   2.844   4.377
 4552SOL    HW114555   6.927   2.890   4.457
 4552SOL    HW214556   6.857   2.753   4.403
 4553SOL     OW14557   5.227   5.091   6.374
 4553SOL    HW114558   5.286   5.150   6.429
 4553SOL    HW214559   5.226   4.999   6.414
 4554SOL     OW14560   6.648   6.760   3.925
 4554SOL    HW114561   6.644   6.850   3.882
 4554SOL    HW214562   6.556   6.730   3.950
 4555SOL     OW14563   3.693   3.076   7.009
 4555SOL    HW114564   3.683   3.175   7.002
 4555SOL    HW214565   3.719   3.052   0.081
 4556SOL     OW14566   4.670   0.330   5.182
 4556SOL    HW114567   4.692   0.410   5.126
 4556SOL    HW214568   4.570   0.320   5.187
 4557SOL     OW14569   5.387   1.282   4.440
 4557SOL    HW114570   5.346   1.339   4.369
 4557SOL    HW214571   5.478   1.252   4.410
 4558SOL     OW14572   6.778   3.031   6.192
 4558SOL    HW114573   6.792   2.941   6.149
 4558SOL    HW214574   6.867   3.072   6.213
 4559SOL     OW14575   1.284   6.303   1.453
 4559SOL    HW114576   1.248   6.245   1.526
 4559SOL    HW214577   1.360   6.357   1.489
 4560SOL     OW14578   5.505   3.004   2.439
 4560SOL    HW114579   5.415   2.969   2.410
 4560SOL    HW214580   5.566   2.927   2.456
 4561SOL     OW14581   3.599   6.608   6.501
 4561SOL    HW114582   3.539   6.664   6.443
 4561SOL    HW214583   3.605   6.516   6.462
 4562SOL     OW14584   2.316   4.461   5.709
 4562SOL    HW114585   2.346   4.450   5.614
 4562SOL    HW214586   2.253   4.387   5.732
 4563SOL     OW14587   5.951   2.206   6.647
 4563SOL    HW114588   6.041   2.239   6.674
 4563SOL    HW214589   5.947   2.195   6.548
 4564SOL     OW14590   0.949   4.997   6.870
 4564SOL    HW114591   0.918   5.011   6.964
 4564SOL    HW214592   1.048   5.010   6.864
 4565SOL     OW14593   2.759   1.131   4.040
 4565SOL    HW114594   2.801   1.215   4.006
 4565SOL    HW214595   2.748   1.066   3.965
 4566SOL     OW14596   1.686   0.928   1.083
 4566SOL    HW114597   1.757   0.983   1.039
 4566SOL    HW214598   1.690   0.942   1.182
 4567SOL     OW14599   5.627   1.785   0.672
 4567SOL    HW114600   5.603   1.804   0.767
 4567SOL    HW214601   5.606   1.864   0.615
 4568SOL     OW14602   4.342   4.636   4.107
 4568SOL    HW114603   4.263   4.692   4.131
 4568SOL    HW214604   4.400   4.623   4.187
 4569SOL     OW14605   0.964   1.845   3.152
 4569SOL    HW114606   0.936   1.847   3.248
 4569SOL    HW214607   1.026   1.767   3.137
 4570SOL     OW14608   5.645   5.642   4.750
 4570SOL    HW114609   5.547   5.624   4.744
 4570SOL    HW214610   5.665   5.731   4.709
 4571SOL     OW14611   3.823   2.921   4.040
 4571SOL    HW114612   3.809   2.825   4.064
 4571SOL    HW214613   3.742   2.957   3.993
 4572SOL     OW14614   2.318   5.302   1.345
 4572SOL    HW114615   2.304   5.353   1.261
 4572SOL    HW214616   2.416   5.282   1.356
 4573SOL     OW14617   5.430   0.377   1.128
 4573SOL    HW114618   5.446   0.438   1.206
 4573SOL    HW214619   5.360   0.417   1.069
 4574SOL     OW14620   0.068   4.445   1.478
 4574SOL    HW114621   0.132   4.381   1.435
 4574SOL    HW214622   0.023   4.500   1.408
 4575SOL     OW14623   6.347   6.371   1.763
 4575SOL    HW114624   6.271   6.311   1.790
 4575SOL    HW214625   6.316   6.466   1.764
 4576SOL     OW14626   3.302   6.156   3.769
 4576SOL    HW114627   3.309   6.192   3.676
 4576SOL    HW214628   3.331   6.226   3.834
 4577SOL     OW14629   1.873   3.379   3.792
 4577SOL    HW114630   1.858   3.476   3.775
 4577SOL    HW214631   1.784   3.332   3.792
 4578SOL     OW14632   6.785   6.020   4.085
 4578SOL    HW114633   6.828   6.107   4.109
 4578SOL    HW214634   6.712   6.035   4.019
 4579SOL     OW14635   4.875   2.125   3.686
 4579SOL    HW114636   4.847   2.195   3.621
 4579SOL    HW214637   4.885   2.167   3.777
 4580SOL     OW14638   0.689   5.104   6.816
 4580SOL    HW114639   0.727   5.193   6.790
 4580SOL    HW214640   0.762   5.043   6.846
 4581SOL     OW14641   3.231   6.186   5.224
 4581SOL    HW114642   3.145   6.198   5.274
 4581SOL    HW214643   3.211   6.174   5.127
 4582SOL     OW14644   5.152   6.966   3.266
 4582SOL    HW114645   5.147   7.009   3.356
 4582SOL    HW214646   5.099   7.020   3.201
 4583SOL     OW14647   3.635   0.550   5.456
 4583SOL    HW114648   3.710   0.564   5.521
 4583SOL    HW214649   3.562   0.499   5.501
 4584SOL     OW14650   0.314   4.986   5.403
 4584SOL    HW114651   0.319   5.082   5.374
 4584SOL    HW214652   0.333   4.979   5.501
 4585SOL     OW14653   3.183   6.226   2.248
 4585SOL    HW114654   3.254   6.198   2.313
 4585SOL    HW214655   3.212   6.205   2.155
 4586SOL     OW14656   2.932   5.982   1.396
 4586SOL    HW114657   2.871   5.942   1.328
 4586SOL    HW214658   2.949   6.078   1.374
 4587SOL     OW14659   3.208   5.046   0.858
 4587SOL    HW114660   3.206   4.965   0.917
 4587SOL    HW214661   3.131   5.105   0.878
 4588SOL     OW14662   3.174   4.081   5.033
 4588SOL    HW114663   3.221   4.120   4.954
 4588SOL    HW214664   3.129   4.154   5.085
 4589SOL     OW14665   1.453   2.054   3.200
 4589SOL    HW114666   1.367   2.018   3.162
 4589SOL    HW214667   1.490   1.989   3.265
 4590SOL     OW14668   4.176   6.542   3.285
 4590SOL    HW114669   4.224   6.469   3.334
 4590SOL    HW214670   4.120   6.594   3.350
 4591SOL     OW14671   5.848   6.172   4.997
 4591SOL    HW114672   5.759   6.218   4.990
 4591SOL    HW214673   5.877   6.170   5.092
 4592SOL     OW14674   3.612   1.224   5.787
 4592SOL    HW114675   3.604   1.146   5.850
 4592SOL    HW214676   3.529   1.280   5.793
 4593SOL     OW14677   5.022   6.686   1.869
 4593SOL    HW114678   5.104   6.711   1.921
 4593SOL    HW214679   4.950   6.754   1.885
 4594SOL     OW14680   3.839   2.104   2.742
 4594SOL    HW114681   3.823   2.115   2.644
 4594SOL    HW214682   3.752   2.098   2.790
 4595SOL     OW14683   4.466   3.251   5.594
 4595SOL    HW114684   4.563   3.275   5.604
 4595SOL    HW214685   4.412   3.334   5.579
 4596SOL     OW14686   4.801   0.364   2.663
 4596SOL    HW114687   4.804   0.348   2.762
 4596SOL    HW214688   4.807   0.462   2.645
 4597SOL     OW14689   6.436   3.976   5.604
 4597SOL    HW114690   6.534   3.968   5.623
 4597SOL    HW214691   6.420   3.970   5.506
 4598SOL     OW14692   2.712   4.286   0.147
 4598SOL    HW114693   2.725   4.203   0.092
 4598SOL    HW214694   2.798   4.310   0.191
 4599SOL     OW14695   3.251   5.450   0.271
 4599SOL    HW114696   3.341   5.439   0.314
 4599SOL    HW214697   3.237   5.378   0.203
 4600SOL     OW14698   2.937   3.798   0.934
 4600SOL    HW114699   3.016   3.854   0.909
 4600SOL    HW214700   2.937   3.783   1.033
 4601SOL     OW14701   2.077   5.386   4.101
 4601SOL    HW114702   2.051   5.289   4.109
 4601SOL    HW214703   2.066   5.416   4.007
 4602SOL     OW14704   1.691   0.271   1.352
 4602SOL    HW114705   1.641   0.194   1.392
 4602SOL    HW214706   1.630   0.350   1.348
 4603SOL     OW14707   2.760   1.277   1.908
 4603SOL    HW114708   2.844   1.331   1.904
 4603SOL    HW214709   2.772   1.200   1.971
 4604SOL     OW14710   1.212   0.289   2.785
 4604SOL    HW114711   1.277   0.364   2.796
 4604SOL    HW214712   1.201   0.240   2.871
 4605SOL     OW14713   5.199   6.217   5.551
 4605SOL    HW114714   5.277   6.160   5.524
 4605SOL    HW214715   5.120   6.159   5.569
 4606SOL     OW14716   6.463   6.364   4.684
 4606SOL    HW114717   6.395   6.424   4.642
 4606SOL    HW214718   6.420   6.279   4.712
 4607SOL     OW14719   2.745   3.019   1.015
 4607SOL    HW114720   2.656   2.980   0.990
 4607SOL    HW214721   2.746   3.116   0.992
 4608SOL     OW14722   0.742   3.398   5.641
 4608SOL    HW114723   0.736   3.332   5.716
 4608SOL    HW214724   0.763   3.350   5.556
 4609SOL     OW14725   3.184   0.339   0.999
 4609SOL    HW114726   3.283   0.334   1.007
 4609SOL    HW214727   3.157   0.331   0.903
 4610SOL     OW14728   6.667   3.647   6.580
 4610SOL    HW114729   6.647   3.744   6.565
 4610SOL    HW214730   6.631   3.593   6.504
 4611SOL     OW14731   1.718   4.527   6.908
 4611SOL    HW114732   1.672   4.480   6.984
 4611SOL    HW214733   1.651   4.548   6.837
 4612SOL     OW14734   1.965   0.409   6.256
 4612SOL    HW114735   2.003   0.402   6.348
 4612SOL    HW214736   1.892   0.477   6.255
 4613SOL     OW14737   3.331   4.761   1.747
 4613SOL    HW114738   3.411   4.705   1.768
 4613SOL    HW214739   3.339   4.798   1.655
 4614SOL     OW14740   2.262   5.099   6.612
 4614SOL    HW114741   2.270   5.074   6.516
 4614SOL    HW214742   2.350   5.086   6.657
 4615SOL     OW14743   6.585   3.191   6.152
 4615SOL    HW114744   6.563   3.164   6.058
 4615SOL    HW214745   6.664   3.139   6.184
 4616SOL     OW14746   5.732   1.005   6.408
 4616SOL    HW114747   5.805   0.976   6.470
 4616SOL    HW214748   5.754   0.974   6.315
 4617SOL     OW14749   6.767   3.507   1.676
 4617SOL    HW114750   6.715   3.482   1.758
 4617SOL    HW214751   6.723   3.469   1.595
 4618SOL     OW14752   0.521   2.997   6.597
 4618SOL    HW114753   0.493   3.093   6.603
 4618SOL    HW214754   0.621   2.992   6.590
 4619SOL     OW14755   4.429   0.553   3.727
 4619SOL    HW114756   4.452   0.544   3.824
 4619SOL    HW214757   4.381   0.471   3.696
 4620SOL     OW14758   2.457   5.830   0.159
 4620SOL    HW114759   2.421   5.884   0.083
 4620SOL    HW214760   2.393   5.756   0.181
 4621SOL     OW14761   6.954   0.460   6.173
 4621SOL    HW114762   6.878   0.401   6.201
 4621SOL    HW214763   6.958   0.540   6.234
 4622SOL     OW14764   1.858   4.167   0.755
 4622SOL    HW114765   1.825   4.254   0.793
 4622SOL    HW214766   1.914   4.121   0.823
 4623SOL     OW14767   5.454   3.986   2.877
 4623SOL    HW114768   5.533   4.045   2.893
 4623SOL    HW214769   5.459   3.947   2.785
 4624SOL     OW14770   4.721   6.826   5.860
 4624SOL    HW114771   4.645   6.887   5.882
 4624SOL    HW214772   4.783   6.873   5.796
 4625SOL     OW14773   1.303   3.886   6.207
 4625SOL    HW114774   1.332   3.973   6.247
 4625SOL    HW214775   1.384   3.830   6.188
 4626SOL     OW14776   5.522   4.519   2.095
 4626SOL    HW114777   5.422   4.515   2.103
 4626SOL    HW214778   5.562   4.454   2.160
 4627SOL     OW14779   1.587   6.778   5.463
 4627SOL    HW114780   1.622   6.797   5.555
 4627SOL    HW214781   1.600   6.681   5.442
 4628SOL     OW14782   6.585   2.782   1.713
 4628SOL    HW114783   6.659   2.835   1.672
 4628SOL    HW214784   6.499   2.802   1.666
 4629SOL     OW14785   4.384   5.390   4.152
 4629SOL    HW114786   4.401   5.365   4.248
 4629SOL    HW214787   4.341   5.313   4.105
 4630SOL     OW14788   2.274   6.399   2.647
 4630SOL    HW114789   2.274   6.482   2.704
 4630SOL    HW214790   2.207   6.334   2.684
 4631SOL     OW14791   1.992   0.309   3.127
 4631SOL    HW114792   1.942   0.352   3.052
 4631SOL    HW214793   2.089   0.333   3.121
 4632SOL     OW14794   5.413   6.081   4.088
 4632SOL    HW114795   5.481   6.122   4.149
 4632SOL    HW214796   5.372   6.152   4.031
 4633SOL     OW14797   5.147   2.583   5.460
 4633SOL    HW114798   5.137   2.535   5.547
 4633SOL    HW214799   5.163   2.517   5.386
 4634SOL     OW14800   2.944   4.513   0.284
 4634SOL    HW114801   2.871   4.491   0.349
 4634SOL    HW214802   2.961   4.435   0.225
 4635SOL     OW14803   4.911   3.264   1.580
 4635SOL    HW114804   4.841   3.193   1.590
 4635SOL    HW214805   4.959   3.275   1.667
 4636SOL     OW14806   0.588   5.806   1.573
 4636SOL    HW114807   0.661   5.843   1.516
 4636SOL    HW214808   0.625   5.736   1.634
 4637SOL     OW14809   1.503   0.675   4.844
 4637SOL    HW114810   1.419   0.684   4.898
 4637SOL    HW214811   1.530   0.765   4.809
 4638SOL     OW14812   4.306   4.883   5.918
 4638SOL    HW114813   4.212   4.861   5.894
 4638SOL    HW214814   4.320   4.982   5.911
 4639SOL     OW14815   6.664   1.733   5.049
 4639SOL    HW114816   6.677   1.828   5.020
 4639SOL    HW214817   6.704   1.721   5.140
 4640SOL     OW14818   5.909   5.202   2.755
 4640SOL    HW114819   5.907   5.128   2.822
 4640SOL    HW214820   5.834   5.191   2.690
 4641SOL     OW14821   2.822   3.491   5.315
 4641SOL    HW114822   2.787   3.399   5.296
 4641SOL    HW214823   2.802   3.551   5.238
 4642SOL     OW14824   5.850   6.044   4.030
 4642SOL    HW114825   5.769   5.988   4.014
 4642SOL    HW214826   5.854   6.117   3.961
 4643SOL     OW14827   4.433   3.503   1.020
 4643SOL    HW114828   4.490   3.444   1.077
 4643SOL    HW214829   4.350   3.454   0.995
 4644SOL     OW14830   3.666   4.243   5.544
 4644SOL    HW114831   3.691   4.284   5.456
 4644SOL    HW214832   3.580   4.193   5.534
 4645SOL     OW14833   1.830   6.155   4.800
 4645SOL    HW114834   1.735   6.154   4.768
 4645SOL    HW214835   1.860   6.061   4.818
 4646SOL     OW14836   3.458   0.347   0.952
 4646SOL    HW114837   3.492   0.257   0.976
 4646SOL    HW214838   3.507   0.382   0.872
 4647SOL     OW14839   6.805   0.440   5.131
 4647SOL    HW114840   6.867   0.397   5.196
 4647SOL    HW214841   6.825   0.408   5.039
 4648SOL     OW14842   1.886   6.324   3.503
 4648SOL    HW114843   1.795   6.293   3.531
 4648SOL    HW214844   1.893   6.319   3.404
 4649SOL     OW14845   6.094   6.673   5.809
 4649SOL    HW114846   6.161   6.745   5.829
 4649SOL    HW214847   6.027   6.708   5.743
 4650SOL     OW14848   6.713   4.386   1.285
 4650SOL    HW114849   6.780   4.460   1.296
 4650SOL    HW214850   6.626   4.413   1.328
 4651SOL     OW14851   6.236   2.322   1.515
 4651SOL    HW114852   6.261   2.378   1.436
 4651SOL    HW214853   6.319   2.285   1.557
 4652SOL     OW14854   0.421   6.488   5.457
 4652SOL    HW114855   0.482   6.553   5.412
 4652SOL    HW214856   0.472   6.437   5.526
 4653SOL     OW14857   0.551   4.866   6.963
 4653SOL    HW114858   0.552   4.963   6.938
 4653SOL    HW214859   0.571   4.811   6.882
 4654SOL     OW14860   1.304   2.082   6.758
 4654SOL    HW114861   1.229   2.107   6.819
 4654SOL    HW214862   1.309   1.983   6.748
 4655SOL     OW14863   0.237   5.210   3.683
 4655SOL    HW114864   0.264   5.257   3.767
 4655SOL    HW214865   0.318   5.173   3.638
 4656SOL     OW14866   2.468   6.697   3.447
 4656SOL    HW114867   2.428   6.617   3.402
 4656SOL    HW214868   2.473   6.773   3.383
 4657SOL     OW14869   6.098   0.969   5.899
 4657SOL    HW114870   6.126   0.931   5.811
 4657SOL    HW214871   6.093   0.896   5.967
 4658SOL     OW14872   5.079   0.805   4.071
 4658SOL    HW114873   5.142   0.768   4.002
 4658SOL    HW214874   5.102   0.768   4.161
 4659SOL     OW14875   1.786   2.730   4.245
 4659SOL    HW114876   1.880   2.717   4.213
 4659SOL    HW214877   1.739   2.795   4.185
 4660SOL     OW14878   6.359   1.135   5.152
 4660SOL    HW114879   6.296   1.167   5.222
 4660SOL    HW214880   6.365   1.204   5.079
 4661SOL     OW14881   3.383   2.906   3.168
 4661SOL    HW114882   3.478   2.930   3.148
 4661SOL    HW214883   3.372   2.895   3.267
 4662SOL     OW14884   6.024   6.563   4.074
 4662SOL    HW114885   6.100   6.498   4.064
 4662SOL    HW214886   6.059   6.648   4.113
 4663SOL     OW14887   0.206   3.069   2.096
 4663SOL    HW114888   0.258   3.028   2.170
 4663SOL    HW214889   0.206   3.009   2.016
 4664SOL     OW14890   3.332   4.231   0.421
 4664SOL    HW114891   3.312   4.248   0.325
 4664SOL    HW214892   3.339   4.133   0.438
 4665SOL     OW14893   5.647   0.420   6.066
 4665SOL    HW114894   5.711   0.410   5.990
 4665SOL    HW214895   5.698   0.423   6.152
 4666SOL     OW14896   1.482   1.732   0.793
 4666SOL    HW114897   1.523   1.717   0.883
 4666SOL    HW214898   1.457   1.828   0.783
 4667SOL     OW14899   0.670   5.998   4.138
 4667SOL    HW114900   0.651   6.045   4.224
 4667SOL    HW214901   0.711   5.909   4.158
 4668SOL     OW14902   5.406   0.325   5.226
 4668SOL    HW114903   5.372   0.407   5.181
 4668SOL    HW214904   5.329   0.269   5.257
 4669SOL     OW14905   2.125   1.895   2.536
 4669SOL    HW114906   2.099   1.857   2.447
 4669SOL    HW214907   2.202   1.958   2.524
 4670SOL     OW14908   2.304   1.280   4.095
 4670SOL    HW114909   2.269   1.307   4.185
 4670SOL    HW214910   2.371   1.207   4.106
 4671SOL     OW14911   5.800   2.125   2.425
 4671SOL    HW114912   5.864   2.063   2.381
 4671SOL    HW214913   5.848   2.177   2.496
 4672SOL     OW14914   2.902   2.730   5.337
 4672SOL    HW114915   2.816   2.692   5.304
 4672SOL    HW214916   2.963   2.655   5.363
 4673SOL     OW14917   4.890   0.625   2.412
 4673SOL    HW114918   4.864   0.539   2.368
 4673SOL    HW214919   4.953   0.675   2.353
 4674SOL     OW14920   4.785   6.624   5.115
 4674SOL    HW114921   4.807   6.647   5.209
 4674SOL    HW214922   4.794   6.525   5.102
 4675SOL     OW14923   1.090   4.667   0.053
 4675SOL    HW114924   1.053   4.669   6.983
 4675SOL    HW214925   1.186   4.695   0.052
 4676SOL     OW14926   1.125   4.314   4.508
 4676SOL    HW114927   1.054   4.378   4.539
 4676SOL    HW214928   1.082   4.234   4.467
 4677SOL     OW14929   1.508   3.522   0.578
 4677SOL    HW114930   1.536   3.539   0.483
 4677SOL    HW214931   1.513   3.608   0.630
 4678SOL     OW14932   0.831   3.408   1.535
 4678SOL    HW114933   0.813   3.464   1.616
 4678SOL    HW214934   0.797   3.315   1.551
 4679SOL     OW14935   4.634   0.124   2.243
 4679SOL    HW114936   4.546   0.162   2.271
 4679SOL    HW214937   4.620   0.059   2.169
 4680SOL     OW14938   1.827   0.836   6.484
 4680SOL    HW114939   1.769   0.756   6.503
 4680SOL    HW214940   1.881   0.858   6.565
 4681SOL     OW14941   4.785   5.678   2.364
 4681SOL    HW114942   4.763   5.689   2.461
 4681SOL    HW214943   4.706   5.703   2.308
 4682SOL     OW14944   3.597   3.921   6.108
 4682SOL    HW114945   3.592   3.883   6.200
 4682SOL    HW214946   3.692   3.942   6.085
 4683SOL     OW14947   6.350   4.902   3.935
 4683SOL    HW114948   6.321   4.902   3.840
 4683SOL    HW214949   6.435   4.955   3.945
 4684SOL     OW14950   5.453   6.989   5.891
 4684SOL    HW114951   5.390   6.938   5.949
 4684SOL    HW214952   5.476   6.935   5.810
 4685SOL     OW14953   2.963   3.534   4.750
 4685SOL    HW114954   3.000   3.590   4.824
 4685SOL    HW214955   2.929   3.594   4.678
 4686SOL     OW14956   1.721   7.012   6.979
 4686SOL    HW114957   1.708   6.933   0.017
 4686SOL    HW214958   1.703   6.985   6.884
 4687SOL     OW14959   1.868   0.400   2.872
 4687SOL    HW114960   1.841   0.496   2.860
 4687SOL    HW214961   1.792   0.341   2.844
 4688SOL     OW14962   4.894   2.800   5.035
 4688SOL    HW114963   4.909   2.880   4.976
 4688SOL    HW214964   4.892   2.829   5.131
 4689SOL     OW14965   6.725   1.409   1.213
 4689SOL    HW114966   6.767   1.499   1.203
 4689SOL    HW214967   6.649   1.414   1.278
 4690SOL     OW14968   2.990   2.773   0.881
 4690SOL    HW114969   2.989   2.868   0.851
 4690SOL    HW214970   3.077   2.752   0.924
 4691SOL     OW14971   6.424   3.274   1.503
 4691SOL    HW114972   6.465   3.221   1.577
 4691SOL    HW214973   6.473   3.361   1.494
 4692SOL     OW14974   4.822   2.984   2.457
 4692SOL    HW114975   4.827   3.011   2.361
 4692SOL    HW214976   4.744   2.923   2.470
 4693SOL     OW14977   0.375   6.900   2.877
 4693SOL    HW114978   0.385   6.825   2.812
 4693SOL    HW214979   0.368   6.986   2.828
 4694SOL     OW14980   2.188   6.931   6.075
 4694SOL    HW114981   2.147   7.021   6.082
 4694SOL    HW214982   2.144   6.880   6.001
 4695SOL     OW14983   2.015   4.687   1.967
 4695SOL    HW114984   1.953   4.754   2.008
 4695SOL    HW214985   2.009   4.601   2.018
 4696SOL     OW14986   1.714   6.384   6.429
 4696SOL    HW114987   1.631   6.354   6.477
 4696SOL    HW214988   1.731   6.322   6.352
 4697SOL     OW14989   4.481   5.354   1.364
 4697SOL    HW114990   4.419   5.340   1.287
 4697SOL    HW214991   4.436   5.325   1.449
 4698SOL     OW14992   5.873   1.040   4.565
 4698SOL    HW114993   5.952   0.984   4.588
 4698SOL    HW214994   5.902   1.134   4.548
 4699SOL     OW14995   0.802   1.067   2.532
 4699SOL    HW114996   0.834   1.042   2.624
 4699SOL    HW214997   0.707   1.099   2.537
 4700SOL     OW14998   6.488   1.539   3.087
 4700SOL    HW114999   6.403   1.587   3.065
 4700SOL    HW215000   6.495   1.457   3.031
 4701SOL     OW15001   3.008   2.607   1.752
 4701SOL    HW115002   2.972   2.545   1.822
 4701SOL    HW215003   3.100   2.636   1.777
 4702SOL     OW15004   6.053   5.011   0.631
 4702SOL    HW115005   5.978   5.070   0.603
 4702SOL    HW215006   6.069   5.021   0.729
 4703SOL     OW15007   0.318   5.331   3.932
 4703SOL    HW115008   0.266   5.416   3.925
 4703SOL    HW215009   0.305   5.290   4.022
 4704SOL     OW15010   1.809   4.868   4.377
 4704SOL    HW115011   1.872   4.801   4.417
 4704SOL    HW215012   1.795   4.847   4.281
 4705SOL     OW15013   3.322   2.105   2.031
 4705SOL    HW115014   3.387   2.130   2.102
 4705SOL    HW215015   3.346   2.150   1.945
 4706SOL     OW15016   2.246   1.234   0.969
 4706SOL    HW115017   2.343   1.246   0.948
 4706SOL    HW215018   2.228   1.137   0.984
 4707SOL     OW15019   1.328   5.418   2.215
 4707SOL    HW115020   1.421   5.455   2.214
 4707SOL    HW215021   1.309   5.369   2.130
 4708SOL     OW15022   1.953   3.068   6.177
 4708SOL    HW115023   1.964   2.969   6.175
 4708SOL    HW215024   2.018   3.110   6.113
 4709SOL     OW15025   5.605   4.315   5.351
 4709SOL    HW115026   5.514   4.308   5.391
 4709SOL    HW215027   5.630   4.411   5.341
 4710SOL     OW15028   6.090   5.846   5.098
 4710SOL    HW115029   6.173   5.899   5.078
 4710SOL    HW215030   6.114   5.764   5.150
 4711SOL     OW15031   5.219   4.149   2.344
 4711SOL    HW115032   5.248   4.079   2.279
 4711SOL    HW215033   5.262   4.236   2.322
 4712SOL     OW15034   3.601   4.359   5.860
 4712SOL    HW115035   3.517   4.306   5.851
 4712SOL    HW215036   3.666   4.331   5.791
 4713SOL     OW15037   5.562   4.440   0.885
 4713SOL    HW115038   5.569   4.342   0.906
 4713SOL    HW215039   5.516   4.487   0.960
 4714SOL     OW15040   4.039   2.029   6.576
 4714SOL    HW115041   4.072   2.046   6.483
 4714SOL    HW215042   4.091   2.085   6.640
 4715SOL     OW15043   6.504   1.683   2.258
 4715SOL    HW115044   6.479   1.604   2.202
 4715SOL    HW215045   6.512   1.655   2.354
 4716SOL     OW15046   3.012   4.348   5.643
 4716SOL    HW115047   3.064   4.295   5.576
 4716SOL    HW215048   2.945   4.288   5.687
 4717SOL     OW15049   2.055   4.999   5.701
 4717SOL    HW115050   2.008   4.930   5.645
 4717SOL    HW215051   2.150   5.005   5.673
 4718SOL     OW15052   4.745   4.198   1.878
 4718SOL    HW115053   4.667   4.239   1.926
 4718SOL    HW215054   4.712   4.131   1.812
 4719SOL     OW15055   5.685   4.606   3.896
 4719SOL    HW115056   5.597   4.652   3.905
 4719SOL    HW215057   5.714   4.607   3.801
 4720SOL     OW15058   1.511   2.197   6.438
 4720SOL    HW115059   1.415   2.179   6.460
 4720SOL    HW215060   1.536   2.289   6.468
 4721SOL     OW15061   0.604   2.851   2.671
 4721SOL    HW115062   0.561   2.939   2.652
 4721SOL    HW215063   0.703   2.864   2.675
 4722SOL     OW15064   1.317   5.097   6.316
 4722SOL    HW115065   1.243   5.044   6.357
 4722SOL    HW215066   1.286   5.191   6.299
 4723SOL     OW15067   2.686   4.892   6.784
 4723SOL    HW115068   2.638   4.809   6.815
 4723SOL    HW215069   2.673   4.903   6.686
 4724SOL     OW15070   0.521   6.899   4.014
 4724SOL    HW115071   0.429   6.868   4.037
 4724SOL    HW215072   0.555   6.959   4.086
 4725SOL     OW15073   6.511   4.781   1.024
 4725SOL    HW115074   6.523   4.878   1.042
 4725SOL    HW215075   6.596   4.733   1.044
 4726SOL     OW15076   1.730   2.732   5.759
 4726SOL    HW115077   1.640   2.720   5.716
 4726SOL    HW215078   1.734   2.822   5.802
 4727SOL     OW15079   6.569   5.041   1.072
 4727SOL    HW115080   6.596   5.021   0.978
 4727SOL    HW215081   6.619   5.121   1.105
 4728SOL     OW15082   4.960   1.162   3.347
 4728SOL    HW115083   4.917   1.142   3.435
 4728SOL    HW215084   5.005   1.252   3.351
 4729SOL     OW15085   6.273   1.250   2.726
 4729SOL    HW115086   6.226   1.325   2.679
 4729SOL    HW215087   6.206   1.187   2.766
 4730SOL     OW15088   3.438   0.835   3.303
 4730SOL    HW115089   3.354   0.836   3.249
 4730SOL    HW215090   3.419   0.797   3.393
 4731SOL     OW15091   3.364   7.010   1.933
 4731SOL    HW115092   3.416   0.069   1.960
 4731SOL    HW215093   3.272   0.015   1.904
 4732SOL     OW15094   0.229   5.229   4.831
 4732SOL    HW115095   0.320   5.256   4.862
 4732SOL    HW215096   0.223   5.130   4.826
 4733SOL     OW15097   1.391   4.196   2.262
 4733SOL    HW115098   1.401   4.296   2.269
 4733SOL    HW215099   1.466   4.152   2.311
 4734SOL     OW15100   4.892   3.862   6.580
 4734SOL    HW115101   4.921   3.946   6.535
 4734SOL    HW215102   4.793   3.849   6.566
 4735SOL     OW15103   0.110   0.766   5.066
 4735SOL    HW115104   0.024   0.771   5.117
 4735SOL    HW215105   0.093   0.783   4.969
 4736SOL     OW15106   6.276   0.878   3.801
 4736SOL    HW115107   6.197   0.889   3.740
 4736SOL    HW215108   6.294   0.781   3.814
 4737SOL     OW15109   2.222   5.140   0.316
 4737SOL    HW115110   2.149   5.071   0.316
 4737SOL    HW215111   2.305   5.100   0.277
 4738SOL     OW15112   0.587   5.654   3.984
 4738SOL    HW115113   0.670   5.630   4.035
 4738SOL    HW215114   0.580   5.596   3.903
 4739SOL     OW15115   5.975   3.560   3.166
 4739SOL    HW115116   6.044   3.491   3.188
 4739SOL    HW215117   6.011   3.622   3.097
 4740SOL     OW15118   1.905   6.541   1.026
 4740SOL    HW115119   1.967   6.547   1.104
 4740SOL    HW215120   1.856   6.453   1.030
 4741SOL     OW15121   5.929   4.765   0.972
 4741SOL    HW115122   5.855   4.827   0.999
 4741SOL    HW215123   5.890   4.678   0.942
 4742SOL     OW15124   2.151   5.776   2.125
 4742SOL    HW115125   2.192   5.865   2.104
 4742SOL    HW215126   2.072   5.790   2.185
 4743SOL     OW15127   2.510   3.924   0.260
 4743SOL    HW115128   2.467   3.915   0.350
 4743SOL    HW215129   2.499   4.017   0.227
 4744SOL     OW15130   2.864   2.280   5.363
 4744SOL    HW115131   2.827   2.205   5.419
 4744SOL    HW215132   2.800   2.301   5.289
 4745SOL     OW15133   4.272   5.393   4.417
 4745SOL    HW115134   4.229   5.482   4.398
 4745SOL    HW215135   4.202   5.322   4.421
 4746SOL     OW15136   5.414   1.192   1.534
 4746SOL    HW115137   5.473   1.247   1.593
 4746SOL    HW215138   5.329   1.170   1.583
 4747SOL     OW15139   0.623   3.042   2.273
 4747SOL    HW115140   0.688   3.003   2.339
 4747SOL    HW215141   0.663   3.123   2.231
 4748SOL     OW15142   2.191   0.077   0.764
 4748SOL    HW115143   2.177   0.176   0.775
 4748SOL    HW215144   2.173   0.051   0.669
 4749SOL     OW15145   3.359   0.744   0.389
 4749SOL    HW115146   3.446   0.740   0.340
 4749SOL    HW215147   3.341   0.656   0.433
 4750SOL     OW15148   0.854   1.785   4.793
 4750SOL    HW115149   0.816   1.878   4.789
 4750SOL    HW215150   0.820   1.733   4.714
 4751SOL     OW15151   1.261   3.749   6.610
 4751SOL    HW115152   1.296   3.656   6.596
 4751SOL    HW215153   1.173   3.759   6.563
 4752SOL     OW15154   2.598   6.003   0.958
 4752SOL    HW115155   2.585   5.928   1.023
 4752SOL    HW215156   2.691   6.000   0.921
 4753SOL     OW15157   0.806   0.280   6.368
 4753SOL    HW115158   0.722   0.240   6.404
 4753SOL    HW215159   0.843   0.221   6.296
 4754SOL     OW15160   1.141   1.211   6.239
 4754SOL    HW115161   1.139   1.126   6.292
 4754SOL    HW215162   1.206   1.201   6.163
 4755SOL     OW15163   2.860   6.852   2.498
 4755SOL    HW115164   2.871   6.771   2.441
 4755SOL    HW215165   2.883   6.934   2.444
 4756SOL     OW15166   5.600   1.770   1.397
 4756SOL    HW115167   5.569   1.821   1.478
 4756SOL    HW215168   5.539   1.790   1.320
 4757SOL     OW15169   2.502   1.971   0.803
 4757SOL    HW115170   2.595   2.001   0.822
 4757SOL    HW215171   2.481   1.891   0.859
 4758SOL     OW15172   5.868   3.536   6.061
 4758SOL    HW115173   5.854   3.589   6.145
 4758SOL    HW215174   5.892   3.597   5.986
 4759SOL     OW15175   6.725   4.290   6.773
 4759SOL    HW115176   6.671   4.370   6.748
 4759SOL    HW215177   6.682   4.244   6.851
 4760SOL     OW15178   1.799   2.390   0.181
 4760SOL    HW115179   1.865   2.449   0.135
 4760SOL    HW215180   1.772   2.316   0.119
 4761SOL     OW15181   2.282   5.889   6.391
 4761SOL    HW115182   2.319   5.816   6.449
 4761SOL    HW215183   2.325   5.884   6.301
 4762SOL     OW15184   3.773   6.776   2.390
 4762SOL    HW115185   3.717   6.693   2.386
 4762SOL    HW215186   3.721   6.853   2.354
 4763SOL     OW15187   5.395   5.801   5.449
 4763SOL    HW115188   5.370   5.709   5.481
 4763SOL    HW215189   5.315   5.846   5.411
 4764SOL     OW15190   4.087   3.530   3.733
 4764SOL    HW115191   3.991   3.554   3.726
 4764SOL    HW215192   4.129   3.533   3.643
 4765SOL     OW15193   5.810   5.054   6.450
 4765SOL    HW115194   5.862   5.000   6.384
 4765SOL    HW215195   5.758   5.125   6.401
 4766SOL     OW15196   2.803   1.072   3.152
 4766SOL    HW115197   2.762   1.162   3.149
 4766SOL    HW215198   2.838   1.048   3.061
 4767SOL     OW15199   4.604   0.381   6.893
 4767SOL    HW115200   4.691   0.350   6.854
 4767SOL    HW215201   4.539   0.400   6.820
 4768SOL     OW15202   1.627   0.857   5.026
 4768SOL    HW115203   1.592   0.835   5.117
 4768SOL    HW215204   1.714   0.907   5.036
 4769SOL     OW15205   4.968   0.806   2.013
 4769SOL    HW115206   5.058   0.781   1.978
 4769SOL    HW215207   4.977   0.886   2.072
 4770SOL     OW15208   2.363   0.609   4.369
 4770SOL    HW115209   2.282   0.663   4.347
 4770SOL    HW215210   2.444   0.667   4.366
 4771SOL     OW15211   4.041   3.998   5.631
 4771SOL    HW115212   4.125   4.018   5.580
 4771SOL    HW215213   3.978   3.947   5.572
 4772SOL     OW15214   3.168   2.454   6.867
 4772SOL    HW115215   3.122   2.395   6.800
 4772SOL    HW215216   3.149   2.419   6.959
 4773SOL     OW15217   0.062   4.907   4.625
 4773SOL    HW115218   0.150   4.924   4.581
 4773SOL    HW215219   0.075   4.854   4.708
 4774SOL     OW15220   1.185   4.192   0.054
 4774SOL    HW115221   1.194   4.142   0.140
 4774SOL    HW215222   1.128   4.273   0.068
 4775SOL     OW15223   1.824   2.282   2.559
 4775SOL    HW115224   1.878   2.361   2.588
 4775SOL    HW215225   1.818   2.216   2.634
 4776SOL     OW15226   4.327   5.050   2.272
 4776SOL    HW115227   4.374   5.010   2.351
 4776SOL    HW215228   4.313   5.147   2.288
 4777SOL     OW15229   2.494   3.608   1.729
 4777SOL    HW115230   2.443   3.694   1.724
 4777SOL    HW215231   2.437   3.539   1.774
 4778SOL     OW15232   4.867   3.243   2.936
 4778SOL    HW115233   4.864   3.343   2.936
 4778SOL    HW215234   4.845   3.210   2.845
 4779SOL     OW15235   4.790   1.663   2.598
 4779SOL    HW115236   4.773   1.658   2.500
 4779SOL    HW215237   4.706   1.640   2.648
 4780SOL     OW15238   2.169   1.516   5.496
 4780SOL    HW115239   2.104   1.586   5.468
 4780SOL    HW215240   2.121   1.445   5.547
 4781SOL     OW15241   1.923   5.743   2.652
 4781SOL    HW115242   2.016   5.777   2.640
 4781SOL    HW215243   1.892   5.764   2.745
 4782SOL     OW15244   6.005   5.643   0.030
 4782SOL    HW115245   5.911   5.648   7.020
 4782SOL    HW215246   6.067   5.663   6.976
 4783SOL     OW15247   6.284   3.834   2.558
 4783SOL    HW115248   6.232   3.909   2.515
 4783SOL    HW215249   6.242   3.747   2.533
 4784SOL     OW15250   5.130   4.780   5.257
 4784SOL    HW115251   5.081   4.696   5.279
 4784SOL    HW215252   5.129   4.841   5.336
 4785SOL     OW15253   5.816   6.671   0.541
 4785SOL    HW115254   5.882   6.745   0.555
 4785SOL    HW215255   5.820   6.640   0.446
 4786SOL     OW15256   1.082   3.594   1.948
 4786SOL    HW115257   1.089   3.538   2.031
 4786SOL    HW215258   1.057   3.687   1.972
 4787SOL     OW15259   4.203   2.296   3.404
 4787SOL    HW115260   4.287   2.247   3.429
 4787SOL    HW215261   4.123   2.244   3.434
 4788SOL     OW15262   2.075   0.096   5.066
 4788SOL    HW115263   2.141   0.168   5.086
 4788SOL    HW215264   2.120   0.022   5.016
 4789SOL     OW15265   5.303   6.245   0.283
 4789SOL    HW115266   5.385   6.198   0.314
 4789SOL    HW215267   5.297   6.335   0.326
 4790SOL     OW15268   5.215   0.268   6.586
 4790SOL    HW115269   5.158   0.310   6.516
 4790SOL    HW215270   5.160   0.250   6.668
 4791SOL     OW15271   4.513   1.891   3.596
 4791SOL    HW115272   4.465   1.932   3.518
 4791SOL    HW215273   4.520   1.792   3.582
 4792SOL     OW15274   2.852   2.494   0.976
 4792SOL    HW115275   2.892   2.449   1.056
 4792SOL    HW215276   2.868   2.592   0.982
 4793SOL     OW15277   0.778   0.128   6.987
 4793SOL    HW115278   0.733   0.123   6.898
 4793SOL    HW215279   0.715   0.099   0.036
 4794SOL     OW15280   5.309   1.328   2.179
 4794SOL    HW115281   5.320   1.369   2.088
 4794SOL    HW215282   5.254   1.245   2.170
 4795SOL     OW15283   5.934   2.670   4.180
 4795SOL    HW115284   5.996   2.733   4.133
 4795SOL    HW215285   5.839   2.692   4.155
 4796SOL     OW15286   5.653   3.353   0.432
 4796SOL    HW115287   5.676   3.371   0.336
 4796SOL    HW215288   5.737   3.345   0.486
 4797SOL     OW15289   0.980   5.702   4.993
 4797SOL    HW115290   0.958   5.605   5.004
 4797SOL    HW215291   1.016   5.738   5.079
 4798SOL     OW15292   6.691   4.922   5.759
 4798SOL    HW115293   6.623   4.882   5.820
 4798SOL    HW215294   6.782   4.889   5.784
 4799SOL     OW15295   4.825   1.460   4.194
 4799SOL    HW115296   4.764   1.442   4.272
 4799SOL    HW215297   4.782   1.426   4.110
 4800SOL     OW15298   1.908   2.964   3.920
 4800SOL    HW115299   1.890   2.975   3.822
 4800SOL    HW215300   1.830   2.996   3.972
 4801SOL     OW15301   0.242   2.298   0.863
 4801SOL    HW115302   0.254   2.205   0.898
 4801SOL    HW215303   0.324   2.325   0.813
 4802SOL     OW15304   1.937   0.340   1.973
 4802SOL    HW115305   2.014   0.389   2.016
 4802SOL    HW215306   1.853   0.359   2.023
 4803SOL     OW15307   1.658   0.304   0.662
 4803SOL    HW115308   1.576   0.355   0.637
 4803SOL    HW215309   1.687   0.331   0.754
 4804SOL     OW15310   4.760   5.984   0.244
 4804SOL    HW115311   4.800   6.062   0.195
 4804SOL    HW215312   4.833   5.922   0.271
 4805SOL     OW15313   0.003   0.080   1.435
 4805SOL    HW115314   0.038   0.047   1.347
 4805SOL    HW215315   0.056   0.039   1.509
 4806SOL     OW15316   0.087   2.358   3.981
 4806SOL    HW115317   0.127   2.282   3.929
 4806SOL    HW215318   0.006   2.392   3.933
 4807SOL     OW15319   1.173   6.889   2.599
 4807SOL    HW115320   1.131   6.889   2.690
 4807SOL    HW215321   1.223   6.975   2.586
 4808SOL     OW15322   6.010   3.003   0.423
 4808SOL    HW115323   5.929   3.039   0.470
 4808SOL    HW215324   5.992   2.910   0.391
 4809SOL     OW15325   4.863   0.013   0.633
 4809SOL    HW115326   4.765   0.009   0.652
 4809SOL    HW215327   4.891   6.953   0.583
 4810SOL     OW15328   1.970   6.575   0.572
 4810SOL    HW115329   1.913   6.499   0.601
 4810SOL    HW215330   1.929   6.662   0.601
 4811SOL     OW15331   5.195   3.797   3.853
 4811SOL    HW115332   5.129   3.788   3.928
 4811SOL    HW215333   5.283   3.756   3.881
 4812SOL     OW15334   6.060   4.999   3.740
 4812SOL    HW115335   6.042   4.904   3.766
 4812SOL    HW215336   6.037   5.060   3.816
 4813SOL     OW15337   5.615   3.278   2.865
 4813SOL    HW115338   5.521   3.293   2.835
 4813SOL    HW215339   5.617   3.262   2.964
 4814SOL     OW15340   6.701   3.174   0.790
 4814SOL    HW115341   6.645   3.238   0.843
 4814SOL    HW215342   6.642   3.106   0.747
 4815SOL     OW15343   4.795   0.847   3.055
 4815SOL    HW115344   4.831   0.934   3.019
 4815SOL    HW215345   4.870   0.786   3.077
 4816SOL     OW15346   5.300   5.309   3.407
 4816SOL    HW115347   5.253   5.352   3.330
 4816SOL    HW215348   5.398   5.309   3.390
 4817SOL     OW15349   6.190   1.405   6.899
 4817SOL    HW115350   6.220   1.471   6.830
 4817SOL    HW215351   6.092   1.415   6.914
 4818SOL     OW15352   0.304   5.651   3.434
 4818SOL    HW115353   0.368   5.692   3.499
 4818SOL    HW215354   0.258   5.573   3.477
 4819SOL     OW15355   2.180   2.783   0.580
 4819SOL    HW115356   2.185   2.868   0.528
 4819SOL    HW215357   2.224   2.796   0.669
 4820SOL     OW15358   6.878   3.396   2.266
 4820SOL    HW115359   6.847   3.457   2.193
 4820SOL    HW215360   6.916   3.313   2.226
 4821SOL     OW15361   0.460   5.758   3.614
 4821SOL    HW115362   0.418   5.811   3.687
 4821SOL    HW215363   0.548   5.799   3.590
 4822SOL     OW15364   2.352   4.912   4.322
 4822SOL    HW115365   2.371   5.010   4.332
 4822SOL    HW215366   2.315   4.877   4.408
 4823SOL     OW15367   1.390   2.365   0.638
 4823SOL    HW115368   1.471   2.307   0.634
 4823SOL    HW215369   1.386   2.422   0.556
 4824SOL     OW15370   6.326   1.771   0.190
 4824SOL    HW115371   6.350   1.863   0.161
 4824SOL    HW215372   6.306   1.771   0.288
 4825SOL     OW15373   1.110   6.665   3.948
 4825SOL    HW115374   1.014   6.655   3.975
 4825SOL    HW215375   1.169   6.653   4.027
 4826SOL     OW15376   4.486   6.073   0.912
 4826SOL    HW115377   4.386   6.077   0.911
 4826SOL    HW215378   4.517   6.001   0.849
 4827SOL     OW15379   5.848   1.371   0.941
 4827SOL    HW115380   5.928   1.312   0.934
 4827SOL    HW215381   5.787   1.355   0.864
 4828SOL     OW15382   5.180   1.069   6.411
 4828SOL    HW115383   5.184   1.153   6.465
 4828SOL    HW215384   5.091   1.061   6.367
 4829SOL     OW15385   4.006   6.199   5.321
 4829SOL    HW115386   3.939   6.269   5.295
 4829SOL    HW215387   3.996   6.180   5.419
 4830SOL     OW15388   1.704   6.582   4.015
 4830SOL    HW115389   1.676   6.675   3.993
 4830SOL    HW215390   1.672   6.519   3.944
 4831SOL     OW15391   3.692   4.815   5.923
 4831SOL    HW115392   3.760   4.792   5.853
 4831SOL    HW215393   3.615   4.752   5.915
 4832SOL     OW15394   4.101   3.775   4.945
 4832SOL    HW115395   4.172   3.760   5.014
 4832SOL    HW215396   4.114   3.711   4.869
 4833SOL     OW15397   5.962   2.576   5.126
 4833SOL    HW115398   5.869   2.545   5.106
 4833SOL    HW215399   5.964   2.621   5.215
 4834SOL     OW15400   0.545   5.456   1.241
 4834SOL    HW115401   0.610   5.493   1.175
 4834SOL    HW215402   0.499   5.531   1.288
 4835SOL     OW15403   6.856   3.431   5.756
 4835SOL    HW115404   6.827   3.371   5.831
 4835SOL    HW215405   6.932   3.488   5.787
 4836SOL     OW15406   4.627   1.360   5.681
 4836SOL    HW115407   4.640   1.283   5.618
 4836SOL    HW215408   4.632   1.446   5.630
 4837SOL     OW15409   1.602   3.288   4.816
 4837SOL    HW115410   1.675   3.221   4.812
 4837SOL    HW215411   1.518   3.244   4.847
 4838SOL     OW15412   1.705   4.135   6.276
 4838SOL    HW115413   1.758   4.058   6.240
 4838SOL    HW215414   1.746   4.168   6.361
 4839SOL     OW15415   2.829   1.292   2.497
 4839SOL    HW115416   2.901   1.314   2.564
 4839SOL    HW215417   2.853   1.332   2.409
 4840SOL     OW15418   4.980   2.931   4.356
 4840SOL    HW115419   5.040   2.977   4.421
 4840SOL    HW215420   4.930   2.999   4.303
 4841SOL     OW15421   2.924   5.628   3.234
 4841SOL    HW115422   2.952   5.718   3.202
 4841SOL    HW215423   2.836   5.604   3.193
 4842SOL     OW15424   4.339   5.813   3.476
 4842SOL    HW115425   4.342   5.783   3.572
 4842SOL    HW215426   4.285   5.748   3.423
 4843SOL     OW15427   5.452   1.514   1.178
 4843SOL    HW115428   5.375   1.466   1.219
 4843SOL    HW215429   5.538   1.475   1.211
 4844SOL     OW15430   1.563   5.241   6.782
 4844SOL    HW115431   1.531   5.165   6.725
 4844SOL    HW215432   1.662   5.233   6.796
 4845SOL     OW15433   4.886   4.051   4.842
 4845SOL    HW115434   4.909   3.956   4.865
 4845SOL    HW215435   4.945   4.113   4.895
 4846SOL     OW15436   6.285   4.138   4.664
 4846SOL    HW115437   6.335   4.199   4.725
 4846SOL    HW215438   6.347   4.069   4.626
 4847SOL     OW15439   3.430   7.008   0.292
 4847SOL    HW115440   3.350   6.947   0.293
 4847SOL    HW215441   3.511   6.957   0.320
 4848SOL     OW15442   4.809   1.611   3.730
 4848SOL    HW115443   4.778   1.702   3.704
 4848SOL    HW215444   4.891   1.587   3.678
 4849SOL     OW15445   1.307   5.702   2.001
 4849SOL    HW115446   1.350   5.776   2.053
 4849SOL    HW215447   1.371   5.625   1.993
 4850SOL     OW15448   3.431   6.390   2.161
 4850SOL    HW115449   3.399   6.481   2.133
 4850SOL    HW215450   3.365   6.322   2.132
 4851SOL     OW15451   4.323   4.567   6.922
 4851SOL    HW115452   4.364   4.647   6.965
 4851SOL    HW215453   4.303   4.499   6.992
 4852SOL     OW15454   4.742   4.754   5.875
 4852SOL    HW115455   4.783   4.837   5.838
 4852SOL    HW215456   4.644   4.755   5.859
 4853SOL     OW15457   3.974   0.344   2.671
 4853SOL    HW115458   4.001   0.334   2.767
 4853SOL    HW215459   4.053   0.373   2.617
 4854SOL     OW15460   4.501   6.407   2.356
 4854SOL    HW115461   4.491   6.460   2.440
 4854SOL    HW215462   4.494   6.309   2.377
 4855SOL     OW15463   4.039   4.808   5.795
 4855SOL    HW115464   4.098   4.748   5.741
 4855SOL    HW215465   3.980   4.860   5.733
 4856SOL     OW15466   0.498   2.674   2.514
 4856SOL    HW115467   0.547   2.731   2.580
 4856SOL    HW215468   0.400   2.686   2.527
 4857SOL     OW15469   2.099   2.404   6.059
 4857SOL    HW115470   2.037   2.478   6.035
 4857SOL    HW215471   2.111   2.344   5.979
 4858SOL     OW15472   1.379   5.238   4.513
 4858SOL    HW115473   1.313   5.299   4.557
 4858SOL    HW215474   1.470   5.255   4.552
 4859SOL     OW15475   6.444   5.156   3.675
 4859SOL    HW115476   6.507   5.135   3.750
 4859SOL    HW215477   6.402   5.071   3.643
 4860SOL     OW15478   4.068   5.454   1.222
 4860SOL    HW115479   4.016   5.480   1.141
 4860SOL    HW215480   4.012   5.468   1.304
 4861SOL     OW15481   5.933   5.152   5.014
 4861SOL    HW115482   5.976   5.065   5.037
 4861SOL    HW215483   5.994   5.206   4.956
 4862SOL     OW15484   2.257   5.600   4.555
 4862SOL    HW115485   2.249   5.698   4.571
 4862SOL    HW215486   2.245   5.582   4.457
 4863SOL     OW15487   5.549   1.380   2.458
 4863SOL    HW115488   5.521   1.441   2.383
 4863SOL    HW215489   5.646   1.392   2.476
 4864SOL     OW15490   2.157   3.018   1.593
 4864SOL    HW115491   2.247   3.061   1.588
 4864SOL    HW215492   2.153   2.941   1.529
 4865SOL     OW15493   3.974   6.535   4.854
 4865SOL    HW115494   3.903   6.466   4.866
 4865SOL    HW215495   4.057   6.493   4.818
 4866SOL     OW15496   6.925   5.373   1.527
 4866SOL    HW115497   6.933   5.367   1.626
 4866SOL    HW215498   6.911   5.282   1.489
 4867SOL     OW15499   5.418   4.845   5.634
 4867SOL    HW115500   5.446   4.751   5.655
 4867SOL    HW215501   5.493   4.892   5.587
 4868SOL     OW15502   1.787   6.096   1.942
 4868SOL    HW115503   1.706   6.060   1.896
 4868SOL    HW215504   1.767   6.110   2.039
 4869SOL     OW15505   6.988   1.533   2.182
 4869SOL    HW115506   0.036   1.582   2.234
 4869SOL    HW215507   6.934   1.477   2.245
 4870SOL     OW15508   6.008   0.665   0.923
 4870SOL    HW115509   6.035   0.619   0.838
 4870SOL    HW215510   5.915   0.637   0.947
 4871SOL     OW15511   1.897   2.700   5.407
 4871SOL    HW115512   1.990   2.665   5.397
 4871SOL    HW215513   1.899   2.800   5.417
 4872SOL     OW15514   1.666   2.070   2.743
 4872SOL    HW115515   1.603   1.994   2.726
 4872SOL    HW215516   1.630   2.126   2.818
 4873SOL     OW15517   1.330   6.944   5.107
 4873SOL    HW115518   1.350   0.015   5.077
 4873SOL    HW215519   1.366   6.931   5.200
 4874SOL     OW15520   6.080   2.225   3.949
 4874SOL    HW115521   6.057   2.248   4.044
 4874SOL    HW215522   6.029   2.145   3.921
 4875SOL     OW15523   0.302   2.901   6.722
 4875SOL    HW115524   0.379   2.948   6.681
 4875SOL    HW215525   0.304   2.913   6.821
 4876SOL     OW15526   6.880   0.882   6.917
 4876SOL    HW115527   6.781   0.880   6.906
 4876SOL    HW215528   6.906   0.959   6.975
 4877SOL     OW15529   4.474   2.095   1.455
 4877SOL    HW115530   4.451   2.023   1.521
 4877SOL    HW215531   4.404   2.166   1.456
 4878SOL     OW15532   1.132   2.937   2.034
 4878SOL    HW115533   1.169   2.850   2.001
 4878SOL    HW215534   1.204   2.986   2.083
 4879SOL     OW15535   3.649   6.244   4.018
 4879SOL    HW115536   3.591   6.163   4.013
 4879SOL    HW215537   3.669   6.276   3.925
 4880SOL     OW15538   6.763   1.713   5.718
 4880SOL    HW115539   6.702   1.668   5.783
 4880SOL    HW215540   6.846   1.658   5.707
 4881SOL     OW15541   2.795   6.007   6.088
 4881SOL    HW115542   2.784   6.057   6.002
 4881SOL    HW215543   2.799   5.909   6.070
 4882SOL     OW15544   5.356   5.435   6.945
 4882SOL    HW115545   5.404   5.431   6.858
 4882SOL    HW215546   5.270   5.383   6.937
 4883SOL     OW15547   6.131   5.392   0.118
 4883SOL    HW115548   6.126   5.487   0.087
 4883SOL    HW215549   6.226   5.368   0.139
 4884SOL     OW15550   3.682   6.470   2.079
 4884SOL    HW115551   3.704   6.564   2.054
 4884SOL    HW215552   3.582   6.460   2.083
 4885SOL     OW15553   1.854   0.600   2.365
 4885SOL    HW115554   1.904   0.557   2.440
 4885SOL    HW215555   1.892   0.691   2.347
 4886SOL     OW15556   6.225   0.366   5.331
 4886SOL    HW115557   6.206   0.268   5.336
 4886SOL    HW215558   6.153   0.416   5.379
 4887SOL     OW15559   0.529   1.604   5.101
 4887SOL    HW115560   0.582   1.665   5.041
 4887SOL    HW215561   0.587   1.572   5.175
 4888SOL     OW15562   4.142   5.790   1.617
 4888SOL    HW115563   4.071   5.858   1.603
 4888SOL    HW215564   4.102   5.706   1.653
 4889SOL     OW15565   1.711   3.387   6.656
 4889SOL    HW115566   1.657   3.464   6.689
 4889SOL    HW215567   1.766   3.416   6.577
 4890SOL     OW15568   0.488   0.249   4.481
 4890SOL    HW115569   0.470   0.258   4.383
 4890SOL    HW215570   0.424   0.305   4.532
 4891SOL     OW15571   1.020   4.721   0.705
 4891SOL    HW115572   0.961   4.701   0.784
 4891SOL    HW215573   0.963   4.742   0.625
 4892SOL     OW15574   1.885   5.885   2.237
 4892SOL    HW115575   1.820   5.811   2.218
 4892SOL    HW215576   1.837   5.972   2.232
 4893SOL     OW15577   0.467   4.006   6.494
 4893SOL    HW115578   0.540   4.018   6.427
 4893SOL    HW215579   0.492   4.050   6.580
 4894SOL     OW15580   0.673   6.572   2.938
 4894SOL    HW115581   0.699   6.563   2.841
 4894SOL    HW215582   0.750   6.545   2.995
 4895SOL     OW15583   6.169   3.967   6.835
 4895SOL    HW115584   6.119   3.908   6.772
 4895SOL    HW215585   6.259   3.987   6.797
 4896SOL     OW15586   4.300   0.327   4.214
 4896SOL    HW115587   4.330   0.371   4.299
 4896SOL    HW215588   4.200   0.321   4.214
 4897SOL     OW15589   2.625   5.747   6.308
 4897SOL    HW115590   2.637   5.732   6.210
 4897SOL    HW215591   2.598   5.842   6.325
 4898SOL     OW15592   5.322   2.325   4.613
 4898SOL    HW115593   5.298   2.408   4.562
 4898SOL    HW215594   5.401   2.342   4.670
 4899SOL     OW15595   5.904   4.162   4.339
 4899SOL    HW115596   5.881   4.169   4.242
 4899SOL    HW215597   5.914   4.253   4.377
 4900SOL     OW15598   1.075   6.909   5.057
 4900SOL    HW115599   1.039   6.955   4.975
 4900SOL    HW215600   1.173   6.927   5.064
 4901SOL     OW15601   6.157   6.352   3.297
 4901SOL    HW115602   6.172   6.442   3.339
 4901SOL    HW215603   6.070   6.352   3.249
 4902SOL     OW15604   3.416   5.221   0.837
 4902SOL    HW115605   3.479   5.147   0.815
 4902SOL    HW215606   3.327   5.182   0.862
 4903SOL     OW15607   6.123   4.951   6.039
 4903SOL    HW115608   6.052   4.971   6.107
 4903SOL    HW215609   6.134   5.030   5.979
 4904SOL     OW15610   3.144   0.670   3.478
 4904SOL    HW115611   3.177   0.629   3.393
 4904SOL    HW215612   3.147   0.601   3.551
 4905SOL     OW15613   6.690   3.452   2.801
 4905SOL    HW115614   6.634   3.369   2.794
 4905SOL    HW215615   6.711   3.485   2.710
 4906SOL     OW15616   4.925   0.322   1.289
 4906SOL    HW115617   4.871   0.395   1.330
 4906SOL    HW215618   4.913   0.238   1.343
 4907SOL     OW15619   2.293   2.242   1.582
 4907SOL    HW115620   2.301   2.144   1.601
 4907SOL    HW215621   2.325   2.294   1.660
 4908SOL     OW15622   4.995   5.408   6.557
 4908SOL    HW115623   5.043   5.377   6.639
 4908SOL    HW215624   4.954   5.498   6.575
 4909SOL     OW15625   6.455   6.726   5.658
 4909SOL    HW115626   6.396   6.743   5.579
 4909SOL    HW215627   6.547   6.761   5.640
 4910SOL     OW15628   4.813   6.411   5.653
 4910SOL    HW115629   4.876   6.464   5.710
 4910SOL    HW215630   4.742   6.370   5.711
 4911SOL     OW15631   0.219   3.947   6.737
 4911SOL    HW115632   0.267   4.022   6.691
 4911SOL    HW215633   0.281   3.901   6.801
 4912SOL     OW15634   2.165   2.847   1.370
 4912SOL    HW115635   2.222   2.823   1.292
 4912SOL    HW215636   2.085   2.787   1.373
 4913SOL     OW15637   2.974   3.210   1.807
 4913SOL    HW115638   2.884   3.248   1.788
 4913SOL    HW215639   3.044   3.278   1.784
 4914SOL     OW15640   1.431   6.566   2.768
 4914SOL    HW115641   1.383   6.479   2.761
 4914SOL    HW215642   1.438   6.608   2.678
 4915SOL     OW15643   3.705   6.644   3.735
 4915SOL    HW115644   3.775   6.575   3.751
 4915SOL    HW215645   3.661   6.669   3.821
 4916SOL     OW15646   1.117   1.745   1.903
 4916SOL    HW115647   1.086   1.840   1.891
 4916SOL    HW215648   1.053   1.683   1.860
 4917SOL     OW15649   1.391   4.000   7.016
 4917SOL    HW115650   1.320   4.063   6.986
 4917SOL    HW215651   1.409   3.932   6.944
 4918SOL     OW15652   2.683   6.687   3.930
 4918SOL    HW115653   2.686   6.743   4.013
 4918SOL    HW215654   2.596   6.702   3.882
 4919SOL     OW15655   2.449   2.900   1.492
 4919SOL    HW115656   2.422   2.905   1.396
 4919SOL    HW215657   2.384   2.843   1.543
 4920SOL     OW15658   3.386   1.401   0.012
 4920SOL    HW115659   3.310   1.341   0.036
 4920SOL    HW215660   3.384   1.420   6.935
 4921SOL     OW15661   6.394   5.408   2.411
 4921SOL    HW115662   6.444   5.488   2.378
 4921SOL    HW215663   6.370   5.349   2.334
 4922SOL     OW15664   0.851   2.527   6.101
 4922SOL    HW115665   0.828   2.624   6.105
 4922SOL    HW215666   0.934   2.510   6.153
 4923SOL     OW15667   2.862   1.989   6.591
 4923SOL    HW115668   2.817   2.021   6.674
 4923SOL    HW215669   2.867   2.063   6.524
 4924SOL     OW15670   0.634   3.140   4.057
 4924SOL    HW115671   0.655   3.217   4.117
 4924SOL    HW215672   0.720   3.100   4.024
 4925SOL     OW15673   4.341   5.139   5.166
 4925SOL    HW115674   4.283   5.187   5.101
 4925SOL    HW215675   4.288   5.113   5.247
 4926SOL     OW15676   4.148   3.245   0.225
 4926SOL    HW115677   4.214   3.297   0.171
 4926SOL    HW215678   4.111   3.170   0.170
 4927SOL     OW15679   3.328   3.646   1.888
 4927SOL    HW115680   3.282   3.727   1.852
 4927SOL    HW215681   3.334   3.652   1.987
 4928SOL     OW15682   6.994   1.088   0.033
 4928SOL    HW115683   6.996   1.114   0.130
 4928SOL    HW215684   0.065   1.075   7.022
 4929SOL     OW15685   0.494   4.562   4.368
 4929SOL    HW115686   0.408   4.518   4.345
 4929SOL    HW215687   0.570   4.500   4.348
 4930SOL     OW15688   0.300   3.473   0.408
 4930SOL    HW115689   0.285   3.378   0.435
 4930SOL    HW215690   0.372   3.477   0.338
 4931SOL     OW15691   5.592   6.737   1.091
 4931SOL    HW115692   5.563   6.826   1.125
 4931SOL    HW215693   5.613   6.744   0.993
 4932SOL     OW15694   3.493   1.303   1.171
 4932SOL    HW115695   3.527   1.344   1.256
 4932SOL    HW215696   3.463   1.376   1.109
 4933SOL     OW15697   2.962   0.268   4.960
 4933SOL    HW115698   2.900   0.191   4.976
 4933SOL    HW215699   3.053   0.233   4.935
 4934SOL     OW15700   1.901   5.809   5.052
 4934SOL    HW115701   1.817   5.812   5.106
 4934SOL    HW215702   1.980   5.823   5.111
 4935SOL     OW15703   2.249   2.359   0.830
 4935SOL    HW115704   2.159   2.402   0.831
 4935SOL    HW215705   2.316   2.420   0.872
 4936SOL     OW15706   6.250   4.123   1.549
 4936SOL    HW115707   6.233   4.030   1.515
 4936SOL    HW215708   6.346   4.132   1.573
 4937SOL     OW15709   0.656   3.221   4.714
 4937SOL    HW115710   0.702   3.260   4.794
 4937SOL    HW215711   0.580   3.164   4.743
 4938SOL     OW15712   3.470   4.055   1.143
 4938SOL    HW115713   3.554   4.088   1.099
 4938SOL    HW215714   3.476   4.072   1.241
 4939SOL     OW15715   1.097   1.325   1.410
 4939SOL    HW115716   1.081   1.243   1.465
 4939SOL    HW215717   1.029   1.394   1.433
 4940SOL     OW15718   1.193   1.828   5.516
 4940SOL    HW115719   1.228   1.735   5.521
 4940SOL    HW215720   1.265   1.889   5.484
 4941SOL     OW15721   4.172   2.108   5.818
 4941SOL    HW115722   4.109   2.164   5.872
 4941SOL    HW215723   4.195   2.026   5.870
 4942SOL     OW15724   6.885   0.936   2.346
 4942SOL    HW115725   6.835   0.999   2.406
 4942SOL    HW215726   6.960   0.985   2.301
 4943SOL     OW15727   4.935   2.368   6.270
 4943SOL    HW115728   4.979   2.314   6.199
 4943SOL    HW215729   5.004   2.405   6.332
 4944SOL     OW15730   0.907   4.753   0.469
 4944SOL    HW115731   0.843   4.829   0.473
 4944SOL    HW215732   0.977   4.771   0.400
 4945SOL     OW15733   2.479   0.365   5.952
 4945SOL    HW115734   2.523   0.428   6.016
 4945SOL    HW215735   2.548   0.314   5.901
 4946SOL     OW15736   2.563   5.803   0.428
 4946SOL    HW115737   2.512   5.806   0.342
 4946SOL    HW215738   2.530   5.875   0.489
 4947SOL     OW15739   0.858   0.062   1.273
 4947SOL    HW115740   0.763   0.089   1.292
 4947SOL    HW215741   0.906   0.137   1.230
 4948SOL     OW15742   1.236   2.705   2.246
 4948SOL    HW115743   1.185   2.619   2.250
 4948SOL    HW215744   1.269   2.719   2.152
 4949SOL     OW15745   6.297   4.616   6.353
 4949SOL    HW115746   6.393   4.602   6.329
 4949SOL    HW215747   6.287   4.705   6.399
 4950SOL     OW15748   4.202   4.649   5.599
 4950SOL    HW115749   4.143   4.614   5.526
 4950SOL    HW215750   4.298   4.639   5.571
 4951SOL     OW15751   4.912   5.559   3.083
 4951SOL    HW115752   4.903   5.532   2.988
 4951SOL    HW215753   4.859   5.497   3.141
 4952SOL     OW15754   0.821   0.893   6.487
 4952SOL    HW115755   0.731   0.855   6.507
 4952SOL    HW215756   0.823   0.990   6.511
 4953SOL     OW15757   1.541   1.607   5.803
 4953SOL    HW115758   1.641   1.614   5.798
 4953SOL    HW215759   1.512   1.517   5.771
 4954SOL     OW15760   3.351   3.609   5.191
 4954SOL    HW115761   3.260   3.567   5.195
 4954SOL    HW215762   3.387   3.603   5.098
 4955SOL     OW15763   4.235   6.059   0.176
 4955SOL    HW115764   4.281   5.984   0.129
 4955SOL    HW215765   4.303   6.117   0.221
 4956SOL     OW15766   2.352   0.298   4.728
 4956SOL    HW115767   2.271   0.356   4.737
 4956SOL    HW215768   2.415   0.339   4.662
 4957SOL     OW15769   5.787   5.591   0.170
 4957SOL    HW115770   5.882   5.600   0.139
 4957SOL    HW215771   5.770   5.655   0.244
 4958SOL     OW15772   3.479   5.549   0.064
 4958SOL    HW115773   3.507   5.455   0.044
 4958SOL    HW215774   3.538   5.587   0.135
 4959SOL     OW15775   0.067   2.462   3.107
 4959SOL    HW115776   0.030   2.518   3.033
 4959SOL    HW215777   0.108   2.523   3.176
 4960SOL     OW15778   4.767   4.433   3.784
 4960SOL    HW115779   4.696   4.439   3.854
 4960SOL    HW215780   4.840   4.498   3.806
 4961SOL     OW15781   3.699   3.000   2.231
 4961SOL    HW115782   3.786   3.025   2.273
 4961SOL    HW215783   3.698   3.030   2.136
 4962SOL     OW15784   1.699   2.487   0.411
 4962SOL    HW115785   1.723   2.476   0.314
 4962SOL    HW215786   1.600   2.481   0.422
 4963SOL     OW15787   0.425   4.238   0.018
 4963SOL    HW115788   0.345   4.223   6.983
 4963SOL    HW215789   0.427   4.170   0.092
 4964SOL     OW15790   1.804   4.529   4.028
 4964SOL    HW115791   1.719   4.479   4.046
 4964SOL    HW215792   1.807   4.557   3.932
 4965SOL     OW15793   2.376   0.313   3.503
 4965SOL    HW115794   2.328   0.327   3.589
 4965SOL    HW215795   2.316   0.337   3.426
 4966SOL     OW15796   4.454   0.048   5.305
 4966SOL    HW115797   4.432   0.072   5.399
 4966SOL    HW215798   4.455   0.131   5.249
 4967SOL     OW15799   4.575   4.424   3.980
 4967SOL    HW115800   4.538   4.332   3.992
 4967SOL    HW215801   4.514   4.490   4.024
 4968SOL     OW15802   6.383   2.994   4.120
 4968SOL    HW115803   6.331   3.077   4.137
 4968SOL    HW215804   6.377   2.970   4.023
 4969SOL     OW15805   0.518   5.896   4.347
 4969SOL    HW115806   0.466   5.934   4.271
 4969SOL    HW215807   0.516   5.960   4.424
 4970SOL     OW15808   2.274   1.358   1.480
 4970SOL    HW115809   2.224   1.277   1.511
 4970SOL    HW215810   2.298   1.347   1.384
 4971SOL     OW15811   0.136   5.791   1.584
 4971SOL    HW115812   0.133   5.704   1.535
 4971SOL    HW215813   0.208   5.787   1.653
 4972SOL     OW15814   0.157   4.226   6.957
 4972SOL    HW115815   0.154   4.227   0.035
 4972SOL    HW215816   0.096   4.155   6.922
 4973SOL     OW15817   5.470   2.492   6.753
 4973SOL    HW115818   5.543   2.531   6.810
 4973SOL    HW215819   5.506   2.472   6.662
 4974SOL     OW15820   3.381   6.902   5.934
 4974SOL    HW115821   3.298   6.850   5.913
 4974SOL    HW215822   3.356   6.997   5.952
 4975SOL     OW15823   5.888   4.006   1.457
 4975SOL    HW115824   5.955   4.080   1.467
 4975SOL    HW215825   5.834   3.998   1.541
 4976SOL     OW15826   0.689   0.196   3.946
 4976SOL    HW115827   0.665   0.284   3.988
 4976SOL    HW215828   0.739   0.140   4.012
 4977SOL     OW15829   1.343   3.679   5.292
 4977SOL    HW115830   1.283   3.607   5.324
 4977SOL    HW215831   1.406   3.705   5.365
 4978SOL     OW15832   6.473   5.281   4.616
 4978SOL    HW115833   6.486   5.277   4.517
 4978SOL    HW215834   6.409   5.210   4.644
 4979SOL     OW15835   2.855   6.779   6.537
 4979SOL    HW115836   2.872   6.681   6.527
 4979SOL    HW215837   2.919   6.830   6.480
 4980SOL     OW15838   5.684   3.022   3.859
 4980SOL    HW115839   5.678   3.122   3.856
 4980SOL    HW215840   5.606   2.985   3.910
 4981SOL     OW15841   3.650   6.155   3.411
 4981SOL    HW115842   3.614   6.209   3.335
 4981SOL    HW215843   3.656   6.059   3.384
 4982SOL     OW15844   4.151   1.699   4.876
 4982SOL    HW115845   4.101   1.633   4.932
 4982SOL    HW215846   4.093   1.731   4.801
 4983SOL     OW15847   6.056   3.327   2.954
 4983SOL    HW115848   6.086   3.417   2.923
 4983SOL    HW215849   5.960   3.331   2.980
 4984SOL     OW15850   4.923   3.742   4.840
 4984SOL    HW115851   4.919   3.698   4.751
 4984SOL    HW215852   4.874   3.687   4.907
 4985SOL     OW15853   5.417   0.387   2.014
 4985SOL    HW115854   5.447   0.449   2.087
 4985SOL    HW215855   5.335   0.423   1.971
 4986SOL     OW15856   1.628   5.534   1.264
 4986SOL    HW115857   1.628   5.434   1.257
 4986SOL    HW215858   1.659   5.561   1.355
 4987SOL     OW15859   1.900   3.475   2.458
 4987SOL    HW115860   1.963   3.403   2.428
 4987SOL    HW215861   1.856   3.516   2.378
 4988SOL     OW15862   6.059   5.499   4.120
 4988SOL    HW115863   6.121   5.423   4.099
 4988SOL    HW215864   6.096   5.584   4.082
 4989SOL     OW15865   6.975   6.814   3.629
 4989SOL    HW115866   6.894   6.756   3.639
 4989SOL    HW215867   6.949   6.901   3.586
 4990SOL     OW15868   4.947   1.914   5.991
 4990SOL    HW115869   5.019   1.918   6.059
 4990SOL    HW215870   4.958   1.832   5.935
 4991SOL     OW15871   1.860   5.441   5.692
 4991SOL    HW115872   1.855   5.459   5.594
 4991SOL    HW215873   1.798   5.503   5.740
 4992SOL     OW15874   1.982   3.153   5.020
 4992SOL    HW115875   2.018   3.072   5.067
 4992SOL    HW215876   1.906   3.126   4.961
 4993SOL     OW15877   2.066   5.960   3.863
 4993SOL    HW115878   2.134   6.004   3.922
 4993SOL    HW215879   2.025   6.029   3.803
 4994SOL     OW15880   3.152   5.334   5.683
 4994SOL    HW115881   3.154   5.250   5.629
 4994SOL    HW215882   3.244   5.355   5.716
 4995SOL     OW15883   0.330   1.330   5.820
 4995SOL    HW115884   0.318   1.245   5.872
 4995SOL    HW215885   0.312   1.312   5.723
 4996SOL     OW15886   0.357   0.827   4.331
 4996SOL    HW115887   0.337   0.862   4.239
 4996SOL    HW215888   0.271   0.806   4.378
 4997SOL     OW15889   4.279   1.659   0.574
 4997SOL    HW115890   4.253   1.588   0.509
 4997SOL    HW215891   4.378   1.673   0.571
 4998SOL     OW15892   0.765   3.920   3.971
 4998SOL    HW115893   0.745   3.925   3.873
 4998SOL    HW215894   0.692   3.869   4.017
 4999SOL     OW15895   0.260   3.117   3.738
 4999SOL    HW115896   0.284   3.020   3.735
 4999SOL    HW215897   0.326   3.166   3.795
 5000SOL     OW15898   3.322   6.313   3.245
 5000SOL    HW115899   3.271   6.360   3.173
 5000SOL    HW215900   3.419   6.333   3.235
 5001SOL     OW15901   0.358   5.668   3.149
 5001SOL    HW115902   0.338   5.685   3.245
 5001SOL    HW215903   0.288   5.712   3.092
 5002SOL     OW15904   1.075   4.907   3.906
 5002SOL    HW115905   1.166   4.865   3.899
 5002SOL    HW215906   1.079   4.985   3.969
 5003SOL     OW15907   3.403   0.883   1.787
 5003SOL    HW115908   3.492   0.840   1.803
 5003SOL    HW215909   3.411   0.949   1.712
 5004SOL     OW15910   4.430   6.134   0.345
 5004SOL    HW115911   4.381   6.111   0.429
 5004SOL    HW215912   4.461   6.229   0.350
 5005SOL     OW15913   3.776   3.285   0.802
 5005SOL    HW115914   3.843   3.356   0.822
 5005SOL    HW215915   3.820   3.208   0.756
 5006SOL     OW15916   5.183   0.383   2.592
 5006SOL    HW115917   5.148   0.476   2.604
 5006SOL    HW215918   5.174   0.356   2.496
 5007SOL     OW15919   5.974   5.261   2.280
 5007SOL    HW115920   5.984   5.239   2.377
 5007SOL    HW215921   5.933   5.351   2.270
 5008SOL     OW15922   5.149   7.019   3.542
 5008SOL    HW115923   5.173   0.020   3.636
 5008SOL    HW215924   5.122   6.923   3.536
 5009SOL     OW15925   0.119   1.492   6.969
 5009SOL    HW115926   0.026   1.465   6.993
 5009SOL    HW215927   0.173   1.410   6.949
 5010SOL     OW15928   5.063   3.927   0.885
 5010SOL    HW115929   5.149   3.976   0.871
 5010SOL    HW215930   5.080   3.844   0.938
 5011SOL     OW15931   1.759   2.740   6.401
 5011SOL    HW115932   1.790   2.793   6.480
 5011SOL    HW215933   1.666   2.707   6.416
 5012SOL     OW15934   6.597   1.898   6.067
 5012SOL    HW115935   6.505   1.863   6.085
 5012SOL    HW215936   6.665   1.833   6.103
 5013SOL     OW15937   5.430   0.127   5.507
 5013SOL    HW115938   5.523   0.151   5.537
 5013SOL    HW215939   5.434   0.045   5.450
 5014SOL     OW15940   6.124   3.719   0.816
 5014SOL    HW115941   6.203   3.680   0.768
 5014SOL    HW215942   6.126   3.691   0.912
 5015SOL     OW15943   6.048   5.357   4.400
 5015SOL    HW115944   6.066   5.391   4.308
 5015SOL    HW215945   5.951   5.334   4.408
 5016SOL     OW15946   1.567   2.480   6.511
 5016SOL    HW115947   1.470   2.494   6.492
 5016SOL    HW215948   1.589   2.517   6.602
 5017SOL     OW15949   0.910   2.195   1.960
 5017SOL    HW115950   0.843   2.265   1.935
 5017SOL    HW215951   0.966   2.228   2.036
 5018SOL     OW15952   1.078   0.655   0.089
 5018SOL    HW115953   1.162   0.686   0.045
 5018SOL    HW215954   0.999   0.698   0.045
 5019SOL     OW15955   1.684   3.987   4.109
 5019SOL    HW115956   1.625   3.936   4.171
 5019SOL    HW215957   1.754   3.927   4.071
 5020SOL     OW15958   1.559   6.813   3.981
 5020SOL    HW115959   1.524   6.762   3.903
 5020SOL    HW215960   1.491   6.879   4.012
 5021SOL     OW15961   2.032   0.428   1.540
 5021SOL    HW115962   2.095   0.384   1.604
 5021SOL    HW215963   1.987   0.357   1.485
 5022SOL     OW15964   6.979   2.733   0.777
 5022SOL    HW115965   6.995   2.635   0.791
 5022SOL    HW215966   7.009   2.784   0.858
 5023SOL     OW15967   0.110   3.421   2.888
 5023SOL    HW115968   0.015   3.442   2.912
 5023SOL    HW215969   0.155   3.504   2.856
 5024SOL     OW15970   4.724   4.422   7.015
 5024SOL    HW115971   4.670   4.402   0.074
 5024SOL    HW215972   4.719   4.344   6.952
 5025SOL     OW15973   4.955   2.127   4.880
 5025SOL    HW115974   5.012   2.046   4.895
 5025SOL    HW215975   5.004   2.192   4.822
 5026SOL     OW15976   5.199   6.017   5.030
 5026SOL    HW115977   5.125   6.028   4.964
 5026SOL    HW215978   5.239   5.926   5.021
 5027SOL     OW15979   5.278   6.521   0.935
 5027SOL    HW115980   5.213   6.525   1.011
 5027SOL    HW215981   5.346   6.450   0.953
 5028SOL     OW15982   6.392   1.671   2.800
 5028SOL    HW115983   6.356   1.667   2.893
 5028SOL    HW215984   6.356   1.751   2.753
 5029SOL     OW15985   5.204   2.577   2.286
 5029SOL    HW115986   5.180   2.484   2.314
 5029SOL    HW215987   5.301   2.580   2.261
 5030SOL     OW15988   0.374   3.522   0.771
 5030SOL    HW115989   0.458   3.540   0.721
 5030SOL    HW215990   0.332   3.609   0.798
 5031SOL     OW15991   6.392   0.137   5.918
 5031SOL    HW115992   6.362   0.163   5.827
 5031SOL    HW215993   6.315   0.098   5.969
 5032SOL     OW15994   2.417   4.140   6.166
 5032SOL    HW115995   2.462   4.221   6.130
 5032SOL    HW215996   2.333   4.166   6.214
 5033SOL     OW15997   1.873   6.648   5.634
 5033SOL    HW115998   1.911   6.646   5.541
 5033SOL    HW215999   1.948   6.644   5.700
 5034SOL     OW16000   4.196   6.145   4.200
 5034SOL    HW116001   4.133   6.092   4.144
 5034SOL    HW216002   4.262   6.192   4.141
 5035SOL     OW16003   1.842   3.795   3.335
 5035SOL    HW116004   1.764   3.746   3.372
 5035SOL    HW216005   1.919   3.789   3.399
 5036SOL     OW16006   1.130   3.452   4.879
 5036SOL    HW116007   1.145   3.373   4.820
 5036SOL    HW216008   1.128   3.535   4.822
 5037SOL     OW16009   5.181   4.695   1.185
 5037SOL    HW116010   5.098   4.644   1.161
 5037SOL    HW216011   5.170   4.791   1.160
 5038SOL     OW16012   3.057   3.899   4.043
 5038SOL    HW116013   3.013   3.888   3.954
 5038SOL    HW216014   3.130   3.967   4.036
 5039SOL     OW16015   0.510   3.627   6.774
 5039SOL    HW116016   0.566   3.702   6.808
 5039SOL    HW216017   0.533   3.609   6.679
 5040SOL     OW16018   0.494   1.400   5.410
 5040SOL    HW116019   0.537   1.383   5.498
 5040SOL    HW216020   0.547   1.467   5.359
 5041SOL     OW16021   6.941   2.065   1.814
 5041SOL    HW116022   6.846   2.082   1.842
 5041SOL    HW216023   7.003   2.111   1.877
 5042SOL     OW16024   0.946   1.997   5.821
 5042SOL    HW116025   0.984   2.075   5.871
 5042SOL    HW216026   0.848   2.010   5.809
 5043SOL     OW16027   3.039   6.634   2.014
 5043SOL    HW116028   3.050   6.648   1.915
 5043SOL    HW216029   3.029   6.723   2.059
 5044SOL     OW16030   6.931   5.787   0.036
 5044SOL    HW116031   0.003   5.818   0.054
 5044SOL    HW216032   6.904   5.817   6.967
 5045SOL     OW16033   5.988   2.478   1.061
 5045SOL    HW116034   5.993   2.378   1.051
 5045SOL    HW216035   5.893   2.507   1.056
 5046SOL     OW16036   3.979   3.065   2.358
 5046SOL    HW116037   3.965   3.075   2.259
 5046SOL    HW216038   4.068   3.103   2.383
 5047SOL     OW16039   1.753   4.110   3.320
 5047SOL    HW116040   1.758   4.017   3.286
 5047SOL    HW216041   1.832   4.162   3.288
 5048SOL     OW16042   2.720   0.494   5.792
 5048SOL    HW116043   2.678   0.406   5.771
 5048SOL    HW216044   2.735   0.545   5.708
 5049SOL     OW16045   3.937   1.631   6.809
 5049SOL    HW116046   3.885   1.715   6.820
 5049SOL    HW216047   3.989   1.635   6.723
 5050SOL     OW16048   1.680   0.666   0.955
 5050SOL    HW116049   1.592   0.638   0.916
 5050SOL    HW216050   1.665   0.733   1.028
 5051SOL     OW16051   4.425   4.840   1.027
 5051SOL    HW116052   4.424   4.881   1.118
 5051SOL    HW216053   4.375   4.753   1.029
 5052SOL     OW16054   2.170   3.175   4.278
 5052SOL    HW116055   2.163   3.208   4.371
 5052SOL    HW216056   2.133   3.242   4.215
 5053SOL     OW16057   6.294   0.799   0.682
 5053SOL    HW116058   6.373   0.738   0.693
 5053SOL    HW216059   6.274   0.843   0.770
 5054SOL     OW16060   4.069   5.050   3.391
 5054SOL    HW116061   4.000   5.109   3.348
 5054SOL    HW216062   4.023   4.976   3.441
 5055SOL     OW16063   0.061   3.391   5.292
 5055SOL    HW116064   0.005   3.416   5.371
 5055SOL    HW216065   0.009   3.406   5.209
 5056SOL     OW16066   6.079   4.199   3.389
 5056SOL    HW116067   6.175   4.221   3.371
 5056SOL    HW216068   6.071   4.159   3.480
 5057SOL     OW16069   6.730   5.998   2.101
 5057SOL    HW116070   6.774   6.067   2.044
 5057SOL    HW216071   6.792   5.921   2.115
 5058SOL     OW16072   2.150   5.680   6.022
 5058SOL    HW116073   2.108   5.671   5.931
 5058SOL    HW216074   2.211   5.602   6.038
 5059SOL     OW16075   6.796   0.431   2.326
 5059SOL    HW116076   6.819   0.519   2.366
 5059SOL    HW216077   6.877   0.393   2.281
 5060SOL     OW16078   0.095   2.223   6.832
 5060SOL    HW116079   0.129   2.231   6.739
 5060SOL    HW216080   0.049   2.136   6.844
 5061SOL     OW16081   5.475   3.271   0.613
 5061SOL    HW116082   5.523   3.246   0.697
 5061SOL    HW216083   5.541   3.298   0.543
 5062SOL     OW16084   6.929   0.072   0.126
 5062SOL    HW116085   6.830   0.073   0.132
 5062SOL    HW216086   6.965   0.165   0.134
 5063SOL     OW16087   1.289   6.353   2.741
 5063SOL    HW116088   1.353   6.279   2.760
 5063SOL    HW216089   1.210   6.317   2.692
 5064SOL     OW16090   4.926   3.952   6.876
 5064SOL    HW116091   4.853   3.913   6.933
 5064SOL    HW216092   4.913   3.924   6.781
 5065SOL     OW16093   3.168   6.764   6.344
 5065SOL    HW116094   3.124   6.701   6.280
 5065SOL    HW216095   3.104   6.835   6.371
 5066SOL     OW16096   4.546   5.032   0.874
 5066SOL    HW116097   4.613   4.994   0.810
 5066SOL    HW216098   4.507   4.959   0.930
 5067SOL     OW16099   5.034   1.197   6.729
 5067SOL    HW116100   5.124   1.193   6.685
 5067SOL    HW216101   4.965   1.223   6.662
 5068SOL     OW16102   3.655   4.857   1.181
 5068SOL    HW116103   3.700   4.844   1.093
 5068SOL    HW216104   3.583   4.787   1.191
 5069SOL     OW16105   6.671   5.115   3.095
 5069SOL    HW116106   6.769   5.134   3.097
 5069SOL    HW216107   6.632   5.150   3.010
 5070SOL     OW16108   4.902   3.005   3.713
 5070SOL    HW116109   4.994   2.980   3.744
 5070SOL    HW216110   4.844   2.923   3.712
 5071SOL     OW16111   4.778   1.057   0.832
 5071SOL    HW116112   4.784   0.996   0.752
 5071SOL    HW216113   4.860   1.045   0.889
 5072SOL     OW16114   0.855   3.892   1.166
 5072SOL    HW116115   0.853   3.957   1.242
 5072SOL    HW216116   0.941   3.839   1.170
 5073SOL     OW16117   3.934   2.133   3.394
 5073SOL    HW116118   3.883   2.152   3.478
 5073SOL    HW216119   4.008   2.069   3.413
 5074SOL     OW16120   4.166   4.616   5.308
 5074SOL    HW116121   4.213   4.695   5.268
 5074SOL    HW216122   4.189   4.534   5.256
 5075SOL     OW16123   0.236   6.851   3.946
 5075SOL    HW116124   0.197   6.908   3.873
 5075SOL    HW216125   0.162   6.801   3.991
 5076SOL     OW16126   4.472   0.276   0.813
 5076SOL    HW116127   4.375   0.288   0.832
 5076SOL    HW216128   4.485   0.200   0.749
 5077SOL     OW16129   6.885   2.542   2.369
 5077SOL    HW116130   6.790   2.574   2.371
 5077SOL    HW216131   6.889   2.450   2.330
 5078SOL     OW16132   0.023   1.000   4.566
 5078SOL    HW116133   0.046   1.075   4.504
 5078SOL    HW216134   6.954   1.015   4.604
 5079SOL     OW16135   4.590   4.724   4.773
 5079SOL    HW116136   4.592   4.638   4.824
 5079SOL    HW216137   4.639   4.714   4.687
 5080SOL     OW16138   5.796   0.778   6.007
 5080SOL    HW116139   5.745   0.695   5.986
 5080SOL    HW216140   5.865   0.794   5.938
 5081SOL     OW16141   2.893   3.439   3.061
 5081SOL    HW116142   2.866   3.495   2.982
 5081SOL    HW216143   2.930   3.352   3.029
 5082SOL     OW16144   0.417   1.099   5.998
 5082SOL    HW116145   0.476   1.118   5.920
 5082SOL    HW216146   0.400   1.001   6.005
 5083SOL     OW16147   0.964   4.291   2.198
 5083SOL    HW116148   0.986   4.290   2.296
 5083SOL    HW216149   1.013   4.217   2.152
 5084SOL     OW16150   0.900   5.781   2.260
 5084SOL    HW116151   0.969   5.850   2.281
 5084SOL    HW216152   0.937   5.714   2.195
 5085SOL     OW16153   6.515   3.340   6.426
 5085SOL    HW116154   6.515   3.252   6.379
 5085SOL    HW216155   6.588   3.398   6.389
 5086SOL     OW16156   6.159   5.594   4.805
 5086SOL    HW116157   6.237   5.532   4.802
 5086SOL    HW216158   6.112   5.583   4.893
 5087SOL     OW16159   5.732   5.214   5.190
 5087SOL    HW116160   5.805   5.165   5.141
 5087SOL    HW216161   5.772   5.262   5.268
 5088SOL     OW16162   6.389   0.854   6.760
 5088SOL    HW116163   6.316   0.787   6.770
 5088SOL    HW216164   6.355   0.944   6.790
 5089SOL     OW16165   5.636   2.758   4.262
 5089SOL    HW116166   5.592   2.761   4.172
 5089SOL    HW216167   5.589   2.691   4.320
 5090SOL     OW16168   1.402   5.379   0.338
 5090SOL    HW116169   1.445   5.449   0.282
 5090SOL    HW216170   1.306   5.403   0.354
 5091SOL     OW16171   0.910   6.187   3.009
 5091SOL    HW116172   0.854   6.137   3.076
 5091SOL    HW216173   1.001   6.146   3.006
 5092SOL     OW16174   3.401   2.917   1.377
 5092SOL    HW116175   3.476   2.855   1.352
 5092SOL    HW216176   3.333   2.919   1.303
 5093SOL     OW16177   0.803   1.684   1.766
 5093SOL    HW116178   0.725   1.677   1.828
 5093SOL    HW216179   0.803   1.774   1.722
 5094SOL     OW16180   0.309   0.053   6.569
 5094SOL    HW116181   0.302   0.005   6.656
 5094SOL    HW216182   0.297   0.151   6.583
 5095SOL     OW16183   3.140   0.158   5.282
 5095SOL    HW116184   3.121   0.151   5.380
 5095SOL    HW216185   3.229   0.201   5.268
 5096SOL     OW16186   3.819   5.975   3.166
 5096SOL    HW116187   3.735   5.948   3.214
 5096SOL    HW216188   3.848   5.900   3.106
 5097SOL     OW16189   1.027   1.843   6.496
 5097SOL    HW116190   1.048   1.752   6.462
 5097SOL    HW216191   0.936   1.845   6.536
 5098SOL     OW16192   0.137   2.749   3.179
 5098SOL    HW116193   0.160   2.783   3.088
 5098SOL    HW216194   0.102   2.824   3.235
 5099SOL     OW16195   0.406   1.086   4.417
 5099SOL    HW116196   0.366   0.998   4.392
 5099SOL    HW216197   0.457   1.123   4.339
 5100SOL     OW16198   4.418   5.150   5.841
 5100SOL    HW116199   4.402   5.175   5.936
 5100SOL    HW216200   4.501   5.197   5.808
 5101SOL     OW16201   5.584   6.044   0.790
 5101SOL    HW116202   5.608   6.047   0.693
 5101SOL    HW216203   5.505   5.984   0.803
 5102SOL     OW16204   3.495   5.452   4.003
 5102SOL    HW116205   3.494   5.500   4.091
 5102SOL    HW216206   3.489   5.354   4.019
 5103SOL     OW16207   1.069   1.627   3.787
 5103SOL    HW116208   0.980   1.642   3.831
 5103SOL    HW216209   1.055   1.603   3.691
 5104SOL     OW16210   0.673   0.667   0.754
 5104SOL    HW116211   0.738   0.741   0.735
 5104SOL    HW216212   0.703   0.616   0.835
 5105SOL     OW16213   1.103   3.100   6.507
 5105SOL    HW116214   1.031   3.156   6.468
 5105SOL    HW216215   1.130   3.138   6.595
 5106SOL     OW16216   2.195   6.670   2.184
 5106SOL    HW116217   2.226   6.582   2.147
 5106SOL    HW216218   2.243   6.744   2.138
 5107SOL     OW16219   2.291   6.655   6.730
 5107SOL    HW116220   2.213   6.629   6.672
 5107SOL    HW216221   2.257   6.695   6.815
 5108SOL     OW16222   3.328   4.124   4.764
 5108SOL    HW116223   3.364   4.047   4.712
 5108SOL    HW216224   3.240   4.152   4.727
 5109SOL     OW16225   6.714   2.207   2.644
 5109SOL    HW116226   6.661   2.134   2.601
 5109SOL    HW216227   6.794   2.228   2.587
 5110SOL     OW16228   2.285   6.289   5.126
 5110SOL    HW116229   2.280   6.203   5.176
 5110SOL    HW216230   2.271   6.365   5.189
 5111SOL     OW16231   1.781   0.350   6.780
 5111SOL    HW116232   1.796   0.449   6.777
 5111SOL    HW216233   1.856   0.303   6.733
 5112SOL     OW16234   6.958   6.880   2.840
 5112SOL    HW116235   6.947   6.933   2.756
 5112SOL    HW216236   6.868   6.859   2.879
 5113SOL     OW16237   0.637   0.492   6.265
 5113SOL    HW116238   0.707   0.562   6.252
 5113SOL    HW216239   0.677   0.413   6.312
 5114SOL     OW16240   4.458   5.752   6.672
 5114SOL    HW116241   4.546   5.707   6.658
 5114SOL    HW216242   4.401   5.741   6.591
 5115SOL     OW16243   2.554   3.881   5.334
 5115SOL    HW116244   2.635   3.938   5.322
 5115SOL    HW216245   2.479   3.918   5.279
 5116SOL     OW16246   6.594   4.151   1.342
 5116SOL    HW116247   6.610   4.238   1.297
 5116SOL    HW216248   6.526   4.099   1.290
 5117SOL     OW16249   2.190   4.794   2.653
 5117SOL    HW116250   2.179   4.696   2.671
 5117SOL    HW216251   2.194   4.843   2.740
 5118SOL     OW16252   4.185   0.133   1.605
 5118SOL    HW116253   4.092   0.170   1.610
 5118SOL    HW216254   4.200   0.092   1.515
 5119SOL     OW16255   6.155   0.545   2.259
 5119SOL    HW116256   6.060   0.516   2.244
 5119SOL    HW216257   6.211   0.465   2.280
 5120SOL     OW16258   3.193   1.563   2.119
 5120SOL    HW116259   3.101   1.601   2.132
 5120SOL    HW216260   3.185   1.469   2.084
 5121SOL     OW16261   0.327   3.546   4.175
 5121SOL    HW116262   0.324   3.463   4.230
 5121SOL    HW216263   0.347   3.624   4.234
 5122SOL     OW16264   2.074   5.295   3.425
 5122SOL    HW116265   2.104   5.390   3.429
 5122SOL    HW216266   2.040   5.266   3.514
 5123SOL     OW16267   6.022   3.313   2.305
 5123SOL    HW116268   6.032   3.216   2.282
 5123SOL    HW216269   6.095   3.365   2.260
 5124SOL     OW16270   3.450   6.252   0.705
 5124SOL    HW116271   3.412   6.270   0.796
 5124SOL    HW216272   3.509   6.328   0.678
 5125SOL     OW16273   0.575   1.927   6.203
 5125SOL    HW116274   0.532   1.990   6.138
 5125SOL    HW216275   0.567   1.833   6.170
 5126SOL     OW16276   4.161   1.798   0.257
 5126SOL    HW116277   4.261   1.801   0.264
 5126SOL    HW216278   4.123   1.750   0.336
 5127SOL     OW16279   4.836   3.151   6.617
 5127SOL    HW116280   4.822   3.159   6.518
 5127SOL    HW216281   4.766   3.089   6.655
 5128SOL     OW16282   0.353   0.429   6.415
 5128SOL    HW116283   0.309   0.401   6.330
 5128SOL    HW216284   0.447   0.395   6.417
 5129SOL     OW16285   5.047   3.118   3.506
 5129SOL    HW116286   5.030   3.202   3.453
 5129SOL    HW216287   4.960   3.075   3.529
 5130SOL     OW16288   2.438   6.587   5.046
 5130SOL    HW116289   2.467   6.550   5.134
 5130SOL    HW216290   2.413   6.683   5.057
 5131SOL     OW16291   3.236   4.935   2.908
 5131SOL    HW116292   3.137   4.927   2.919
 5131SOL    HW216293   3.279   4.938   2.998
 5132SOL     OW16294   3.613   1.970   6.513
 5132SOL    HW116295   3.586   2.038   6.580
 5132SOL    HW216296   3.557   1.887   6.525
 5133SOL     OW16297   4.413   4.491   6.333
 5133SOL    HW116298   4.378   4.424   6.268
 5133SOL    HW216299   4.500   4.528   6.300
 5134SOL     OW16300   5.684   5.729   0.404
 5134SOL    HW116301   5.639   5.798   0.348
 5134SOL    HW216302   5.674   5.752   0.500
 5135SOL     OW16303   6.987   3.270   1.889
 5135SOL    HW116304   6.950   3.264   1.796
 5135SOL    HW216305   0.002   3.181   1.916
 5136SOL     OW16306   0.380   0.523   4.347
 5136SOL    HW116307   0.313   0.538   4.420
 5136SOL    HW216308   0.464   0.573   4.368
 5137SOL     OW16309   5.499   0.285   2.875
 5137SOL    HW116310   5.415   0.243   2.841
 5137SOL    HW216311   5.477   0.371   2.921
 5138SOL     OW16312   3.325   4.115   2.502
 5138SOL    HW116313   3.262   4.066   2.561
 5138SOL    HW216314   3.383   4.175   2.557
 5139SOL     OW16315   5.182   0.220   4.949
 5139SOL    HW116316   5.265   0.244   4.899
 5139SOL    HW216317   5.136   0.144   4.903
 5140SOL     OW16318   2.820   3.857   6.526
 5140SOL    HW116319   2.817   3.881   6.429
 5140SOL    HW216320   2.799   3.938   6.581
 5141SOL     OW16321   0.671   3.120   1.334
 5141SOL    HW116322   0.671   3.165   1.423
 5141SOL    HW216323   0.592   3.152   1.281
 5142SOL     OW16324   0.060   6.581   2.827
 5142SOL    HW116325   0.137   6.564   2.888
 5142SOL    HW216326   0.040   6.679   2.825
 5143SOL     OW16327   6.732   6.445   2.377
 5143SOL    HW116328   6.642   6.428   2.336
 5143SOL    HW216329   6.798   6.379   2.341
 5144SOL     OW16330   2.097   3.048   5.400
 5144SOL    HW116331   2.132   2.964   5.441
 5144SOL    HW216332   2.086   3.035   5.301
 5145SOL     OW16333   1.732   5.565   5.383
 5145SOL    HW116334   1.822   5.530   5.354
 5145SOL    HW216335   1.736   5.664   5.391
 5146SOL     OW16336   6.162   5.511   6.728
 5146SOL    HW116337   6.174   5.452   6.807
 5146SOL    HW216338   6.094   5.472   6.667
 5147SOL     OW16339   5.255   1.655   3.581
 5147SOL    HW116340   5.353   1.649   3.600
 5147SOL    HW216341   5.215   1.728   3.637
 5148SOL     OW16342   6.523   1.684   0.821
 5148SOL    HW116343   6.454   1.756   0.833
 5148SOL    HW216344   6.477   1.597   0.806
 5149SOL     OW16345   3.387   5.829   3.853
 5149SOL    HW116346   3.356   5.879   3.773
 5149SOL    HW216347   3.435   5.746   3.825
 5150SOL     OW16348   6.916   0.663   3.431
 5150SOL    HW116349   6.971   0.585   3.462
 5150SOL    HW216350   6.833   0.668   3.486
 5151SOL     OW16351   5.533   4.921   1.918
 5151SOL    HW116352   5.536   4.889   1.823
 5151SOL    HW216353   5.441   4.953   1.939
 5152SOL     OW16354   2.275   2.094   0.467
 5152SOL    HW116355   2.326   2.160   0.522
 5152SOL    HW216356   2.291   2.114   0.370
 5153SOL     OW16357   2.548   2.730   0.494
 5153SOL    HW116358   2.620   2.743   0.562
 5153SOL    HW216359   2.481   2.664   0.529
 5154SOL     OW16360   0.490   2.585   0.554
 5154SOL    HW116361   0.567   2.648   0.543
 5154SOL    HW216362   0.420   2.606   0.486
 5155SOL     OW16363   1.847   0.923   0.303
 5155SOL    HW116364   1.867   1.017   0.275
 5155SOL    HW216365   1.772   0.887   0.247
 5156SOL     OW16366   5.091   5.437   6.303
 5156SOL    HW116367   5.168   5.501   6.299
 5156SOL    HW216368   5.068   5.420   6.399
 5157SOL     OW16369   3.590   0.996   2.017
 5157SOL    HW116370   3.677   0.957   1.986
 5157SOL    HW216371   3.544   0.932   2.077
 5158SOL     OW16372   1.360   2.576   2.481
 5158SOL    HW116373   1.380   2.618   2.392
 5158SOL    HW216374   1.446   2.562   2.530
 5159SOL     OW16375   6.698   2.551   4.974
 5159SOL    HW116376   6.599   2.535   4.977
 5159SOL    HW216377   6.734   2.552   5.067
 5160SOL     OW16378   6.520   6.752   2.785
 5160SOL    HW116379   6.585   6.696   2.734
 5160SOL    HW216380   6.484   6.699   2.862
 5161SOL     OW16381   1.020   1.908   6.227
 5161SOL    HW116382   1.105   1.895   6.176
 5161SOL    HW216383   1.040   1.925   6.323
 5162SOL     OW16384   0.273   6.644   5.658
 5162SOL    HW116385   0.193   6.679   5.609
 5162SOL    HW216386   0.309   6.563   5.612
 5163SOL     OW16387   3.235   0.683   1.735
 5163SOL    HW116388   3.284   0.769   1.750
 5163SOL    HW216389   3.205   0.677   1.640
 5164SOL     OW16390   2.636   3.394   0.343
 5164SOL    HW116391   2.635   3.483   0.297
 5164SOL    HW216392   2.575   3.331   0.296
 5165SOL     OW16393   1.317   5.284   5.688
 5165SOL    HW116394   1.400   5.322   5.729
 5165SOL    HW216395   1.239   5.341   5.713
 5166SOL     OW16396   6.904   5.678   5.705
 5166SOL    HW116397   6.827   5.684   5.768
 5166SOL    HW216398   6.870   5.676   5.611
 5167SOL     OW16399   6.303   4.009   5.845
 5167SOL    HW116400   6.332   4.062   5.924
 5167SOL    HW216401   6.339   4.050   5.761
 5168SOL     OW16402   4.673   1.850   2.970
 5168SOL    HW116403   4.724   1.887   3.048
 5168SOL    HW216404   4.642   1.926   2.912
 5169SOL     OW16405   4.985   5.843   4.516
 5169SOL    HW116406   5.072   5.805   4.486
 5169SOL    HW216407   4.971   5.823   4.613
 5170SOL     OW16408   1.833   3.973   6.101
 5170SOL    HW116409   1.764   3.906   6.077
 5170SOL    HW216410   1.910   3.967   6.037
 5171SOL     OW16411   2.741   6.746   5.846
 5171SOL    HW116412   2.655   6.792   5.866
 5171SOL    HW216413   2.797   6.742   5.929
 5172SOL     OW16414   5.694   5.662   5.983
 5172SOL    HW116415   5.659   5.617   6.064
 5172SOL    HW216416   5.724   5.593   5.917
 5173SOL     OW16417   3.808   6.046   4.419
 5173SOL    HW116418   3.822   6.125   4.360
 5173SOL    HW216419   3.817   5.962   4.365
 5174SOL     OW16420   0.530   6.131   2.549
 5174SOL    HW116421   0.530   6.035   2.578
 5174SOL    HW216422   0.525   6.190   2.630
 5175SOL     OW16423   2.129   1.761   6.727
 5175SOL    HW116424   2.180   1.763   6.814
 5175SOL    HW216425   2.193   1.751   6.651
 5176SOL     OW16426   6.125   6.346   6.142
 5176SOL    HW116427   6.200   6.371   6.204
 5176SOL    HW216428   6.049   6.307   6.195
 5177SOL     OW16429   5.431   5.688   0.713
 5177SOL    HW116430   5.415   5.605   0.661
 5177SOL    HW216431   5.518   5.681   0.762
 5178SOL     OW16432   0.362   3.815   1.254
 5178SOL    HW116433   0.306   3.762   1.317
 5178SOL    HW216434   0.432   3.865   1.304
 5179SOL     OW16435   4.584   5.195   2.433
 5179SOL    HW116436   4.661   5.257   2.416
 5179SOL    HW216437   4.604   5.138   2.513
 5180SOL     OW16438   2.224   4.888   1.979
 5180SOL    HW116439   2.137   4.847   2.009
 5180SOL    HW216440   2.206   4.951   1.904
 5181SOL     OW16441   6.738   1.404   5.566
 5181SOL    HW116442   6.664   1.460   5.529
 5181SOL    HW216443   6.710   1.364   5.653
 5182SOL     OW16444   2.191   6.401   1.788
 5182SOL    HW116445   2.178   6.371   1.694
 5182SOL    HW216446   2.102   6.421   1.829
 5183SOL     OW16447   4.750   2.178   3.351
 5183SOL    HW116448   4.798   2.226   3.278
 5183SOL    HW216449   4.735   2.241   3.427
 5184SOL     OW16450   2.757   1.822   2.928
 5184SOL    HW116451   2.780   1.830   2.831
 5184SOL    HW216452   2.680   1.882   2.948
 5185SOL     OW16453   6.247   6.963   1.654
 5185SOL    HW116454   6.155   7.000   1.638
 5185SOL    HW216455   6.272   6.979   1.750
 5186SOL     OW16456   6.202   2.332   6.684
 5186SOL    HW116457   6.242   2.380   6.762
 5186SOL    HW216458   6.144   2.396   6.633
 5187SOL     OW16459   1.535   4.600   5.049
 5187SOL    HW116460   1.629   4.568   5.038
 5187SOL    HW216461   1.487   4.593   4.961
 5188SOL     OW16462   6.789   0.155   1.181
 5188SOL    HW116463   6.744   0.194   1.261
 5188SOL    HW216464   6.790   0.056   1.187
 5189SOL     OW16465   5.176   6.045   6.646
 5189SOL    HW116466   5.234   5.965   6.627
 5189SOL    HW216467   5.171   6.102   6.564
 5190SOL     OW16468   1.526   4.814   0.695
 5190SOL    HW116469   1.603   4.797   0.757
 5190SOL    HW216470   1.448   4.848   0.747
 5191SOL     OW16471   2.706   4.017   1.599
 5191SOL    HW116472   2.718   3.924   1.635
 5191SOL    HW216473   2.796   4.058   1.583
 5192SOL     OW16474   0.637   4.689   2.866
 5192SOL    HW116475   0.584   4.641   2.936
 5192SOL    HW216476   0.585   4.770   2.836
 5193SOL     OW16477   3.919   0.713   5.059
 5193SOL    HW116478   3.932   0.619   5.028
 5193SOL    HW216479   3.824   0.727   5.085
 5194SOL     OW16480   4.372   1.763   4.991
 5194SOL    HW116481   4.348   1.741   5.085
 5194SOL    HW216482   4.297   1.738   4.930
 5195SOL     OW16483   1.899   1.359   5.731
 5195SOL    HW116484   1.869   1.304   5.653
 5195SOL    HW216485   1.822   1.414   5.765
 5196SOL     OW16486   5.918   6.355   3.137
 5196SOL    HW116487   5.840   6.292   3.134
 5196SOL    HW216488   5.898   6.436   3.081
 5197SOL     OW16489   1.660   4.178   5.108
 5197SOL    HW116490   1.681   4.214   5.017
 5197SOL    HW216491   1.570   4.135   5.107
 5198SOL     OW16492   6.130   5.691   3.736
 5198SOL    HW116493   6.188   5.718   3.659
 5198SOL    HW216494   6.038   5.729   3.724
 5199SOL     OW16495   0.837   5.103   1.286
 5199SOL    HW116496   0.860   5.189   1.332
 5199SOL    HW216497   0.920   5.048   1.275
 5200SOL     OW16498   6.291   3.692   5.220
 5200SOL    HW116499   6.207   3.686   5.274
 5200SOL    HW216500   6.315   3.601   5.185
 5201SOL     OW16501   1.217   6.386   4.539
 5201SOL    HW116502   1.228   6.310   4.475
 5201SOL    HW216503   1.203   6.350   4.632
 5202SOL     OW16504   6.907   4.251   1.167
 5202SOL    HW116505   6.896   4.297   1.078
 5202SOL    HW216506   6.829   4.274   1.226
 5203SOL     OW16507   6.297   3.281   6.798
 5203SOL    HW116508   6.225   3.320   6.740
 5203SOL    HW216509   6.385   3.317   6.768
 5204SOL     OW16510   5.355   5.405   6.643
 5204SOL    HW116511   5.386   5.345   6.569
 5204SOL    HW216512   5.428   5.470   6.666
 5205SOL     OW16513   2.780   6.262   0.171
 5205SOL    HW116514   2.866   6.217   0.193
 5205SOL    HW216515   2.704   6.200   0.191
 5206SOL     OW16516   0.197   4.406   4.937
 5206SOL    HW116517   0.224   4.448   4.850
 5206SOL    HW216518   0.257   4.439   5.009
 5207SOL     OW16519   1.496   5.173   2.607
 5207SOL    HW116520   1.483   5.157   2.705
 5207SOL    HW216521   1.423   5.234   2.574
 5208SOL     OW16522   4.995   1.516   0.171
 5208SOL    HW116523   5.075   1.495   0.228
 5208SOL    HW216524   5.017   1.499   0.075
 5209SOL     OW16525   5.830   4.956   2.860
 5209SOL    HW116526   5.796   4.922   2.948
 5209SOL    HW216527   5.908   4.899   2.831
 5210SOL     OW16528   4.916   3.917   3.160
 5210SOL    HW116529   4.862   3.991   3.119
 5210SOL    HW216530   4.942   3.942   3.253
 5211SOL     OW16531   3.223   3.624   2.553
 5211SOL    HW116532   3.286   3.546   2.553
 5211SOL    HW216533   3.256   3.692   2.618
 5212SOL     OW16534   0.822   6.843   6.930
 5212SOL    HW116535   0.839   6.787   7.012
 5212SOL    HW216536   0.887   6.818   6.859
 5213SOL     OW16537   4.575   2.250   6.328
 5213SOL    HW116538   4.575   2.162   6.281
 5213SOL    HW216539   4.615   2.320   6.268
 5214SOL     OW16540   4.499   2.152   6.962
 5214SOL    HW116541   4.512   2.250   6.948
 5214SOL    HW216542   4.548   2.123   0.023
 5215SOL     OW16543   5.397   5.511   3.774
 5215SOL    HW116544   5.309   5.470   3.748
 5215SOL    HW216545   5.456   5.442   3.814
 5216SOL     OW16546   4.505   5.853   1.424
 5216SOL    HW116547   4.410   5.879   1.412
 5216SOL    HW216548   4.511   5.767   1.476
 5217SOL     OW16549   2.893   4.815   3.363
 5217SOL    HW116550   2.967   4.883   3.359
 5217SOL    HW216551   2.856   4.812   3.456
 5218SOL     OW16552   1.881   6.915   4.133
 5218SOL    HW116553   1.853   7.008   4.106
 5218SOL    HW216554   1.872   6.854   4.055
 5219SOL     OW16555   3.190   0.419   1.489
 5219SOL    HW116556   3.135   0.337   1.470
 5219SOL    HW216557   3.248   0.402   1.569
 5220SOL     OW16558   1.191   6.706   2.033
 5220SOL    HW116559   1.125   6.774   2.064
 5220SOL    HW216560   1.274   6.751   2.000
 5221SOL     OW16561   4.386   1.136   0.414
 5221SOL    HW116562   4.330   1.122   0.333
 5221SOL    HW216563   4.385   1.232   0.440
 5222SOL     OW16564   0.835   6.469   2.391
 5222SOL    HW116565   0.861   6.501   2.483
 5222SOL    HW216566   0.824   6.370   2.392
 5223SOL     OW16567   4.385   6.609   0.950
 5223SOL    HW116568   4.332   6.579   1.029
 5223SOL    HW216569   4.377   6.542   0.876
 5224SOL     OW16570   5.568   0.946   3.866
 5224SOL    HW116571   5.506   0.939   3.788
 5224SOL    HW216572   5.542   0.879   3.935
 5225SOL     OW16573   0.365   6.903   4.907
 5225SOL    HW116574   0.452   6.898   4.857
 5225SOL    HW216575   0.373   6.971   4.980
 5226SOL     OW16576   2.549   0.460   4.106
 5226SOL    HW116577   2.614   0.385   4.099
 5226SOL    HW216578   2.590   0.543   4.069
 5227SOL     OW16579   5.004   3.390   4.326
 5227SOL    HW116580   4.999   3.485   4.297
 5227SOL    HW216581   4.912   3.357   4.349
 5228SOL     OW16582   5.225   0.839   1.717
 5228SOL    HW116583   5.319   0.853   1.688
 5228SOL    HW216584   5.174   0.793   1.644
 5229SOL     OW16585   1.099   4.400   3.809
 5229SOL    HW116586   1.095   4.402   3.908
 5229SOL    HW216587   1.058   4.315   3.775
 5230SOL     OW16588   0.876   1.183   6.278
 5230SOL    HW116589   0.887   1.101   6.222
 5230SOL    HW216590   0.957   1.241   6.267
 5231SOL     OW16591   2.909   3.621   3.627
 5231SOL    HW116592   2.818   3.593   3.658
 5231SOL    HW216593   2.960   3.541   3.596
 5232SOL     OW16594   5.502   2.900   4.970
 5232SOL    HW116595   5.459   2.947   4.893
 5232SOL    HW216596   5.468   2.938   5.055
 5233SOL     OW16597   0.541   0.094   2.972
 5233SOL    HW116598   0.518   7.019   2.964
 5233SOL    HW216599   0.520   0.126   3.064
 5234SOL     OW16600   4.194   5.107   1.435
 5234SOL    HW116601   4.121   5.112   1.366
 5234SOL    HW216602   4.266   5.046   1.404
 5235SOL     OW16603   0.913   2.985   1.796
 5235SOL    HW116604   0.910   2.906   1.858
 5235SOL    HW216605   1.001   2.985   1.748
 5236SOL     OW16606   6.291   3.674   0.125
 5236SOL    HW116607   6.343   3.752   0.159
 5236SOL    HW216608   6.259   3.693   0.032
 5237SOL     OW16609   1.657   1.603   3.207
 5237SOL    HW116610   1.701   1.580   3.120
 5237SOL    HW216611   1.696   1.688   3.242
 5238SOL     OW16612   2.277   3.137   0.829
 5238SOL    HW116613   2.246   3.232   0.840
 5238SOL    HW216614   2.315   3.105   0.916
 5239SOL     OW16615   2.986   3.294   4.859
 5239SOL    HW116616   2.925   3.257   4.929
 5239SOL    HW216617   2.959   3.388   4.838
 5240SOL     OW16618   3.509   2.050   4.974
 5240SOL    HW116619   3.549   2.082   5.059
 5240SOL    HW216620   3.411   2.071   4.972
 5241SOL     OW16621   3.044   5.484   5.408
 5241SOL    HW116622   2.974   5.414   5.427
 5241SOL    HW216623   3.079   5.520   5.494
 5242SOL     OW16624   4.180   6.875   5.488
 5242SOL    HW116625   4.124   6.850   5.409
 5242SOL    HW216626   4.128   6.861   5.572
 5243SOL     OW16627   0.758   4.156   0.716
 5243SOL    HW116628   0.785   4.250   0.740
 5243SOL    HW216629   0.794   4.093   0.784
 5244SOL     OW16630   5.484   3.419   6.865
 5244SOL    HW116631   5.515   3.474   6.788
 5244SOL    HW216632   5.385   3.406   6.860
 5245SOL     OW16633   4.850   4.731   6.120
 5245SOL    HW116634   4.943   4.695   6.127
 5245SOL    HW216635   4.815   4.714   6.028
 5246SOL     OW16636   1.429   3.470   3.355
 5246SOL    HW116637   1.500   3.403   3.333
 5246SOL    HW216638   1.383   3.499   3.271
 5247SOL     OW16639   0.199   4.739   0.347
 5247SOL    HW116640   0.267   4.769   0.281
 5247SOL    HW216641   0.108   4.740   0.305
 5248SOL     OW16642   5.041   0.906   0.226
 5248SOL    HW116643   5.069   0.991   0.183
 5248SOL    HW216644   5.105   0.833   0.201
 5249SOL     OW16645   1.419   5.584   0.112
 5249SOL    HW116646   1.377   5.636   0.037
 5249SOL    HW216647   1.495   5.636   0.150
 5250SOL     OW16648   1.251   1.575   5.554
 5250SOL    HW116649   1.294   1.535   5.472
 5250SOL    HW216650   1.268   1.515   5.632
 5251SOL     OW16651   0.246   3.069   0.824
 5251SOL    HW116652   0.258   3.026   0.735
 5251SOL    HW216653   0.281   3.162   0.822
 5252SOL     OW16654   5.090   6.585   1.121
 5252SOL    HW116655   5.040   6.669   1.139
 5252SOL    HW216656   5.043   6.508   1.165
 5253SOL     OW16657   5.839   2.874   3.699
 5253SOL    HW116658   5.936   2.897   3.715
 5253SOL    HW216659   5.782   2.934   3.754
 5254SOL     OW16660   5.409   0.649   4.624
 5254SOL    HW116661   5.456   0.710   4.560
 5254SOL    HW216662   5.318   0.626   4.588
 5255SOL     OW16663   2.814   5.481   3.570
 5255SOL    HW116664   2.725   5.503   3.609
 5255SOL    HW216665   2.878   5.458   3.643
 5256SOL     OW16666   5.110   6.243   1.869
 5256SOL    HW116667   5.185   6.224   1.931
 5256SOL    HW216668   5.023   6.228   1.915
 5257SOL     OW16669   3.228   1.455   3.094
 5257SOL    HW116670   3.181   1.504   3.021
 5257SOL    HW216671   3.161   1.404   3.148
 5258SOL     OW16672   5.830   1.727   1.564
 5258SOL    HW116673   5.740   1.701   1.529
 5258SOL    HW216674   5.832   1.825   1.582
 5259SOL     OW16675   5.852   4.604   1.528
 5259SOL    HW116676   5.837   4.525   1.468
 5259SOL    HW216677   5.892   4.679   1.475
 5260SOL     OW16678   4.571   2.452   1.624
 5260SOL    HW116679   4.646   2.400   1.663
 5260SOL    HW216680   4.547   2.528   1.685
 5261SOL     OW16681   2.610   2.606   5.241
 5261SOL    HW116682   2.629   2.606   5.339
 5261SOL    HW216683   2.532   2.665   5.221
 5262SOL     OW16684   1.328   0.259   1.714
 5262SOL    HW116685   1.385   0.191   1.669
 5262SOL    HW216686   1.384   0.314   1.776
 5263SOL     OW16687   1.372   6.678   6.770
 5263SOL    HW116688   1.324   6.749   6.719
 5263SOL    HW216689   1.471   6.690   6.758
 5264SOL     OW16690   0.732   1.243   1.375
 5264SOL    HW116691   0.786   1.303   1.434
 5264SOL    HW216692   0.779   1.156   1.363
 5265SOL     OW16693   5.166   4.910   3.815
 5265SOL    HW116694   5.151   4.935   3.911
 5265SOL    HW216695   5.263   4.897   3.799
 5266SOL     OW16696   1.785   0.170   1.122
 5266SOL    HW116697   1.773   0.237   1.195
 5266SOL    HW216698   1.804   0.081   1.162
 5267SOL     OW16699   4.229   3.771   5.254
 5267SOL    HW116700   4.228   3.673   5.230
 5267SOL    HW216701   4.135   3.806   5.254
 5268SOL     OW16702   5.661   5.151   5.790
 5268SOL    HW116703   5.611   5.198   5.717
 5268SOL    HW216704   5.597   5.108   5.853
 5269SOL     OW16705   1.859   4.938   5.912
 5269SOL    HW116706   1.775   4.991   5.921
 5269SOL    HW216707   1.921   4.985   5.849
 5270SOL     OW16708   6.736   2.236   3.668
 5270SOL    HW116709   6.755   2.138   3.681
 5270SOL    HW216710   6.641   2.255   3.693
 5271SOL     OW16711   5.492   3.421   5.664
 5271SOL    HW116712   5.434   3.429   5.745
 5271SOL    HW216713   5.560   3.350   5.679
 5272SOL     OW16714   2.149   1.640   3.743
 5272SOL    HW116715   2.088   1.698   3.796
 5272SOL    HW216716   2.202   1.581   3.805
 5273SOL     OW16717   6.575   0.271   5.137
 5273SOL    HW116718   6.628   0.186   5.132
 5273SOL    HW216719   6.634   0.349   5.116
 5274SOL     OW16720   0.340   5.414   4.569
 5274SOL    HW116721   0.384   5.504   4.573
 5274SOL    HW216722   0.326   5.388   4.474
 5275SOL     OW16723   2.049   6.542   6.956
 5275SOL    HW116724   2.054   6.471   6.886
 5275SOL    HW216725   2.102   6.621   6.928
 5276SOL     OW16726   0.728   6.952   0.534
 5276SOL    HW116727   0.751   6.999   0.619
 5276SOL    HW216728   0.811   6.932   0.483
 5277SOL     OW16729   0.055   1.130   2.231
 5277SOL    HW116730   0.092   1.220   2.254
 5277SOL    HW216731   0.093   1.098   2.144
 5278SOL     OW16732   0.828   4.309   5.823
 5278SOL    HW116733   0.820   4.385   5.888
 5278SOL    HW216734   0.916   4.314   5.776
 5279SOL     OW16735   2.568   6.607   6.943
 5279SOL    HW116736   2.503   6.669   6.987
 5279SOL    HW216737   2.553   6.609   6.844
 5280SOL     OW16738   4.422   6.647   5.381
 5280SOL    HW116739   4.492   6.575   5.384
 5280SOL    HW216740   4.364   6.642   5.462
 5281SOL     OW16741   3.090   6.891   4.976
 5281SOL    HW116742   3.013   6.860   5.032
 5281SOL    HW216743   3.065   6.979   4.933
 5282SOL     OW16744   0.413   6.528   0.564
 5282SOL    HW116745   0.466   6.452   0.527
 5282SOL    HW216746   0.401   6.599   0.494
 5283SOL     OW16747   1.452   0.916   3.833
 5283SOL    HW116748   1.427   0.992   3.894
 5283SOL    HW216749   1.370   0.870   3.801
 5284SOL     OW16750   4.862   3.009   2.195
 5284SOL    HW116751   4.940   2.952   2.168
 5284SOL    HW216752   4.791   3.004   2.125
 5285SOL     OW16753   1.733   2.048   4.062
 5285SOL    HW116754   1.825   2.072   4.033
 5285SOL    HW216755   1.724   1.949   4.068
 5286SOL     OW16756   6.385   3.171   1.075
 5286SOL    HW116757   6.423   3.260   1.051
 5286SOL    HW216758   6.444   3.099   1.038
 5287SOL     OW16759   0.820   5.224   1.990
 5287SOL    HW116760   0.885   5.152   2.013
 5287SOL    HW216761   0.870   5.302   1.952
 5288SOL     OW16762   3.983   0.632   1.639
 5288SOL    HW116763   4.063   0.578   1.614
 5288SOL    HW216764   3.979   0.641   1.739
 5289SOL     OW16765   2.320   4.741   5.746
 5289SOL    HW116766   2.293   4.649   5.716
 5289SOL    HW216767   2.417   4.742   5.767
 5290SOL     OW16768   1.696   2.941   5.059
 5290SOL    HW116769   1.670   2.852   5.099
 5290SOL    HW216770   1.661   3.015   5.117
 5291SOL     OW16771   2.700   4.777   4.527
 5291SOL    HW116772   2.624   4.721   4.494
 5291SOL    HW216773   2.728   4.745   4.618
 5292SOL     OW16774   0.233   3.858   4.602
 5292SOL    HW116775   0.233   3.957   4.583
 5292SOL    HW216776   0.288   3.840   4.683
 5293SOL     OW16777   2.331   0.334   4.259
 5293SOL    HW116778   2.301   0.394   4.333
 5293SOL    HW216779   2.406   0.378   4.209
 5294SOL     OW16780   5.118   7.011   4.596
 5294SOL    HW116781   5.037   6.971   4.552
 5294SOL    HW216782   5.119   6.985   4.692
 5295SOL     OW16783   2.179   0.865   1.595
 5295SOL    HW116784   2.154   0.846   1.690
 5295SOL    HW216785   2.137   0.797   1.536
 5296SOL     OW16786   4.819   4.970   1.957
 5296SOL    HW116787   4.849   4.951   1.864
 5296SOL    HW216788   4.732   4.925   1.974
 5297SOL     OW16789   3.393   5.619   6.002
 5297SOL    HW116790   3.487   5.646   6.024
 5297SOL    HW216791   3.390   5.582   5.910
 5298SOL     OW16792   2.739   1.908   0.240
 5298SOL    HW116793   2.679   1.988   0.238
 5298SOL    HW216794   2.708   1.842   0.172
 5299SOL     OW16795   2.401   0.669   1.736
 5299SOL    HW116796   2.465   0.710   1.801
 5299SOL    HW216797   2.312   0.659   1.779
 5300SOL     OW16798   3.248   5.205   6.738
 5300SOL    HW116799   3.313   5.279   6.754
 5300SOL    HW216800   3.177   5.207   6.808
 5301SOL     OW16801   6.099   6.946   5.727
 5301SOL    HW116802   6.060   6.980   5.642
 5301SOL    HW216803   6.056   6.992   5.805
 5302SOL     OW16804   4.772   5.756   2.859
 5302SOL    HW116805   4.850   5.704   2.895
 5302SOL    HW216806   4.778   5.850   2.891
 5303SOL     OW16807   1.324   5.827   5.447
 5303SOL    HW116808   1.318   5.912   5.500
 5303SOL    HW216809   1.357   5.753   5.507
 5304SOL     OW16810   0.622   0.819   2.784
 5304SOL    HW116811   0.636   0.728   2.744
 5304SOL    HW216812   0.613   0.811   2.883
 5305SOL     OW16813   0.077   5.439   4.933
 5305SOL    HW116814   0.134   5.362   4.903
 5305SOL    HW216815   0.034   5.481   4.853
 5306SOL     OW16816   0.800   1.987   6.087
 5306SOL    HW116817   0.878   1.956   6.142
 5306SOL    HW216818   0.716   1.950   6.125
 5307SOL     OW16819   0.050   1.193   1.571
 5307SOL    HW116820   6.983   1.191   1.525
 5307SOL    HW216821   0.041   1.238   1.659
 5308SOL     OW16822   1.612   4.562   2.585
 5308SOL    HW116823   1.621   4.651   2.628
 5308SOL    HW216824   1.516   4.536   2.580
 5309SOL     OW16825   5.735   5.763   3.589
 5309SOL    HW116826   5.797   5.835   3.620
 5309SOL    HW216827   5.780   5.709   3.518
 5310SOL     OW16828   6.329   2.291   3.462
 5310SOL    HW116829   6.359   2.306   3.368
 5310SOL    HW216830   6.257   2.356   3.485
 5311SOL     OW16831   6.216   0.477   0.220
 5311SOL    HW116832   6.216   0.407   0.291
 5311SOL    HW216833   6.142   0.542   0.236
 5312SOL     OW16834   6.165   6.604   0.431
 5312SOL    HW116835   6.090   6.663   0.460
 5312SOL    HW216836   6.131   6.537   0.365
 5313SOL     OW16837   1.233   7.007   5.830
 5313SOL    HW116838   1.245   6.923   5.882
 5313SOL    HW216839   1.147   0.029   5.857
 5314SOL     OW16840   5.951   2.229   1.867
 5314SOL    HW116841   6.041   2.262   1.894
 5314SOL    HW216842   5.963   2.150   1.806
 5315SOL     OW16843   4.311   2.334   3.859
 5315SOL    HW116844   4.392   2.383   3.891
 5315SOL    HW216845   4.300   2.349   3.760
 5316SOL     OW16846   0.607   2.945   4.887
 5316SOL    HW116847   0.703   2.954   4.861
 5316SOL    HW216848   0.572   3.033   4.918
 5317SOL     OW16849   5.736   2.911   6.484
 5317SOL    HW116850   5.775   2.916   6.392
 5317SOL    HW216851   5.774   2.832   6.532
 5318SOL     OW16852   0.168   3.810   5.904
 5318SOL    HW116853   0.169   3.874   5.827
 5318SOL    HW216854   0.183   3.861   5.989
 5319SOL     OW16855   3.179   6.133   2.625
 5319SOL    HW116856   3.172   6.184   2.711
 5319SOL    HW216857   3.101   6.155   2.567
 5320SOL     OW16858   4.533   5.649   1.173
 5320SOL    HW116859   4.486   5.689   1.252
 5320SOL    HW216860   4.466   5.609   1.111
 5321SOL     OW16861   1.548   4.351   5.646
 5321SOL    HW116862   1.621   4.283   5.636
 5321SOL    HW216863   1.565   4.427   5.583
 5322SOL     OW16864   4.086   6.494   2.255
 5322SOL    HW116865   4.111   6.445   2.338
 5322SOL    HW216866   4.041   6.432   2.191
 5323SOL     OW16867   4.216   0.352   6.138
 5323SOL    HW116868   4.202   0.319   6.045
 5323SOL    HW216869   4.254   0.444   6.135
 5324SOL     OW16870   1.740   2.112   1.619
 5324SOL    HW116871   1.765   2.209   1.615
 5324SOL    HW216872   1.711   2.081   1.529
 5325SOL     OW16873   2.105   2.636   5.025
 5325SOL    HW116874   2.060   2.665   4.941
 5325SOL    HW216875   2.037   2.627   5.098
 5326SOL     OW16876   6.163   0.058   1.028
 5326SOL    HW116877   6.067   0.080   1.012
 5326SOL    HW216878   6.200   0.118   1.099
 5327SOL     OW16879   0.340   2.530   5.402
 5327SOL    HW116880   0.371   2.468   5.474
 5327SOL    HW216881   0.402   2.609   5.397
 5328SOL     OW16882   5.042   5.149   0.443
 5328SOL    HW116883   5.138   5.121   0.440
 5328SOL    HW216884   5.033   5.241   0.405
 5329SOL     OW16885   2.278   6.771   6.271
 5329SOL    HW116886   2.356   6.792   6.330
 5329SOL    HW216887   2.257   6.850   6.214
 5330SOL     OW16888   2.595   4.811   1.117
 5330SOL    HW116889   2.662   4.837   1.187
 5330SOL    HW216890   2.634   4.740   1.058
 5331SOL     OW16891   6.510   0.929   6.514
 5331SOL    HW116892   6.604   0.937   6.545
 5331SOL    HW216893   6.451   0.904   6.591
 5332SOL     OW16894   0.017   5.343   1.776
 5332SOL    HW116895   0.100   5.398   1.772
 5332SOL    HW216896   0.040   5.249   1.800
 5333SOL     OW16897   1.138   6.020   5.291
 5333SOL    HW116898   1.212   5.966   5.252
 5333SOL    HW216899   1.121   5.991   5.385
 5334SOL     OW16900   3.803   6.756   4.776
 5334SOL    HW116901   3.829   6.676   4.830
 5334SOL    HW216902   3.882   6.790   4.726
 5335SOL     OW16903   0.295   5.574   0.107
 5335SOL    HW116904   0.264   5.668   0.097
 5335SOL    HW216905   0.300   5.551   0.204
 5336SOL     OW16906   0.997   4.602   1.384
 5336SOL    HW116907   1.058   4.543   1.332
 5336SOL    HW216908   1.045   4.687   1.407
 5337SOL     OW16909   4.994   4.007   1.185
 5337SOL    HW116910   4.965   4.103   1.184
 5337SOL    HW216911   4.992   3.971   1.092
 5338SOL     OW16912   5.964   2.398   0.263
 5338SOL    HW116913   5.967   2.421   0.166
 5338SOL    HW216914   5.964   2.298   0.274
 5339SOL     OW16915   6.151   0.229   2.218
 5339SOL    HW116916   6.071   0.239   2.277
 5339SOL    HW216917   6.218   0.300   2.240
 5340SOL     OW16918   5.638   2.314   6.211
 5340SOL    HW116919   5.566   2.380   6.233
 5340SOL    HW216920   5.712   2.361   6.163
 5341SOL     OW16921   4.670   0.603   0.585
 5341SOL    HW116922   4.713   0.593   0.496
 5341SOL    HW216923   4.621   0.519   0.608
 5342SOL     OW16924   2.496   0.873   6.191
 5342SOL    HW116925   2.426   0.825   6.242
 5342SOL    HW216926   2.454   0.930   6.120
 5343SOL     OW16927   3.547   4.095   1.967
 5343SOL    HW116928   3.570   4.000   1.945
 5343SOL    HW216929   3.569   4.113   2.063
 5344SOL     OW16930   2.260   2.844   2.732
 5344SOL    HW116931   2.323   2.859   2.809
 5344SOL    HW216932   2.189   2.913   2.734
 5345SOL     OW16933   5.090   0.468   2.915
 5345SOL    HW116934   5.153   0.471   2.837
 5345SOL    HW216935   5.046   0.379   2.918
 5346SOL     OW16936   2.866   6.875   3.527
 5346SOL    HW116937   2.948   6.930   3.519
 5346SOL    HW216938   2.822   6.893   3.615
 5347SOL     OW16939   6.672   1.984   1.844
 5347SOL    HW116940   6.691   1.924   1.921
 5347SOL    HW216941   6.598   1.946   1.788
 5348SOL     OW16942   6.971   1.305   0.801
 5348SOL    HW116943   6.950   1.402   0.786
 5348SOL    HW216944   6.977   1.287   0.899
 5349SOL     OW16945   6.394   0.267   1.237
 5349SOL    HW116946   6.486   0.239   1.264
 5349SOL    HW216947   6.327   0.204   1.276
 5350SOL     OW16948   2.794   0.423   6.623
 5350SOL    HW116949   2.863   0.380   6.565
 5350SOL    HW216950   2.832   0.506   6.664
 5351SOL     OW16951   3.995   0.640   1.927
 5351SOL    HW116952   3.954   0.553   1.954
 5351SOL    HW216953   4.075   0.658   1.986
 5352SOL     OW16954   3.338   6.274   3.499
 5352SOL    HW116955   3.324   6.268   3.400
 5352SOL    HW216956   3.431   6.246   3.521
 5353SOL     OW16957   5.809   0.452   5.824
 5353SOL    HW116958   5.909   0.447   5.822
 5353SOL    HW216959   5.779   0.531   5.771
 5354SOL     OW16960   1.908   3.189   0.933
 5354SOL    HW116961   1.886   3.092   0.928
 5354SOL    HW216962   1.936   3.222   0.843
 5355SOL     OW16963   4.330   1.428   6.048
 5355SOL    HW116964   4.294   1.515   6.015
 5355SOL    HW216965   4.382   1.444   6.132
 5356SOL     OW16966   6.187   3.386   0.780
 5356SOL    HW116967   6.202   3.395   0.682
 5356SOL    HW216968   6.180   3.289   0.803
 5357SOL     OW16969   4.306   6.086   0.577
 5357SOL    HW116970   4.218   6.039   0.564
 5357SOL    HW216971   4.353   6.047   0.657
 5358SOL     OW16972   4.812   3.910   1.556
 5358SOL    HW116973   4.824   4.008   1.570
 5358SOL    HW216974   4.789   3.867   1.644
 5359SOL     OW16975   3.208   0.003   6.970
 5359SOL    HW116976   3.246   0.093   6.992
 5359SOL    HW216977   3.108   0.007   6.972
 5360SOL     OW16978   4.387   0.565   0.287
 5360SOL    HW116979   4.375   0.658   0.324
 5360SOL    HW216980   4.307   0.541   0.233
 5361SOL     OW16981   1.613   0.935   6.307
 5361SOL    HW116982   1.542   0.864   6.316
 5361SOL    HW216983   1.697   0.904   6.351
 5362SOL     OW16984   4.210   5.429   3.488
 5362SOL    HW116985   4.223   5.510   3.430
 5362SOL    HW216986   4.250   5.349   3.444
 5363SOL     OW16987   0.736   5.487   4.807
 5363SOL    HW116988   0.798   5.437   4.868
 5363SOL    HW216989   0.664   5.529   4.861
 5364SOL     OW16990   1.178   6.064   6.667
 5364SOL    HW116991   1.273   6.040   6.686
 5364SOL    HW216992   1.172   6.105   6.576
 5365SOL     OW16993   3.537   1.805   6.053
 5365SOL    HW116994   3.572   1.712   6.040
 5365SOL    HW216995   3.582   1.847   6.132
 5366SOL     OW16996   3.277   4.373   6.449
 5366SOL    HW116997   3.318   4.428   6.521
 5366SOL    HW216998   3.182   4.401   6.436
 5367SOL     OW16999   0.600   4.703   0.588
 5367SOL    HW117000   0.518   4.652   0.612
 5367SOL    HW217001   0.632   4.754   0.668
 5368SOL     OW17002   0.226   0.681   3.776
 5368SOL    HW117003   0.316   0.662   3.816
 5368SOL    HW217004   0.229   0.768   3.728
 5369SOL     OW17005   2.074   3.463   2.216
 5369SOL    HW117006   2.126   3.474   2.131
 5369SOL    HW217007   2.007   3.537   2.224
 5370SOL     OW17008   3.806   2.951   1.331
 5370SOL    HW117009   3.756   2.992   1.407
 5370SOL    HW217010   3.904   2.962   1.346
 5371SOL     OW17011   1.785   4.331   4.797
 5371SOL    HW117012   1.865   4.342   4.855
 5371SOL    HW217013   1.760   4.419   4.757
 5372SOL     OW17014   3.312   6.299   2.829
 5372SOL    HW117015   3.293   6.352   2.912
 5372SOL    HW217016   3.283   6.351   2.749
 5373SOL     OW17017   1.602   5.164   4.249
 5373SOL    HW117018   1.625   5.195   4.341
 5373SOL    HW217019   1.551   5.078   4.254
 5374SOL     OW17020   2.808   2.743   0.685
 5374SOL    HW117021   2.862   2.741   0.769
 5374SOL    HW217022   2.860   2.790   0.614
 5375SOL     OW17023   0.852   3.868   4.977
 5375SOL    HW117024   0.909   3.796   5.016
 5375SOL    HW217025   0.756   3.841   4.981
 5376SOL     OW17026   2.945   4.576   6.733
 5376SOL    HW117027   2.903   4.648   6.789
 5376SOL    HW217028   2.945   4.490   6.784
 5377SOL     OW17029   0.651   1.589   2.038
 5377SOL    HW117030   0.686   1.681   2.023
 5377SOL    HW217031   0.727   1.529   2.065
 5378SOL     OW17032   5.121   6.855   0.130
 5378SOL    HW117033   5.148   6.903   0.046
 5378SOL    HW217034   5.024   6.833   0.125
 5379SOL     OW17035   0.263   6.475   1.009
 5379SOL    HW117036   0.231   6.497   0.917
 5379SOL    HW217037   0.337   6.538   1.034
 5380SOL     OW17038   2.065   1.096   4.544
 5380SOL    HW117039   1.989   1.086   4.480
 5380SOL    HW217040   2.062   1.187   4.585
 5381SOL     OW17041   5.860   3.717   1.758
 5381SOL    HW117042   5.947   3.762   1.738
 5381SOL    HW217043   5.845   3.717   1.856
 5382SOL     OW17044   1.683   6.992   1.731
 5382SOL    HW117045   1.670   6.905   1.779
 5382SOL    HW217046   1.744   0.028   1.784
 5383SOL     OW17047   2.226   1.931   4.510
 5383SOL    HW117048   2.127   1.912   4.511
 5383SOL    HW217049   2.242   2.021   4.550
 5384SOL     OW17050   5.408   6.706   4.552
 5384SOL    HW117051   5.467   6.787   4.553
 5384SOL    HW217052   5.414   6.661   4.641
 5385SOL     OW17053   3.475   4.158   3.124
 5385SOL    HW117054   3.574   4.168   3.117
 5385SOL    HW217055   3.436   4.145   3.033
 5386SOL     OW17056   5.666   0.047   5.631
 5386SOL    HW117057   5.690   0.077   5.723
 5386SOL    HW217058   5.635   6.974   5.634
 5387SOL     OW17059   3.613   4.681   1.429
 5387SOL    HW117060   3.606   4.769   1.476
 5387SOL    HW217061   3.548   4.678   1.353
 5388SOL     OW17062   6.063   6.030   2.630
 5388SOL    HW117063   6.074   6.053   2.533
 5388SOL    HW217064   6.072   5.931   2.641
 5389SOL     OW17065   5.614   2.416   1.482
 5389SOL    HW117066   5.699   2.468   1.483
 5389SOL    HW217067   5.626   2.333   1.426
 5390SOL     OW17068   6.366   4.778   5.725
 5390SOL    HW117069   6.407   4.792   5.815
 5390SOL    HW217070   6.410   4.700   5.680
 5391SOL     OW17071   3.501   3.644   6.626
 5391SOL    HW117072   3.405   3.670   6.625
 5391SOL    HW217073   3.557   3.727   6.635
 5392SOL     OW17074   6.957   2.934   2.916
 5392SOL    HW117075   6.923   3.005   2.978
 5392SOL    HW217076   6.880   2.879   2.883
 5393SOL     OW17077   6.435   6.636   6.246
 5393SOL    HW117078   6.486   6.597   6.169
 5393SOL    HW217079   6.496   6.689   6.304
 5394SOL     OW17080   2.065   3.474   5.832
 5394SOL    HW117081   2.106   3.384   5.821
 5394SOL    HW217082   2.097   3.515   5.918
 5395SOL     OW17083   4.260   0.281   1.252
 5395SOL    HW117084   4.328   0.298   1.181
 5395SOL    HW217085   4.271   0.188   1.287
 5396SOL     OW17086   4.623   2.566   1.964
 5396SOL    HW117087   4.525   2.583   1.977
 5396SOL    HW217088   4.636   2.477   1.921
 5397SOL     OW17089   0.872   2.713   1.906
 5397SOL    HW117090   0.932   2.636   1.883
 5397SOL    HW217091   0.793   2.713   1.845
 5398SOL     OW17092   3.286   2.937   2.451
 5398SOL    HW117093   3.332   2.874   2.389
 5398SOL    HW217094   3.194   2.956   2.417
 5399SOL     OW17095   0.893   5.500   6.965
 5399SOL    HW117096   0.984   5.486   7.004
 5399SOL    HW217097   0.824   5.483   0.013
 5400SOL     OW17098   2.194   3.393   0.094
 5400SOL    HW117099   2.174   3.341   0.177
 5400SOL    HW217100   2.206   3.330   0.018
 5401SOL     OW17101   6.645   1.920   0.771
 5401SOL    HW117102   6.593   1.838   0.796
 5401SOL    HW217103   6.743   1.899   0.777
 5402SOL     OW17104   1.294   6.142   2.286
 5402SOL    HW117105   1.283   6.236   2.318
 5402SOL    HW217106   1.345   6.090   2.354
 5403SOL     OW17107   6.291   2.997   6.506
 5403SOL    HW117108   6.357   3.005   6.582
 5403SOL    HW217109   6.326   3.045   6.426
 5404SOL     OW17110   1.345   3.187   3.010
 5404SOL    HW117111   1.325   3.160   3.105
 5404SOL    HW217112   1.324   3.111   2.949
 5405SOL     OW17113   6.924   4.090   5.267
 5405SOL    HW117114   6.943   3.999   5.304
 5405SOL    HW217115   6.834   4.089   5.223
 5406SOL     OW17116   1.193   0.050   3.840
 5406SOL    HW117117   1.210   7.007   3.914
 5406SOL    HW217118   1.269   0.047   3.775
 5407SOL     OW17119   4.081   3.458   6.537
 5407SOL    HW117120   4.162   3.493   6.584
 5407SOL    HW217121   4.107   3.427   6.445
 5408SOL     OW17122   3.283   1.104   6.728
 5408SOL    HW117123   3.374   1.065   6.715
 5408SOL    HW217124   3.246   1.073   6.816
 5409SOL     OW17125   4.819   0.375   2.303
 5409SOL    HW117126   4.770   0.396   2.219
 5409SOL    HW217127   4.774   0.298   2.349
 5410SOL     OW17128   1.754   2.532   3.381
 5410SOL    HW117129   1.711   2.588   3.311
 5410SOL    HW217130   1.685   2.473   3.424
 5411SOL     OW17131   2.098   4.668   4.734
 5411SOL    HW117132   2.114   4.572   4.757
 5411SOL    HW217133   2.091   4.722   4.819
 5412SOL     OW17134   6.389   2.165   2.224
 5412SOL    HW117135   6.353   2.072   2.223
 5412SOL    HW217136   6.420   2.190   2.133
 5413SOL     OW17137   1.947   6.901   2.440
 5413SOL    HW117138   1.864   6.929   2.392
 5413SOL    HW217139   2.027   6.930   2.388
 5414SOL     OW17140   4.003   0.588   5.293
 5414SOL    HW117141   3.977   0.652   5.221
 5414SOL    HW217142   3.984   0.628   5.382
 5415SOL     OW17143   6.553   3.865   2.493
 5415SOL    HW117144   6.459   3.848   2.524
 5415SOL    HW217145   6.612   3.880   2.573
 5416SOL     OW17146   3.985   5.660   4.261
 5416SOL    HW117147   4.005   5.606   4.179
 5416SOL    HW217148   4.071   5.687   4.305
 5417SOL     OW17149   2.963   6.975   6.382
 5417SOL    HW117150   2.907   0.022   6.429
 5417SOL    HW217151   3.008   7.016   6.303
 5418SOL     OW17152   3.510   1.077   3.676
 5418SOL    HW117153   3.583   1.017   3.643
 5418SOL    HW217154   3.500   1.066   3.775
 5419SOL     OW17155   3.398   3.912   6.950
 5419SOL    HW117156   3.440   3.924   0.018
 5419SOL    HW217157   3.349   3.824   6.948
 5420SOL     OW17158   0.942   2.413   2.664
 5420SOL    HW117159   0.923   2.508   2.689
 5420SOL    HW217160   1.008   2.411   2.588
 5421SOL     OW17161   1.845   2.374   0.615
 5421SOL    HW117162   1.793   2.435   0.555
 5421SOL    HW217163   1.939   2.368   0.582
 5422SOL     OW17164   0.673   3.900   0.212
 5422SOL    HW117165   0.742   3.859   0.272
 5422SOL    HW217166   0.711   3.983   0.171
 5423SOL     OW17167   5.067   3.092   5.842
 5423SOL    HW117168   4.981   3.089   5.792
 5423SOL    HW217169   5.108   3.183   5.831
 5424SOL     OW17170   5.366   3.184   5.543
 5424SOL    HW117171   5.427   3.209   5.468
 5424SOL    HW217172   5.391   3.094   5.579
 5425SOL     OW17173   5.054   1.088   4.814
 5425SOL    HW117174   5.072   1.024   4.740
 5425SOL    HW217175   5.098   1.056   4.898
 5426SOL     OW17176   0.370   6.658   5.044
 5426SOL    HW117177   0.374   6.741   4.988
 5426SOL    HW217178   0.418   6.674   5.130
 5427SOL     OW17179   4.341   6.863   6.995
 5427SOL    HW117180   4.366   6.792   0.039
 5427SOL    HW217181   4.334   6.823   6.904
 5428SOL     OW17182   1.949   1.027   6.996
 5428SOL    HW117183   2.042   0.993   7.011
 5428SOL    HW217184   1.942   1.120   0.010
 5429SOL     OW17185   0.947   2.235   6.101
 5429SOL    HW117186   0.920   2.139   6.115
 5429SOL    HW217187   0.865   2.291   6.093
 5430SOL     OW17188   2.120   2.529   5.651
 5430SOL    HW117189   2.074   2.591   5.715
 5430SOL    HW217190   2.062   2.514   5.571
 5431SOL     OW17191   3.387   5.781   4.586
 5431SOL    HW117192   3.295   5.793   4.551
 5431SOL    HW217193   3.425   5.870   4.612
 5432SOL     OW17194   5.688   5.360   0.955
 5432SOL    HW117195   5.614   5.400   0.901
 5432SOL    HW217196   5.666   5.368   1.052
 5433SOL     OW17197   0.330   1.728   3.711
 5433SOL    HW117198   0.308   1.800   3.646
 5433SOL    HW217199   0.281   1.744   3.797
 5434SOL     OW17200   2.516   6.840   5.393
 5434SOL    HW117201   2.468   6.874   5.313
 5434SOL    HW217202   2.614   6.844   5.377
 5435SOL     OW17203   5.336   1.383   1.907
 5435SOL    HW117204   5.332   1.459   1.842
 5435SOL    HW217205   5.334   1.297   1.857
 5436SOL     OW17206   5.277   4.075   2.594
 5436SOL    HW117207   5.242   4.108   2.507
 5436SOL    HW217208   5.337   3.997   2.578
 5437SOL     OW17209   3.684   4.658   6.499
 5437SOL    HW117210   3.711   4.689   6.407
 5437SOL    HW217211   3.753   4.688   6.565
 5438SOL     OW17212   6.873   0.671   1.073
 5438SOL    HW117213   6.861   0.756   1.124
 5438SOL    HW217214   6.799   0.661   1.007
 5439SOL     OW17215   1.329   2.924   1.051
 5439SOL    HW117216   1.269   3.004   1.044
 5439SOL    HW217217   1.341   2.884   0.960
 5440SOL     OW17218   1.580   1.134   1.493
 5440SOL    HW117219   1.654   1.184   1.536
 5440SOL    HW217220   1.574   1.160   1.396
 5441SOL     OW17221   3.795   1.980   3.974
 5441SOL    HW117222   3.738   2.023   3.904
 5441SOL    HW217223   3.735   1.941   4.045
 5442SOL     OW17224   3.653   0.651   1.899
 5442SOL    HW117225   3.619   0.664   1.806
 5442SOL    HW217226   3.719   0.723   1.922
 5443SOL     OW17227   2.464   6.764   5.961
 5443SOL    HW117228   2.369   6.758   5.992
 5443SOL    HW217229   2.508   6.675   5.972
 5444SOL     OW17230   0.278   0.831   3.353
 5444SOL    HW117231   0.313   0.752   3.303
 5444SOL    HW217232   0.179   0.838   3.339
 5445SOL     OW17233   6.308   3.056   1.851
 5445SOL    HW117234   6.221   3.069   1.897
 5445SOL    HW217235   6.314   2.962   1.817
 5446SOL     OW17236   6.597   5.401   5.913
 5446SOL    HW117237   6.668   5.336   5.941
 5446SOL    HW217238   6.640   5.488   5.888
 5447SOL     OW17239   2.763   2.014   0.871
 5447SOL    HW117240   2.835   1.961   0.827
 5447SOL    HW217241   2.779   2.111   0.857
 5448SOL     OW17242   5.737   1.822   6.261
 5448SOL    HW117243   5.684   1.881   6.323
 5448SOL    HW217244   5.826   1.864   6.244
 5449SOL     OW17245   0.506   2.459   6.767
 5449SOL    HW117246   0.529   2.545   6.721
 5449SOL    HW217247   0.407   2.456   6.783
 5450SOL     OW17248   2.413   5.922   0.771
 5450SOL    HW117249   2.502   5.950   0.807
 5450SOL    HW217250   2.341   5.942   0.837
 5451SOL     OW17251   2.392   0.142   3.056
 5451SOL    HW117252   2.321   0.074   3.073
 5451SOL    HW217253   2.446   0.115   2.977
 5452SOL     OW17254   2.407   3.607   5.561
 5452SOL    HW117255   2.427   3.528   5.619
 5452SOL    HW217256   2.482   3.621   5.496
 5453SOL     OW17257   0.591   5.001   6.025
 5453SOL    HW117258   0.670   5.037   6.075
 5453SOL    HW217259   0.576   5.054   5.942
 5454SOL     OW17260   0.413   3.936   4.915
 5454SOL    HW117261   0.318   3.916   4.888
 5454SOL    HW217262   0.466   3.851   4.914
 5455SOL     OW17263   6.836   2.551   0.568
 5455SOL    HW117264   6.819   2.525   0.663
 5455SOL    HW217265   6.916   2.503   0.534
 5456SOL     OW17266   3.383   6.665   1.640
 5456SOL    HW117267   3.374   6.764   1.629
 5456SOL    HW217268   3.477   6.642   1.666
 5457SOL     OW17269   6.369   3.668   0.706
 5457SOL    HW117270   6.426   3.590   0.731
 5457SOL    HW217271   6.415   3.721   0.635
 5458SOL     OW17272   1.529   4.175   6.055
 5458SOL    HW117273   1.591   4.153   6.130
 5458SOL    HW217274   1.495   4.090   6.014
 5459SOL     OW17275   2.138   4.239   5.675
 5459SOL    HW117276   2.046   4.280   5.676
 5459SOL    HW217277   2.137   4.155   5.730
 5460SOL     OW17278   4.156   0.096   3.361
 5460SOL    HW117279   4.254   0.102   3.344
 5460SOL    HW217280   4.112   0.179   3.326
 5461SOL     OW17281   4.585   6.730   4.842
 5461SOL    HW117282   4.647   6.724   4.763
 5461SOL    HW217283   4.592   6.647   4.896
 5462SOL     OW17284   0.528   0.612   1.369
 5462SOL    HW117285   0.503   0.705   1.396
 5462SOL    HW217286   0.473   0.546   1.421
 5463SOL     OW17287   6.862   3.431   0.772
 5463SOL    HW117288   6.856   3.332   0.781
 5463SOL    HW217289   6.846   3.474   0.861
 5464SOL     OW17290   1.918   6.402   4.402
 5464SOL    HW117291   1.973   6.419   4.321
 5464SOL    HW217292   1.975   6.362   4.474
 5465SOL     OW17293   2.809   5.718   6.599
 5465SOL    HW117294   2.840   5.674   6.683
 5465SOL    HW217295   2.843   5.812   6.595
 5466SOL     OW17296   5.399   5.411   4.656
 5466SOL    HW117297   5.380   5.373   4.566
 5466SOL    HW217298   5.453   5.346   4.709
 5467SOL     OW17299   5.745   1.457   2.112
 5467SOL    HW117300   5.805   1.388   2.153
 5467SOL    HW217301   5.689   1.414   2.041
 5468SOL     OW17302   4.558   1.255   5.934
 5468SOL    HW117303   4.586   1.276   5.840
 5468SOL    HW217304   4.504   1.330   5.970
 5469SOL     OW17305   4.830   4.475   1.637
 5469SOL    HW117306   4.857   4.476   1.733
 5469SOL    HW217307   4.911   4.493   1.580
 5470SOL     OW17308   0.452   5.096   3.543
 5470SOL    HW117309   0.477   5.022   3.481
 5470SOL    HW217310   0.502   5.085   3.629
 5471SOL     OW17311   6.324   4.556   2.531
 5471SOL    HW117312   6.338   4.541   2.433
 5471SOL    HW217313   6.252   4.625   2.545
 5472SOL     OW17314   3.840   5.368   5.149
 5472SOL    HW117315   3.798   5.453   5.117
 5472SOL    HW217316   3.864   5.311   5.070
 5473SOL     OW17317   1.365   4.447   3.641
 5473SOL    HW117318   1.285   4.434   3.698
 5473SOL    HW217319   1.406   4.358   3.619
 5474SOL     OW17320   1.291   6.178   3.182
 5474SOL    HW117321   1.267   6.105   3.246
 5474SOL    HW217322   1.313   6.261   3.232
 5475SOL     OW17323   3.145   3.049   2.089
 5475SOL    HW117324   3.088   3.003   2.020
 5475SOL    HW217325   3.240   3.047   2.060
 5476SOL     OW17326   1.838   3.324   6.962
 5476SOL    HW117327   1.822   3.298   0.035
 5476SOL    HW217328   1.791   3.410   6.942
 5477SOL     OW17329   2.198   2.534   2.391
 5477SOL    HW117330   2.178   2.532   2.293
 5477SOL    HW217331   2.179   2.445   2.431
 5478SOL     OW17332   7.007   5.368   5.777
 5478SOL    HW117333   6.975   5.462   5.765
 5478SOL    HW217334   6.931   5.311   5.807
 5479SOL     OW17335   4.889   0.174   5.223
 5479SOL    HW117336   4.846   0.113   5.290
 5479SOL    HW217337   4.824   0.245   5.196
 5480SOL     OW17338   0.875   2.574   5.425
 5480SOL    HW117339   0.827   2.562   5.512
 5480SOL    HW217340   0.928   2.492   5.404
 5481SOL     OW17341   4.422   6.626   3.729
 5481SOL    HW117342   4.392   6.686   3.654
 5481SOL    HW217343   4.488   6.675   3.785
 5482SOL     OW17344   1.733   5.712   2.067
 5482SOL    HW117345   1.668   5.680   2.136
 5482SOL    HW217346   1.684   5.740   1.985
 5483SOL     OW17347   1.009   2.331   6.489
 5483SOL    HW117348   1.052   2.272   6.558
 5483SOL    HW217349   0.936   2.385   6.533
 5484SOL     OW17350   5.421   0.304   4.837
 5484SOL    HW117351   5.470   0.376   4.885
 5484SOL    HW217352   5.408   0.330   4.742
 5485SOL     OW17353   3.764   0.272   4.710
 5485SOL    HW117354   3.786   0.369   4.719
 5485SOL    HW217355   3.814   0.233   4.632
 5486SOL     OW17356   3.187   4.938   3.827
 5486SOL    HW117357   3.154   4.882   3.903
 5486SOL    HW217358   3.124   5.014   3.812
 5487SOL     OW17359   2.888   5.762   5.492
 5487SOL    HW117360   2.918   5.768   5.397
 5487SOL    HW217361   2.967   5.748   5.551
 5488SOL     OW17362   4.947   1.972   6.846
 5488SOL    HW117363   4.943   2.070   6.825
 5488SOL    HW217364   4.922   1.958   6.942
 5489SOL     OW17365   0.464   2.924   4.070
 5489SOL    HW117366   0.514   3.007   4.096
 5489SOL    HW217367   0.502   2.889   3.984
 5490SOL     OW17368   0.746   5.004   2.697
 5490SOL    HW117369   0.736   5.005   2.598
 5490SOL    HW217370   0.723   5.093   2.734
 5491SOL     OW17371   6.139   3.997   0.749
 5491SOL    HW117372   6.221   4.054   0.744
 5491SOL    HW217373   6.162   3.903   0.726
 5492SOL     OW17374   0.446   1.734   6.357
 5492SOL    HW117375   0.538   1.744   6.320
 5492SOL    HW217376   0.406   1.648   6.324
 5493SOL     OW17377   4.044   4.208   0.001
 5493SOL    HW117378   4.042   4.248   6.932
 5493SOL    HW217379   4.056   4.109   7.016
 5494SOL     OW17380   6.016   2.781   5.281
 5494SOL    HW117381   5.969   2.754   5.364
 5494SOL    HW217382   6.115   2.769   5.293
 5495SOL     OW17383   5.948   0.556   0.515
 5495SOL    HW117384   5.866   0.500   0.528
 5495SOL    HW217385   5.967   0.565   0.418
 5496SOL     OW17386   4.045   6.865   5.720
 5496SOL    HW117387   4.030   6.953   5.766
 5496SOL    HW217388   4.095   6.804   5.781
 5497SOL     OW17389   0.848   0.631   5.464
 5497SOL    HW117390   0.929   0.665   5.416
 5497SOL    HW217391   0.865   0.538   5.498
 5498SOL     OW17392   0.910   5.303   1.476
 5498SOL    HW117393   0.987   5.264   1.526
 5498SOL    HW217394   0.877   5.384   1.525
 5499SOL     OW17395   2.255   0.329   3.742
 5499SOL    HW117396   2.255   0.411   3.798
 5499SOL    HW217397   2.175   0.273   3.763
 5500SOL     OW17398   2.228   6.648   1.619
 5500SOL    HW117399   2.271   6.557   1.615
 5500SOL    HW217400   2.136   6.640   1.656
 5501SOL     OW17401   4.662   3.214   6.896
 5501SOL    HW117402   4.606   3.176   6.971
 5501SOL    HW217403   4.631   3.307   6.875
 5502SOL     OW17404   4.341   3.427   6.703
 5502SOL    HW117405   4.433   3.441   6.741
 5502SOL    HW217406   4.346   3.358   6.630
 5503SOL     OW17407   5.868   3.335   1.193
 5503SOL    HW117408   5.959   3.347   1.154
 5503SOL    HW217409   5.800   3.336   1.119
 5504SOL     OW17410   3.138   2.170   6.997
 5504SOL    HW117411   3.181   2.234   0.038
 5504SOL    HW217412   3.210   2.123   6.944
 5505SOL     OW17413   2.698   5.059   2.379
 5505SOL    HW117414   2.753   5.041   2.297
 5505SOL    HW217415   2.732   5.003   2.455
 5506SOL     OW17416   6.438   2.528   5.982
 5506SOL    HW117417   6.372   2.518   6.056
 5506SOL    HW217418   6.395   2.503   5.895
 5507SOL     OW17419   4.149   6.661   0.668
 5507SOL    HW117420   4.099   6.575   0.675
 5507SOL    HW217421   4.139   6.698   0.576
 5508SOL     OW17422   0.052   1.397   6.558
 5508SOL    HW117423   0.144   1.411   6.594
 5508SOL    HW217424   7.006   1.423   6.627
 5509SOL     OW17425   6.414   3.915   0.223
 5509SOL    HW117426   6.387   3.951   0.133
 5509SOL    HW217427   6.514   3.908   0.227
 5510SOL     OW17428   5.263   5.876   6.871
 5510SOL    HW117429   5.213   5.953   6.832
 5510SOL    HW217430   5.234   5.791   6.828
 5511SOL     OW17431   1.054   2.512   6.290
 5511SOL    HW117432   1.025   2.447   6.360
 5511SOL    HW217433   1.153   2.503   6.275
 5512SOL     OW17434   2.608   0.021   2.303
 5512SOL    HW117435   2.569   7.010   2.389
 5512SOL    HW217436   2.642   6.965   2.250
 5513SOL     OW17437   3.641   4.464   6.736
 5513SOL    HW117438   3.652   4.543   6.677
 5513SOL    HW217439   3.601   4.492   6.823
 5514SOL     OW17440   3.526   1.020   0.452
 5514SOL    HW117441   3.442   1.060   0.488
 5514SOL    HW217442   3.585   1.092   0.415
 5515SOL     OW17443   3.079   5.114   2.553
 5515SOL    HW117444   3.137   5.140   2.476
 5515SOL    HW217445   3.064   5.015   2.551
 5516SOL     OW17446   1.350   2.304   5.872
 5516SOL    HW117447   1.417   2.274   5.805
 5516SOL    HW217448   1.392   2.311   5.962
 5517SOL     OW17449   0.958   2.056   3.506
 5517SOL    HW117450   0.895   1.981   3.486
 5517SOL    HW217451   0.975   2.108   3.422
 5518SOL     OW17452   4.631   4.613   6.252
 5518SOL    HW117453   4.707   4.665   6.213
 5518SOL    HW217454   4.545   4.659   6.230
 5519SOL     OW17455   5.573   2.682   5.914
 5519SOL    HW117456   5.614   2.762   5.870
 5519SOL    HW217457   5.483   2.665   5.875
 5520SOL     OW17458   5.304   6.352   1.249
 5520SOL    HW117459   5.206   6.366   1.235
 5520SOL    HW217460   5.340   6.291   1.178
 5521SOL     OW17461   4.576   6.945   2.094
 5521SOL    HW117462   4.605   6.858   2.132
 5521SOL    HW217463   4.477   6.945   2.081
 5522SOL     OW17464   5.109   6.382   0.106
 5522SOL    HW117465   5.133   6.432   0.023
 5522SOL    HW217466   5.186   6.325   0.134
 5523SOL     OW17467   5.210   2.029   0.642
 5523SOL    HW117468   5.184   2.117   0.681
 5523SOL    HW217469   5.171   1.955   0.696
 5524SOL     OW17470   2.768   1.358   3.248
 5524SOL    HW117471   2.688   1.417   3.249
 5524SOL    HW217472   2.766   1.296   3.326
 5525SOL     OW17473   6.849   1.580   1.743
 5525SOL    HW117474   6.777   1.588   1.812
 5525SOL    HW217475   6.920   1.518   1.776
 5526SOL     OW17476   5.398   4.185   4.187
 5526SOL    HW117477   5.406   4.138   4.099
 5526SOL    HW217478   5.489   4.195   4.227
 5527SOL     OW17479   6.453   0.205   2.502
 5527SOL    HW117480   6.548   0.205   2.469
 5527SOL    HW217481   6.426   0.112   2.526
 5528SOL     OW17482   1.089   1.850   6.924
 5528SOL    HW117483   1.079   1.759   6.883
 5528SOL    HW217484   1.030   1.915   6.876
 5529SOL     OW17485   3.267   0.496   1.942
 5529SOL    HW117486   3.260   0.567   1.872
 5529SOL    HW217487   3.348   0.440   1.925
 5530SOL     OW17488   0.864   1.485   1.497
 5530SOL    HW117489   0.859   1.541   1.415
 5530SOL    HW217490   0.871   1.544   1.578
 5531SOL     OW17491   1.556   4.437   0.352
 5531SOL    HW117492   1.648   4.431   0.388
 5531SOL    HW217493   1.507   4.513   0.396
 5532SOL     OW17494   0.219   4.078   6.382
 5532SOL    HW117495   0.207   4.171   6.415
 5532SOL    HW217496   0.307   4.042   6.413
 5533SOL     OW17497   3.656   1.106   2.970
 5533SOL    HW117498   3.708   1.113   3.055
 5533SOL    HW217499   3.619   1.196   2.946
 5534SOL     OW17500   1.526   0.532   4.433
 5534SOL    HW117501   1.455   0.483   4.382
 5534SOL    HW217502   1.616   0.497   4.408
 5535SOL     OW17503   0.239   1.939   2.615
 5535SOL    HW117504   0.211   2.029   2.649
 5535SOL    HW217505   0.322   1.910   2.663
 5536SOL     OW17506   4.725   0.033   4.745
 5536SOL    HW117507   4.778   6.982   4.702
 5536SOL    HW217508   4.728   0.022   4.845
 5537SOL     OW17509   2.330   2.542   2.952
 5537SOL    HW117510   2.396   2.530   2.878
 5537SOL    HW217511   2.369   2.601   3.023
 5538SOL     OW17512   4.413   5.841   4.025
 5538SOL    HW117513   4.378   5.888   3.944
 5538SOL    HW217514   4.439   5.748   4.000
 5539SOL     OW17515   2.262   4.159   0.025
 5539SOL    HW117516   2.320   4.137   0.103
 5539SOL    HW217517   2.300   4.116   6.964
 5540SOL     OW17518   3.753   5.389   1.185
 5540SOL    HW117519   3.746   5.321   1.112
 5540SOL    HW217520   3.709   5.474   1.157
 5541SOL     OW17521   4.735   0.486   6.046
 5541SOL    HW117522   4.737   0.585   6.035
 5541SOL    HW217523   4.823   0.448   6.017
 5542SOL     OW17524   5.177   4.657   5.969
 5542SOL    HW117525   5.152   4.688   6.061
 5542SOL    HW217526   5.260   4.602   5.974
 5543SOL     OW17527   0.645   1.833   4.996
 5543SOL    HW117528   0.681   1.850   5.087
 5543SOL    HW217529   0.703   1.878   4.928
 5544SOL     OW17530   5.721   0.527   0.002
 5544SOL    HW117531   5.805   0.575   6.997
 5544SOL    HW217532   5.692   0.561   0.091
 5545SOL     OW17533   2.107   2.126   2.140
 5545SOL    HW117534   2.179   2.193   2.125
 5545SOL    HW217535   2.060   2.146   2.226
 5546SOL     OW17536   3.832   5.740   5.340
 5546SOL    HW117537   3.917   5.713   5.386
 5546SOL    HW217538   3.840   5.834   5.306
 5547SOL     OW17539   3.591   5.529   3.750
 5547SOL    HW117540   3.627   5.458   3.690
 5547SOL    HW217541   3.547   5.487   3.830
 5548SOL     OW17542   0.123   1.728   4.945
 5548SOL    HW117543   0.216   1.763   4.955
 5548SOL    HW217544   0.103   1.665   5.020
 5549SOL     OW17545   3.930   5.188   6.648
 5549SOL    HW117546   3.992   5.216   6.720
 5549SOL    HW217547   3.836   5.189   6.682
 5550SOL     OW17548   2.598   6.222   2.902
 5550SOL    HW117549   2.610   6.303   2.960
 5550SOL    HW217550   2.599   6.140   2.959
 5551SOL     OW17551   0.938   1.193   2.245
 5551SOL    HW117552   0.870   1.255   2.206
 5551SOL    HW217553   0.898   1.143   2.322
 5552SOL     OW17554   2.115   2.615   2.772
 5552SOL    HW117555   2.163   2.682   2.716
 5552SOL    HW217556   2.176   2.582   2.844
 5553SOL     OW17557   4.564   6.081   6.163
 5553SOL    HW117558   4.567   6.151   6.092
 5553SOL    HW217559   4.652   6.076   6.209
 5554SOL     OW17560   3.409   0.574   4.520
 5554SOL    HW117561   3.352   0.520   4.582
 5554SOL    HW217562   3.496   0.597   4.566
 5555SOL     OW17563   0.856   6.351   1.524
 5555SOL    HW117564   0.899   6.274   1.477
 5555SOL    HW217565   0.806   6.407   1.459
 5556SOL     OW17566   6.965   0.986   5.508
 5556SOL    HW117567   6.898   1.046   5.465
 5556SOL    HW217568   6.997   0.918   5.441
 5557SOL     OW17569   3.548   0.722   2.176
 5557SOL    HW117570   3.604   0.723   2.259
 5557SOL    HW217571   3.600   0.679   2.102
 5558SOL     OW17572   5.097   2.148   5.796
 5558SOL    HW117573   5.179   2.092   5.793
 5558SOL    HW217574   5.025   2.105   5.742
 5559SOL     OW17575   2.858   0.700   0.829
 5559SOL    HW117576   2.899   0.778   0.781
 5559SOL    HW217577   2.867   0.713   0.928
 5560SOL     OW17578   0.132   1.384   4.985
 5560SOL    HW117579   0.137   1.284   4.979
 5560SOL    HW217580   0.219   1.423   4.953
 5561SOL     OW17581   1.598   4.474   2.032
 5561SOL    HW117582   1.539   4.437   1.961
 5561SOL    HW217583   1.547   4.482   2.117
 5562SOL     OW17584   3.419   2.360   6.827
 5562SOL    HW117585   3.500   2.407   6.862
 5562SOL    HW217586   3.339   2.420   6.835
 5563SOL     OW17587   3.958   4.538   1.167
 5563SOL    HW117588   3.873   4.521   1.116
 5563SOL    HW217589   3.938   4.538   1.265
 5564SOL     OW17590   5.994   1.253   2.799
 5564SOL    HW117591   6.006   1.336   2.744
 5564SOL    HW217592   5.898   1.227   2.799
 5565SOL     OW17593   1.458   2.693   5.704
 5565SOL    HW117594   1.463   2.674   5.802
 5565SOL    HW217595   1.392   2.630   5.662
 5566SOL     OW17596   2.460   4.202   0.240
 5566SOL    HW117597   2.412   4.264   0.303
 5566SOL    HW217598   2.552   4.236   0.223
 5567SOL     OW17599   1.190   5.390   3.345
 5567SOL    HW117600   1.143   5.365   3.430
 5567SOL    HW217601   1.263   5.456   3.365
 5568SOL     OW17602   3.700   2.770   6.578
 5568SOL    HW117603   3.658   2.820   6.502
 5568SOL    HW217604   3.704   2.829   6.658
 5569SOL     OW17605   4.780   1.753   6.820
 5569SOL    HW117606   4.842   1.830   6.800
 5569SOL    HW217607   4.709   1.783   6.883
 5570SOL     OW17608   1.496   2.676   5.986
 5570SOL    HW117609   1.507   2.737   6.064
 5570SOL    HW217610   1.560   2.600   5.993
 5571SOL     OW17611   0.406   4.334   6.444
 5571SOL    HW117612   0.492   4.382   6.428
 5571SOL    HW217613   0.396   4.316   6.542
 5572SOL     OW17614   0.472   2.940   6.047
 5572SOL    HW117615   0.373   2.957   6.045
 5572SOL    HW217616   0.502   2.933   6.142
 5573SOL     OW17617   6.899   3.714   6.263
 5573SOL    HW117618   6.948   3.791   6.305
 5573SOL    HW217619   6.879   3.735   6.168
 5574SOL     OW17620   2.055   6.291   4.609
 5574SOL    HW117621   1.984   6.280   4.678
 5574SOL    HW217622   2.138   6.326   4.652
 5575SOL     OW17623   1.041   1.356   2.781
 5575SOL    HW117624   1.105   1.283   2.758
 5575SOL    HW217625   0.984   1.377   2.702
 5576SOL     OW17626   5.631   6.571   5.361
 5576SOL    HW117627   5.572   6.623   5.422
 5576SOL    HW217628   5.652   6.626   5.280
 5577SOL     OW17629   1.424   4.568   4.801
 5577SOL    HW117630   1.427   4.480   4.753
 5577SOL    HW217631   1.337   4.613   4.783
 5578SOL     OW17632   3.885   1.846   6.023
 5578SOL    HW117633   3.803   1.816   6.071
 5578SOL    HW217634   3.859   1.897   5.941
 5579SOL     OW17635   4.959   4.334   2.157
 5579SOL    HW117636   5.035   4.271   2.140
 5579SOL    HW217637   4.877   4.281   2.180
 5580SOL     OW17638   5.887   1.275   1.910
 5580SOL    HW117639   5.834   1.276   1.994
 5580SOL    HW217640   5.959   1.205   1.916
 5581SOL     OW17641   3.100   3.056   0.792
 5581SOL    HW117642   3.163   3.057   0.715
 5581SOL    HW217643   3.150   3.079   0.876
 5582SOL     OW17644   2.976   3.485   3.889
 5582SOL    HW117645   2.990   3.567   3.833
 5582SOL    HW217646   2.939   3.512   3.978
 5583SOL     OW17647   4.119   0.591   6.342
 5583SOL    HW117648   4.104   0.493   6.352
 5583SOL    HW217649   4.212   0.614   6.372
 5584SOL     OW17650   5.142   3.193   4.152
 5584SOL    HW117651   5.164   3.259   4.081
 5584SOL    HW217652   5.052   3.215   4.190
 5585SOL     OW17653   0.380   0.371   3.662
 5585SOL    HW117654   0.458   0.339   3.717
 5585SOL    HW217655   0.348   0.459   3.698
 5586SOL     OW17656   1.581   0.692   6.931
 5586SOL    HW117657   1.618   0.783   6.948
 5586SOL    HW217658   1.618   0.656   6.845
 5587SOL     OW17659   4.033   6.144   3.203
 5587SOL    HW117660   3.940   6.117   3.178
 5587SOL    HW217661   4.034   6.177   3.297
 5588SOL     OW17662   5.199   6.628   6.653
 5588SOL    HW117663   5.141   6.585   6.584
 5588SOL    HW217664   5.163   6.608   6.744
 5589SOL     OW17665   1.691   3.562   6.976
 5589SOL    HW117666   1.666   3.560   0.051
 5589SOL    HW217667   1.609   3.573   6.921
 5590SOL     OW17668   6.528   0.381   3.163
 5590SOL    HW117669   6.497   0.369   3.068
 5590SOL    HW217670   6.551   0.477   3.178
 5591SOL     OW17671   5.462   0.577   6.859
 5591SOL    HW117672   5.558   0.606   6.855
 5591SOL    HW217673   5.409   0.631   6.794
 5592SOL     OW17674   1.311   2.970   2.878
 5592SOL    HW117675   1.364   2.963   2.793
 5592SOL    HW217676   1.356   2.916   2.949
 5593SOL     OW17677   2.127   3.813   4.980
 5593SOL    HW117678   2.150   3.738   4.919
 5593SOL    HW217679   2.197   3.885   4.973
 5594SOL     OW17680   2.886   1.204   6.111
 5594SOL    HW117681   2.835   1.255   6.041
 5594SOL    HW217682   2.824   1.144   6.161
 5595SOL     OW17683   6.951   3.162   6.895
 5595SOL    HW117684   6.994   3.113   6.819
 5595SOL    HW217685   6.942   3.259   6.871
 5596SOL     OW17686   4.903   3.567   4.574
 5596SOL    HW117687   4.918   3.536   4.480
 5596SOL    HW217688   4.954   3.508   4.637
 5597SOL     OW17689   0.327   1.662   6.616
 5597SOL    HW117690   0.366   1.571   6.630
 5597SOL    HW217691   0.379   1.710   6.545
 5598SOL     OW17692   6.378   0.258   3.385
 5598SOL    HW117693   6.398   0.311   3.303
 5598SOL    HW217694   6.458   0.259   3.445
 5599SOL     OW17695   5.597   3.626   3.015
 5599SOL    HW117696   5.559   3.686   3.085
 5599SOL    HW217697   5.660   3.561   3.058
 5600SOL     OW17698   1.942   3.177   2.252
 5600SOL    HW117699   2.007   3.164   2.176
 5600SOL    HW217700   1.988   3.156   2.338
 5601SOL     OW17701   5.991   2.536   6.045
 5601SOL    HW117702   5.902   2.505   6.014
 5601SOL    HW217703   5.991   2.636   6.050
 5602SOL     OW17704   6.240   1.683   3.041
 5602SOL    HW117705   6.241   1.736   3.126
 5602SOL    HW217706   6.152   1.696   2.995
 5603SOL     OW17707   3.395   1.395   6.071
 5603SOL    HW117708   3.363   1.307   6.037
 5603SOL    HW217709   3.363   1.409   6.164
 5604SOL     OW17710   1.706   4.794   3.597
 5604SOL    HW117711   1.781   4.839   3.549
 5604SOL    HW217712   1.675   4.852   3.673
 5605SOL     OW17713   3.408   6.373   4.462
 5605SOL    HW117714   3.382   6.413   4.374
 5605SOL    HW217715   3.477   6.430   4.506
 5606SOL     OW17716   4.663   3.730   1.040
 5606SOL    HW117717   4.736   3.719   1.107
 5606SOL    HW217718   4.616   3.642   1.027
 5607SOL     OW17719   1.130   2.457   2.452
 5607SOL    HW117720   1.139   2.367   2.409
 5607SOL    HW217721   1.220   2.501   2.457
 5608SOL     OW17722   6.666   7.006   3.837
 5608SOL    HW117723   6.639   7.015   3.741
 5608SOL    HW217724   6.758   0.020   3.849
 5609SOL     OW17725   6.547   1.214   0.398
 5609SOL    HW117726   6.623   1.278   0.381
 5609SOL    HW217727   6.576   1.146   0.466
 5610SOL     OW17728   5.654   0.032   6.117
 5610SOL    HW117729   5.621   6.972   6.069
 5610SOL    HW217730   5.719   0.005   6.188
 5611SOL     OW17731   6.378   4.019   1.230
 5611SOL    HW117732   6.337   4.014   1.139
 5611SOL    HW217733   6.342   3.945   1.287
 5612SOL     OW17734   4.785   2.234   1.482
 5612SOL    HW117735   4.694   2.263   1.452
 5612SOL    HW217736   4.845   2.226   1.402
 5613SOL     OW17737   6.398   5.160   5.481
 5613SOL    HW117738   6.426   5.068   5.506
 5613SOL    HW217739   6.450   5.227   5.534
 5614SOL     OW17740   5.839   2.582   4.805
 5614SOL    HW117741   5.814   2.645   4.879
 5614SOL    HW217742   5.842   2.489   4.840
 5615SOL     OW17743   0.455   3.615   2.606
 5615SOL    HW117744   0.457   3.635   2.508
 5615SOL    HW217745   0.497   3.526   2.622
 5616SOL     OW17746   1.687   3.146   1.626
 5616SOL    HW117747   1.763   3.188   1.676
 5616SOL    HW217748   1.690   3.047   1.639
 5617SOL     OW17749   0.624   5.222   5.106
 5617SOL    HW117750   0.713   5.177   5.116
 5617SOL    HW217751   0.585   5.241   5.196
 5618SOL     OW17752   4.907   1.099   2.957
 5618SOL    HW117753   4.901   1.145   3.045
 5618SOL    HW217754   4.949   1.159   2.890
 5619SOL     OW17755   2.966   3.769   4.267
 5619SOL    HW117756   3.043   3.781   4.329
 5619SOL    HW217757   2.980   3.825   4.185
 5620SOL     OW17758   4.576   5.233   5.341
 5620SOL    HW117759   4.575   5.315   5.398
 5620SOL    HW217760   4.512   5.245   5.265
 5621SOL     OW17761   1.174   3.321   6.710
 5621SOL    HW117762   1.091   3.368   6.738
 5621SOL    HW217763   1.251   3.352   6.767
 5622SOL     OW17764   5.768   5.414   2.891
 5622SOL    HW117765   5.793   5.414   2.987
 5622SOL    HW217766   5.831   5.355   2.840
 5623SOL     OW17767   4.702   5.102   3.296
 5623SOL    HW117768   4.740   5.169   3.233
 5623SOL    HW217769   4.657   5.030   3.243
 5624SOL     OW17770   4.828   3.967   3.920
 5624SOL    HW117771   4.755   3.969   3.988
 5624SOL    HW217772   4.880   3.881   3.929
 5625SOL     OW17773   3.405   7.019   6.460
 5625SOL    HW117774   3.449   6.953   6.400
 5625SOL    HW217775   3.361   6.971   6.536
 5626SOL     OW17776   2.154   4.861   5.949
 5626SOL    HW117777   2.191   4.817   5.867
 5626SOL    HW217778   2.067   4.906   5.927
 5627SOL     OW17779   1.217   5.188   0.716
 5627SOL    HW117780   1.294   5.252   0.709
 5627SOL    HW217781   1.166   5.188   0.630
 5628SOL     OW17782   0.848   2.803   0.062
 5628SOL    HW117783   0.774   2.768   0.005
 5628SOL    HW217784   0.932   2.809   0.008
 5629SOL     OW17785   0.218   3.245   4.042
 5629SOL    HW117786   0.201   3.305   4.120
 5629SOL    HW217787   0.216   3.150   4.072
 5630SOL     OW17788   1.079   4.819   0.292
 5630SOL    HW117789   1.068   4.769   0.206
 5630SOL    HW217790   1.176   4.822   0.316
 5631SOL     OW17791   3.794   0.615   2.930
 5631SOL    HW117792   3.851   0.689   2.896
 5631SOL    HW217793   3.699   0.629   2.899
 5632SOL     OW17794   3.340   6.908   6.692
 5632SOL    HW117795   3.342   7.003   6.724
 5632SOL    HW217796   3.427   6.864   6.713
 5633SOL     OW17797   1.481   5.599   5.145
 5633SOL    HW117798   1.552   5.542   5.186
 5633SOL    HW217799   1.481   5.587   5.046
 5634SOL     OW17800   2.709   0.058   1.893
 5634SOL    HW117801   2.753   0.060   1.983
 5634SOL    HW217802   2.745   0.132   1.837
 5635SOL     OW17803   3.630   0.137   2.081
 5635SOL    HW117804   3.661   0.207   2.146
 5635SOL    HW217805   3.624   0.049   2.127
 5636SOL     OW17806   5.162   0.582   4.549
 5636SOL    HW117807   5.132   0.567   4.455
 5636SOL    HW217808   5.090   0.627   4.601
 5637SOL     OW17809   5.562   0.106   5.122
 5637SOL    HW117810   5.485   0.050   5.091
 5637SOL    HW217811   5.530   0.199   5.142
 5638SOL     OW17812   1.167   5.436   0.029
 5638SOL    HW117813   1.167   5.497   0.109
 5638SOL    HW217814   1.162   5.341   0.060
 5639SOL     OW17815   3.083   7.015   1.835
 5639SOL    HW117816   3.036   7.010   1.747
 5639SOL    HW217817   3.027   0.045   1.899
 5640SOL     OW17818   3.582   6.853   3.893
 5640SOL    HW117819   3.577   6.946   3.930
 5640SOL    HW217820   3.647   6.799   3.948
 5641SOL     OW17821   6.613   5.001   3.451
 5641SOL    HW117822   6.544   5.049   3.506
 5641SOL    HW217823   6.569   4.964   3.369
 5642SOL     OW17824   2.312   1.647   6.239
 5642SOL    HW117825   2.266   1.636   6.328
 5642SOL    HW217826   2.409   1.625   6.250
 5643SOL     OW17827   5.404   3.067   3.641
 5643SOL    HW117828   5.372   3.096   3.551
 5643SOL    HW217829   5.482   3.005   3.631
 5644SOL     OW17830   3.168   0.680   5.910
 5644SOL    HW117831   3.168   0.749   5.838
 5644SOL    HW217832   3.073   0.657   5.933
 5645SOL     OW17833   6.369   6.435   3.730
 5645SOL    HW117834   6.286   6.394   3.693
 5645SOL    HW217835   6.409   6.496   3.662
 5646SOL     OW17836   6.727   0.613   2.814
 5646SOL    HW117837   6.654   0.587   2.877
 5646SOL    HW217838   6.787   0.535   2.798
 5647SOL     OW17839   6.167   3.838   5.996
 5647SOL    HW117840   6.222   3.890   5.930
 5647SOL    HW217841   6.087   3.799   5.950
 5648SOL     OW17842   1.679   1.766   4.097
 5648SOL    HW117843   1.605   1.784   4.033
 5648SOL    HW217844   1.732   1.687   4.066
 5649SOL     OW17845   0.221   0.496   4.570
 5649SOL    HW117846   0.153   0.570   4.574
 5649SOL    HW217847   0.282   0.502   4.649
 5650SOL     OW17848   6.027   4.941   5.120
 5650SOL    HW117849   6.127   4.944   5.126
 5650SOL    HW217850   5.997   4.845   5.111
 5651SOL     OW17851   5.771   0.506   2.466
 5651SOL    HW117852   5.820   0.431   2.423
 5651SOL    HW217853   5.812   0.526   2.555
 5652SOL     OW17854   4.905   4.485   0.200
 5652SOL    HW117855   4.849   4.505   0.280
 5652SOL    HW217856   4.846   4.472   0.120
 5653SOL     OW17857   2.223   5.850   6.723
 5653SOL    HW117858   2.188   5.760   6.700
 5653SOL    HW217859   2.317   5.859   6.691
 5654SOL     OW17860   2.324   6.816   0.441
 5654SOL    HW117861   2.408   6.769   0.414
 5654SOL    HW217862   2.292   6.780   0.529
 5655SOL     OW17863   6.348   5.962   3.032
 5655SOL    HW117864   6.296   5.889   2.987
 5655SOL    HW217865   6.284   6.032   3.064
 5656SOL     OW17866   3.670   5.088   5.944
 5656SOL    HW117867   3.755   5.130   5.911
 5656SOL    HW217868   3.676   4.989   5.936
 5657SOL     OW17869   4.575   5.262   2.097
 5657SOL    HW117870   4.588   5.224   2.188
 5657SOL    HW217871   4.665   5.279   2.055
 5658SOL     OW17872   4.561   6.496   6.073
 5658SOL    HW117873   4.531   6.458   6.161
 5658SOL    HW217874   4.640   6.555   6.087
 5659SOL     OW17875   3.670   4.059   2.202
 5659SOL    HW117876   3.766   4.045   2.229
 5659SOL    HW217877   3.610   4.016   2.269
 5660SOL     OW17878   6.692   6.038   1.426
 5660SOL    HW117879   6.752   5.970   1.468
 5660SOL    HW217880   6.652   6.096   1.497
 5661SOL     OW17881   6.323   6.120   4.474
 5661SOL    HW117882   6.304   6.046   4.539
 5661SOL    HW217883   6.395   6.092   4.411
 5662SOL     OW17884   1.644   4.072   4.524
 5662SOL    HW117885   1.564   4.133   4.518
 5662SOL    HW217886   1.727   4.127   4.517
 5663SOL     OW17887   2.462   3.516   0.837
 5663SOL    HW117888   2.534   3.447   0.834
 5663SOL    HW217889   2.487   3.593   0.778
 5664SOL     OW17890   6.260   6.612   1.730
 5664SOL    HW117891   6.165   6.600   1.700
 5664SOL    HW217892   6.312   6.657   1.657
 5665SOL     OW17893   2.051   1.093   5.683
 5665SOL    HW117894   2.085   1.155   5.755
 5665SOL    HW217895   2.033   1.145   5.600
 5666SOL     OW17896   5.656   5.659   6.457
 5666SOL    HW117897   5.592   5.729   6.426
 5666SOL    HW217898   5.749   5.696   6.456
 5667SOL     OW17899   5.672   4.639   2.527
 5667SOL    HW117900   5.705   4.705   2.459
 5667SOL    HW217901   5.582   4.668   2.560
 5668SOL     OW17902   6.713   1.972   6.960
 5668SOL    HW117903   6.698   2.027   6.878
 5668SOL    HW217904   6.713   2.031   0.019
 5669SOL     OW17905   6.949   2.196   4.894
 5669SOL    HW117906   6.869   2.247   4.864
 5669SOL    HW217907   0.006   2.258   4.896
 5670SOL     OW17908   1.367   3.323   2.120
 5670SOL    HW117909   1.443   3.338   2.183
 5670SOL    HW217910   1.393   3.353   2.029
 5671SOL     OW17911   1.130   0.755   5.387
 5671SOL    HW117912   1.192   0.809   5.444
 5671SOL    HW217913   1.154   0.658   5.394
 5672SOL     OW17914   4.488   4.557   5.555
 5672SOL    HW117915   4.439   4.476   5.588
 5672SOL    HW217916   4.490   4.556   5.455
 5673SOL     OW17917   1.852   6.844   1.574
 5673SOL    HW117918   1.791   6.903   1.628
 5673SOL    HW217919   1.940   6.890   1.561
 5674SOL     OW17920   0.922   3.105   1.197
 5674SOL    HW117921   0.894   3.121   1.102
 5674SOL    HW217922   0.846   3.125   1.258
 5675SOL     OW17923   4.322   1.095   5.720
 5675SOL    HW117924   4.282   1.184   5.740
 5675SOL    HW217925   4.274   1.025   5.773
 5676SOL     OW17926   2.161   6.397   2.355
 5676SOL    HW117927   2.189   6.405   2.451
 5676SOL    HW217928   2.239   6.419   2.296
 5677SOL     OW17929   6.396   6.979   2.661
 5677SOL    HW117930   6.411   6.890   2.706
 5677SOL    HW217931   6.484   7.013   2.627
 5678SOL     OW17932   1.007   5.154   3.091
 5678SOL    HW117933   0.917   5.116   3.072
 5678SOL    HW217934   1.051   5.101   3.164
 5679SOL     OW17935   3.560   5.789   5.642
 5679SOL    HW117936   3.535   5.745   5.556
 5679SOL    HW217937   3.590   5.883   5.624
 5680SOL     OW17938   2.082   6.687   6.520
 5680SOL    HW117939   2.108   6.773   6.478
 5680SOL    HW217940   1.986   6.667   6.501
 5681SOL     OW17941   2.637   3.660   6.945
 5681SOL    HW117942   2.619   3.668   6.847
 5681SOL    HW217943   2.569   3.600   6.987
 5682SOL     OW17944   1.937   3.401   4.243
 5682SOL    HW117945   1.997   3.399   4.163
 5682SOL    HW217946   1.844   3.422   4.214
 5683SOL     OW17947   4.102   2.951   5.331
 5683SOL    HW117948   4.170   3.025   5.330
 5683SOL    HW217949   4.020   2.981   5.282
 5684SOL     OW17950   3.284   4.107   3.328
 5684SOL    HW117951   3.283   4.008   3.312
 5684SOL    HW217952   3.343   4.151   3.260
 5685SOL     OW17953   0.089   6.379   1.491
 5685SOL    HW117954   0.002   6.420   1.465
 5685SOL    HW217955   0.156   6.396   1.419
 5686SOL     OW17956   3.353   4.963   6.766
 5686SOL    HW117957   3.301   4.925   6.842
 5686SOL    HW217958   3.318   5.055   6.744
 5687SOL     OW17959   4.374   6.073   6.571
 5687SOL    HW117960   4.395   6.165   6.604
 5687SOL    HW217961   4.459   6.022   6.558
 5688SOL     OW17962   5.368   1.561   2.632
 5688SOL    HW117963   5.368   1.654   2.597
 5688SOL    HW217964   5.430   1.504   2.578
 5689SOL     OW17965   4.115   3.227   5.583
 5689SOL    HW117966   4.171   3.180   5.514
 5689SOL    HW217967   4.060   3.160   5.632
 5690SOL     OW17968   3.635   0.566   3.224
 5690SOL    HW117969   3.634   0.643   3.161
 5690SOL    HW217970   3.729   0.548   3.254
 5691SOL     OW17971   3.509   0.440   4.296
 5691SOL    HW117972   3.525   0.343   4.312
 5691SOL    HW217973   3.462   0.480   4.375
 5692SOL     OW17974   5.891   2.437   7.010
 5692SOL    HW117975   5.948   2.498   6.955
 5692SOL    HW217976   5.835   2.380   6.950
 5693SOL     OW17977   5.231   2.948   1.827
 5693SOL    HW117978   5.146   2.901   1.804
 5693SOL    HW217979   5.306   2.911   1.773
 5694SOL     OW17980   1.475   2.524   4.497
 5694SOL    HW117981   1.522   2.436   4.504
 5694SOL    HW217982   1.531   2.596   4.538
 5695SOL     OW17983   1.844   4.112   3.603
 5695SOL    HW117984   1.815   4.103   3.508
 5695SOL    HW217985   1.942   4.132   3.606
 5696SOL     OW17986   2.973   1.378   6.725
 5696SOL    HW117987   2.894   1.403   6.668
 5696SOL    HW217988   3.041   1.330   6.669
 5697SOL     OW17989   6.691   3.629   0.178
 5697SOL    HW117990   6.628   3.634   0.256
 5697SOL    HW217991   6.668   3.551   0.120
 5698SOL     OW17992   1.617   4.208   3.835
 5698SOL    HW117993   1.550   4.203   3.909
 5698SOL    HW217994   1.591   4.281   3.772
 5699SOL     OW17995   0.720   2.178   5.081
 5699SOL    HW117996   0.621   2.168   5.073
 5699SOL    HW217997   0.765   2.135   5.003
 5700SOL     OW17998   1.439   4.712   4.438
 5700SOL    HW117999   1.490   4.739   4.519
 5700SOL    HW218000   1.473   4.623   4.405
 5701SOL     OW18001   4.962   3.103   3.146
 5701SOL    HW118002   5.029   3.054   3.089
 5701SOL    HW218003   4.907   3.163   3.088
 5702SOL     OW18004   3.644   0.237   6.865
 5702SOL    HW118005   3.585   0.203   6.792
 5702SOL    HW218006   3.652   0.167   6.937
 5703SOL     OW18007   4.899   4.421   1.905
 5703SOL    HW118008   4.826   4.353   1.906
 5703SOL    HW218009   4.925   4.444   1.999
 5704SOL     OW18010   4.995   4.514   3.165
 5704SOL    HW118011   4.971   4.608   3.139
 5704SOL    HW218012   5.090   4.512   3.196
 5705SOL     OW18013   6.626   1.281   3.902
 5705SOL    HW118014   6.539   1.299   3.856
 5705SOL    HW218015   6.615   1.293   4.001
 5706SOL     OW18016   2.298   1.238   7.019
 5706SOL    HW118017   2.245   1.220   0.079
 5706SOL    HW218018   2.253   1.198   6.940
 5707SOL     OW18019   3.808   1.662   0.690
 5707SOL    HW118020   3.742   1.704   0.753
 5707SOL    HW218021   3.806   1.710   0.603
 5708SOL     OW18022   0.530   6.770   0.752
 5708SOL    HW118023   0.619   6.728   0.737
 5708SOL    HW218024   0.459   6.715   0.707
 5709SOL     OW18025   0.945   2.854   1.330
 5709SOL    HW118026   1.023   2.813   1.283
 5709SOL    HW218027   0.935   2.949   1.300
 5710SOL     OW18028   3.653   4.846   6.931
 5710SOL    HW118029   3.589   4.867   7.005
 5710SOL    HW218030   3.638   4.909   6.855
 5711SOL     OW18031   5.494   1.475   5.129
 5711SOL    HW118032   5.534   1.566   5.139
 5711SOL    HW218033   5.495   1.448   5.033
 5712SOL     OW18034   5.956   0.009   6.589
 5712SOL    HW118035   5.902   6.998   6.666
 5712SOL    HW218036   5.905   7.017   6.504
 5713SOL     OW18037   0.460   3.090   2.647
 5713SOL    HW118038   0.440   3.160   2.715
 5713SOL    HW218039   0.375   3.065   2.600
 5714SOL     OW18040   2.199   0.590   6.958
 5714SOL    HW118041   2.125   0.592   0.003
 5714SOL    HW218042   2.161   0.582   6.866
 5715SOL     OW18043   1.059   6.853   3.506
 5715SOL    HW118044   1.048   6.894   3.416
 5715SOL    HW218045   1.035   6.921   3.576
 5716SOL     OW18046   2.164   2.613   5.324
 5716SOL    HW118047   2.235   2.615   5.253
 5716SOL    HW218048   2.155   2.519   5.359
 5717SOL     OW18049   0.778   3.197   5.813
 5717SOL    HW118050   0.875   3.190   5.838
 5717SOL    HW218051   0.737   3.106   5.811
 5718SOL     OW18052   3.022   5.536   5.853
 5718SOL    HW118053   3.046   5.521   5.949
 5718SOL    HW218054   3.038   5.452   5.800
 5719SOL     OW18055   2.201   1.001   0.459
 5719SOL    HW118056   2.265   0.925   0.452
 5719SOL    HW218057   2.149   0.993   0.544
 5720SOL     OW18058   1.882   5.737   3.793
 5720SOL    HW118059   1.948   5.796   3.841
 5720SOL    HW218060   1.849   5.667   3.856
 5721SOL     OW18061   0.018   4.539   6.694
 5721SOL    HW118062   6.982   4.465   6.729
 5721SOL    HW218063   6.996   4.582   6.615
 5722SOL     OW18064   5.332   1.163   5.100
 5722SOL    HW118065   5.352   1.261   5.094
 5722SOL    HW218066   5.417   1.112   5.111
 5723SOL     OW18067   0.185   4.423   1.139
 5723SOL    HW118068   0.129   4.491   1.186
 5723SOL    HW218069   0.130   4.376   1.071
 5724SOL     OW18070   4.975   3.006   6.123
 5724SOL    HW118071   4.997   2.919   6.167
 5724SOL    HW218072   5.027   3.013   6.037
 5725SOL     OW18073   5.592   6.800   5.726
 5725SOL    HW118074   5.532   6.734   5.770
 5725SOL    HW218075   5.683   6.759   5.713
 5726SOL     OW18076   3.705   4.543   5.576
 5726SOL    HW118077   3.685   4.452   5.541
 5726SOL    HW218078   3.623   4.582   5.617
 5727SOL     OW18079   5.614   2.288   4.050
 5727SOL    HW118080   5.681   2.354   4.017
 5727SOL    HW218081   5.630   2.269   4.147
 5728SOL     OW18082   3.874   0.809   4.675
 5728SOL    HW118083   3.826   0.835   4.592
 5728SOL    HW218084   3.889   0.890   4.732
 5729SOL     OW18085   2.012   2.189   4.165
 5729SOL    HW118086   2.061   2.271   4.194
 5729SOL    HW218087   1.940   2.213   4.100
 5730SOL     OW18088   4.061   4.587   6.859
 5730SOL    HW118089   4.024   4.645   6.931
 5730SOL    HW218090   4.160   4.598   6.854
 5731SOL     OW18091   4.287   1.592   5.207
 5731SOL    HW118092   4.375   1.550   5.229
 5731SOL    HW218093   4.228   1.590   5.288
 5732SOL     OW18094   5.536   4.766   4.326
 5732SOL    HW118095   5.438   4.762   4.307
 5732SOL    HW218096   5.585   4.793   4.243
 5733SOL     OW18097   2.435   6.969   1.725
 5733SOL    HW118098   2.454   6.879   1.685
 5733SOL    HW218099   2.497   0.015   1.685
 5734SOL     OW18100   1.544   6.976   6.068
 5734SOL    HW118101   1.550   6.920   6.150
 5734SOL    HW218102   1.464   0.014   6.074
 5735SOL     OW18103   5.239   1.215   0.952
 5735SOL    HW118104   5.312   1.147   0.945
 5735SOL    HW218105   5.280   1.306   0.962
 5736SOL     OW18106   5.150   3.716   6.571
 5736SOL    HW118107   5.076   3.781   6.579
 5736SOL    HW218108   5.125   3.645   6.505
 5737SOL     OW18109   5.033   6.153   2.300
 5737SOL    HW118110   4.980   6.072   2.324
 5737SOL    HW218111   5.002   6.231   2.356
 5738SOL     OW18112   3.218   0.984   1.474
 5738SOL    HW118113   3.314   1.003   1.454
 5738SOL    HW218114   3.174   1.066   1.510
 5739SOL     OW18115   1.777   1.113   5.409
 5739SOL    HW118116   1.803   1.028   5.454
 5739SOL    HW218117   1.715   1.093   5.333
 5740SOL     OW18118   4.916   3.516   2.860
 5740SOL    HW118119   4.984   3.508   2.788
 5740SOL    HW218120   4.894   3.613   2.875
 5741SOL     OW18121   1.505   3.237   4.098
 5741SOL    HW118122   1.437   3.194   4.039
 5741SOL    HW218123   1.473   3.238   4.193
 5742SOL     OW18124   5.845   5.126   1.833
 5742SOL    HW118125   5.796   5.095   1.915
 5742SOL    HW218126   5.783   5.181   1.777
 5743SOL     OW18127   4.450   6.380   0.037
 5743SOL    HW118128   4.526   6.435   0.073
 5743SOL    HW218129   4.484   6.292   0.006
 5744SOL     OW18130   5.155   6.024   3.454
 5744SOL    HW118131   5.212   6.093   3.497
 5744SOL    HW218132   5.063   6.026   3.493
 5745SOL     OW18133   0.610   3.850   2.625
 5745SOL    HW118134   0.658   3.857   2.537
 5745SOL    HW218135   0.535   3.785   2.616
 5746SOL     OW18136   5.448   0.449   3.397
 5746SOL    HW118137   5.543   0.479   3.391
 5746SOL    HW218138   5.392   0.507   3.337
 5747SOL     OW18139   2.302   6.765   1.373
 5747SOL    HW118140   2.284   6.860   1.399
 5747SOL    HW218141   2.283   6.705   1.451
 5748SOL     OW18142   6.405   6.430   0.161
 5748SOL    HW118143   6.468   6.416   0.084
 5748SOL    HW218144   6.324   6.373   0.149
 5749SOL     OW18145   2.044   6.353   6.758
 5749SOL    HW118146   2.082   6.267   6.793
 5749SOL    HW218147   1.946   6.355   6.774
 5750SOL     OW18148   6.714   2.299   4.078
 5750SOL    HW118149   6.716   2.353   4.162
 5750SOL    HW218150   6.628   2.249   4.072
 5751SOL     OW18151   0.198   3.542   3.931
 5751SOL    HW118152   0.249   3.543   4.017
 5751SOL    HW218153   0.149   3.455   3.922
 5752SOL     OW18154   6.138   1.073   6.727
 5752SOL    HW118155   6.041   1.055   6.739
 5752SOL    HW218156   6.179   1.099   6.814
 5753SOL     OW18157   3.752   3.726   4.479
 5753SOL    HW118158   3.816   3.747   4.553
 5753SOL    HW218159   3.733   3.809   4.427
 5754SOL     OW18160   6.339   6.666   1.019
 5754SOL    HW118161   6.275   6.590   1.034
 5754SOL    HW218162   6.290   6.743   0.980
 5755SOL     OW18163   0.872   3.186   6.375
 5755SOL    HW118164   0.820   3.262   6.415
 5755SOL    HW218165   0.845   3.173   6.280
 5756SOL     OW18166   6.416   6.248   1.539
 5756SOL    HW118167   6.377   6.300   1.615
 5756SOL    HW218168   6.369   6.160   1.532
 5757SOL     OW18169   1.010   1.578   3.527
 5757SOL    HW118170   1.023   1.557   3.430
 5757SOL    HW218171   0.914   1.594   3.545
 5758SOL     OW18172   6.403   6.597   2.980
 5758SOL    HW118173   6.332   6.668   2.984
 5758SOL    HW218174   6.369   6.519   2.929
 5759SOL     OW18175   1.927   6.523   3.159
 5759SOL    HW118176   1.899   6.493   3.068
 5759SOL    HW218177   1.852   6.509   3.223
 5760SOL     OW18178   0.287   2.217   0.361
 5760SOL    HW118179   0.384   2.206   0.341
 5760SOL    HW218180   0.239   2.251   0.280
 5761SOL     OW18181   6.485   6.600   5.123
 5761SOL    HW118182   6.462   6.689   5.085
 5761SOL    HW218183   6.566   6.608   5.182
 5762SOL     OW18184   0.541   5.726   5.684
 5762SOL    HW118185   0.522   5.819   5.718
 5762SOL    HW218186   0.456   5.683   5.655
 5763SOL     OW18187   5.047   0.510   0.218
 5763SOL    HW118188   5.081   0.420   0.246
 5763SOL    HW218189   5.112   0.580   0.248
 5764SOL     OW18190   4.258   6.483   4.272
 5764SOL    HW118191   4.245   6.426   4.191
 5764SOL    HW218192   4.222   6.436   4.352
 5765SOL     OW18193   6.863   5.910   2.561
 5765SOL    HW118194   6.772   5.904   2.522
 5765SOL    HW218195   6.859   5.957   2.649
 5766SOL     OW18196   0.753   1.074   4.416
 5766SOL    HW118197   0.702   1.092   4.332
 5766SOL    HW218198   0.760   1.158   4.470
 5767SOL     OW18199   5.406   6.597   0.242
 5767SOL    HW118200   5.488   6.557   0.284
 5767SOL    HW218201   5.325   6.546   0.271
 5768SOL     OW18202   1.428   1.047   4.930
 5768SOL    HW118203   1.499   0.978   4.939
 5768SOL    HW218204   1.357   1.014   4.867
 5769SOL     OW18205   0.671   2.454   5.910
 5769SOL    HW118206   0.666   2.361   5.946
 5769SOL    HW218207   0.732   2.508   5.967
 5770SOL     OW18208   1.744   4.517   2.359
 5770SOL    HW118209   1.702   4.434   2.322
 5770SOL    HW218210   1.699   4.543   2.444
 5771SOL     OW18211   2.765   5.441   3.122
 5771SOL    HW118212   2.674   5.409   3.094
 5771SOL    HW218213   2.813   5.477   3.043
 5772SOL     OW18214   2.699   0.489   3.321
 5772SOL    HW118215   2.756   0.426   3.268
 5772SOL    HW218216   2.755   0.532   3.392
 5773SOL     OW18217   5.846   0.889   4.012
 5773SOL    HW118218   5.854   0.790   4.019
 5773SOL    HW218219   5.754   0.913   3.981
 5774SOL     OW18220   0.927   6.521   3.427
 5774SOL    HW118221   0.931   6.581   3.348
 5774SOL    HW218222   0.832   6.502   3.450
 5775SOL     OW18223   5.524   5.104   2.450
 5775SOL    HW118224   5.543   5.154   2.366
 5775SOL    HW218225   5.432   5.127   2.482
 5776SOL     OW18226   3.559   0.748   4.085
 5776SOL    HW118227   3.648   0.728   4.126
 5776SOL    HW218228   3.545   0.688   4.006
 5777SOL     OW18229   1.123   0.539   1.497
 5777SOL    HW118230   1.038   0.486   1.500
 5777SOL    HW218231   1.148   0.567   1.590
 5778SOL     OW18232   0.364   0.862   0.203
 5778SOL    HW118233   0.314   0.943   0.233
 5778SOL    HW218234   0.382   0.868   0.105
 5779SOL     OW18235   6.015   1.858   0.870
 5779SOL    HW118236   5.962   1.778   0.843
 5779SOL    HW218237   5.987   1.889   0.960
 5780SOL     OW18238   5.110   5.224   4.454
 5780SOL    HW118239   5.055   5.300   4.488
 5780SOL    HW218240   5.206   5.252   4.451
 5781SOL     OW18241   1.456   5.835   6.006
 5781SOL    HW118242   1.416   5.910   6.058
 5781SOL    HW218243   1.554   5.850   5.995
 5782SOL     OW18244   6.202   0.838   0.402
 5782SOL    HW118245   6.213   0.929   0.362
 5782SOL    HW218246   6.236   0.838   0.496
 5783SOL     OW18247   2.484   2.854   6.502
 5783SOL    HW118248   2.471   2.938   6.449
 5783SOL    HW218249   2.396   2.820   6.534
 5784SOL     OW18250   6.870   6.521   0.143
 5784SOL    HW118251   6.875   6.609   0.095
 5784SOL    HW218252   6.803   6.527   0.217
 5785SOL     OW18253   1.612   1.696   1.726
 5785SOL    HW118254   1.679   1.638   1.679
 5785SOL    HW218255   1.530   1.703   1.670
 5786SOL     OW18256   5.995   5.753   1.827
 5786SOL    HW118257   6.020   5.659   1.800
 5786SOL    HW218258   6.071   5.794   1.877
 5787SOL     OW18259   1.827   3.494   6.356
 5787SOL    HW118260   1.917   3.508   6.397
 5787SOL    HW218261   1.771   3.575   6.368
 5788SOL     OW18262   3.580   0.403   3.846
 5788SOL    HW118263   3.536   0.491   3.831
 5788SOL    HW218264   3.551   0.367   3.935
 5789SOL     OW18265   3.398   4.979   5.925
 5789SOL    HW118266   3.472   5.043   5.903
 5789SOL    HW218267   3.434   4.906   5.984
 5790SOL     OW18268   1.353   4.208   4.032
 5790SOL    HW118269   1.377   4.147   4.108
 5790SOL    HW218270   1.296   4.283   4.066
 5791SOL     OW18271   1.852   0.308   3.367
 5791SOL    HW118272   1.904   0.312   3.281
 5791SOL    HW218273   1.913   0.328   3.444
 5792SOL     OW18274   6.955   2.544   2.866
 5792SOL    HW118275   7.014   2.624   2.869
 5792SOL    HW218276   6.988   2.480   2.797
 5793SOL     OW18277   6.426   0.897   4.608
 5793SOL    HW118278   6.380   0.929   4.690
 5793SOL    HW218279   6.358   0.874   4.538
 5794SOL     OW18280   6.695   3.966   6.593
 5794SOL    HW118281   6.794   3.956   6.604
 5794SOL    HW218282   6.665   4.049   6.641
 5795SOL     OW18283   6.418   4.657   6.666
 5795SOL    HW118284   6.392   4.746   6.629
 5795SOL    HW218285   6.439   4.666   6.763
 5796SOL     OW18286   2.816   2.271   0.818
 5796SOL    HW118287   2.848   2.342   0.880
 5796SOL    HW218288   2.790   2.312   0.731
 5797SOL     OW18289   3.157   2.870   5.318
 5797SOL    HW118290   3.076   2.830   5.273
 5797SOL    HW218291   3.230   2.802   5.320
 5798SOL     OW18292   6.554   5.541   4.262
 5798SOL    HW118293   6.456   5.531   4.246
 5798SOL    HW218294   6.585   5.628   4.224
 5799SOL     OW18295   5.546   1.178   4.217
 5799SOL    HW118296   5.616   1.185   4.146
 5799SOL    HW218297   5.455   1.177   4.176
 5800SOL     OW18298   5.925   5.733   6.645
 5800SOL    HW118299   5.936   5.635   6.627
 5800SOL    HW218300   5.891   5.748   6.738
 5801SOL     OW18301   1.794   0.839   2.878
 5801SOL    HW118302   1.729   0.811   2.950
 5801SOL    HW218303   1.884   0.800   2.897
 5802SOL     OW18304   0.555   2.685   4.776
 5802SOL    HW118305   0.552   2.776   4.818
 5802SOL    HW218306   0.516   2.690   4.684
 5803SOL     OW18307   1.568   5.127   0.939
 5803SOL    HW118308   1.507   5.204   0.922
 5803SOL    HW218309   1.516   5.051   0.977
 5804SOL     OW18310   0.281   2.412   6.498
 5804SOL    HW118311   0.315   2.499   6.534
 5804SOL    HW218312   0.199   2.429   6.444
 5805SOL     OW18313   5.903   3.247   0.087
 5805SOL    HW118314   5.841   3.278   0.159
 5805SOL    HW218315   5.985   3.304   0.088
 5806SOL     OW18316   6.597   6.986   6.745
 5806SOL    HW118317   6.613   0.000   6.836
 5806SOL    HW218318   6.596   6.886   6.748
 5807SOL     OW18319   2.819   3.616   1.477
 5807SOL    HW118320   2.791   3.655   1.564
 5807SOL    HW218321   2.759   3.540   1.453
 5808SOL     OW18322   6.267   1.444   3.461
 5808SOL    HW118323   6.298   1.539   3.452
 5808SOL    HW218324   6.181   1.432   3.412
 5809SOL     OW18325   0.411   2.683   3.586
 5809SOL    HW118326   0.453   2.596   3.613
 5809SOL    HW218327   0.384   2.679   3.490
 5810SOL     OW18328   2.704   2.363   2.675
 5810SOL    HW118329   2.690   2.296   2.747
 5810SOL    HW218330   2.757   2.322   2.601
 5811SOL     OW18331   3.024   6.876   2.147
 5811SOL    HW118332   2.975   6.964   2.148
 5811SOL    HW218333   2.970   6.808   2.197
 5812SOL     OW18334   4.223   0.600   4.879
 5812SOL    HW118335   4.160   0.541   4.929
 5812SOL    HW218336   4.291   0.638   4.942
 5813SOL     OW18337   1.645   1.259   5.101
 5813SOL    HW118338   1.716   1.242   5.033
 5813SOL    HW218339   1.555   1.260   5.057
 5814SOL     OW18340   0.239   5.224   1.252
 5814SOL    HW118341   0.303   5.255   1.322
 5814SOL    HW218342   0.285   5.160   1.190
 5815SOL     OW18343   3.967   0.202   3.916
 5815SOL    HW118344   4.014   0.289   3.920
 5815SOL    HW218345   3.974   0.165   3.823
 5816SOL     OW18346   5.190   6.496   0.432
 5816SOL    HW118347   5.185   6.455   0.523
 5816SOL    HW218348   5.163   6.592   0.437
 5817SOL     OW18349   6.072   2.809   6.038
 5817SOL    HW118350   6.165   2.816   6.074
 5817SOL    HW218351   6.071   2.840   5.943
 5818SOL     OW18352   6.461   6.072   5.598
 5818SOL    HW118353   6.472   6.126   5.681
 5818SOL    HW218354   6.434   6.131   5.522
 5819SOL     OW18355   6.098   0.235   0.679
 5819SOL    HW118356   6.099   0.332   0.702
 5819SOL    HW218357   6.188   0.196   0.695
 5820SOL     OW18358   5.724   4.710   2.050
 5820SOL    HW118359   5.672   4.625   2.062
 5820SOL    HW218360   5.668   4.777   2.002
 5821SOL     OW18361   3.175   0.183   2.559
 5821SOL    HW118362   3.102   0.236   2.515
 5821SOL    HW218363   3.236   0.245   2.609
 5822SOL     OW18364   0.626   1.009   2.269
 5822SOL    HW118365   0.594   1.034   2.360
 5822SOL    HW218366   0.617   1.088   2.207
 5823SOL     OW18367   2.018   2.771   4.090
 5823SOL    HW118368   1.993   2.840   4.022
 5823SOL    HW218369   2.109   2.792   4.127
 5824SOL     OW18370   4.725   0.542   4.036
 5824SOL    HW118371   4.627   0.532   4.023
 5824SOL    HW218372   4.753   0.636   4.016
 5825SOL     OW18373   3.862   1.448   1.776
 5825SOL    HW118374   3.913   1.456   1.691
 5825SOL    HW218375   3.770   1.415   1.757
 5826SOL     OW18376   0.379   6.693   3.761
 5826SOL    HW118377   0.337   6.708   3.671
 5826SOL    HW218378   0.334   6.750   3.829
 5827SOL     OW18379   2.003   4.770   5.553
 5827SOL    HW118380   1.935   4.696   5.551
 5827SOL    HW218381   2.079   4.746   5.493
 5828SOL     OW18382   6.615   2.170   1.150
 5828SOL    HW118383   6.681   2.241   1.176
 5828SOL    HW218384   6.664   2.085   1.131
 5829SOL     OW18385   1.456   2.012   1.718
 5829SOL    HW118386   1.406   1.944   1.664
 5829SOL    HW218387   1.512   1.965   1.786
 5830SOL     OW18388   2.458   0.927   5.394
 5830SOL    HW118389   2.545   0.944   5.441
 5830SOL    HW218390   2.459   0.835   5.356
 5831SOL     OW18391   5.539   5.832   2.664
 5831SOL    HW118392   5.547   5.737   2.692
 5831SOL    HW218393   5.443   5.852   2.644
 5832SOL     OW18394   3.642   3.253   4.378
 5832SOL    HW118395   3.723   3.278   4.432
 5832SOL    HW218396   3.560   3.268   4.433
 5833SOL     OW18397   3.565   3.362   5.044
 5833SOL    HW118398   3.661   3.382   5.022
 5833SOL    HW218399   3.506   3.429   5.000
 5834SOL     OW18400   6.058   0.939   0.123
 5834SOL    HW118401   6.112   1.021   0.105
 5834SOL    HW218402   6.059   0.881   0.041
 5835SOL     OW18403   5.128   3.248   4.827
 5835SOL    HW118404   5.194   3.250   4.751
 5835SOL    HW218405   5.177   3.246   4.914
 5836SOL     OW18406   3.322   0.064   3.085
 5836SOL    HW118407   3.349   0.160   3.075
 5836SOL    HW218408   3.370   0.009   3.017
 5837SOL     OW18409   4.438   4.479   5.964
 5837SOL    HW118410   4.538   4.475   5.973
 5837SOL    HW218411   4.412   4.566   5.922
 5838SOL     OW18412   0.942   0.950   5.639
 5838SOL    HW118413   0.923   0.995   5.551
 5838SOL    HW218414   1.040   0.928   5.644
 5839SOL     OW18415   6.915   2.307   2.234
 5839SOL    HW118416   6.855   2.242   2.190
 5839SOL    HW218417   6.999   2.261   2.263
 5840SOL     OW18418   3.509   5.350   0.415
 5840SOL    HW118419   3.559   5.266   0.398
 5840SOL    HW218420   3.566   5.413   0.468
 5841SOL     OW18421   5.976   2.385   3.253
 5841SOL    HW118422   6.018   2.449   3.317
 5841SOL    HW218423   5.956   2.432   3.167
 5842SOL     OW18424   3.724   2.772   0.886
 5842SOL    HW118425   3.682   2.813   0.804
 5842SOL    HW218426   3.810   2.818   0.906
 5843SOL     OW18427   1.120   3.168   1.389
 5843SOL    HW118428   1.045   3.130   1.335
 5843SOL    HW218429   1.174   3.231   1.332
 5844SOL     OW18430   1.675   6.546   6.908
 5844SOL    HW118431   1.738   6.486   6.858
 5844SOL    HW218432   1.591   6.496   6.930
 5845SOL     OW18433   2.068   2.721   4.506
 5845SOL    HW118434   2.005   2.776   4.560
 5845SOL    HW218435   2.037   2.626   4.506
 5846SOL     OW18436   6.965   3.406   6.767
 5846SOL    HW118437   0.012   3.466   6.807
 5846SOL    HW218438   6.961   3.420   6.668
 5847SOL     OW18439   1.099   2.182   3.821
 5847SOL    HW118440   1.154   2.241   3.762
 5847SOL    HW218441   1.089   2.092   3.778
 5848SOL     OW18442   1.039   4.846   3.481
 5848SOL    HW118443   1.135   4.861   3.505
 5848SOL    HW218444   0.980   4.894   3.546
 5849SOL     OW18445   3.139   6.767   5.862
 5849SOL    HW118446   3.072   6.824   5.910
 5849SOL    HW218447   3.102   6.675   5.850
 5850SOL     OW18448   0.799   4.525   3.089
 5850SOL    HW118449   0.853   4.467   3.150
 5850SOL    HW218450   0.705   4.528   3.121
 5851SOL     OW18451   5.883   3.257   1.967
 5851SOL    HW118452   5.957   3.198   2.000
 5851SOL    HW218453   5.795   3.218   1.992
 5852SOL     OW18454   3.804   6.611   2.911
 5852SOL    HW118455   3.849   6.536   2.962
 5852SOL    HW218456   3.870   6.684   2.895
 5853SOL     OW18457   5.002   4.073   5.306
 5853SOL    HW118458   5.063   4.055   5.229
 5853SOL    HW218459   4.914   4.029   5.290
 5854SOL     OW18460   0.837   1.196   6.534
 5854SOL    HW118461   0.858   1.290   6.561
 5854SOL    HW218462   0.890   1.171   6.453
 5855SOL     OW18463   1.797   1.576   4.733
 5855SOL    HW118464   1.753   1.651   4.783
 5855SOL    HW218465   1.770   1.488   4.774
 5856SOL     OW18466   1.344   5.602   3.427
 5856SOL    HW118467   1.433   5.638   3.456
 5856SOL    HW218468   1.279   5.678   3.419
 5857SOL     OW18469   0.576   2.734   5.481
 5857SOL    HW118470   0.613   2.717   5.389
 5857SOL    HW218471   0.492   2.789   5.473
 5858SOL     OW18472   3.019   6.632   3.586
 5858SOL    HW118473   3.095   6.690   3.555
 5858SOL    HW218474   2.934   6.665   3.547
 5859SOL     OW18475   5.774   5.475   1.897
 5859SOL    HW118476   5.687   5.428   1.905
 5859SOL    HW218477   5.763   5.555   1.838
 5860SOL     OW18478   0.107   4.030   0.889
 5860SOL    HW118479   0.152   4.022   0.800
 5860SOL    HW218480   0.177   4.034   0.961
 5861SOL     OW18481   6.233   1.285   3.683
 5861SOL    HW118482   6.252   1.340   3.602
 5861SOL    HW218483   6.240   1.188   3.660
 5862SOL     OW18484   4.825   5.147   3.897
 5862SOL    HW118485   4.725   5.147   3.899
 5862SOL    HW218486   4.858   5.071   3.842
 5863SOL     OW18487   2.237   1.684   0.705
 5863SOL    HW118488   2.248   1.719   0.797
 5863SOL    HW218489   2.263   1.754   0.639
 5864SOL     OW18490   4.577   5.341   0.684
 5864SOL    HW118491   4.487   5.305   0.707
 5864SOL    HW218492   4.616   5.288   0.609
 5865SOL     OW18493   4.224   0.880   3.146
 5865SOL    HW118494   4.176   0.808   3.095
 5865SOL    HW218495   4.322   0.875   3.125
 5866SOL     OW18496   3.397   1.408   6.730
 5866SOL    HW118497   3.375   1.320   6.690
 5866SOL    HW218498   3.331   1.477   6.699
 5867SOL     OW18499   6.639   3.011   1.314
 5867SOL    HW118500   6.658   2.941   1.244
 5867SOL    HW218501   6.542   3.035   1.311
 5868SOL     OW18502   0.977   6.666   4.964
 5868SOL    HW118503   1.003   6.757   4.997
 5868SOL    HW218504   0.884   6.670   4.926
 5869SOL     OW18505   2.569   4.753   4.053
 5869SOL    HW118506   2.543   4.716   4.143
 5869SOL    HW218507   2.570   4.853   4.058
 5870SOL     OW18508   4.714   5.609   4.097
 5870SOL    HW118509   4.722   5.640   4.192
 5870SOL    HW218510   4.754   5.518   4.087
 5871SOL     OW18511   3.092   3.521   0.685
 5871SOL    HW118512   3.090   3.489   0.779
 5871SOL    HW218513   3.093   3.621   0.684
 5872SOL     OW18514   4.366   5.592   3.692
 5872SOL    HW118515   4.313   5.526   3.639
 5872SOL    HW218516   4.379   5.557   3.785
 5873SOL     OW18517   2.029   2.978   0.008
 5873SOL    HW118518   2.092   2.921   6.977
 5873SOL    HW218519   1.975   2.920   0.069
 5874SOL     OW18520   0.823   4.505   6.031
 5874SOL    HW118521   0.818   4.457   6.118
 5874SOL    HW218522   0.770   4.590   6.037
 5875SOL     OW18523   3.240   2.730   1.011
 5875SOL    HW118524   3.328   2.775   1.020
 5875SOL    HW218525   3.249   2.633   1.034
 5876SOL     OW18526   4.553   3.981   6.280
 5876SOL    HW118527   4.585   3.932   6.200
 5876SOL    HW218528   4.463   4.021   6.261
 5877SOL     OW18529   5.449   0.160   2.484
 5877SOL    HW118530   5.360   0.194   2.454
 5877SOL    HW218531   5.521   0.215   2.442
 5878SOL     OW18532   5.174   3.814   2.815
 5878SOL    HW118533   5.237   3.747   2.855
 5878SOL    HW218534   5.221   3.863   2.741
 5879SOL     OW18535   3.132   4.562   5.321
 5879SOL    HW118536   3.054   4.543   5.262
 5879SOL    HW218537   3.106   4.545   5.417
 5880SOL     OW18538   6.036   2.418   0.540
 5880SOL    HW118539   6.119   2.473   0.534
 5880SOL    HW218540   6.014   2.380   0.449
 5881SOL     OW18541   1.435   5.973   2.489
 5881SOL    HW118542   1.435   5.873   2.499
 5881SOL    HW218543   1.502   6.013   2.552
 5882SOL     OW18544   1.837   5.171   5.368
 5882SOL    HW118545   1.903   5.097   5.366
 5882SOL    HW218546   1.745   5.135   5.356
 5883SOL     OW18547   0.114   5.403   6.924
 5883SOL    HW118548   0.151   5.472   6.987
 5883SOL    HW218549   0.183   5.381   6.855
 5884SOL     OW18550   6.662   0.749   2.607
 5884SOL    HW118551   6.687   0.686   2.680
 5884SOL    HW218552   6.628   0.834   2.646
 5885SOL     OW18553   0.140   5.528   1.499
 5885SOL    HW118554   0.048   5.488   1.503
 5885SOL    HW218555   0.206   5.463   1.535
 5886SOL     OW18556   2.302   4.619   3.774
 5886SOL    HW118557   2.369   4.677   3.727
 5886SOL    HW218558   2.313   4.524   3.744
 5887SOL     OW18559   3.114   3.409   0.223
 5887SOL    HW118560   3.039   3.343   0.222
 5887SOL    HW218561   3.097   3.478   0.293
 5888SOL     OW18562   2.669   5.957   1.505
 5888SOL    HW118563   2.764   5.967   1.535
 5888SOL    HW218564   2.632   5.872   1.540
 5889SOL     OW18565   5.145   2.099   2.530
 5889SOL    HW118566   5.154   2.157   2.449
 5889SOL    HW218567   5.134   2.004   2.501
 5890SOL     OW18568   2.627   4.575   3.453
 5890SOL    HW118569   2.605   4.555   3.358
 5890SOL    HW218570   2.726   4.567   3.467
 5891SOL     OW18571   2.377   3.114   6.668
 5891SOL    HW118572   2.367   3.082   6.574
 5891SOL    HW218573   2.436   3.050   6.719
 5892SOL     OW18574   1.115   2.657   0.181
 5892SOL    HW118575   1.188   2.707   0.227
 5892SOL    HW218576   1.031   2.662   0.235
 5893SOL     OW18577   0.668   6.089   1.621
 5893SOL    HW118578   0.681   6.039   1.536
 5893SOL    HW218579   0.580   6.136   1.619
 5894SOL     OW18580   2.585   5.281   6.607
 5894SOL    HW118581   2.571   5.215   6.532
 5894SOL    HW218582   2.599   5.372   6.569
 5895SOL     OW18583   6.139   3.501   3.852
 5895SOL    HW118584   6.211   3.449   3.806
 5895SOL    HW218585   6.143   3.482   3.950
 5896SOL     OW18586   5.699   2.602   1.756
 5896SOL    HW118587   5.744   2.557   1.678
 5896SOL    HW218588   5.695   2.701   1.739
 5897SOL     OW18589   3.469   2.735   0.404
 5897SOL    HW118590   3.431   2.655   0.358
 5897SOL    HW218591   3.442   2.818   0.354
 5898SOL     OW18592   3.192   1.007   6.965
 5898SOL    HW118593   3.112   0.947   6.963
 5898SOL    HW218594   3.250   0.982   0.021
 5899SOL     OW18595   0.384   6.708   6.909
 5899SOL    HW118596   0.471   6.677   6.948
 5899SOL    HW218597   0.331   6.629   6.879
 5900SOL     OW18598   5.783   6.716   2.435
 5900SOL    HW118599   5.696   6.744   2.393
 5900SOL    HW218600   5.847   6.793   2.434
 5901SOL     OW18601   2.166   0.708   5.103
 5901SOL    HW118602   2.142   0.765   5.182
 5901SOL    HW218603   2.095   0.718   5.032
 5902SOL     OW18604   3.886   3.993   5.972
 5902SOL    HW118605   3.823   3.992   5.895
 5902SOL    HW218606   3.871   4.076   6.026
 5903SOL     OW18607   6.053   2.268   5.001
 5903SOL    HW118608   6.070   2.354   5.050
 5903SOL    HW218609   6.059   2.192   5.065
 5904SOL     OW18610   6.882   4.981   1.944
 5904SOL    HW118611   6.869   4.961   1.847
 5904SOL    HW218612   6.798   5.020   1.981
 5905SOL     OW18613   6.720   2.331   4.827
 5905SOL    HW118614   6.642   2.269   4.837
 5905SOL    HW218615   6.707   2.410   4.887
 5906SOL     OW18616   4.734   0.901   5.633
 5906SOL    HW118617   4.726   0.990   5.589
 5906SOL    HW218618   4.770   0.834   5.568
 5907SOL     OW18619   1.044   3.472   6.154
 5907SOL    HW118620   1.131   3.446   6.112
 5907SOL    HW218621   1.024   3.412   6.231
 5908SOL     OW18622   4.334   3.879   6.692
 5908SOL    HW118623   4.382   3.926   6.767
 5908SOL    HW218624   4.347   3.930   6.607
 5909SOL     OW18625   5.858   5.490   3.530
 5909SOL    HW118626   5.917   5.430   3.583
 5909SOL    HW218627   5.764   5.482   3.562
 5910SOL     OW18628   2.986   4.529   1.417
 5910SOL    HW118629   3.041   4.560   1.495
 5910SOL    HW218630   2.924   4.456   1.447
 5911SOL     OW18631   6.090   0.429   5.831
 5911SOL    HW118632   6.111   0.362   5.903
 5911SOL    HW218633   6.172   0.446   5.777
 5912SOL     OW18634   0.839   3.468   5.972
 5912SOL    HW118635   0.911   3.479   6.041
 5912SOL    HW218636   0.880   3.442   5.885
 5913SOL     OW18637   2.106   2.449   4.218
 5913SOL    HW118638   2.081   2.494   4.132
 5913SOL    HW218639   2.205   2.441   4.223
 5914SOL     OW18640   1.306   5.756   0.646
 5914SOL    HW118641   1.230   5.796   0.595
 5914SOL    HW218642   1.339   5.821   0.714
 5915SOL     OW18643   5.711   3.897   3.873
 5915SOL    HW118644   5.750   3.908   3.782
 5915SOL    HW218645   5.779   3.854   3.933
 5916SOL     OW18646   3.430   0.689   6.742
 5916SOL    HW118647   3.476   0.638   6.814
 5916SOL    HW218648   3.331   0.674   6.748
 5917SOL     OW18649   3.887   3.980   1.981
 5917SOL    HW118650   3.902   4.077   1.960
 5917SOL    HW218651   3.879   3.967   2.079
 5918SOL     OW18652   2.753   2.180   4.088
 5918SOL    HW118653   2.828   2.217   4.033
 5918SOL    HW218654   2.789   2.145   4.174
 5919SOL     OW18655   1.758   1.996   6.749
 5919SOL    HW118656   1.811   2.079   6.766
 5919SOL    HW218657   1.697   2.010   6.672
 5920SOL     OW18658   2.987   5.179   6.962
 5920SOL    HW118659   2.931   5.096   6.955
 5920SOL    HW218660   2.962   5.242   6.888
 5921SOL     OW18661   3.823   5.641   5.104
 5921SOL    HW118662   3.902   5.690   5.068
 5921SOL    HW218663   3.804   5.672   5.197
 5922SOL     OW18664   6.295   5.086   1.889
 5922SOL    HW118665   6.303   4.987   1.884
 5922SOL    HW218666   6.384   5.125   1.913
 5923SOL     OW18667   0.789   0.976   3.130
 5923SOL    HW118668   0.816   1.059   3.081
 5923SOL    HW218669   0.830   0.977   3.222
 5924SOL     OW18670   5.989   1.851   4.646
 5924SOL    HW118671   5.965   1.865   4.550
 5924SOL    HW218672   6.074   1.799   4.652
 5925SOL     OW18673   6.610   5.715   0.550
 5925SOL    HW118674   6.601   5.796   0.492
 5925SOL    HW218675   6.600   5.742   0.646
 5926SOL     OW18676   3.682   6.203   1.857
 5926SOL    HW118677   3.732   6.207   1.944
 5926SOL    HW218678   3.699   6.287   1.806
 5927SOL     OW18679   1.979   4.959   1.419
 5927SOL    HW118680   1.942   5.052   1.421
 5927SOL    HW218681   2.078   4.962   1.433
 5928SOL     OW18682   0.720   6.057   0.897
 5928SOL    HW118683   0.722   6.112   0.813
 5928SOL    HW218684   0.772   6.104   0.969
 5929SOL     OW18685   0.600   6.691   5.617
 5929SOL    HW118686   0.658   6.744   5.557
 5929SOL    HW218687   0.506   6.724   5.612
 5930SOL     OW18688   6.148   1.223   5.291
 5930SOL    HW118689   6.111   1.297   5.347
 5930SOL    HW218690   6.117   1.234   5.196
 5931SOL     OW18691   5.322   4.938   0.962
 5931SOL    HW118692   5.233   4.915   0.922
 5931SOL    HW218693   5.317   5.029   1.003
 5932SOL     OW18694   2.222   0.210   0.017
 5932SOL    HW118695   2.312   0.214   6.995
 5932SOL    HW218696   2.226   0.255   0.106
 5933SOL     OW18697   5.992   3.022   2.875
 5933SOL    HW118698   6.044   3.105   2.894
 5933SOL    HW218699   6.044   2.963   2.814
 5934SOL     OW18700   4.141   3.473   2.305
 5934SOL    HW118701   4.200   3.393   2.317
 5934SOL    HW218702   4.054   3.457   2.351
 5935SOL     OW18703   3.697   2.914   3.087
 5935SOL    HW118704   3.665   3.008   3.071
 5935SOL    HW218705   3.796   2.910   3.072
 5936SOL     OW18706   6.829   5.904   6.831
 5936SOL    HW118707   6.792   5.996   6.817
 5936SOL    HW218708   6.764   5.837   6.795
 5937SOL     OW18709   0.823   4.121   0.113
 5937SOL    HW118710   0.847   4.120   0.016
 5937SOL    HW218711   0.808   4.215   0.143
 5938SOL     OW18712   2.636   4.721   0.510
 5938SOL    HW118713   2.556   4.777   0.531
 5938SOL    HW218714   2.674   4.749   0.422
 5939SOL     OW18715   1.548   0.502   2.356
 5939SOL    HW118716   1.577   0.596   2.340
 5939SOL    HW218717   1.499   0.497   2.444
 5940SOL     OW18718   3.664   4.904   3.326
 5940SOL    HW118719   3.570   4.886   3.295
 5940SOL    HW218720   3.728   4.870   3.258
 5941SOL     OW18721   6.203   2.538   3.443
 5941SOL    HW118722   6.122   2.585   3.477
 5941SOL    HW218723   6.239   2.587   3.364
 5942SOL     OW18724   6.711   1.230   4.572
 5942SOL    HW118725   6.735   1.141   4.611
 5942SOL    HW218726   6.790   1.291   4.578
 5943SOL     OW18727   1.462   5.466   0.846
 5943SOL    HW118728   1.457   5.426   0.754
 5943SOL    HW218729   1.539   5.529   0.851
 5944SOL     OW18730   5.480   2.527   2.498
 5944SOL    HW118731   5.430   2.507   2.582
 5944SOL    HW218732   5.575   2.498   2.508
 5945SOL     OW18733   6.825   5.577   6.386
 5945SOL    HW118734   6.827   5.482   6.415
 5945SOL    HW218735   6.749   5.624   6.429
 5946SOL     OW18736   3.732   2.734   5.232
 5946SOL    HW118737   3.794   2.675   5.285
 5946SOL    HW218738   3.645   2.687   5.219
 5947SOL     OW18739   4.853   3.939   2.212
 5947SOL    HW118740   4.893   3.988   2.290
 5947SOL    HW218741   4.764   3.979   2.190
 5948SOL     OW18742   3.374   5.263   3.165
 5948SOL    HW118743   3.312   5.254   3.243
 5948SOL    HW218744   3.370   5.356   3.129
 5949SOL     OW18745   4.532   4.884   3.209
 5949SOL    HW118746   4.515   4.793   3.172
 5949SOL    HW218747   4.489   4.891   3.299
 5950SOL     OW18748   6.284   2.475   4.482
 5950SOL    HW118749   6.243   2.431   4.561
 5950SOL    HW218750   6.319   2.565   4.508
 5951SOL     OW18751   2.026   0.357   4.294
 5951SOL    HW118752   2.042   0.446   4.250
 5951SOL    HW218753   2.088   0.289   4.255
 5952SOL     OW18754   0.452   5.818   4.796
 5952SOL    HW118755   0.548   5.804   4.821
 5952SOL    HW218756   0.444   5.900   4.740
 5953SOL     OW18757   0.517   3.346   6.019
 5953SOL    HW118758   0.442   3.317   5.960
 5953SOL    HW218759   0.598   3.289   6.000
 5954SOL     OW18760   1.536   4.799   6.484
 5954SOL    HW118761   1.592   4.824   6.404
 5954SOL    HW218762   1.461   4.740   6.455
 5955SOL     OW18763   4.733   5.129   2.646
 5955SOL    HW118764   4.794   5.074   2.703
 5955SOL    HW218765   4.723   5.220   2.686
 5956SOL     OW18766   0.108   2.367   0.200
 5956SOL    HW118767   0.149   2.385   0.111
 5956SOL    HW218768   0.014   2.336   0.189
 5957SOL     OW18769   4.471   6.872   5.563
 5957SOL    HW118770   4.518   6.789   5.593
 5957SOL    HW218771   4.393   6.847   5.507
 5958SOL     OW18772   0.966   5.181   2.551
 5958SOL    HW118773   0.977   5.237   2.469
 5958SOL    HW218774   0.880   5.205   2.597
 5959SOL     OW18775   1.520   1.127   6.503
 5959SOL    HW118776   1.559   1.075   6.427
 5959SOL    HW218777   1.450   1.190   6.468
 5960SOL     OW18778   3.484   6.292   5.559
 5960SOL    HW118779   3.473   6.198   5.527
 5960SOL    HW218780   3.411   6.314   5.624
 5961SOL     OW18781   2.690   1.066   5.537
 5961SOL    HW118782   2.763   1.046   5.602
 5961SOL    HW218783   2.646   1.153   5.561
 5962SOL     OW18784   5.125   3.982   1.778
 5962SOL    HW118785   5.218   3.947   1.785
 5962SOL    HW218786   5.124   4.064   1.721
 5963SOL     OW18787   4.232   4.073   1.685
 5963SOL    HW118788   4.187   4.131   1.617
 5963SOL    HW218789   4.299   4.127   1.736
 5964SOL     OW18790   1.293   3.707   5.852
 5964SOL    HW118791   1.241   3.695   5.767
 5964SOL    HW218792   1.337   3.796   5.852
 5965SOL     OW18793   2.234   1.904   3.852
 5965SOL    HW118794   2.143   1.939   3.829
 5965SOL    HW218795   2.303   1.973   3.832
 5966SOL     OW18796   1.712   5.736   4.371
 5966SOL    HW118797   1.657   5.653   4.385
 5966SOL    HW218798   1.728   5.749   4.273
 5967SOL     OW18799   4.558   5.704   2.197
 5967SOL    HW118800   4.536   5.613   2.162
 5967SOL    HW218801   4.584   5.764   2.122
 5968SOL     OW18802   0.662   1.466   3.922
 5968SOL    HW118803   0.594   1.448   3.992
 5968SOL    HW218804   0.747   1.497   3.965
 5969SOL     OW18805   6.238   1.929   2.832
 5969SOL    HW118806   6.331   1.966   2.838
 5969SOL    HW218807   6.178   1.979   2.894
 5970SOL     OW18808   2.144   3.585   3.649
 5970SOL    HW118809   2.061   3.586   3.703
 5970SOL    HW218810   2.222   3.612   3.706
 5971SOL     OW18811   3.324   5.877   3.321
 5971SOL    HW118812   3.245   5.936   3.336
 5971SOL    HW218813   3.354   5.884   3.226
 5972SOL     OW18814   5.578   0.597   1.587
 5972SOL    HW118815   5.638   0.552   1.653
 5972SOL    HW218816   5.608   0.691   1.573
 5973SOL     OW18817   1.995   4.523   3.351
 5973SOL    HW118818   2.007   4.580   3.269
 5973SOL    HW218819   1.948   4.438   3.326
 5974SOL     OW18820   0.889   4.134   6.405
 5974SOL    HW118821   0.811   4.073   6.392
 5974SOL    HW218822   0.972   4.090   6.372
 5975SOL     OW18823   2.353   2.359   6.216
 5975SOL    HW118824   2.260   2.373   6.183
 5975SOL    HW218825   2.418   2.393   6.147
 5976SOL     OW18826   3.244   2.949   4.800
 5976SOL    HW118827   3.170   3.011   4.826
 5976SOL    HW218828   3.298   2.926   4.880
 5977SOL     OW18829   0.564   3.825   3.080
 5977SOL    HW118830   0.625   3.764   3.030
 5977SOL    HW218831   0.618   3.889   3.134
 5978SOL     OW18832   4.809   5.487   2.123
 5978SOL    HW118833   4.806   5.486   2.223
 5978SOL    HW218834   4.817   5.394   2.089
 5979SOL     OW18835   0.810   1.089   1.694
 5979SOL    HW118836   0.800   0.992   1.669
 5979SOL    HW218837   0.903   1.104   1.728
 5980SOL     OW18838   5.783   2.974   5.918
 5980SOL    HW118839   5.740   2.984   6.007
 5980SOL    HW218840   5.866   3.029   5.915
 5981SOL     OW18841   3.498   2.043   0.618
 5981SOL    HW118842   3.433   2.025   0.544
 5981SOL    HW218843   3.469   2.124   0.669
 5982SOL     OW18844   6.303   2.496   6.895
 5982SOL    HW118845   6.219   2.550   6.902
 5982SOL    HW218846   6.377   2.545   6.942
 5983SOL     OW18847   1.203   0.718   4.943
 5983SOL    HW118848   1.137   0.794   4.936
 5983SOL    HW218849   1.250   0.723   5.031
 5984SOL     OW18850   0.647   0.132   6.045
 5984SOL    HW118851   0.595   0.088   6.119
 5984SOL    HW218852   0.624   0.088   5.958
 5985SOL     OW18853   5.723   3.539   3.851
 5985SOL    HW118854   5.780   3.528   3.931
 5985SOL    HW218855   5.683   3.450   3.825
 5986SOL     OW18856   2.904   3.594   2.850
 5986SOL    HW118857   2.950   3.676   2.883
 5986SOL    HW218858   2.921   3.583   2.752
 5987SOL     OW18859   4.672   0.228   5.674
 5987SOL    HW118860   4.749   0.164   5.674
 5987SOL    HW218861   4.697   0.311   5.723
 5988SOL     OW18862   3.667   0.100   5.771
 5988SOL    HW118863   3.656   0.039   5.693
 5988SOL    HW218864   3.726   0.056   5.840
 5989SOL     OW18865   2.826   1.527   6.937
 5989SOL    HW118866   2.841   1.450   6.875
 5989SOL    HW218867   2.774   1.598   6.890
 5990SOL     OW18868   3.521   5.167   2.683
 5990SOL    HW118869   3.500   5.122   2.770
 5990SOL    HW218870   3.490   5.109   2.607
 5991SOL     OW18871   3.087   5.029   3.345
 5991SOL    HW118872   3.104   5.122   3.380
 5991SOL    HW218873   3.174   4.985   3.324
 5992SOL     OW18874   4.447   2.051   4.099
 5992SOL    HW118875   4.481   1.962   4.131
 5992SOL    HW218876   4.522   2.104   4.061
 5993SOL     OW18877   2.567   5.248   3.730
 5993SOL    HW118878   2.484   5.299   3.755
 5993SOL    HW218879   2.553   5.151   3.751
 5994SOL     OW18880   6.113   2.208   1.083
 5994SOL    HW118881   6.165   2.189   1.000
 5994SOL    HW218882   6.176   2.235   1.156
 5995SOL     OW18883   0.499   4.157   1.239
 5995SOL    HW118884   0.533   4.083   1.297
 5995SOL    HW218885   0.462   4.119   1.155
 5996SOL     OW18886   1.355   5.596   5.927
 5996SOL    HW118887   1.399   5.684   5.944
 5996SOL    HW218888   1.404   5.524   5.977
 5997SOL     OW18889   0.178   0.744   1.336
 5997SOL    HW118890   0.166   0.808   1.260
 5997SOL    HW218891   0.210   0.656   1.301
 5998SOL     OW18892   4.768   2.785   3.246
 5998SOL    HW118893   4.759   2.877   3.286
 5998SOL    HW218894   4.771   2.792   3.147
 5999SOL     OW18895   2.377   2.725   3.156
 5999SOL    HW118896   2.306   2.795   3.150
 5999SOL    HW218897   2.400   2.709   3.252
 6000SOL     OW18898   4.851   0.889   3.465
 6000SOL    HW118899   4.761   0.868   3.426
 6000SOL    HW218900   4.846   0.973   3.519
 6001SOL     OW18901   6.708   1.507   0.520
 6001SOL    HW118902   6.654   1.591   0.516
 6001SOL    HW218903   6.672   1.448   0.592
 6002SOL     OW18904   1.749   0.038   2.326
 6002SOL    HW118905   1.797   0.070   2.244
 6002SOL    HW218906   1.683   6.989   2.299
 6003SOL     OW18907   5.214   4.311   3.879
 6003SOL    HW118908   5.255   4.346   3.963
 6003SOL    HW218909   5.282   4.258   3.829
 6004SOL     OW18910   6.953   3.249   1.617
 6004SOL    HW118911   6.914   3.208   1.534
 6004SOL    HW218912   6.935   3.347   1.617
 6005SOL     OW18913   1.731   6.127   2.204
 6005SOL    HW118914   1.742   6.223   2.231
 6005SOL    HW218915   1.643   6.093   2.237
 6006SOL     OW18916   2.961   5.656   0.066
 6006SOL    HW118917   2.866   5.664   0.037
 6006SOL    HW218918   2.965   5.613   0.157
 6007SOL     OW18919   5.335   3.536   4.603
 6007SOL    HW118920   5.314   3.633   4.616
 6007SOL    HW218921   5.418   3.513   4.653
 6008SOL     OW18922   4.793   4.207   1.526
 6008SOL    HW118923   4.808   4.305   1.538
 6008SOL    HW218924   4.710   4.180   1.576
 6009SOL     OW18925   4.781   1.779   5.185
 6009SOL    HW118926   4.753   1.817   5.097
 6009SOL    HW218927   4.869   1.732   5.175
 6010SOL     OW18928   1.856   4.366   3.161
 6010SOL    HW118929   1.764   4.370   3.123
 6010SOL    HW218930   1.921   4.340   3.090
 6011SOL     OW18931   6.505   2.219   1.460
 6011SOL    HW118932   6.591   2.205   1.509
 6011SOL    HW218933   6.507   2.165   1.375
 6012SOL     OW18934   0.455   2.842   1.503
 6012SOL    HW118935   0.541   2.821   1.549
 6012SOL    HW218936   0.415   2.757   1.467
 6013SOL     OW18937   5.281   0.149   2.692
 6013SOL    HW118938   5.360   0.127   2.634
 6013SOL    HW218939   5.243   0.237   2.663
 6014SOL     OW18940   6.099   0.750   1.167
 6014SOL    HW118941   6.189   0.723   1.200
 6014SOL    HW218942   6.091   0.727   1.069
 6015SOL     OW18943   5.717   0.214   4.179
 6015SOL    HW118944   5.649   0.243   4.111
 6015SOL    HW218945   5.804   0.196   4.134
 6016SOL     OW18946   2.084   0.196   5.352
 6016SOL    HW118947   2.116   0.246   5.433
 6016SOL    HW218948   2.163   0.171   5.295
 6017SOL     OW18949   0.337   4.145   2.743
 6017SOL    HW118950   0.278   4.203   2.688
 6017SOL    HW218951   0.403   4.098   2.683
 6018SOL     OW18952   2.817   5.109   1.437
 6018SOL    HW118953   2.810   5.071   1.529
 6018SOL    HW218954   2.855   5.202   1.443
 6019SOL     OW18955   6.440   6.264   3.381
 6019SOL    HW118956   6.487   6.274   3.293
 6019SOL    HW218957   6.345   6.293   3.372
 6020SOL     OW18958   2.236   6.630   2.810
 6020SOL    HW118959   2.228   6.730   2.813
 6020SOL    HW218960   2.227   6.593   2.902
 6021SOL     OW18961   3.981   0.401   3.528
 6021SOL    HW118962   3.912   0.384   3.599
 6021SOL    HW218963   3.952   0.361   3.442
 6022SOL     OW18964   4.334   0.903   5.075
 6022SOL    HW118965   4.306   0.992   5.111
 6022SOL    HW218966   4.409   0.867   5.130
 6023SOL     OW18967   0.162   2.233   2.275
 6023SOL    HW118968   0.195   2.312   2.327
 6023SOL    HW218969   0.225   2.156   2.286
 6024SOL     OW18970   6.602   5.873   2.958
 6024SOL    HW118971   6.615   5.787   3.007
 6024SOL    HW218972   6.519   5.918   2.991
 6025SOL     OW18973   4.032   2.245   2.497
 6025SOL    HW118974   3.996   2.174   2.436
 6025SOL    HW218975   3.961   2.274   2.561
 6026SOL     OW18976   0.572   4.334   5.478
 6026SOL    HW118977   0.659   4.293   5.452
 6026SOL    HW218978   0.579   4.372   5.570
 6027SOL     OW18979   4.085   3.599   0.542
 6027SOL    HW118980   3.985   3.595   0.552
 6027SOL    HW218981   4.127   3.608   0.632
 6028SOL     OW18982   1.031   4.407   0.154
 6028SOL    HW118983   1.041   4.495   0.107
 6028SOL    HW218984   0.940   4.401   0.194
 6029SOL     OW18985   1.109   5.184   1.655
 6029SOL    HW118986   1.204   5.217   1.665
 6029SOL    HW218987   1.049   5.241   1.711
 6030SOL     OW18988   1.971   6.649   1.702
 6030SOL    HW118989   1.913   6.722   1.664
 6030SOL    HW218990   1.938   6.626   1.793
 6031SOL     OW18991   4.981   1.116   4.320
 6031SOL    HW118992   4.933   1.201   4.341
 6031SOL    HW218993   4.933   1.039   4.362
 6032SOL     OW18994   0.366   3.296   2.129
 6032SOL    HW118995   0.298   3.225   2.146
 6032SOL    HW218996   0.427   3.304   2.209
 6033SOL     OW18997   0.374   6.977   4.525
 6033SOL    HW118998   0.437   0.013   4.576
 6033SOL    HW218999   0.412   6.885   4.518
 6034SOL     OW19000   2.256   4.448   4.868
 6034SOL    HW119001   2.321   4.432   4.942
 6034SOL    HW219002   2.243   4.363   4.817
 6035SOL     OW19003   5.423   0.079   3.702
 6035SOL    HW119004   5.346   0.060   3.762
 6035SOL    HW219005   5.392   0.132   3.623
 6036SOL     OW19006   6.858   0.613   4.775
 6036SOL    HW119007   6.887   0.535   4.830
 6036SOL    HW219008   6.770   0.646   4.809
 6037SOL     OW19009   0.514   5.607   4.559
 6037SOL    HW119010   0.578   5.586   4.633
 6037SOL    HW219011   0.523   5.703   4.533
 6038SOL     OW19012   6.455   4.044   6.782
 6038SOL    HW119013   6.428   4.105   6.707
 6038SOL    HW219014   6.541   4.077   6.823
 6039SOL     OW19015   3.973   3.513   4.518
 6039SOL    HW119016   3.873   3.521   4.528
 6039SOL    HW219017   3.997   3.418   4.496
 6040SOL     OW19018   1.267   0.891   1.402
 6040SOL    HW119019   1.269   0.917   1.306
 6040SOL    HW219020   1.299   0.797   1.412
 6041SOL     OW19021   0.618   2.920   0.257
 6041SOL    HW119022   0.519   2.907   0.262
 6041SOL    HW219023   0.649   2.909   0.163
 6042SOL     OW19024   5.144   5.473   5.166
 6042SOL    HW119025   5.237   5.446   5.144
 6042SOL    HW219026   5.090   5.392   5.189
 6043SOL     OW19027   0.457   4.281   4.160
 6043SOL    HW119028   0.383   4.345   4.180
 6043SOL    HW219029   0.450   4.250   4.066
 6044SOL     OW19030   1.782   0.497   1.649
 6044SOL    HW119031   1.724   0.553   1.591
 6044SOL    HW219032   1.865   0.470   1.599
 6045SOL     OW19033   6.521   3.844   0.531
 6045SOL    HW119034   6.508   3.776   0.458
 6045SOL    HW219035   6.602   3.899   0.511
 6046SOL     OW19036   1.827   3.733   0.189
 6046SOL    HW119037   1.897   3.665   0.213
 6046SOL    HW219038   1.845   3.767   0.096
 6047SOL     OW19039   0.655   6.301   5.043
 6047SOL    HW119040   0.725   6.300   5.115
 6047SOL    HW219041   0.574   6.252   5.075
 6048SOL     OW19042   4.132   5.997   4.414
 6048SOL    HW119043   4.051   6.038   4.456
 6048SOL    HW219044   4.169   6.059   4.346
 6049SOL     OW19045   6.690   5.357   0.106
 6049SOL    HW119046   6.680   5.290   0.179
 6049SOL    HW219047   6.704   5.447   0.145
 6050SOL     OW19048   5.408   4.724   5.330
 6050SOL    HW119049   5.317   4.763   5.312
 6050SOL    HW219050   5.405   4.667   5.412
 6051SOL     OW19051   3.372   2.056   3.691
 6051SOL    HW119052   3.451   2.021   3.641
 6051SOL    HW219053   3.287   2.021   3.651
 6052SOL     OW19054   0.035   1.260   0.384
 6052SOL    HW119055   0.002   1.354   0.376
 6052SOL    HW219056   6.985   1.202   0.420
 6053SOL     OW19057   1.519   0.455   6.448
 6053SOL    HW119058   1.544   0.369   6.403
 6053SOL    HW219059   1.426   0.449   6.483
 6054SOL     OW19060   1.527   4.278   6.674
 6054SOL    HW119061   1.588   4.354   6.649
 6054SOL    HW219062   1.557   4.240   6.761
 6055SOL     OW19063   5.704   0.270   3.227
 6055SOL    HW119064   5.803   0.268   3.212
 6055SOL    HW219065   5.673   0.365   3.237
 6056SOL     OW19066   5.593   3.317   6.328
 6056SOL    HW119067   5.559   3.229   6.361
 6056SOL    HW219068   5.522   3.387   6.343
 6057SOL     OW19069   3.909   0.979   6.232
 6057SOL    HW119070   3.977   1.047   6.204
 6057SOL    HW219071   3.912   0.968   6.332
 6058SOL     OW19072   5.554   1.658   4.758
 6058SOL    HW119073   5.644   1.650   4.717
 6058SOL    HW219074   5.555   1.730   4.827
 6059SOL     OW19075   6.895   6.149   6.583
 6059SOL    HW119076   6.979   6.124   6.631
 6059SOL    HW219077   6.857   6.231   6.625
 6060SOL     OW19078   3.438   6.119   6.281
 6060SOL    HW119079   3.388   6.033   6.296
 6060SOL    HW219080   3.424   6.150   6.187
 6061SOL     OW19081   1.800   1.722   0.165
 6061SOL    HW119082   1.896   1.719   0.194
 6061SOL    HW219083   1.740   1.705   0.243
 6062SOL     OW19084   1.243   0.026   4.280
 6062SOL    HW119085   1.186   0.106   4.263
 6062SOL    HW219086   1.327   0.053   4.327
 6063SOL     OW19087   5.691   5.919   0.017
 6063SOL    HW119088   5.620   5.981   0.049
 6063SOL    HW219089   5.780   5.949   0.050
 6064SOL     OW19090   1.139   4.943   2.969
 6064SOL    HW119091   1.040   4.940   2.952
 6064SOL    HW219092   1.162   5.030   3.013
 6065SOL     OW19093   5.761   0.004   1.745
 6065SOL    HW119094   5.769   6.964   1.667
 6065SOL    HW219095   5.752   6.972   1.829
 6066SOL     OW19096   4.221   1.658   5.970
 6066SOL    HW119097   4.188   1.749   5.995
 6066SOL    HW219098   4.234   1.654   5.871
 6067SOL     OW19099   5.050   2.361   7.007
 6067SOL    HW119100   5.097   2.334   0.069
 6067SOL    HW219101   5.112   2.416   6.951
 6068SOL     OW19102   5.520   1.659   5.421
 6068SOL    HW119103   5.472   1.622   5.501
 6068SOL    HW219104   5.610   1.616   5.413
 6069SOL     OW19105   6.191   5.423   3.751
 6069SOL    HW119106   6.262   5.434   3.820
 6069SOL    HW219107   6.137   5.507   3.745
 6070SOL     OW19108   4.893   2.943   0.226
 6070SOL    HW119109   4.937   3.008   0.165
 6070SOL    HW219110   4.930   2.953   0.319
 6071SOL     OW19111   5.250   6.952   5.609
 6071SOL    HW119112   5.245   6.919   5.515
 6071SOL    HW219113   5.305   0.013   5.612
 6072SOL     OW19114   6.516   1.412   1.368
 6072SOL    HW119115   6.532   1.426   1.465
 6072SOL    HW219116   6.418   1.411   1.350
 6073SOL     OW19117   6.146   0.911   1.395
 6073SOL    HW119118   6.234   0.948   1.365
 6073SOL    HW219119   6.107   0.855   1.322
 6074SOL     OW19120   1.025   0.413   5.293
 6074SOL    HW119121   0.928   0.414   5.268
 6074SOL    HW219122   1.045   0.330   5.345
 6075SOL     OW19123   4.615   3.590   6.254
 6075SOL    HW119124   4.634   3.518   6.188
 6075SOL    HW219125   4.518   3.615   6.249
 6076SOL     OW19126   2.580   0.431   3.768
 6076SOL    HW119127   2.549   0.343   3.802
 6076SOL    HW219128   2.526   0.455   3.687
 6077SOL     OW19129   5.080   5.031   3.046
 6077SOL    HW119130   5.156   5.093   3.025
 6077SOL    HW219131   5.095   4.990   3.136
 6078SOL     OW19132   1.971   4.352   3.717
 6078SOL    HW119133   2.056   4.333   3.667
 6078SOL    HW219134   1.964   4.289   3.795
 6079SOL     OW19135   2.940   1.802   0.789
 6079SOL    HW119136   2.887   1.718   0.799
 6079SOL    HW219137   3.034   1.787   0.822
 6080SOL     OW19138   6.040   2.725   3.225
 6080SOL    HW119139   6.136   2.698   3.223
 6080SOL    HW219140   5.999   2.697   3.312
 6081SOL     OW19141   0.705   3.980   2.850
 6081SOL    HW119142   0.729   3.885   2.869
 6081SOL    HW219143   0.682   3.990   2.753
 6082SOL     OW19144   3.451   1.636   4.932
 6082SOL    HW119145   3.459   1.601   4.838
 6082SOL    HW219146   3.405   1.725   4.930
 6083SOL     OW19147   1.898   6.611   0.151
 6083SOL    HW119148   1.935   6.574   0.067
 6083SOL    HW219149   1.971   6.652   0.205
 6084SOL     OW19150   0.276   5.138   6.071
 6084SOL    HW119151   0.227   5.219   6.040
 6084SOL    HW219152   0.339   5.163   6.145
 6085SOL     OW19153   4.589   5.060   1.682
 6085SOL    HW119154   4.489   5.058   1.690
 6085SOL    HW219155   4.620   4.977   1.635
 6086SOL     OW19156   3.244   1.634   2.556
 6086SOL    HW119157   3.174   1.650   2.486
 6086SOL    HW219158   3.296   1.717   2.571
 6087SOL     OW19159   3.559   0.106   0.667
 6087SOL    HW119160   3.633   0.122   0.733
 6087SOL    HW219161   3.520   0.194   0.639
 6088SOL     OW19162   0.113   0.162   4.982
 6088SOL    HW119163   0.138   0.204   4.896
 6088SOL    HW219164   0.164   0.077   4.994
 6089SOL     OW19165   6.179   4.066   1.023
 6089SOL    HW119166   6.154   4.043   0.929
 6089SOL    HW219167   6.111   4.128   1.061
 6090SOL     OW19168   6.843   5.768   4.400
 6090SOL    HW119169   6.836   5.669   4.389
 6090SOL    HW219170   6.892   5.789   4.485
 6091SOL     OW19171   6.746   2.209   1.606
 6091SOL    HW119172   6.780   2.129   1.656
 6091SOL    HW219173   6.791   2.291   1.639
 6092SOL     OW19174   1.202   3.308   0.986
 6092SOL    HW119175   1.297   3.283   0.970
 6092SOL    HW219176   1.145   3.226   0.981
 6093SOL     OW19177   1.387   4.337   0.772
 6093SOL    HW119178   1.365   4.417   0.716
 6093SOL    HW219179   1.311   4.271   0.767
 6094SOL     OW19180   0.478   1.144   0.455
 6094SOL    HW119181   0.549   1.122   0.389
 6094SOL    HW219182   0.424   1.222   0.422
 6095SOL     OW19183   6.339   4.163   5.097
 6095SOL    HW119184   6.392   4.118   5.025
 6095SOL    HW219185   6.396   4.232   5.142
 6096SOL     OW19186   4.959   2.310   2.906
 6096SOL    HW119187   4.935   2.224   2.861
 6096SOL    HW219188   4.913   2.386   2.859
 6097SOL     OW19189   3.108   2.157   2.566
 6097SOL    HW119190   3.080   2.252   2.550
 6097SOL    HW219191   3.131   2.114   2.479
 6098SOL     OW19192   1.053   0.283   6.711
 6098SOL    HW119193   0.981   0.215   6.693
 6098SOL    HW219194   1.068   0.290   6.809
 6099SOL     OW19195   5.881   4.374   4.992
 6099SOL    HW119196   5.932   4.289   4.985
 6099SOL    HW219197   5.863   4.411   4.901
 6100SOL     OW19198   0.150   2.760   0.042
 6100SOL    HW119199   0.103   2.729   0.125
 6100SOL    HW219200   0.085   2.764   6.989
 6101SOL     OW19201   6.456   0.003   3.590
 6101SOL    HW119202   6.391   6.971   3.537
 6101SOL    HW219203   6.528   0.038   3.530
 6102SOL     OW19204   2.692   6.855   4.981
 6102SOL    HW119205   2.765   6.792   5.007
 6102SOL    HW219206   2.711   6.892   4.890
 6103SOL     OW19207   5.644   1.729   5.108
 6103SOL    HW119208   5.578   1.770   5.045
 6103SOL    HW219209   5.661   1.793   5.183
 6104SOL     OW19210   1.644   3.071   1.072
 6104SOL    HW119211   1.590   3.112   0.998
 6104SOL    HW219212   1.614   3.108   1.160
 6105SOL     OW19213   3.023   4.904   4.733
 6105SOL    HW119214   2.992   4.998   4.746
 6105SOL    HW219215   2.946   4.841   4.746
 6106SOL     OW19216   2.327   5.196   4.306
 6106SOL    HW119217   2.237   5.152   4.317
 6106SOL    HW219218   2.371   5.202   4.396
 6107SOL     OW19219   2.377   5.227   5.723
 6107SOL    HW119220   2.362   5.136   5.685
 6107SOL    HW219221   2.341   5.230   5.816
 6108SOL     OW19222   5.218   1.880   4.668
 6108SOL    HW119223   5.249   1.791   4.634
 6108SOL    HW219224   5.147   1.916   4.608
 6109SOL     OW19225   6.884   3.755   1.662
 6109SOL    HW119226   6.827   3.673   1.656
 6109SOL    HW219227   6.837   3.832   1.621
 6110SOL     OW19228   3.429   2.092   3.321
 6110SOL    HW119229   3.335   2.067   3.342
 6110SOL    HW219230   3.483   2.094   3.405
 6111SOL     OW19231   0.470   4.514   3.630
 6111SOL    HW119232   0.558   4.531   3.674
 6111SOL    HW219233   0.481   4.520   3.531
 6112SOL     OW19234   1.379   2.115   1.045
 6112SOL    HW119235   1.295   2.070   1.016
 6112SOL    HW219236   1.454   2.048   1.046
 6113SOL     OW19237   1.914   4.787   5.173
 6113SOL    HW119238   1.829   4.825   5.137
 6113SOL    HW219239   1.915   4.688   5.160
 6114SOL     OW19240   4.428   4.482   0.693
 6114SOL    HW119241   4.473   4.403   0.651
 6114SOL    HW219242   4.356   4.452   0.754
 6115SOL     OW19243   6.304   4.825   1.868
 6115SOL    HW119244   6.309   4.791   1.774
 6115SOL    HW219245   6.314   4.749   1.932
 6116SOL     OW19246   3.293   2.389   1.122
 6116SOL    HW119247   3.328   2.302   1.159
 6116SOL    HW219248   3.357   2.424   1.053
 6117SOL     OW19249   5.495   6.479   3.923
 6117SOL    HW119250   5.413   6.423   3.933
 6117SOL    HW219251   5.567   6.445   3.983
 6118SOL     OW19252   6.682   6.960   3.201
 6118SOL    HW119253   6.769   6.921   3.170
 6118SOL    HW219254   6.625   6.887   3.241
 6119SOL     OW19255   5.256   5.781   4.479
 6119SOL    HW119256   5.248   5.843   4.401
 6119SOL    HW219257   5.305   5.827   4.553
 6120SOL     OW19258   2.291   1.970   3.294
 6120SOL    HW119259   2.371   2.020   3.327
 6120SOL    HW219260   2.256   2.013   3.211
 6121SOL     OW19261   6.962   1.661   4.649
 6121SOL    HW119262   6.887   1.642   4.712
 6121SOL    HW219263   7.013   1.741   4.680
 6122SOL     OW19264   3.500   6.148   4.262
 6122SOL    HW119265   3.428   6.202   4.305
 6122SOL    HW219266   3.540   6.199   4.186
 6123SOL     OW19267   5.720   1.225   2.730
 6123SOL    HW119268   5.704   1.127   2.745
 6123SOL    HW219269   5.641   1.266   2.685
 6124SOL     OW19270   3.080   0.510   4.879
 6124SOL    HW119271   3.013   0.446   4.914
 6124SOL    HW219272   3.034   0.585   4.831
 6125SOL     OW19273   1.411   4.473   2.268
 6125SOL    HW119274   1.427   4.485   2.366
 6125SOL    HW219275   1.355   4.548   2.233
 6126SOL     OW19276   3.732   6.168   2.613
 6126SOL    HW119277   3.674   6.223   2.674
 6126SOL    HW219278   3.760   6.222   2.534
 6127SOL     OW19279   1.796   5.485   1.939
 6127SOL    HW119280   1.893   5.461   1.930
 6127SOL    HW219281   1.787   5.563   2.000
 6128SOL     OW19282   5.075   3.542   1.340
 6128SOL    HW119283   5.033   3.609   1.401
 6128SOL    HW219284   5.011   3.468   1.322
 6129SOL     OW19285   6.414   3.998   3.549
 6129SOL    HW119286   6.398   4.041   3.460
 6129SOL    HW219287   6.512   3.981   3.561
 6130SOL     OW19288   5.333   3.616   2.905
 6130SOL    HW119289   5.329   3.521   2.873
 6130SOL    HW219290   5.428   3.638   2.930
 6131SOL     OW19291   6.654   0.848   5.237
 6131SOL    HW119292   6.581   0.870   5.301
 6131SOL    HW219293   6.625   0.773   5.177
 6132SOL     OW19294   0.047   2.468   0.759
 6132SOL    HW119295   0.123   2.494   0.699
 6132SOL    HW219296   0.077   2.395   0.821
 6133SOL     OW19297   1.396   4.845   0.300
 6133SOL    HW119298   1.364   4.931   0.339
 6133SOL    HW219299   1.407   4.778   0.373
 6134SOL     OW19300   4.483   4.047   6.863
 6134SOL    HW119301   4.573   4.090   6.864
 6134SOL    HW219302   4.491   3.953   6.895
 6135SOL     OW19303   6.040   6.727   2.765
 6135SOL    HW119304   5.984   6.790   2.710
 6135SOL    HW219305   6.111   6.686   2.707
 6136SOL     OW19306   1.530   1.635   2.335
 6136SOL    HW119307   1.502   1.730   2.321
 6136SOL    HW219308   1.462   1.589   2.392
 6137SOL     OW19309   3.386   0.398   6.528
 6137SOL    HW119310   3.291   0.398   6.561
 6137SOL    HW219311   3.406   0.485   6.483
 6138SOL     OW19312   5.136   0.742   2.921
 6138SOL    HW119313   5.153   0.810   2.992
 6138SOL    HW219314   5.086   0.665   2.960
 6139SOL     OW19315   2.915   6.133   3.629
 6139SOL    HW119316   2.976   6.057   3.649
 6139SOL    HW219317   2.962   6.220   3.647
 6140SOL     OW19318   2.075   5.331   1.439
 6140SOL    HW119319   2.010   5.364   1.371
 6140SOL    HW219320   2.160   5.304   1.394
 6141SOL     OW19321   0.348   5.885   5.291
 6141SOL    HW119322   0.297   5.895   5.205
 6141SOL    HW219323   0.424   5.822   5.277
 6142SOL     OW19324   0.521   3.891   3.520
 6142SOL    HW119325   0.424   3.870   3.506
 6142SOL    HW219326   0.545   3.974   3.470
 6143SOL     OW19327   6.191   4.838   6.490
 6143SOL    HW119328   6.288   4.864   6.498
 6143SOL    HW219329   6.143   4.865   6.573
 6144SOL     OW19330   0.322   5.188   4.168
 6144SOL    HW119331   0.233   5.171   4.211
 6144SOL    HW219332   0.391   5.128   4.208
 6145SOL     OW19333   5.786   5.407   3.189
 6145SOL    HW119334   5.771   5.502   3.217
 6145SOL    HW219335   5.867   5.372   3.237
 6146SOL     OW19336   5.709   2.216   3.777
 6146SOL    HW119337   5.660   2.241   3.861
 6146SOL    HW219338   5.650   2.162   3.718
 6147SOL     OW19339   1.180   3.839   3.366
 6147SOL    HW119340   1.089   3.800   3.354
 6147SOL    HW219341   1.193   3.868   3.461
 6148SOL     OW19342   6.343   6.022   2.706
 6148SOL    HW119343   6.334   5.986   2.799
 6148SOL    HW219344   6.253   6.049   2.672
 6149SOL     OW19345   1.268   5.512   4.906
 6149SOL    HW119346   1.221   5.425   4.918
 6149SOL    HW219347   1.208   5.576   4.858
 6150SOL     OW19348   4.224   6.716   5.878
 6150SOL    HW119349   4.259   6.673   5.795
 6150SOL    HW219350   4.273   6.801   5.896
 6151SOL     OW19351   4.881   0.031   5.588
 6151SOL    HW119352   4.963   6.999   5.573
 6151SOL    HW219353   4.825   0.030   5.505
 6152SOL     OW19354   6.628   4.307   5.363
 6152SOL    HW119355   6.708   4.339   5.414
 6152SOL    HW219356   6.654   4.226   5.310
 6153SOL     OW19357   4.033   5.181   5.975
 6153SOL    HW119358   4.115   5.238   5.977
 6153SOL    HW219359   4.003   5.168   5.880
 6154SOL     OW19360   5.307   3.175   3.398
 6154SOL    HW119361   5.221   3.192   3.447
 6154SOL    HW219362   5.287   3.132   3.310
 6155SOL     OW19363   2.536   4.541   4.569
 6155SOL    HW119364   2.471   4.474   4.532
 6155SOL    HW219365   2.587   4.500   4.645
 6156SOL     OW19366   5.667   0.554   4.704
 6156SOL    HW119367   5.729   0.533   4.628
 6156SOL    HW219368   5.578   0.581   4.668
 6157SOL     OW19369   0.881   1.405   4.291
 6157SOL    HW119370   0.850   1.383   4.384
 6157SOL    HW219371   0.976   1.374   4.279
 6158SOL     OW19372   5.588   6.598   6.886
 6158SOL    HW119373   5.667   6.655   6.908
 6158SOL    HW219374   5.504   6.650   6.901
 6159SOL     OW19375   4.988   3.347   6.719
 6159SOL    HW119376   5.021   3.394   6.638
 6159SOL    HW219377   4.916   3.283   6.694
 6160SOL     OW19378   6.395   4.484   0.100
 6160SOL    HW119379   6.318   4.504   0.161
 6160SOL    HW219380   6.453   4.415   0.142
 6161SOL     OW19381   6.238   0.057   6.249
 6161SOL    HW119382   6.215   0.010   6.163
 6161SOL    HW219383   6.214   7.021   6.326
 6162SOL     OW19384   5.144   5.334   4.011
 6162SOL    HW119385   5.081   5.279   4.066
 6162SOL    HW219386   5.235   5.333   4.053
 6163SOL     OW19387   0.033   3.944   2.823
 6163SOL    HW119388   0.000   3.884   2.897
 6163SOL    HW219389   0.123   3.980   2.848
 6164SOL     OW19390   4.539   3.178   1.227
 6164SOL    HW119391   4.466   3.128   1.273
 6164SOL    HW219392   4.578   3.246   1.289
 6165SOL     OW19393   3.996   0.372   1.129
 6165SOL    HW119394   4.022   0.469   1.124
 6165SOL    HW219395   4.054   0.326   1.196
 6166SOL     OW19396   3.650   0.748   0.536
 6166SOL    HW119397   3.638   0.841   0.571
 6166SOL    HW219398   3.700   0.693   0.604
 6167SOL     OW19399   6.841   5.601   3.536
 6167SOL    HW119400   6.902   5.532   3.499
 6167SOL    HW219401   6.757   5.604   3.481
 6168SOL     OW19402   0.061   3.299   1.115
 6168SOL    HW119403   0.151   3.315   1.074
 6168SOL    HW219404   0.009   3.236   1.057
 6169SOL     OW19405   2.124   3.796   1.365
 6169SOL    HW119406   2.172   3.837   1.288
 6169SOL    HW219407   2.187   3.740   1.418
 6170SOL     OW19408   6.304   1.898   3.217
 6170SOL    HW119409   6.399   1.884   3.187
 6170SOL    HW219410   6.304   1.925   3.314
 6171SOL     OW19411   6.447   1.646   6.175
 6171SOL    HW119412   6.473   1.669   6.269
 6171SOL    HW219413   6.380   1.573   6.176
 6172SOL     OW19414   0.308   4.751   3.625
 6172SOL    HW119415   0.385   4.814   3.614
 6172SOL    HW219416   0.342   4.662   3.654
 6173SOL     OW19417   5.543   6.275   3.089
 6173SOL    HW119418   5.528   6.374   3.080
 6173SOL    HW219419   5.541   6.250   3.185
 6174SOL     OW19420   6.917   2.333   3.464
 6174SOL    HW119421   6.954   2.423   3.488
 6174SOL    HW219422   6.852   2.303   3.534
 6175SOL     OW19423   4.007   1.523   0.130
 6175SOL    HW119424   4.010   1.622   0.139
 6175SOL    HW219425   3.947   1.497   0.055
 6176SOL     OW19426   2.538   4.373   6.099
 6176SOL    HW119427   2.548   4.386   6.001
 6176SOL    HW219428   2.533   4.462   6.144
 6177SOL     OW19429   5.806   5.365   1.556
 6177SOL    HW119430   5.729   5.424   1.532
 6177SOL    HW219431   5.779   5.269   1.548
 6178SOL     OW19432   4.182   4.819   1.926
 6178SOL    HW119433   4.196   4.728   1.887
 6178SOL    HW219434   4.120   4.871   1.867
 6179SOL     OW19435   5.354   5.531   4.899
 6179SOL    HW119436   5.382   5.467   4.972
 6179SOL    HW219437   5.360   5.484   4.811
 6180SOL     OW19438   1.974   3.869   6.909
 6180SOL    HW119439   1.996   3.910   6.821
 6180SOL    HW219440   2.020   3.920   6.982
 6181SOL     OW19441   6.754   6.232   6.896
 6181SOL    HW119442   6.693   6.220   6.975
 6181SOL    HW219443   6.700   6.266   6.819
 6182SOL     OW19444   3.127   2.270   6.651
 6182SOL    HW119445   3.058   2.302   6.586
 6182SOL    HW219446   3.217   2.273   6.608
 6183SOL     OW19447   0.363   0.438   0.449
 6183SOL    HW119448   0.380   0.475   0.540
 6183SOL    HW219449   0.446   0.444   0.394
 6184SOL     OW19450   3.301   6.691   5.633
 6184SOL    HW119451   3.259   6.725   5.548
 6184SOL    HW219452   3.258   6.735   5.711
 6185SOL     OW19453   3.770   2.948   4.441
 6185SOL    HW119454   3.696   2.921   4.380
 6185SOL    HW219455   3.841   2.995   4.389
 6186SOL     OW19456   0.738   2.185   2.235
 6186SOL    HW119457   0.811   2.242   2.272
 6186SOL    HW219458   0.762   2.155   2.143
 6187SOL     OW19459   3.274   1.812   5.944
 6187SOL    HW119460   3.222   1.737   5.985
 6187SOL    HW219461   3.365   1.815   5.986
 6188SOL     OW19462   1.691   1.961   5.522
 6188SOL    HW119463   1.613   1.957   5.585
 6188SOL    HW219464   1.722   1.868   5.501
 6189SOL     OW19465   6.485   5.501   0.439
 6189SOL    HW119466   6.515   5.420   0.489
 6189SOL    HW219467   6.541   5.580   0.467
 6190SOL     OW19468   0.934   3.113   3.458
 6190SOL    HW119469   0.879   3.099   3.375
 6190SOL    HW219470   0.997   3.189   3.443
 6191SOL     OW19471   2.736   4.462   0.433
 6191SOL    HW119472   2.770   4.400   0.505
 6191SOL    HW219473   2.695   4.542   0.476
 6192SOL     OW19474   3.225   1.667   1.277
 6192SOL    HW119475   3.299   1.635   1.218
 6192SOL    HW219476   3.144   1.610   1.262
 6193SOL     OW19477   4.128   5.968   6.644
 6193SOL    HW119478   4.219   6.010   6.637
 6193SOL    HW219479   4.110   5.945   6.740
 6194SOL     OW19480   5.074   0.182   5.771
 6194SOL    HW119481   5.172   0.177   5.754
 6194SOL    HW219482   5.025   0.168   5.685
 6195SOL     OW19483   4.421   5.759   5.337
 6195SOL    HW119484   4.484   5.835   5.351
 6195SOL    HW219485   4.444   5.711   5.252
 6196SOL     OW19486   6.508   3.750   3.363
 6196SOL    HW119487   6.501   3.690   3.442
 6196SOL    HW219488   6.445   3.719   3.292
 6197SOL     OW19489   0.917   5.493   0.690
 6197SOL    HW119490   1.009   5.456   0.682
 6197SOL    HW219491   0.922   5.591   0.708
 6198SOL     OW19492   6.452   1.396   6.343
 6198SOL    HW119493   6.484   1.489   6.359
 6198SOL    HW219494   6.382   1.373   6.411
 6199SOL     OW19495   2.548   0.077   6.313
 6199SOL    HW119496   2.522   0.085   6.217
 6199SOL    HW219497   2.599   0.159   6.340
 6200SOL     OW19498   1.773   6.899   0.300
 6200SOL    HW119499   1.735   6.903   0.393
 6200SOL    HW219500   1.699   6.889   0.234
 6201SOL     OW19501   0.531   4.901   3.766
 6201SOL    HW119502   0.490   4.846   3.839
 6201SOL    HW219503   0.628   4.914   3.785
 6202SOL     OW19504   5.618   1.073   2.189
 6202SOL    HW119505   5.617   1.163   2.145
 6202SOL    HW219506   5.613   1.085   2.288
 6203SOL     OW19507   6.453   1.111   2.565
 6203SOL    HW119508   6.397   1.169   2.624
 6203SOL    HW219509   6.415   1.018   2.564
 6204SOL     OW19510   1.075   6.054   4.594
 6204SOL    HW119511   1.042   6.000   4.672
 6204SOL    HW219512   1.103   5.993   4.521
 6205SOL     OW19513   6.317   4.329   3.385
 6205SOL    HW119514   6.282   4.349   3.293
 6205SOL    HW219515   6.343   4.415   3.430
 6206SOL     OW19516   4.778   1.948   3.240
 6206SOL    HW119517   4.772   2.032   3.294
 6206SOL    HW219518   4.872   1.914   3.242
 6207SOL     OW19519   1.672   6.135   3.279
 6207SOL    HW119520   1.625   6.156   3.193
 6207SOL    HW219521   1.636   6.049   3.316
 6208SOL     OW19522   3.401   4.295   6.210
 6208SOL    HW119523   3.366   4.201   6.216
 6208SOL    HW219524   3.373   4.345   6.292
 6209SOL     OW19525   3.476   1.238   2.269
 6209SOL    HW119526   3.503   1.318   2.321
 6209SOL    HW219527   3.502   1.249   2.174
 6210SOL     OW19528   5.808   1.253   4.157
 6210SOL    HW119529   5.850   1.339   4.127
 6210SOL    HW219530   5.879   1.184   4.169
 6211SOL     OW19531   5.465   2.849   5.289
 6211SOL    HW119532   5.558   2.814   5.297
 6211SOL    HW219533   5.408   2.807   5.360
 6212SOL     OW19534   5.489   4.060   5.003
 6212SOL    HW119535   5.555   4.128   5.033
 6212SOL    HW219536   5.537   3.981   4.965
 6213SOL     OW19537   5.042   6.151   0.309
 6213SOL    HW119538   5.131   6.198   0.307
 6213SOL    HW219539   5.058   6.053   0.320
 6214SOL     OW19540   6.846   6.790   6.212
 6214SOL    HW119541   6.779   6.728   6.253
 6214SOL    HW219542   6.897   6.836   6.285
 6215SOL     OW19543   5.890   1.943   4.886
 6215SOL    HW119544   5.794   1.916   4.895
 6215SOL    HW219545   5.923   1.919   4.795
 6216SOL     OW19546   5.434   2.591   5.449
 6216SOL    HW119547   5.336   2.586   5.462
 6216SOL    HW219548   5.475   2.502   5.470
 6217SOL     OW19549   6.815   4.067   2.526
 6217SOL    HW119550   6.827   4.148   2.469
 6217SOL    HW219551   6.872   3.993   2.492
 6218SOL     OW19552   4.688   6.623   1.199
 6218SOL    HW119553   4.719   6.687   1.270
 6218SOL    HW219554   4.594   6.644   1.174
 6219SOL     OW19555   2.513   0.681   0.122
 6219SOL    HW119556   2.563   0.603   0.086
 6219SOL    HW219557   2.429   0.650   0.167
 6220SOL     OW19558   3.321   0.241   2.290
 6220SOL    HW119559   3.327   0.142   2.292
 6220SOL    HW219560   3.321   0.277   2.384
 6221SOL     OW19561   4.370   5.547   5.135
 6221SOL    HW119562   4.284   5.594   5.112
 6221SOL    HW219563   4.353   5.483   5.209
 6222SOL     OW19564   6.139   1.688   2.300
 6222SOL    HW119565   6.058   1.720   2.350
 6222SOL    HW219566   6.145   1.589   2.307
 6223SOL     OW19567   6.595   5.298   4.369
 6223SOL    HW119568   6.592   5.392   4.333
 6223SOL    HW219569   6.689   5.275   4.393
 6224SOL     OW19570   4.471   6.672   0.101
 6224SOL    HW119571   4.402   6.658   0.172
 6224SOL    HW219572   4.552   6.618   0.121
 6225SOL     OW19573   5.198   6.150   6.382
 6225SOL    HW119574   5.294   6.177   6.385
 6225SOL    HW219575   5.153   6.194   6.304
 6226SOL     OW19576   0.795   1.014   4.007
 6226SOL    HW119577   0.803   1.113   3.994
 6226SOL    HW219578   0.885   0.977   4.029
 6227SOL     OW19579   2.189   4.480   6.264
 6227SOL    HW119580   2.199   4.456   6.167
 6227SOL    HW219581   2.253   4.554   6.287
 6228SOL     OW19582   0.443   3.264   3.877
 6228SOL    HW119583   0.373   3.267   3.948
 6228SOL    HW219584   0.516   3.202   3.906
 6229SOL     OW19585   6.957   3.949   4.517
 6229SOL    HW119586   7.014   4.014   4.567
 6229SOL    HW219587   6.893   3.906   4.581
 6230SOL     OW19588   0.768   0.819   1.564
 6230SOL    HW119589   0.672   0.809   1.541
 6230SOL    HW219590   0.791   0.759   1.640
 6231SOL     OW19591   2.026   5.677   5.783
 6231SOL    HW119592   1.972   5.606   5.739
 6231SOL    HW219593   2.018   5.762   5.730
 6232SOL     OW19594   4.296   0.234   6.543
 6232SOL    HW119595   4.201   0.233   6.513
 6232SOL    HW219596   4.302   0.210   6.640
 6233SOL     OW19597   6.880   4.318   1.644
 6233SOL    HW119598   6.816   4.389   1.616
 6233SOL    HW219599   6.972   4.356   1.648
 6234SOL     OW19600   4.622   5.861   3.651
 6234SOL    HW119601   4.636   5.840   3.748
 6234SOL    HW219602   4.631   5.777   3.597
 6235SOL     OW19603   0.089   0.291   1.792
 6235SOL    HW119604   0.126   0.383   1.777
 6235SOL    HW219605   0.006   0.279   1.737
 6236SOL     OW19606   6.650   6.231   1.247
 6236SOL    HW119607   6.555   6.208   1.225
 6236SOL    HW219608   6.682   6.171   1.320
 6237SOL     OW19609   4.254   1.243   2.814
 6237SOL    HW119610   4.255   1.252   2.913
 6237SOL    HW219611   4.272   1.332   2.772
 6238SOL     OW19612   2.640   0.647   3.906
 6238SOL    HW119613   2.565   0.710   3.887
 6238SOL    HW219614   2.633   0.567   3.846
 6239SOL     OW19615   3.755   1.495   4.060
 6239SOL    HW119616   3.812   1.414   4.074
 6239SOL    HW219617   3.798   1.554   3.991
 6240SOL     OW19618   4.045   3.366   3.974
 6240SOL    HW119619   4.036   3.413   3.886
 6240SOL    HW219620   4.047   3.267   3.958
 6241SOL     OW19621   3.666   6.849   3.323
 6241SOL    HW119622   3.596   6.871   3.391
 6241SOL    HW219623   3.757   6.864   3.361
 6242SOL     OW19624   3.212   2.051   4.389
 6242SOL    HW119625   3.155   2.055   4.471
 6242SOL    HW219626   3.308   2.057   4.415
 6243SOL     OW19627   3.778   1.229   0.227
 6243SOL    HW119628   3.874   1.248   0.249
 6243SOL    HW219629   3.764   1.130   0.220
 6244SOL     OW19630   4.482   2.338   2.152
 6244SOL    HW119631   4.539   2.396   2.209
 6244SOL    HW219632   4.531   2.315   2.068
 6245SOL     OW19633   6.894   4.694   1.735
 6245SOL    HW119634   6.846   4.696   1.647
 6245SOL    HW219635   6.969   4.628   1.731
 6246SOL     OW19636   0.712   5.827   4.849
 6246SOL    HW119637   0.779   5.853   4.918
 6246SOL    HW219638   0.759   5.790   4.768
 6247SOL     OW19639   5.565   5.074   2.905
 6247SOL    HW119640   5.649   5.036   2.868
 6247SOL    HW219641   5.584   5.161   2.949
 6248SOL     OW19642   4.702   2.766   5.570
 6248SOL    HW119643   4.730   2.813   5.486
 6248SOL    HW219644   4.660   2.832   5.633
 6249SOL     OW19645   5.623   2.871   3.266
 6249SOL    HW119646   5.545   2.830   3.218
 6249SOL    HW219647   5.696   2.891   3.201
 6250SOL     OW19648   5.310   0.473   5.847
 6250SOL    HW119649   5.322   0.473   5.947
 6250SOL    HW219650   5.329   0.382   5.811
 6251SOL     OW19651   2.665   0.759   4.433
 6251SOL    HW119652   2.753   0.716   4.417
 6251SOL    HW219653   2.630   0.734   4.523
 6252SOL     OW19654   3.291   4.928   0.599
 6252SOL    HW119655   3.253   4.970   0.681
 6252SOL    HW219656   3.272   4.986   0.520
 6253SOL     OW19657   5.301   6.489   3.492
 6253SOL    HW119658   5.295   6.541   3.407
 6253SOL    HW219659   5.381   6.519   3.544
 6254SOL     OW19660   0.158   6.990   1.627
 6254SOL    HW119661   0.099   6.982   1.708
 6254SOL    HW219662   0.238   0.023   1.650
 6255SOL     OW19663   2.022   0.796   0.927
 6255SOL    HW119664   2.081   0.730   0.880
 6255SOL    HW219665   1.956   0.747   0.985
 6256SOL     OW19666   6.259   5.191   2.239
 6256SOL    HW119667   6.273   5.094   2.218
 6256SOL    HW219668   6.170   5.203   2.282
 6257SOL     OW19669   3.796   3.878   0.607
 6257SOL    HW119670   3.884   3.904   0.647
 6257SOL    HW219671   3.742   3.827   0.674
 6258SOL     OW19672   3.997   4.948   4.859
 6258SOL    HW119673   3.980   4.887   4.936
 6258SOL    HW219674   4.083   4.997   4.874
 6259SOL     OW19675   4.359   1.459   4.932
 6259SOL    HW119676   4.328   1.502   5.017
 6259SOL    HW219677   4.287   1.399   4.896
 6260SOL     OW19678   3.703   2.194   0.079
 6260SOL    HW119679   3.616   2.144   0.074
 6260SOL    HW219680   3.699   2.260   0.154
 6261SOL     OW19681   4.197   6.864   0.899
 6261SOL    HW119682   4.100   6.840   0.907
 6261SOL    HW219683   4.239   6.807   0.828
 6262SOL     OW19684   6.354   1.020   3.013
 6262SOL    HW119685   6.409   0.985   3.089
 6262SOL    HW219686   6.348   0.951   2.942
 6263SOL     OW19687   6.214   6.042   6.282
 6263SOL    HW119688   6.288   6.105   6.309
 6263SOL    HW219689   6.131   6.066   6.331
 6264SOL     OW19690   0.820   6.184   1.116
 6264SOL    HW119691   0.911   6.226   1.126
 6264SOL    HW219692   0.753   6.237   1.167
 6265SOL     OW19693   3.832   6.724   6.524
 6265SOL    HW119694   3.741   6.682   6.533
 6265SOL    HW219695   3.829   6.817   6.558
 6266SOL     OW19696   3.171   5.193   2.799
 6266SOL    HW119697   3.134   5.144   2.720
 6266SOL    HW219698   3.165   5.135   2.880
 6267SOL     OW19699   0.552   6.493   4.591
 6267SOL    HW119700   0.537   6.470   4.494
 6267SOL    HW219701   0.469   6.535   4.628
 6268SOL     OW19702   3.391   1.273   1.576
 6268SOL    HW119703   3.330   1.246   1.651
 6268SOL    HW219704   3.342   1.269   1.489
 6269SOL     OW19705   6.939   6.229   0.173
 6269SOL    HW119706   7.005   6.193   0.107
 6269SOL    HW219707   6.931   6.328   0.161
 6270SOL     OW19708   1.028   6.599   0.757
 6270SOL    HW119709   1.030   6.669   0.828
 6270SOL    HW219710   0.941   6.603   0.708
 6271SOL     OW19711   6.799   3.204   5.392
 6271SOL    HW119712   6.715   3.156   5.420
 6271SOL    HW219713   6.776   3.295   5.359
 6272SOL     OW19714   0.927   1.252   0.386
 6272SOL    HW119715   0.900   1.247   0.482
 6272SOL    HW219716   1.026   1.240   0.378
 6273SOL     OW19717   0.894   6.464   3.028
 6273SOL    HW119718   0.945   6.484   2.944
 6273SOL    HW219719   0.905   6.367   3.051
 6274SOL     OW19720   2.861   5.740   4.058
 6274SOL    HW119721   2.874   5.763   4.154
 6274SOL    HW219722   2.881   5.643   4.044
 6275SOL     OW19723   2.618   5.548   1.025
 6275SOL    HW119724   2.679   5.534   1.103
 6275SOL    HW219725   2.555   5.472   1.017
 6276SOL     OW19726   1.963   5.239   2.822
 6276SOL    HW119727   1.893   5.244   2.893
 6276SOL    HW219728   2.053   5.239   2.864
 6277SOL     OW19729   4.528   2.736   1.690
 6277SOL    HW119730   4.433   2.762   1.671
 6277SOL    HW219731   4.567   2.799   1.757
 6278SOL     OW19732   2.910   2.874   0.482
 6278SOL    HW119733   2.899   2.967   0.517
 6278SOL    HW219734   2.978   2.874   0.409
 6279SOL     OW19735   1.720   6.412   2.216
 6279SOL    HW119736   1.670   6.473   2.155
 6279SOL    HW219737   1.812   6.395   2.180
 6280SOL     OW19738   5.038   1.071   6.985
 6280SOL    HW119739   5.032   1.112   6.893
 6280SOL    HW219740   5.117   1.108   0.010
 6281SOL     OW19741   5.409   3.843   5.617
 6281SOL    HW119742   5.312   3.853   5.595
 6281SOL    HW219743   5.440   3.922   5.669
 6282SOL     OW19744   0.414   3.727   5.552
 6282SOL    HW119745   0.333   3.762   5.599
 6282SOL    HW219746   0.395   3.719   5.454
 6283SOL     OW19747   2.513   0.428   4.513
 6283SOL    HW119748   2.446   0.483   4.463
 6283SOL    HW219749   2.605   0.452   4.482
 6284SOL     OW19750   1.715   3.964   6.544
 6284SOL    HW119751   1.767   4.050   6.547
 6284SOL    HW219752   1.617   3.984   6.542
 6285SOL     OW19753   1.496   4.244   3.307
 6285SOL    HW119754   1.592   4.219   3.300
 6285SOL    HW219755   1.486   4.343   3.302
 6286SOL     OW19756   0.826   3.020   6.847
 6286SOL    HW119757   0.856   3.115   6.862
 6286SOL    HW219758   0.821   3.002   6.749
 6287SOL     OW19759   4.343   5.093   4.490
 6287SOL    HW119760   4.244   5.107   4.483
 6287SOL    HW219761   4.375   5.044   4.408
 6288SOL     OW19762   3.081   3.523   5.408
 6288SOL    HW119763   3.120   3.605   5.451
 6288SOL    HW219764   2.986   3.541   5.383
 6289SOL     OW19765   2.596   4.591   5.187
 6289SOL    HW119766   2.616   4.609   5.283
 6289SOL    HW219767   2.675   4.617   5.132
 6290SOL     OW19768   6.578   6.533   3.181
 6290SOL    HW119769   6.520   6.597   3.130
 6290SOL    HW219770   6.559   6.440   3.152
 6291SOL     OW19771   3.247   3.530   2.190
 6291SOL    HW119772   3.327   3.477   2.161
 6291SOL    HW219773   3.167   3.470   2.192
 6292SOL     OW19774   1.311   4.192   4.827
 6292SOL    HW119775   1.405   4.160   4.830
 6292SOL    HW219776   1.294   4.239   4.740
 6293SOL     OW19777   3.092   1.158   0.394
 6293SOL    HW119778   3.032   1.124   0.321
 6293SOL    HW219779   3.096   1.257   0.390
 6294SOL     OW19780   2.248   0.618   2.342
 6294SOL    HW119781   2.246   0.579   2.434
 6294SOL    HW219782   2.180   0.573   2.285
 6295SOL     OW19783   4.616   2.734   6.003
 6295SOL    HW119784   4.679   2.744   6.081
 6295SOL    HW219785   4.653   2.784   5.925
 6296SOL     OW19786   0.274   2.555   0.362
 6296SOL    HW119787   0.209   2.481   0.379
 6296SOL    HW219788   0.334   2.529   0.286
 6297SOL     OW19789   6.532   0.960   4.098
 6297SOL    HW119790   6.552   1.020   4.175
 6297SOL    HW219791   6.475   1.008   4.031
 6298SOL     OW19792   6.897   0.174   6.767
 6298SOL    HW119793   6.880   0.236   6.843
 6298SOL    HW219794   6.858   0.213   6.683
 6299SOL     OW19795   3.449   1.669   4.020
 6299SOL    HW119796   3.454   1.576   3.984
 6299SOL    HW219797   3.424   1.732   3.947
 6300SOL     OW19798   2.486   1.908   1.265
 6300SOL    HW119799   2.395   1.866   1.265
 6300SOL    HW219800   2.519   1.915   1.359
 6301SOL     OW19801   4.368   6.509   0.687
 6301SOL    HW119802   4.313   6.592   0.682
 6301SOL    HW219803   4.363   6.461   0.599
 6302SOL     OW19804   1.331   3.280   0.316
 6302SOL    HW119805   1.251   3.219   0.308
 6302SOL    HW219806   1.360   3.284   0.412
 6303SOL     OW19807   6.661   5.496   4.576
 6303SOL    HW119808   6.604   5.444   4.639
 6303SOL    HW219809   6.605   5.564   4.529
 6304SOL     OW19810   2.566   1.908   3.620
 6304SOL    HW119811   2.498   1.961   3.569
 6304SOL    HW219812   2.623   1.857   3.555
 6305SOL     OW19813   0.320   5.589   5.579
 6305SOL    HW119814   0.347   5.505   5.626
 6305SOL    HW219815   0.255   5.640   5.635
 6306SOL     OW19816   0.720   4.441   4.253
 6306SOL    HW119817   0.773   4.513   4.208
 6306SOL    HW219818   0.681   4.380   4.183
 6307SOL     OW19819   3.030   3.529   3.290
 6307SOL    HW119820   2.968   3.504   3.215
 6307SOL    HW219821   3.026   3.628   3.306
 6308SOL     OW19822   0.909   1.656   1.274
 6308SOL    HW119823   0.931   1.596   1.197
 6308SOL    HW219824   0.972   1.734   1.276
 6309SOL     OW19825   1.901   5.346   5.105
 6309SOL    HW119826   1.984   5.389   5.070
 6309SOL    HW219827   1.896   5.359   5.204
 6310SOL     OW19828   0.559   6.797   3.059
 6310SOL    HW119829   0.475   6.814   3.008
 6310SOL    HW219830   0.603   6.713   3.027
 6311SOL     OW19831   6.536   1.126   6.329
 6311SOL    HW119832   6.489   1.211   6.353
 6311SOL    HW219833   6.508   1.054   6.392
 6312SOL     OW19834   3.621   5.611   1.088
 6312SOL    HW119835   3.593   5.626   1.183
 6312SOL    HW219836   3.650   5.697   1.047
 6313SOL     OW19837   5.357   4.867   2.903
 6313SOL    HW119838   5.354   4.803   2.980
 6313SOL    HW219839   5.441   4.921   2.908
 6314SOL     OW19840   2.064   6.673   3.731
 6314SOL    HW119841   2.110   6.762   3.719
 6314SOL    HW219842   2.068   6.622   3.645
 6315SOL     OW19843   2.150   2.466   3.236
 6315SOL    HW119844   2.169   2.528   3.160
 6315SOL    HW219845   2.077   2.403   3.210
 6316SOL     OW19846   4.008   0.459   5.019
 6316SOL    HW119847   4.002   0.377   4.962
 6316SOL    HW219848   4.026   0.431   5.114
 6317SOL     OW19849   4.662   4.640   2.921
 6317SOL    HW119850   4.626   4.624   3.012
 6317SOL    HW219851   4.683   4.737   2.910
 6318SOL     OW19852   6.077   0.150   0.072
 6318SOL    HW119853   6.096   0.201   0.156
 6318SOL    HW219854   6.092   0.209   7.015
 6319SOL     OW19855   5.132   2.713   4.764
 6319SOL    HW119856   5.039   2.735   4.734
 6319SOL    HW219857   5.129   2.656   4.845
 6320SOL     OW19858   6.542   1.652   6.427
 6320SOL    HW119859   6.468   1.693   6.480
 6320SOL    HW219860   6.608   1.610   6.490
 6321SOL     OW19861   0.806   3.786   0.393
 6321SOL    HW119862   0.754   3.837   0.462
 6321SOL    HW219863   0.861   3.716   0.438
 6322SOL     OW19864   2.116   1.460   2.629
 6322SOL    HW119865   2.067   1.536   2.586
 6322SOL    HW219866   2.085   1.374   2.589
 6323SOL     OW19867   2.224   5.986   0.966
 6323SOL    HW119868   2.179   5.919   1.023
 6323SOL    HW219869   2.158   6.025   0.902
 6324SOL     OW19870   5.027   3.684   1.063
 6324SOL    HW119871   5.082   3.663   1.144
 6324SOL    HW219872   5.029   3.607   1.000
 6325SOL     OW19873   1.193   3.218   4.184
 6325SOL    HW119874   1.223   3.186   4.094
 6325SOL    HW219875   1.202   3.317   4.189
 6326SOL     OW19876   4.636   5.490   5.174
 6326SOL    HW119877   4.667   5.409   5.123
 6326SOL    HW219878   4.562   5.534   5.123
 6327SOL     OW19879   0.820   0.807   2.214
 6327SOL    HW119880   0.772   0.720   2.223
 6327SOL    HW219881   0.754   0.882   2.218
 6328SOL     OW19882   3.950   3.878   5.219
 6328SOL    HW119883   3.866   3.829   5.197
 6328SOL    HW219884   3.938   3.976   5.204
 6329SOL     OW19885   6.896   2.929   4.945
 6329SOL    HW119886   6.928   2.999   5.009
 6329SOL    HW219887   6.955   2.848   4.953
 6330SOL     OW19888   4.282   1.947   3.758
 6330SOL    HW119889   4.378   1.952   3.730
 6330SOL    HW219890   4.265   1.860   3.805
 6331SOL     OW19891   1.914   3.657   3.813
 6331SOL    HW119892   1.832   3.709   3.789
 6331SOL    HW219893   1.971   3.712   3.874
 6332SOL     OW19894   4.317   1.413   0.077
 6332SOL    HW119895   4.269   1.473   0.014
 6332SOL    HW219896   4.305   1.318   0.048
 6333SOL     OW19897   5.734   1.001   0.437
 6333SOL    HW119898   5.742   0.978   0.340
 6333SOL    HW219899   5.699   0.923   0.488
 6334SOL     OW19900   2.037   1.379   1.932
 6334SOL    HW119901   1.943   1.360   1.901
 6334SOL    HW219902   2.072   1.298   1.980
 6335SOL     OW19903   6.209   2.962   5.434
 6335SOL    HW119904   6.131   2.923   5.483
 6335SOL    HW219905   6.276   2.998   5.500
 6336SOL     OW19906   0.595   4.686   5.808
 6336SOL    HW119907   0.602   4.747   5.729
 6336SOL    HW219908   0.635   4.731   5.888
 6337SOL     OW19909   6.008   6.704   5.241
 6337SOL    HW119910   6.067   6.624   5.229
 6337SOL    HW219911   6.056   6.785   5.207
 6338SOL     OW19912   0.625   0.269   2.412
 6338SOL    HW119913   0.714   0.295   2.448
 6338SOL    HW219914   0.623   0.282   2.313
 6339SOL     OW19915   0.387   4.057   2.993
 6339SOL    HW119916   0.465   3.995   2.995
 6339SOL    HW219917   0.377   4.094   2.901
 6340SOL     OW19918   2.497   5.456   6.312
 6340SOL    HW119919   2.555   5.503   6.379
 6340SOL    HW219920   2.438   5.390   6.359
 6341SOL     OW19921   0.381   4.459   2.570
 6341SOL    HW119922   0.292   4.502   2.557
 6341SOL    HW219923   0.399   4.396   2.494
 6342SOL     OW19924   2.124   0.612   1.770
 6342SOL    HW119925   2.082   0.525   1.743
 6342SOL    HW219926   2.093   0.636   1.862
 6343SOL     OW19927   1.635   4.872   6.739
 6343SOL    HW119928   1.601   4.841   6.650
 6343SOL    HW219929   1.728   4.838   6.753
 6344SOL     OW19930   1.116   1.286   4.256
 6344SOL    HW119931   1.104   1.231   4.338
 6344SOL    HW219932   1.139   1.226   4.179
 6345SOL     OW19933   6.852   3.174   3.047
 6345SOL    HW119934   6.845   3.267   3.010
 6345SOL    HW219935   6.908   3.175   3.130
 6346SOL     OW19936   0.678   4.696   4.533
 6346SOL    HW119937   0.608   4.651   4.478
 6346SOL    HW219938   0.766   4.693   4.484
 6347SOL     OW19939   2.005   2.455   3.479
 6347SOL    HW119940   2.072   2.482   3.410
 6347SOL    HW219941   1.913   2.480   3.448
 6348SOL     OW19942   1.372   2.912   0.104
 6348SOL    HW119943   1.378   2.985   0.035
 6348SOL    HW219944   1.411   2.828   0.066
 6349SOL     OW19945   6.387   1.392   0.770
 6349SOL    HW119946   6.356   1.342   0.851
 6349SOL    HW219947   6.321   1.381   0.696
 6350SOL     OW19948   0.973   6.147   1.413
 6350SOL    HW119949   1.031   6.075   1.452
 6350SOL    HW219950   0.911   6.106   1.346
 6351SOL     OW19951   6.188   2.605   1.671
 6351SOL    HW119952   6.284   2.617   1.696
 6351SOL    HW219953   6.174   2.512   1.637
 6352SOL     OW19954   4.555   0.541   4.444
 6352SOL    HW119955   4.537   0.583   4.534
 6352SOL    HW219956   4.597   0.452   4.457
 6353SOL     OW19957   3.733   6.374   5.739
 6353SOL    HW119958   3.714   6.333   5.828
 6353SOL    HW219959   3.647   6.400   5.695
 6354SOL     OW19960   5.697   4.893   2.371
 6354SOL    HW119961   5.669   4.974   2.423
 6354SOL    HW219962   5.786   4.911   2.327
 6355SOL     OW19963   5.475   6.074   0.094
 6355SOL    HW119964   5.471   6.166   0.055
 6355SOL    HW219965   5.383   6.040   0.109
 6356SOL     OW19966   0.575   6.560   6.322
 6356SOL    HW119967   0.638   6.542   6.397
 6356SOL    HW219968   0.615   6.625   6.259
 6357SOL     OW19969   4.840   2.142   2.697
 6357SOL    HW119970   4.823   2.073   2.628
 6357SOL    HW219971   4.756   2.191   2.717
 6358SOL     OW19972   1.480   1.629   4.583
 6358SOL    HW119973   1.420   1.552   4.601
 6358SOL    HW219974   1.567   1.596   4.546
 6359SOL     OW19975   5.810   4.556   0.845
 6359SOL    HW119976   5.715   4.527   0.850
 6359SOL    HW219977   5.824   4.608   0.761
 6360SOL     OW19978   2.417   2.602   0.870
 6360SOL    HW119979   2.446   2.696   0.854
 6360SOL    HW219980   2.350   2.599   0.944
 6361SOL     OW19981   0.542   2.232   2.730
 6361SOL    HW119982   0.468   2.200   2.790
 6361SOL    HW219983   0.566   2.160   2.665
 6362SOL     OW19984   2.015   5.249   0.530
 6362SOL    HW119985   2.061   5.175   0.579
 6362SOL    HW219986   2.007   5.226   0.434
 6363SOL     OW19987   0.682   2.378   1.932
 6363SOL    HW119988   0.656   2.439   2.007
 6363SOL    HW219989   0.608   2.314   1.913
 6364SOL     OW19990   2.597   1.206   4.503
 6364SOL    HW119991   2.510   1.166   4.476
 6364SOL    HW219992   2.645   1.240   4.422
 6365SOL     OW19993   6.615   6.794   2.460
 6365SOL    HW119994   6.688   6.726   2.463
 6365SOL    HW219995   6.629   6.861   2.533
 6366SOL     OW19996   5.813   1.428   4.920
 6366SOL    HW119997   5.774   1.338   4.901
 6366SOL    HW219998   5.773   1.496   4.858
 6367SOL     OW19999   1.233   2.607   4.606
 6367SOL    HW120000   1.233   2.554   4.691
 6367SOL    HW220001   1.313   2.582   4.551
 6368SOL     OW20002   4.933   3.433   4.817
 6368SOL    HW120003   4.889   3.478   4.895
 6368SOL    HW220004   5.021   3.395   4.845
 6369SOL     OW20005   3.272   4.235   1.079
 6369SOL    HW120006   3.344   4.175   1.113
 6369SOL    HW220007   3.183   4.203   1.111
 6370SOL     OW20008   6.028   4.063   4.584
 6370SOL    HW120009   6.127   4.069   4.599
 6370SOL    HW220010   6.010   4.010   4.501
 6371SOL     OW20011   5.988   4.357   0.852
 6371SOL    HW120012   5.938   4.443   0.842
 6371SOL    HW220013   6.079   4.366   0.811
 6372SOL     OW20014   6.516   1.156   1.113
 6372SOL    HW120015   6.606   1.193   1.093
 6372SOL    HW220016   6.447   1.229   1.109
 6373SOL     OW20017   5.298   1.915   1.305
 6373SOL    HW120018   5.350   1.873   1.231
 6373SOL    HW220019   5.349   1.993   1.342
 6374SOL     OW20020   3.863   3.047   6.622
 6374SOL    HW120021   3.928   2.976   6.595
 6374SOL    HW220022   3.828   3.094   6.540
 6375SOL     OW20023   5.266   1.047   2.288
 6375SOL    HW120024   5.323   1.078   2.364
 6375SOL    HW220025   5.236   0.953   2.304
 6376SOL     OW20026   2.812   6.684   0.810
 6376SOL    HW120027   2.792   6.597   0.855
 6376SOL    HW220028   2.745   6.701   0.738
 6377SOL     OW20029   0.248   0.623   0.298
 6377SOL    HW120030   0.313   0.698   0.291
 6377SOL    HW220031   0.291   0.546   0.344
 6378SOL     OW20032   6.119   3.894   3.196
 6378SOL    HW120033   6.092   3.951   3.118
 6378SOL    HW220034   6.161   3.810   3.162
 6379SOL     OW20035   2.851   5.316   6.729
 6379SOL    HW120036   2.903   5.390   6.687
 6379SOL    HW220037   2.833   5.245   6.661
 6380SOL     OW20038   2.238   3.008   4.788
 6380SOL    HW120039   2.289   2.926   4.763
 6380SOL    HW220040   2.264   3.036   4.881
 6381SOL     OW20041   3.160   3.919   0.888
 6381SOL    HW120042   3.224   3.862   0.940
 6381SOL    HW220043   3.202   4.008   0.871
 6382SOL     OW20044   2.129   1.128   1.236
 6382SOL    HW120045   2.227   1.113   1.248
 6382SOL    HW220046   2.091   1.169   1.319
 6383SOL     OW20047   2.683   2.051   2.763
 6383SOL    HW120048   2.780   2.056   2.788
 6383SOL    HW220049   2.675   2.034   2.665
 6384SOL     OW20050   6.826   1.980   2.453
 6384SOL    HW120051   6.870   1.905   2.404
 6384SOL    HW220052   6.754   1.944   2.512
 6385SOL     OW20053   6.980   3.913   1.359
 6385SOL    HW120054   0.031   3.957   1.306
 6385SOL    HW220055   6.914   3.982   1.387
 6386SOL     OW20056   2.937   4.070   0.383
 6386SOL    HW120057   3.000   3.993   0.397
 6386SOL    HW220058   2.844   4.042   0.407
 6387SOL     OW20059   6.488   0.945   6.114
 6387SOL    HW120060   6.427   1.017   6.082
 6387SOL    HW220061   6.515   0.963   6.208
 6388SOL     OW20062   6.115   5.113   1.687
 6388SOL    HW120063   6.037   5.122   1.749
 6388SOL    HW220064   6.199   5.111   1.740
 6389SOL     OW20065   6.732   6.522   0.646
 6389SOL    HW120066   6.703   6.618   0.638
 6389SOL    HW220067   6.784   6.510   0.731
 6390SOL     OW20068   5.031   6.507   6.458
 6390SOL    HW120069   5.112   6.499   6.400
 6390SOL    HW220070   4.951   6.528   6.401
 6391SOL     OW20071   1.775   2.261   5.070
 6391SOL    HW120072   1.707   2.310   5.015
 6391SOL    HW220073   1.799   2.316   5.150
 6392SOL     OW20074   5.161   6.563   3.905
 6392SOL    HW120075   5.090   6.495   3.890
 6392SOL    HW220076   5.198   6.593   3.817
 6393SOL     OW20077   2.396   5.371   0.353
 6393SOL    HW120078   2.330   5.297   0.359
 6393SOL    HW220079   2.447   5.364   0.267
 6394SOL     OW20080   1.496   5.458   2.010
 6394SOL    HW120081   1.547   5.496   2.087
 6394SOL    HW220082   1.541   5.375   1.978
 6395SOL     OW20083   1.384   4.109   5.116
 6395SOL    HW120084   1.356   4.122   5.211
 6395SOL    HW220085   1.337   4.175   5.058
 6396SOL     OW20086   1.190   2.925   5.133
 6396SOL    HW120087   1.245   2.862   5.079
 6396SOL    HW220088   1.134   2.873   5.197
 6397SOL     OW20089   6.734   3.049   4.770
 6397SOL    HW120090   6.805   3.043   4.699
 6397SOL    HW220091   6.776   3.033   4.859
 6398SOL     OW20092   1.144   0.280   2.461
 6398SOL    HW120093   1.179   0.371   2.438
 6398SOL    HW220094   1.202   0.239   2.532
 6399SOL     OW20095   2.845   0.164   6.772
 6399SOL    HW120096   2.774   0.116   6.722
 6399SOL    HW220097   2.819   0.260   6.785
 6400SOL     OW20098   0.964   5.942   2.820
 6400SOL    HW120099   0.942   5.982   2.908
 6400SOL    HW220100   1.063   5.946   2.805
 6401SOL     OW20101   3.974   4.920   1.750
 6401SOL    HW120102   3.973   4.924   1.650
 6401SOL    HW220103   3.942   4.830   1.780
 6402SOL     OW20104   4.190   4.099   5.842
 6402SOL    HW120105   4.144   4.169   5.897
 6402SOL    HW220106   4.123   4.057   5.781
 6403SOL     OW20107   4.114   5.728   5.664
 6403SOL    HW120108   4.190   5.788   5.642
 6403SOL    HW220109   4.140   5.667   5.739
 6404SOL     OW20110   4.736   5.628   6.314
 6404SOL    HW120111   4.797   5.602   6.240
 6404SOL    HW220112   4.780   5.697   6.371
 6405SOL     OW20113   4.393   0.849   2.706
 6405SOL    HW120114   4.357   0.902   2.630
 6405SOL    HW220115   4.320   0.791   2.743
 6406SOL     OW20116   0.190   3.985   1.960
 6406SOL    HW120117   0.097   3.949   1.952
 6406SOL    HW220118   0.223   3.972   2.053
 6407SOL     OW20119   0.436   6.796   1.749
 6407SOL    HW120120   0.354   6.739   1.752
 6407SOL    HW220121   0.515   6.743   1.780
 6408SOL     OW20122   6.556   1.120   2.018
 6408SOL    HW120123   6.594   1.136   1.927
 6408SOL    HW220124   6.603   1.042   2.060
 6409SOL     OW20125   5.713   4.548   3.638
 6409SOL    HW120126   5.655   4.498   3.573
 6409SOL    HW220127   5.712   4.645   3.616
 6410SOL     OW20128   1.463   0.310   0.088
 6410SOL    HW120129   1.376   0.282   0.130
 6410SOL    HW220130   1.529   0.236   0.096
 6411SOL     OW20131   1.210   2.556   4.145
 6411SOL    HW120132   1.118   2.560   4.185
 6411SOL    HW220133   1.278   2.555   4.219
 6412SOL     OW20134   4.305   0.184   6.838
 6412SOL    HW120135   4.222   0.188   6.893
 6412SOL    HW220136   4.351   0.097   6.854
 6413SOL     OW20137   4.253   6.055   3.062
 6413SOL    HW120138   4.169   6.075   3.113
 6413SOL    HW220139   4.303   5.982   3.107
 6414SOL     OW20140   3.422   0.241   0.415
 6414SOL    HW120141   3.412   0.162   0.355
 6414SOL    HW220142   3.517   0.250   0.444
 6415SOL     OW20143   0.205   2.085   3.894
 6415SOL    HW120144   0.213   1.987   3.877
 6415SOL    HW220145   0.189   2.132   3.808
 6416SOL     OW20146   2.991   4.749   0.412
 6416SOL    HW120147   2.951   4.673   0.360
 6416SOL    HW220148   3.001   4.829   0.353
 6417SOL     OW20149   4.078   3.519   6.204
 6417SOL    HW120150   4.097   3.481   6.113
 6417SOL    HW220151   3.979   3.524   6.218
 6418SOL     OW20152   4.868   5.411   0.310
 6418SOL    HW120153   4.839   5.475   0.381
 6418SOL    HW220154   4.813   5.424   0.228
 6419SOL     OW20155   1.302   6.473   6.476
 6419SOL    HW120156   1.301   6.446   6.380
 6419SOL    HW220157   1.358   6.410   6.528
 6420SOL     OW20158   2.423   4.940   3.393
 6420SOL    HW120159   2.329   4.970   3.406
 6420SOL    HW220160   2.485   5.017   3.405
 6421SOL     OW20161   5.594   6.958   1.229
 6421SOL    HW120162   5.662   7.012   1.279
 6421SOL    HW220163   5.524   7.018   1.190
 6422SOL     OW20164   0.846   1.882   4.336
 6422SOL    HW120165   0.839   1.976   4.304
 6422SOL    HW220166   0.755   1.840   4.338
 6423SOL     OW20167   1.549   3.674   4.661
 6423SOL    HW120168   1.451   3.667   4.680
 6423SOL    HW220169   1.581   3.764   4.689
 6424SOL     OW20170   6.582   3.673   5.400
 6424SOL    HW120171   6.624   3.682   5.490
 6424SOL    HW220172   6.488   3.707   5.403
 6425SOL     OW20173   0.969   6.659   5.533
 6425SOL    HW120174   1.057   6.612   5.537
 6425SOL    HW220175   0.942   6.687   5.625
 6426SOL     OW20176   3.952   5.745   3.755
 6426SOL    HW120177   4.038   5.778   3.795
 6426SOL    HW220178   3.892   5.712   3.828
 6427SOL     OW20179   3.520   3.309   3.642
 6427SOL    HW120180   3.603   3.292   3.695
 6427SOL    HW220181   3.445   3.333   3.704
 6428SOL     OW20182   6.467   2.092   0.468
 6428SOL    HW120183   6.518   2.006   0.459
 6428SOL    HW220184   6.372   2.078   0.441
 6429SOL     OW20185   2.499   1.962   4.487
 6429SOL    HW120186   2.410   1.918   4.482
 6429SOL    HW220187   2.548   1.949   4.401
 6430SOL     OW20188   5.933   1.351   4.553
 6430SOL    HW120189   5.990   1.393   4.483
 6430SOL    HW220190   5.974   1.368   4.643
 6431SOL     OW20191   2.973   4.864   2.958
 6431SOL    HW120192   2.928   4.816   2.882
 6431SOL    HW220193   2.907   4.881   3.031
 6432SOL     OW20194   4.298   3.177   6.519
 6432SOL    HW120195   4.390   3.138   6.512
 6432SOL    HW220196   4.246   3.130   6.590
 6433SOL     OW20197   3.638   5.331   6.085
 6433SOL    HW120198   3.652   5.245   6.037
 6433SOL    HW220199   3.722   5.385   6.083
 6434SOL     OW20200   6.667   4.724   6.162
 6434SOL    HW120201   6.744   4.681   6.115
 6434SOL    HW220202   6.600   4.654   6.187
 6435SOL     OW20203   4.463   1.679   1.319
 6435SOL    HW120204   4.485   1.773   1.291
 6435SOL    HW220205   4.519   1.615   1.265
 6436SOL     OW20206   0.745   2.698   3.593
 6436SOL    HW120207   0.653   2.728   3.567
 6436SOL    HW220208   0.751   2.693   3.693
 6437SOL     OW20209   1.642   3.002   6.227
 6437SOL    HW120210   1.714   2.987   6.295
 6437SOL    HW220211   1.621   3.100   6.221
 6438SOL     OW20212   0.400   5.093   0.975
 6438SOL    HW120213   0.480   5.080   1.033
 6438SOL    HW220214   0.426   5.080   0.879
 6439SOL     OW20215   4.795   6.452   2.972
 6439SOL    HW120216   4.783   6.532   3.031
 6439SOL    HW220217   4.851   6.384   3.019
 6440SOL     OW20218   2.551   2.058   5.601
 6440SOL    HW120219   2.597   1.970   5.596
 6440SOL    HW220220   2.503   2.076   5.515
 6441SOL     OW20221   1.177   2.197   1.720
 6441SOL    HW120222   1.275   2.185   1.733
 6441SOL    HW220223   1.130   2.192   1.809
 6442SOL     OW20224   2.664   1.920   4.272
 6442SOL    HW120225   2.719   1.983   4.327
 6442SOL    HW220226   2.709   1.832   4.266
 6443SOL     OW20227   2.411   2.579   5.844
 6443SOL    HW120228   2.394   2.663   5.793
 6443SOL    HW220229   2.373   2.501   5.795
 6444SOL     OW20230   0.232   3.845   5.336
 6444SOL    HW120231   0.271   3.920   5.281
 6444SOL    HW220232   0.150   3.810   5.291
 6445SOL     OW20233   3.378   2.920   3.452
 6445SOL    HW120234   3.280   2.918   3.469
 6445SOL    HW220235   3.426   2.955   3.532
 6446SOL     OW20236   1.509   0.605   1.624
 6446SOL    HW120237   1.427   0.595   1.680
 6446SOL    HW220238   1.502   0.546   1.544
 6447SOL     OW20239   6.017   3.841   1.078
 6447SOL    HW120240   6.049   3.790   1.158
 6447SOL    HW220241   6.093   3.894   1.039
 6448SOL     OW20242   4.067   4.244   1.481
 6448SOL    HW120243   4.094   4.275   1.390
 6448SOL    HW220244   3.987   4.184   1.474
 6449SOL     OW20245   4.358   5.137   0.498
 6449SOL    HW120246   4.395   5.220   0.457
 6449SOL    HW220247   4.407   5.057   0.462
 6450SOL     OW20248   4.457   3.604   0.080
 6450SOL    HW120249   4.458   3.601   0.180
 6450SOL    HW220250   4.398   3.679   0.050
 6451SOL     OW20251   4.310   2.705   1.487
 6451SOL    HW120252   4.273   2.666   1.571
 6451SOL    HW220253   4.366   2.637   1.440
 6452SOL     OW20254   4.294   2.013   4.489
 6452SOL    HW120255   4.358   1.991   4.563
 6452SOL    HW220256   4.344   2.018   4.403
 6453SOL     OW20257   2.530   0.735   3.022
 6453SOL    HW120258   2.563   0.718   2.929
 6453SOL    HW220259   2.506   0.832   3.032
 6454SOL     OW20260   5.190   3.846   4.857
 6454SOL    HW120261   5.243   3.878   4.936
 6454SOL    HW220262   5.101   3.813   4.888
 6455SOL     OW20263   0.413   2.702   4.520
 6455SOL    HW120264   0.478   2.687   4.446
 6455SOL    HW220265   0.389   2.799   4.525
 6456SOL     OW20266   5.938   1.922   3.190
 6456SOL    HW120267   5.871   1.875   3.246
 6456SOL    HW220268   5.964   2.008   3.235
 6457SOL     OW20269   1.660   6.183   3.601
 6457SOL    HW120270   1.647   6.114   3.529
 6457SOL    HW220271   1.655   6.139   3.690
 6458SOL     OW20272   1.247   0.500   4.770
 6458SOL    HW120273   1.247   0.575   4.837
 6458SOL    HW220274   1.341   0.478   4.744
 6459SOL     OW20275   0.960   3.473   2.846
 6459SOL    HW120276   0.964   3.396   2.782
 6459SOL    HW220277   0.960   3.438   2.940
 6460SOL     OW20278   1.642   5.204   5.578
 6460SOL    HW120279   1.651   5.230   5.674
 6460SOL    HW220280   1.724   5.234   5.528
 6461SOL     OW20281   0.286   6.896   1.394
 6461SOL    HW120282   0.220   6.926   1.462
 6461SOL    HW220283   0.320   6.805   1.417
 6462SOL     OW20284   2.341   3.878   5.714
 6462SOL    HW120285   2.398   3.930   5.650
 6462SOL    HW220286   2.343   3.781   5.690
 6463SOL     OW20287   4.641   3.360   1.411
 6463SOL    HW120288   4.593   3.441   1.443
 6463SOL    HW220289   4.677   3.308   1.489
 6464SOL     OW20290   1.303   3.154   3.273
 6464SOL    HW120291   1.337   3.201   3.355
 6464SOL    HW220292   1.327   3.057   3.278
 6465SOL     OW20293   2.409   1.683   3.009
 6465SOL    HW120294   2.337   1.650   2.948
 6465SOL    HW220295   2.425   1.781   2.992
 6466SOL     OW20296   6.613   5.034   6.749
 6466SOL    HW120297   6.702   5.005   6.783
 6466SOL    HW220298   6.561   5.078   6.822
 6467SOL     OW20299   2.524   3.557   5.978
 6467SOL    HW120300   2.543   3.518   5.888
 6467SOL    HW220301   2.589   3.630   5.998
 6468SOL     OW20302   1.104   0.709   1.085
 6468SOL    HW120303   1.108   0.732   1.183
 6468SOL    HW220304   1.058   0.784   1.036
 6469SOL     OW20305   2.455   0.912   0.959
 6469SOL    HW120306   2.443   0.822   1.000
 6469SOL    HW220307   2.365   0.957   0.949
 6470SOL     OW20308   5.830   1.437   6.612
 6470SOL    HW120309   5.746   1.410   6.565
 6470SOL    HW220310   5.859   1.363   6.673
 6471SOL     OW20311   1.232   6.248   6.005
 6471SOL    HW120312   1.295   6.272   5.931
 6471SOL    HW220313   1.225   6.325   6.070
 6472SOL     OW20314   0.746   6.517   1.317
 6472SOL    HW120315   0.719   6.585   1.385
 6472SOL    HW220316   0.720   6.548   1.226
 6473SOL     OW20317   2.934   1.953   3.721
 6473SOL    HW120318   2.855   2.014   3.729
 6473SOL    HW220319   2.902   1.859   3.707
 6474SOL     OW20320   3.728   6.898   4.191
 6474SOL    HW120321   3.756   6.821   4.133
 6474SOL    HW220322   3.758   6.984   4.150
 6475SOL     OW20323   5.266   5.773   3.473
 6475SOL    HW120324   5.331   5.749   3.401
 6475SOL    HW220325   5.227   5.863   3.454
 6476SOL     OW20326   5.227   4.076   5.049
 6476SOL    HW120327   5.323   4.064   5.024
 6476SOL    HW220328   5.200   4.004   5.113
 6477SOL     OW20329   0.771   6.599   0.659
 6477SOL    HW120330   0.758   6.622   0.563
 6477SOL    HW220331   0.726   6.512   0.679
 6478SOL     OW20332   1.829   6.343   0.552
 6478SOL    HW120333   1.754   6.341   0.618
 6478SOL    HW220334   1.822   6.263   0.492
 6479SOL     OW20335   4.529   6.084   4.098
 6479SOL    HW120336   4.591   6.070   4.175
 6479SOL    HW220337   4.503   5.995   4.059
 6480SOL     OW20338   3.550   1.466   5.130
 6480SOL    HW120339   3.500   1.524   5.066
 6480SOL    HW220340   3.625   1.519   5.171
 6481SOL     OW20341   4.258   3.308   1.890
 6481SOL    HW120342   4.333   3.272   1.946
 6481SOL    HW220343   4.200   3.232   1.860
 6482SOL     OW20344   5.372   3.208   5.026
 6482SOL    HW120345   5.406   3.208   4.932
 6482SOL    HW220346   5.373   3.301   5.061
 6483SOL     OW20347   1.692   5.634   5.742
 6483SOL    HW120348   1.712   5.678   5.830
 6483SOL    HW220349   1.599   5.658   5.714
 6484SOL     OW20350   3.951   1.092   3.529
 6484SOL    HW120351   4.040   1.064   3.493
 6484SOL    HW220352   3.946   1.192   3.530
 6485SOL     OW20353   2.124   5.038   4.605
 6485SOL    HW120354   2.163   4.946   4.600
 6485SOL    HW220355   2.119   5.067   4.700
 6486SOL     OW20356   0.123   4.479   2.399
 6486SOL    HW120357   0.136   4.485   2.300
 6486SOL    HW220358   0.050   4.542   2.426
 6487SOL     OW20359   5.793   5.473   4.052
 6487SOL    HW120360   5.892   5.488   4.062
 6487SOL    HW220361   5.744   5.552   4.089
 6488SOL     OW20362   3.819   5.096   4.055
 6488SOL    HW120363   3.727   5.125   4.081
 6488SOL    HW220364   3.886   5.160   4.093
 6489SOL     OW20365   6.650   3.421   5.279
 6489SOL    HW120366   6.569   3.365   5.261
 6489SOL    HW220367   6.623   3.506   5.324
 6490SOL     OW20368   1.772   3.235   0.293
 6490SOL    HW120369   1.752   3.184   0.376
 6490SOL    HW220370   1.711   3.204   0.220
 6491SOL     OW20371   1.632   0.342   1.823
 6491SOL    HW120372   1.587   0.392   1.897
 6491SOL    HW220373   1.652   0.404   1.748
 6492SOL     OW20374   3.905   3.198   3.581
 6492SOL    HW120375   3.897   3.255   3.663
 6492SOL    HW220376   3.879   3.104   3.603
 6493SOL     OW20377   1.260   4.404   4.253
 6493SOL    HW120378   1.201   4.419   4.174
 6493SOL    HW220379   1.204   4.393   4.336
 6494SOL     OW20380   6.373   1.097   1.572
 6494SOL    HW120381   6.297   1.162   1.569
 6494SOL    HW220382   6.406   1.081   1.479
 6495SOL     OW20383   6.134   6.190   2.390
 6495SOL    HW120384   6.215   6.209   2.445
 6495SOL    HW220385   6.161   6.149   2.303
 6496SOL     OW20386   2.637   2.237   1.560
 6496SOL    HW120387   2.624   2.139   1.546
 6496SOL    HW220388   2.571   2.270   1.627
 6497SOL     OW20389   0.601   2.629   0.967
 6497SOL    HW120390   0.598   2.530   0.961
 6497SOL    HW220391   0.683   2.658   1.015
 6498SOL     OW20392   2.491   4.650   4.313
 6498SOL    HW120393   2.510   4.610   4.402
 6498SOL    HW220394   2.460   4.745   4.324
 6499SOL     OW20395   5.927   2.517   2.417
 6499SOL    HW120396   6.023   2.493   2.431
 6499SOL    HW220397   5.882   2.528   2.506
 6500SOL     OW20398   1.676   3.810   2.770
 6500SOL    HW120399   1.710   3.716   2.762
 6500SOL    HW220400   1.590   3.819   2.720
 6501SOL     OW20401   6.751   1.354   2.988
 6501SOL    HW120402   6.666   1.373   2.938
 6501SOL    HW220403   6.804   1.285   2.939
 6502SOL     OW20404   0.808   2.749   2.173
 6502SOL    HW120405   0.840   2.752   2.078
 6502SOL    HW220406   0.825   2.838   2.216
 6503SOL     OW20407   0.238   2.402   5.730
 6503SOL    HW120408   0.238   2.312   5.687
 6503SOL    HW220409   0.164   2.458   5.691
 6504SOL     OW20410   3.751   6.732   5.945
 6504SOL    HW120411   3.774   6.826   5.968
 6504SOL    HW220412   3.831   6.673   5.958
 6505SOL     OW20413   0.679   6.563   6.931
 6505SOL    HW120414   0.759   6.615   6.961
 6505SOL    HW220415   0.671   6.480   6.986
 6506SOL     OW20416   0.214   3.966   1.557
 6506SOL    HW120417   0.210   4.058   1.518
 6506SOL    HW220418   0.144   3.909   1.514
 6507SOL     OW20419   4.661   5.590   0.783
 6507SOL    HW120420   4.728   5.621   0.715
 6507SOL    HW220421   4.606   5.516   0.744
 6508SOL     OW20422   0.085   0.753   4.450
 6508SOL    HW120423   0.071   0.849   4.474
 6508SOL    HW220424   7.019   0.706   4.452
 6509SOL     OW20425   2.320   1.827   0.445
 6509SOL    HW120426   2.419   1.821   0.428
 6509SOL    HW220427   2.295   1.923   0.459
 6510SOL     OW20428   3.134   4.899   4.467
 6510SOL    HW120429   3.098   4.909   4.560
 6510SOL    HW220430   3.197   4.974   4.448
 6511SOL     OW20431   3.437   3.163   6.774
 6511SOL    HW120432   3.495   3.185   6.852
 6511SOL    HW220433   3.479   3.089   6.721
 6512SOL     OW20434   5.091   1.095   1.259
 6512SOL    HW120435   5.018   1.074   1.323
 6512SOL    HW220436   5.069   1.056   1.169
 6513SOL     OW20437   2.962   5.275   2.215
 6513SOL    HW120438   2.890   5.315   2.272
 6513SOL    HW220439   2.956   5.175   2.218
 6514SOL     OW20440   4.898   5.671   6.066
 6514SOL    HW120441   4.854   5.728   5.997
 6514SOL    HW220442   4.961   5.607   6.021
 6515SOL     OW20443   1.046   4.934   2.603
 6515SOL    HW120444   1.043   5.033   2.600
 6515SOL    HW220445   1.014   4.896   2.516
 6516SOL     OW20446   5.791   0.802   3.623
 6516SOL    HW120447   5.877   0.832   3.664
 6516SOL    HW220448   5.750   0.878   3.573
 6517SOL     OW20449   6.865   4.239   0.225
 6517SOL    HW120450   6.778   4.269   0.264
 6517SOL    HW220451   6.853   4.151   0.179
 6518SOL     OW20452   1.293   1.829   2.298
 6518SOL    HW120453   1.323   1.808   2.391
 6518SOL    HW220454   1.277   1.927   2.290
 6519SOL     OW20455   1.258   1.736   3.541
 6519SOL    HW120456   1.174   1.681   3.544
 6519SOL    HW220457   1.247   1.816   3.600
 6520SOL     OW20458   5.758   6.505   6.330
 6520SOL    HW120459   5.758   6.525   6.428
 6520SOL    HW220460   5.809   6.575   6.281
 6521SOL     OW20461   1.384   4.311   4.539
 6521SOL    HW120462   1.440   4.374   4.484
 6521SOL    HW220463   1.288   4.322   4.514
 6522SOL     OW20464   2.530   2.941   5.455
 6522SOL    HW120465   2.547   2.843   5.466
 6522SOL    HW220466   2.516   2.961   5.358
 6523SOL     OW20467   5.180   6.771   0.410
 6523SOL    HW120468   5.213   6.790   0.318
 6523SOL    HW220469   5.257   6.776   0.474
 6524SOL     OW20470   3.066   2.636   1.415
 6524SOL    HW120471   3.123   2.565   1.374
 6524SOL    HW220472   3.114   2.676   1.493
 6525SOL     OW20473   2.201   4.823   3.929
 6525SOL    HW120474   2.229   4.742   3.878
 6525SOL    HW220475   2.141   4.879   3.871
 6526SOL     OW20476   6.544   6.338   0.383
 6526SOL    HW120477   6.632   6.385   0.385
 6526SOL    HW220478   6.497   6.359   0.297
 6527SOL     OW20479   5.076   2.255   0.949
 6527SOL    HW120480   5.123   2.318   1.010
 6527SOL    HW220481   5.113   2.264   0.856
 6528SOL     OW20482   4.733   6.431   0.596
 6528SOL    HW120483   4.832   6.418   0.586
 6528SOL    HW220484   4.709   6.433   0.693
 6529SOL     OW20485   4.446   0.210   1.666
 6529SOL    HW120486   4.355   0.180   1.637
 6529SOL    HW220487   4.459   0.306   1.643
 6530SOL     OW20488   0.480   2.223   4.289
 6530SOL    HW120489   0.397   2.269   4.319
 6530SOL    HW220490   0.558   2.256   4.343
 6531SOL     OW20491   3.865   3.640   3.837
 6531SOL    HW120492   3.818   3.563   3.880
 6531SOL    HW220493   3.933   3.677   3.900
 6532SOL     OW20494   1.105   5.684   0.168
 6532SOL    HW120495   1.169   5.723   0.102
 6532SOL    HW220496   1.155   5.657   0.251
 6533SOL     OW20497   4.920   5.185   1.429
 6533SOL    HW120498   4.903   5.109   1.366
 6533SOL    HW220499   4.867   5.265   1.401
 6534SOL     OW20500   6.633   2.683   4.110
 6534SOL    HW120501   6.648   2.601   4.165
 6534SOL    HW220502   6.550   2.671   4.055
 6535SOL     OW20503   5.388   3.494   6.358
 6535SOL    HW120504   5.353   3.489   6.451
 6535SOL    HW220505   5.343   3.568   6.308
 6536SOL     OW20506   0.401   4.922   5.683
 6536SOL    HW120507   0.373   4.937   5.778
 6536SOL    HW220508   0.501   4.928   5.677
 6537SOL     OW20509   6.382   5.728   4.600
 6537SOL    HW120510   6.322   5.719   4.520
 6537SOL    HW220511   6.443   5.806   4.587
 6538SOL     OW20512   1.415   3.432   3.613
 6538SOL    HW120513   1.430   3.461   3.519
 6538SOL    HW220514   1.372   3.341   3.613
 6539SOL     OW20515   5.339   0.209   5.768
 6539SOL    HW120516   5.327   0.155   5.851
 6539SOL    HW220517   5.422   0.179   5.721
 6540SOL     OW20518   1.258   2.511   4.904
 6540SOL    HW120519   1.284   2.414   4.909
 6540SOL    HW220520   1.167   2.522   4.944
 6541SOL     OW20521   3.861   1.399   5.778
 6541SOL    HW120522   3.777   1.346   5.780
 6541SOL    HW220523   3.904   1.395   5.868
 6542SOL     OW20524   1.877   4.432   1.990
 6542SOL    HW120525   1.784   4.443   2.026
 6542SOL    HW220526   1.925   4.364   2.044
 6543SOL     OW20527   3.825   1.668   3.868
 6543SOL    HW120528   3.891   1.734   3.831
 6543SOL    HW220529   3.797   1.605   3.796
 6544SOL     OW20530   0.907   0.499   1.155
 6544SOL    HW120531   0.891   0.524   1.250
 6544SOL    HW220532   0.995   0.533   1.125
 6545SOL     OW20533   5.751   5.617   0.862
 6545SOL    HW120534   5.762   5.613   0.961
 6545SOL    HW220535   5.768   5.710   0.830
 6546SOL     OW20536   4.235   5.239   4.944
 6546SOL    HW120537   4.260   5.181   4.867
 6546SOL    HW220538   4.210   5.330   4.911
 6547SOL     OW20539   1.276   6.278   5.575
 6547SOL    HW120540   1.365   6.321   5.560
 6547SOL    HW220541   1.261   6.206   5.508
 6548SOL     OW20542   1.250   1.970   5.765
 6548SOL    HW120543   1.243   2.066   5.738
 6548SOL    HW220544   1.159   1.928   5.764
 6549SOL     OW20545   4.000   1.001   3.001
 6549SOL    HW120546   4.095   1.030   3.012
 6549SOL    HW220547   3.946   1.033   3.079
 6550SOL     OW20548   5.854   0.229   1.841
 6550SOL    HW120549   5.948   0.223   1.873
 6550SOL    HW220550   5.831   0.147   1.789
 6551SOL     OW20551   2.492   4.964   1.605
 6551SOL    HW120552   2.544   4.884   1.575
 6551SOL    HW220553   2.496   4.972   1.704
 6552SOL     OW20554   2.012   3.622   6.989
 6552SOL    HW120555   1.928   3.567   6.989
 6552SOL    HW220556   1.993   3.712   6.949
 6553SOL     OW20557   0.467   1.552   3.269
 6553SOL    HW120558   0.522   1.635   3.259
 6553SOL    HW220559   0.462   1.505   3.180
 6554SOL     OW20560   1.236   1.547   3.972
 6554SOL    HW120561   1.180   1.576   3.894
 6554SOL    HW220562   1.216   1.605   4.051
 6555SOL     OW20563   1.468   3.654   2.465
 6555SOL    HW120564   1.470   3.593   2.544
 6555SOL    HW220565   1.389   3.632   2.408
 6556SOL     OW20566   5.036   3.328   3.351
 6556SOL    HW120567   5.098   3.400   3.320
 6556SOL    HW220568   5.006   3.274   3.273
 6557SOL     OW20569   2.239   6.906   2.745
 6557SOL    HW120570   2.328   6.933   2.780
 6557SOL    HW220571   2.177   6.984   2.745
 6558SOL     OW20572   5.445   5.554   1.067
 6558SOL    HW120573   5.362   5.602   1.095
 6558SOL    HW220574   5.525   5.609   1.091
 6559SOL     OW20575   0.471   1.722   6.030
 6559SOL    HW120576   0.470   1.768   5.941
 6559SOL    HW220577   0.394   1.658   6.035
 6560SOL     OW20578   6.893   4.620   5.997
 6560SOL    HW120579   6.969   4.595   6.058
 6560SOL    HW220580   6.919   4.700   5.944
 6561SOL     OW20581   2.771   5.622   0.510
 6561SOL    HW120582   2.843   5.623   0.442
 6561SOL    HW220583   2.713   5.703   0.500
 6562SOL     OW20584   4.844   2.347   1.725
 6562SOL    HW120585   4.935   2.389   1.725
 6562SOL    HW220586   4.830   2.298   1.639
 6563SOL     OW20587   6.162   5.269   5.178
 6563SOL    HW120588   6.139   5.271   5.081
 6563SOL    HW220589   6.260   5.253   5.189
 6564SOL     OW20590   5.113   3.623   2.305
 6564SOL    HW120591   5.039   3.657   2.246
 6564SOL    HW220592   5.090   3.531   2.337
 6565SOL     OW20593   5.146   5.988   2.111
 6565SOL    HW120594   5.096   6.048   2.174
 6565SOL    HW220595   5.082   5.924   2.069
 6566SOL     OW20596   5.018   5.520   3.853
 6566SOL    HW120597   5.066   5.454   3.910
 6566SOL    HW220598   5.044   5.507   3.757
 6567SOL     OW20599   3.019   0.918   2.693
 6567SOL    HW120600   2.996   0.822   2.674
 6567SOL    HW220601   3.100   0.943   2.640
 6568SOL     OW20602   5.260   1.639   0.701
 6568SOL    HW120603   5.271   1.575   0.777
 6568SOL    HW220604   5.175   1.691   0.712
 6569SOL     OW20605   1.702   4.387   3.543
 6569SOL    HW120606   1.626   4.324   3.528
 6569SOL    HW220607   1.777   4.339   3.587
 6570SOL     OW20608   4.327   6.995   2.890
 6570SOL    HW120609   4.361   6.901   2.889
 6570SOL    HW220610   4.271   7.010   2.971
 6571SOL     OW20611   3.183   6.446   3.050
 6571SOL    HW120612   3.145   6.489   2.968
 6571SOL    HW220613   3.169   6.505   3.129
 6572SOL     OW20614   1.328   6.406   3.716
 6572SOL    HW120615   1.274   6.489   3.725
 6572SOL    HW220616   1.275   6.327   3.747
 6573SOL     OW20617   1.382   2.273   3.342
 6573SOL    HW120618   1.411   2.188   3.298
 6573SOL    HW220619   1.360   2.341   3.271
 6574SOL     OW20620   0.637   5.164   1.517
 6574SOL    HW120621   0.726   5.158   1.472
 6574SOL    HW220622   0.649   5.157   1.616
 6575SOL     OW20623   0.269   0.923   3.604
 6575SOL    HW120624   0.232   1.015   3.596
 6575SOL    HW220625   0.274   0.881   3.513
 6576SOL     OW20626   4.183   6.912   2.165
 6576SOL    HW120627   4.092   6.873   2.180
 6576SOL    HW220628   4.193   6.937   2.069
 6577SOL     OW20629   3.654   0.968   5.280
 6577SOL    HW120630   3.624   1.047   5.226
 6577SOL    HW220631   3.754   0.966   5.283
 6578SOL     OW20632   1.252   5.778   6.979
 6578SOL    HW120633   1.234   5.876   6.985
 6578SOL    HW220634   1.211   5.742   6.896
 6579SOL     OW20635   1.626   1.424   3.411
 6579SOL    HW120636   1.580   1.482   3.478
 6579SOL    HW220637   1.639   1.474   3.326
 6580SOL     OW20638   3.100   3.020   6.900
 6580SOL    HW120639   3.176   2.991   6.958
 6580SOL    HW220640   3.074   2.945   6.839
 6581SOL     OW20641   0.219   2.473   2.372
 6581SOL    HW120642   0.300   2.442   2.422
 6581SOL    HW220643   0.179   2.552   2.420
 6582SOL     OW20644   3.899   0.245   3.321
 6582SOL    HW120645   3.902   0.279   3.228
 6582SOL    HW220646   3.810   0.202   3.338
 6583SOL     OW20647   2.577   4.043   1.313
 6583SOL    HW120648   2.494   4.095   1.295
 6583SOL    HW220649   2.582   4.021   1.410
 6584SOL     OW20650   4.272   3.312   6.264
 6584SOL    HW120651   4.260   3.410   6.280
 6584SOL    HW220652   4.267   3.264   6.352
 6585SOL     OW20653   5.832   0.511   1.720
 6585SOL    HW120654   5.876   0.574   1.785
 6585SOL    HW220655   5.853   0.416   1.747
 6586SOL     OW20656   6.977   1.532   0.435
 6586SOL    HW120657   6.892   1.510   0.482
 6586SOL    HW220658   6.974   1.626   0.402
 6587SOL     OW20659   2.910   4.742   5.482
 6587SOL    HW120660   2.917   4.830   5.528
 6587SOL    HW220661   2.928   4.753   5.385
 6588SOL     OW20662   1.120   1.547   0.907
 6588SOL    HW120663   1.118   1.626   0.846
 6588SOL    HW220664   1.033   1.539   0.955
 6589SOL     OW20665   5.740   6.985   0.733
 6589SOL    HW120666   5.673   6.971   0.661
 6589SOL    HW220667   5.788   0.049   0.718
 6590SOL     OW20668   1.541   6.133   4.743
 6590SOL    HW120669   1.458   6.158   4.794
 6590SOL    HW220670   1.518   6.121   4.646
 6591SOL     OW20671   6.490   3.174   3.894
 6591SOL    HW120672   6.441   3.167   3.807
 6591SOL    HW220673   6.553   3.097   3.904
 6592SOL     OW20674   0.269   0.969   4.115
 6592SOL    HW120675   0.308   0.962   4.023
 6592SOL    HW220676   0.170   0.959   4.110
 6593SOL     OW20677   1.170   0.394   3.054
 6593SOL    HW120678   1.112   0.379   2.974
 6593SOL    HW220679   1.113   0.398   3.136
 6594SOL     OW20680   5.428   0.065   6.480
 6594SOL    HW120681   5.367   0.127   6.531
 6594SOL    HW220682   5.403   6.993   6.501
 6595SOL     OW20683   1.484   1.272   4.847
 6595SOL    HW120684   1.581   1.296   4.844
 6595SOL    HW220685   1.474   1.177   4.878
 6596SOL     OW20686   5.208   0.926   3.111
 6596SOL    HW120687   5.298   0.957   3.141
 6596SOL    HW220688   5.161   0.879   3.186
 6597SOL     OW20689   1.120   5.064   1.385
 6597SOL    HW120690   1.139   5.106   1.473
 6597SOL    HW220691   1.159   5.119   1.312
 6598SOL     OW20692   1.212   5.219   2.001
 6598SOL    HW120693   1.286   5.229   1.934
 6598SOL    HW220694   1.178   5.125   1.998
 6599SOL     OW20695   0.979   5.632   6.284
 6599SOL    HW120696   0.977   5.731   6.296
 6599SOL    HW220697   1.042   5.609   6.210
 6600SOL     OW20698   4.798   6.691   4.656
 6600SOL    HW120699   4.743   6.688   4.573
 6600SOL    HW220700   4.895   6.685   4.632
 6601SOL     OW20701   0.844   2.956   2.408
 6601SOL    HW120702   0.847   2.946   2.508
 6601SOL    HW220703   0.936   2.976   2.374
 6602SOL     OW20704   5.913   6.067   0.098
 6602SOL    HW120705   5.924   6.166   0.098
 6602SOL    HW220706   5.941   6.030   0.186
 6603SOL     OW20707   0.166   4.827   2.707
 6603SOL    HW120708   0.167   4.828   2.607
 6603SOL    HW220709   0.159   4.733   2.741
 6604SOL     OW20710   1.722   5.282   2.500
 6604SOL    HW120711   1.791   5.223   2.541
 6604SOL    HW220712   1.631   5.246   2.521
 6605SOL     OW20713   6.903   5.118   1.404
 6605SOL    HW120714   6.985   5.062   1.392
 6605SOL    HW220715   6.822   5.060   1.393
 6606SOL     OW20716   1.500   4.535   3.193
 6606SOL    HW120717   1.535   4.472   3.124
 6606SOL    HW220718   1.576   4.584   3.236
 6607SOL     OW20719   6.519   3.280   4.168
 6607SOL    HW120720   6.491   3.247   4.078
 6607SOL    HW220721   6.517   3.204   4.233
 6608SOL     OW20722   1.634   0.481   5.266
 6608SOL    HW120723   1.701   0.414   5.232
 6608SOL    HW220724   1.551   0.433   5.294
 6609SOL     OW20725   2.731   2.319   0.140
 6609SOL    HW120726   2.825   2.291   0.120
 6609SOL    HW220727   2.688   2.250   0.199
 6610SOL     OW20728   3.231   6.312   1.284
 6610SOL    HW120729   3.307   6.248   1.298
 6610SOL    HW220730   3.262   6.405   1.307
 6611SOL     OW20731   3.198   1.631   4.551
 6611SOL    HW120732   3.205   1.535   4.521
 6611SOL    HW220733   3.102   1.659   4.550
 6612SOL     OW20734   6.866   0.372   7.003
 6612SOL    HW120735   6.874   0.470   7.016
 6612SOL    HW220736   6.940   0.325   0.028
 6613SOL     OW20737   4.274   6.982   1.408
 6613SOL    HW120738   4.347   6.943   1.464
 6613SOL    HW220739   4.279   6.943   1.316
 6614SOL     OW20740   3.964   4.202   0.885
 6614SOL    HW120741   3.985   4.119   0.833
 6614SOL    HW220742   3.957   4.279   0.822
 6615SOL     OW20743   3.430   6.148   6.008
 6615SOL    HW120744   3.474   6.058   6.005
 6615SOL    HW220745   3.331   6.136   6.008
 6616SOL     OW20746   3.900   2.119   6.262
 6616SOL    HW120747   3.994   2.091   6.283
 6616SOL    HW220748   3.903   2.210   6.219
 6617SOL     OW20749   3.617   1.848   4.171
 6617SOL    HW120750   3.694   1.819   4.228
 6617SOL    HW220751   3.575   1.767   4.130
 6618SOL     OW20752   6.301   3.239   3.685
 6618SOL    HW120753   6.216   3.219   3.635
 6618SOL    HW220754   6.373   3.261   3.620
 6619SOL     OW20755   4.509   5.059   3.960
 6619SOL    HW120756   4.560   5.088   4.042
 6619SOL    HW220757   4.414   5.041   3.986
 6620SOL     OW20758   1.318   2.875   3.280
 6620SOL    HW120759   1.225   2.845   3.301
 6620SOL    HW220760   1.325   2.896   3.182
 6621SOL     OW20761   3.206   3.584   3.740
 6621SOL    HW120762   3.200   3.528   3.823
 6621SOL    HW220763   3.140   3.550   3.673
 6622SOL     OW20764   0.276   5.064   1.711
 6622SOL    HW120765   0.219   5.102   1.784
 6622SOL    HW220766   0.353   5.125   1.693
 6623SOL     OW20767   3.333   3.296   3.850
 6623SOL    HW120768   3.348   3.307   3.949
 6623SOL    HW220769   3.237   3.279   3.832
 6624SOL     OW20770   2.518   2.558   2.771
 6624SOL    HW120771   2.483   2.618   2.700
 6624SOL    HW220772   2.598   2.509   2.737
 6625SOL     OW20773   0.245   4.300   5.522
 6625SOL    HW120774   0.329   4.282   5.574
 6625SOL    HW220775   0.176   4.233   5.547
 6626SOL     OW20776   3.371   6.063   5.417
 6626SOL    HW120777   3.311   5.989   5.448
 6626SOL    HW220778   3.333   6.105   5.335
 6627SOL     OW20779   2.523   6.750   4.625
 6627SOL    HW120780   2.558   6.678   4.685
 6627SOL    HW220781   2.439   6.719   4.580
 6628SOL     OW20782   3.663   0.126   3.430
 6628SOL    HW120783   3.572   0.114   3.390
 6628SOL    HW220784   3.666   0.079   3.519
 6629SOL     OW20785   4.610   5.804   4.767
 6629SOL    HW120786   4.519   5.795   4.808
 6629SOL    HW220787   4.609   5.877   4.699
 6630SOL     OW20788   2.205   0.042   0.470
 6630SOL    HW120789   2.269   6.987   0.465
 6630SOL    HW220790   2.129   0.026   0.408
 6631SOL     OW20791   1.507   1.879   5.740
 6631SOL    HW120792   1.410   1.905   5.736
 6631SOL    HW220793   1.515   1.782   5.762
 6632SOL     OW20794   1.169   0.398   6.341
 6632SOL    HW120795   1.178   0.299   6.342
 6632SOL    HW220796   1.205   0.436   6.426
 6633SOL     OW20797   4.785   6.537   6.320
 6633SOL    HW120798   4.794   6.587   6.234
 6633SOL    HW220799   4.713   6.469   6.311
 6634SOL     OW20800   2.668   2.439   4.266
 6634SOL    HW120801   2.730   2.451   4.189
 6634SOL    HW220802   2.583   2.489   4.249
 6635SOL     OW20803   5.294   5.359   5.990
 6635SOL    HW120804   5.332   5.284   6.044
 6635SOL    HW220805   5.202   5.381   6.024
 6636SOL     OW20806   3.886   1.566   0.969
 6636SOL    HW120807   3.918   1.528   1.055
 6636SOL    HW220808   3.939   1.649   0.948
 6637SOL     OW20809   0.409   2.447   0.154
 6637SOL    HW120810   0.360   2.414   0.073
 6637SOL    HW220811   0.494   2.395   0.164
 6638SOL     OW20812   2.947   3.837   3.789
 6638SOL    HW120813   2.958   3.765   3.721
 6638SOL    HW220814   2.939   3.926   3.743
 6639SOL     OW20815   4.728   2.845   1.423
 6639SOL    HW120816   4.702   2.748   1.415
 6639SOL    HW220817   4.700   2.894   1.341
 6640SOL     OW20818   0.954   3.540   4.508
 6640SOL    HW120819   1.024   3.542   4.579
 6640SOL    HW220820   0.934   3.634   4.479
 6641SOL     OW20821   5.429   2.778   7.004
 6641SOL    HW120822   5.508   2.837   0.001
 6641SOL    HW220823   5.367   2.826   6.941
 6642SOL     OW20824   1.312   4.708   6.061
 6642SOL    HW120825   1.227   4.667   6.027
 6642SOL    HW220826   1.307   4.808   6.049
 6643SOL     OW20827   4.492   5.709   5.842
 6643SOL    HW120828   4.493   5.616   5.879
 6643SOL    HW220829   4.444   5.770   5.905
 6644SOL     OW20830   2.113   6.981   3.876
 6644SOL    HW120831   2.025   6.934   3.867
 6644SOL    HW220832   2.171   6.957   3.798
 6645SOL     OW20833   5.045   2.369   5.274
 6645SOL    HW120834   4.993   2.388   5.358
 6645SOL    HW220835   4.989   2.390   5.194
 6646SOL     OW20836   5.067   0.506   6.483
 6646SOL    HW120837   5.108   0.503   6.392
 6646SOL    HW220838   5.056   0.601   6.511
 6647SOL     OW20839   3.715   4.812   0.929
 6647SOL    HW120840   3.662   4.883   0.882
 6647SOL    HW220841   3.805   4.805   0.886
 6648SOL     OW20842   3.157   5.348   5.169
 6648SOL    HW120843   3.142   5.250   5.177
 6648SOL    HW220844   3.121   5.394   5.250
 6649SOL     OW20845   5.342   2.655   5.805
 6649SOL    HW120846   5.358   2.699   5.716
 6649SOL    HW220847   5.281   2.710   5.860
 6650SOL     OW20848   2.766   1.287   4.696
 6650SOL    HW120849   2.786   1.218   4.766
 6650SOL    HW220850   2.730   1.242   4.614
 6651SOL     OW20851   7.016   0.999   3.790
 6651SOL    HW120852   0.053   1.065   3.743
 6651SOL    HW220853   7.007   0.916   3.735
 6652SOL     OW20854   0.108   4.945   6.777
 6652SOL    HW120855   0.190   5.002   6.770
 6652SOL    HW220856   0.131   4.859   6.822
 6653SOL     OW20857   5.317   4.114   6.799
 6653SOL    HW120858   5.259   4.154   6.870
 6653SOL    HW220859   5.292   4.018   6.787
 6654SOL     OW20860   6.967   2.105   3.320
 6654SOL    HW120861   6.878   2.084   3.280
 6654SOL    HW220862   6.964   2.197   3.360
 6655SOL     OW20863   6.841   5.832   1.530
 6655SOL    HW120864   6.809   5.799   1.618
 6655SOL    HW220865   6.940   5.847   1.533
 6656SOL     OW20866   4.849   1.126   2.380
 6656SOL    HW120867   4.889   1.218   2.373
 6656SOL    HW220868   4.767   1.129   2.437
 6657SOL     OW20869   4.678   1.946   4.518
 6657SOL    HW120870   4.652   1.927   4.424
 6657SOL    HW220871   4.728   2.033   4.522
 6658SOL     OW20872   6.755   5.852   4.850
 6658SOL    HW120873   6.818   5.850   4.927
 6658SOL    HW220874   6.713   5.942   4.843
 6659SOL     OW20875   0.472   6.014   0.768
 6659SOL    HW120876   0.556   6.013   0.823
 6659SOL    HW220877   0.393   6.001   0.828
 6660SOL     OW20878   1.097   0.264   4.240
 6660SOL    HW120879   1.040   0.271   4.158
 6660SOL    HW220880   1.178   0.322   4.229
 6661SOL     OW20881   4.331   6.765   3.513
 6661SOL    HW120882   4.240   6.789   3.548
 6661SOL    HW220883   4.336   6.787   3.416
 6662SOL     OW20884   3.572   6.901   2.196
 6662SOL    HW120885   3.478   6.909   2.229
 6662SOL    HW220886   3.577   6.833   2.123
 6663SOL     OW20887   1.374   4.161   5.739
 6663SOL    HW120888   1.434   4.239   5.722
 6663SOL    HW220889   1.346   4.121   5.651
 6664SOL     OW20890   2.930   0.163   2.026
 6664SOL    HW120891   2.931   0.236   1.958
 6664SOL    HW220892   2.965   0.198   2.113
 6665SOL     OW20893   2.964   0.516   6.898
 6665SOL    HW120894   2.966   0.503   6.997
 6665SOL    HW220895   3.044   0.472   6.857
 6666SOL     OW20896   2.712   5.697   5.811
 6666SOL    HW120897   2.737   5.606   5.778
 6666SOL    HW220898   2.687   5.755   5.733
 6667SOL     OW20899   2.104   5.867   0.089
 6667SOL    HW120900   2.183   5.886   0.031
 6667SOL    HW220901   2.128   5.885   0.184
 6668SOL     OW20902   0.280   3.372   5.860
 6668SOL    HW120903   0.199   3.431   5.855
 6668SOL    HW220904   0.350   3.407   5.797
 6669SOL     OW20905   0.583   3.303   3.321
 6669SOL    HW120906   0.632   3.376   3.370
 6669SOL    HW220907   0.648   3.245   3.272
 6670SOL     OW20908   2.703   4.004   0.511
 6670SOL    HW120909   2.762   3.927   0.534
 6670SOL    HW220910   2.612   3.970   0.488
 6671SOL     OW20911   4.456   4.889   0.429
 6671SOL    HW120912   4.536   4.866   0.373
 6671SOL    HW220913   4.465   4.847   0.519
 6672SOL     OW20914   2.070   2.580   1.575
 6672SOL    HW120915   2.007   2.639   1.525
 6672SOL    HW220916   2.047   2.484   1.557
 6673SOL     OW20917   5.882   3.813   4.077
 6673SOL    HW120918   5.940   3.852   4.148
 6673SOL    HW220919   5.855   3.720   4.103
 6674SOL     OW20920   0.038   0.794   0.381
 6674SOL    HW120921   0.118   0.768   0.327
 6674SOL    HW220922   0.055   0.774   0.477
 6675SOL     OW20923   4.830   1.238   0.626
 6675SOL    HW120924   4.822   1.183   0.709
 6675SOL    HW220925   4.764   1.206   0.559
 6676SOL     OW20926   0.963   4.015   5.289
 6676SOL    HW120927   0.985   3.994   5.194
 6676SOL    HW220928   0.905   3.942   5.327
 6677SOL     OW20929   0.484   2.103   6.984
 6677SOL    HW120930   0.544   2.135   6.911
 6677SOL    HW220931   0.394   2.147   6.975
 6678SOL     OW20932   2.598   4.264   6.688
 6678SOL    HW120933   2.688   4.241   6.652
 6678SOL    HW220934   2.560   4.340   6.634
 6679SOL     OW20935   1.358   0.373   4.220
 6679SOL    HW120936   1.320   0.394   4.130
 6679SOL    HW220937   1.417   0.292   4.213
 6680SOL     OW20938   6.040   5.454   1.872
 6680SOL    HW120939   5.951   5.433   1.911
 6680SOL    HW220940   6.038   5.439   1.773
 6681SOL     OW20941   3.264   5.753   0.817
 6681SOL    HW120942   3.199   5.677   0.821
 6681SOL    HW220943   3.339   5.735   0.881
 6682SOL     OW20944   2.583   5.092   6.407
 6682SOL    HW120945   2.626   5.012   6.448
 6682SOL    HW220946   2.486   5.072   6.389
 6683SOL     OW20947   6.399   5.825   6.308
 6683SOL    HW120948   6.367   5.747   6.254
 6683SOL    HW220949   6.322   5.885   6.329
 6684SOL     OW20950   2.764   6.186   5.862
 6684SOL    HW120951   2.740   6.280   5.838
 6684SOL    HW220952   2.695   6.124   5.826
 6685SOL     OW20953   3.799   2.779   0.437
 6685SOL    HW120954   3.733   2.720   0.483
 6685SOL    HW220955   3.822   2.855   0.497
 6686SOL     OW20956   4.497   4.534   5.291
 6686SOL    HW120957   4.411   4.510   5.244
 6686SOL    HW220958   4.571   4.539   5.224
 6687SOL     OW20959   0.549   2.396   1.118
 6687SOL    HW120960   0.555   2.481   1.170
 6687SOL    HW220961   0.577   2.320   1.177
 6688SOL     OW20962   5.460   5.401   0.783
 6688SOL    HW120963   5.405   5.480   0.811
 6688SOL    HW220964   5.413   5.353   0.709
 6689SOL     OW20965   3.491   5.311   6.308
 6689SOL    HW120966   3.462   5.395   6.353
 6689SOL    HW220967   3.566   5.331   6.245
 6690SOL     OW20968   1.219   0.373   0.717
 6690SOL    HW120969   1.231   0.346   0.622
 6690SOL    HW220970   1.128   0.415   0.728
 6691SOL     OW20971   2.740   1.723   2.294
 6691SOL    HW120972   2.741   1.817   2.259
 6691SOL    HW220973   2.645   1.692   2.302
 6692SOL     OW20974   4.533   6.598   2.135
 6692SOL    HW120975   4.524   6.557   2.226
 6692SOL    HW220976   4.616   6.562   2.091
 6693SOL     OW20977   3.202   1.158   5.770
 6693SOL    HW120978   3.224   1.068   5.732
 6693SOL    HW220979   3.153   1.211   5.700
 6694SOL     OW20980   4.492   4.131   1.399
 6694SOL    HW120981   4.510   4.153   1.495
 6694SOL    HW220982   4.516   4.209   1.342
 6695SOL     OW20983   2.911   2.424   0.316
 6695SOL    HW120984   2.903   2.373   0.402
 6695SOL    HW220985   2.820   2.447   0.283
 6696SOL     OW20986   3.848   2.978   5.230
 6696SOL    HW120987   3.810   2.887   5.250
 6696SOL    HW220988   3.773   3.042   5.213
 6697SOL     OW20989   4.568   2.508   2.582
 6697SOL    HW120990   4.473   2.487   2.604
 6697SOL    HW220991   4.617   2.531   2.666
 6698SOL     OW20992   2.737   3.747   1.712
 6698SOL    HW120993   2.808   3.716   1.776
 6698SOL    HW220994   2.647   3.725   1.750
 6699SOL     OW20995   1.624   3.158   6.521
 6699SOL    HW120996   1.639   3.227   6.592
 6699SOL    HW220997   1.689   3.174   6.445
 6700SOL     OW20998   5.045   0.701   1.479
 6700SOL    HW120999   4.986   0.626   1.511
 6700SOL    HW221000   5.002   0.746   1.401
 6701SOL     OW21001   5.943   0.285   1.412
 6701SOL    HW121002   5.852   0.321   1.390
 6701SOL    HW221003   6.013   0.342   1.369
 6702SOL     OW21004   4.075   2.661   1.149
 6702SOL    HW121005   4.079   2.674   1.248
 6702SOL    HW221006   4.032   2.573   1.128
 6703SOL     OW21007   0.746   1.444   0.310
 6703SOL    HW121008   0.830   1.391   0.322
 6703SOL    HW221009   0.694   1.443   0.395
 6704SOL     OW21010   3.121   0.030   5.530
 6704SOL    HW121011   3.200   0.048   5.589
 6704SOL    HW221012   3.064   6.981   5.572
 6705SOL     OW21013   0.270   4.674   2.204
 6705SOL    HW121014   0.325   4.719   2.133
 6705SOL    HW221015   0.194   4.625   2.161
 6706SOL     OW21016   0.170   5.822   0.104
 6706SOL    HW121017   0.206   5.859   0.189
 6706SOL    HW221018   0.223   5.857   0.027
 6707SOL     OW21019   4.611   1.269   2.947
 6707SOL    HW121020   4.687   1.248   3.008
 6707SOL    HW221021   4.554   1.188   2.935
 6708SOL     OW21022   0.522   3.035   0.647
 6708SOL    HW121023   0.435   3.005   0.606
 6708SOL    HW221024   0.543   3.128   0.617
 6709SOL     OW21025   2.087   4.286   2.153
 6709SOL    HW121026   2.124   4.223   2.084
 6709SOL    HW221027   2.085   4.239   2.242
 6710SOL     OW21028   4.493   2.018   1.203
 6710SOL    HW121029   4.496   2.047   1.298
 6710SOL    HW221030   4.487   2.099   1.144
 6711SOL     OW21031   4.305   5.710   6.459
 6711SOL    HW121032   4.232   5.771   6.489
 6711SOL    HW221033   4.334   5.736   6.366
 6712SOL     OW21034   5.291   3.746   1.227
 6712SOL    HW121035   5.341   3.831   1.208
 6712SOL    HW221036   5.211   3.766   1.284
 6713SOL     OW21037   1.660   4.232   4.198
 6713SOL    HW121038   1.701   4.210   4.287
 6713SOL    HW221039   1.673   4.156   4.135
 6714SOL     OW21040   5.598   1.273   1.944
 6714SOL    HW121041   5.667   1.248   1.876
 6714SOL    HW221042   5.515   1.218   1.930
 6715SOL     OW21043   1.096   0.236   5.926
 6715SOL    HW121044   1.187   0.269   5.904
 6715SOL    HW221045   1.027   0.298   5.888
 6716SOL     OW21046   1.267   4.894   1.689
 6716SOL    HW121047   1.247   4.847   1.604
 6716SOL    HW221048   1.200   4.967   1.704
 6717SOL     OW21049   6.452   2.360   5.493
 6717SOL    HW121050   6.368   2.395   5.533
 6717SOL    HW221051   6.486   2.283   5.547
 6718SOL     OW21052   4.589   2.218   0.786
 6718SOL    HW121053   4.658   2.194   0.854
 6718SOL    HW221054   4.632   2.260   0.707
 6719SOL     OW21055   1.623   1.139   0.747
 6719SOL    HW121056   1.691   1.096   0.687
 6719SOL    HW221057   1.609   1.234   0.719
 6720SOL     OW21058   1.496   1.694   5.077
 6720SOL    HW121059   1.431   1.631   5.036
 6720SOL    HW221060   1.572   1.710   5.014
 6721SOL     OW21061   6.808   6.430   0.396
 6721SOL    HW121062   6.906   6.433   0.376
 6721SOL    HW221063   6.792   6.457   0.491
 6722SOL     OW21064   6.217   4.863   0.995
 6722SOL    HW121065   6.273   4.808   1.057
 6722SOL    HW221066   6.126   4.821   0.987
 6723SOL     OW21067   1.518   3.052   4.580
 6723SOL    HW121068   1.581   3.030   4.505
 6723SOL    HW221069   1.488   3.147   4.571
 6724SOL     OW21070   1.748   3.465   4.967
 6724SOL    HW121071   1.775   3.500   4.877
 6724SOL    HW221072   1.666   3.408   4.958
 6725SOL     OW21073   4.833   3.092   4.175
 6725SOL    HW121074   4.863   3.119   4.084
 6725SOL    HW221075   4.734   3.102   4.183
 6726SOL     OW21076   6.862   1.473   7.014
 6726SOL    HW121077   6.777   1.423   7.000
 6726SOL    HW221078   6.845   1.555   0.046
 6727SOL     OW21079   0.591   5.223   5.557
 6727SOL    HW121080   0.629   5.302   5.510
 6727SOL    HW221081   0.628   5.139   5.518
 6728SOL     OW21082   3.627   1.302   4.598
 6728SOL    HW121083   3.675   1.246   4.665
 6728SOL    HW221084   3.533   1.318   4.630
 6729SOL     OW21085   4.311   0.994   2.466
 6729SOL    HW121086   4.215   1.005   2.491
 6729SOL    HW221087   4.365   1.068   2.506
 6730SOL     OW21088   0.564   2.023   1.085
 6730SOL    HW121089   0.630   1.950   1.105
 6730SOL    HW221090   0.478   2.003   1.132
 6731SOL     OW21091   4.079   0.317   6.412
 6731SOL    HW121092   3.983   0.302   6.391
 6731SOL    HW221093   4.131   0.325   6.326
 6732SOL     OW21094   5.909   5.067   5.542
 6732SOL    HW121095   5.972   5.041   5.615
 6732SOL    HW221096   5.897   4.989   5.479
 6733SOL     OW21097   4.924   5.337   5.481
 6733SOL    HW121098   4.936   5.306   5.386
 6733SOL    HW221099   4.833   5.378   5.491
 6734SOL     OW21100   5.692   2.427   5.268
 6734SOL    HW121101   5.610   2.374   5.247
 6734SOL    HW221102   5.676   2.523   5.244
 6735SOL     OW21103   5.477   2.985   4.527
 6735SOL    HW121104   5.403   3.007   4.463
 6735SOL    HW221105   5.564   2.993   4.480
 6736SOL     OW21106   3.672   4.186   0.529
 6736SOL    HW121107   3.689   4.160   0.434
 6736SOL    HW221108   3.732   4.134   0.589
 6737SOL     OW21109   5.910   3.613   0.660
 6737SOL    HW121110   5.859   3.694   0.634
 6737SOL    HW221111   5.996   3.640   0.703
 6738SOL     OW21112   2.296   6.690   4.459
 6738SOL    HW121113   2.304   6.747   4.377
 6738SOL    HW221114   2.201   6.687   4.490
 6739SOL     OW21115   0.019   0.063   5.860
 6739SOL    HW121116   0.046   7.004   5.808
 6739SOL    HW221117   0.049   0.145   5.812
 6740SOL     OW21118   0.608   6.800   2.080
 6740SOL    HW121119   0.607   6.713   2.129
 6740SOL    HW221120   0.524   6.850   2.100
 6741SOL     OW21121   3.318   2.109   0.388
 6741SOL    HW121122   3.236   2.137   0.438
 6741SOL    HW221123   3.299   2.026   0.336
 6742SOL     OW21124   6.755   4.567   2.525
 6742SOL    HW121125   6.726   4.663   2.527
 6742SOL    HW221126   6.733   4.528   2.435
 6743SOL     OW21127   3.784   3.846   0.009
 6743SOL    HW121128   3.720   3.924   0.014
 6743SOL    HW221129   3.776   3.803   6.942
 6744SOL     OW21130   6.589   6.453   6.085
 6744SOL    HW121131   6.602   6.492   5.994
 6744SOL    HW221132   6.661   6.387   6.104
 6745SOL     OW21133   5.815   3.863   5.646
 6745SOL    HW121134   5.760   3.947   5.641
 6745SOL    HW221135   5.843   3.837   5.553
 6746SOL     OW21136   1.037   2.313   3.050
 6746SOL    HW121137   0.980   2.282   2.974
 6746SOL    HW221138   1.074   2.404   3.029
 6747SOL     OW21139   1.370   6.204   4.967
 6747SOL    HW121140   1.352   6.202   5.066
 6747SOL    HW221141   1.286   6.185   4.918
 6748SOL     OW21142   1.800   1.532   4.474
 6748SOL    HW121143   1.804   1.612   4.414
 6748SOL    HW221144   1.804   1.562   4.570
 6749SOL     OW21145   4.049   4.868   2.216
 6749SOL    HW121146   4.023   4.857   2.312
 6749SOL    HW221147   3.966   4.870   2.159
 6750SOL     OW21148   3.976   0.996   5.861
 6750SOL    HW121149   3.909   0.955   5.922
 6750SOL    HW221150   3.929   1.047   5.788
 6751SOL     OW21151   4.302   0.955   4.401
 6751SOL    HW121152   4.303   1.041   4.349
 6751SOL    HW221153   4.307   0.975   4.499
 6752SOL     OW21154   2.031   4.795   3.019
 6752SOL    HW121155   2.128   4.774   3.007
 6752SOL    HW221156   1.980   4.762   2.939
 6753SOL     OW21157   3.383   3.963   0.441
 6753SOL    HW121158   3.384   3.918   0.530
 6753SOL    HW221159   3.473   3.955   0.398
 6754SOL     OW21160   6.216   1.269   0.565
 6754SOL    HW121161   6.269   1.298   0.486
 6754SOL    HW221162   6.141   1.210   0.535
 6755SOL     OW21163   3.841   6.142   5.543
 6755SOL    HW121164   3.850   6.235   5.580
 6755SOL    HW221165   3.751   6.132   5.501
 6756SOL     OW21166   4.143   3.175   5.879
 6756SOL    HW121167   4.106   3.126   5.958
 6756SOL    HW221168   4.123   3.272   5.887
 6757SOL     OW21169   4.490   6.970   1.763
 6757SOL    HW121170   4.478   6.917   1.679
 6757SOL    HW221171   4.471   0.044   1.744
 6758SOL     OW21172   5.184   3.563   3.290
 6758SOL    HW121173   5.276   3.599   3.274
 6758SOL    HW221174   5.121   3.603   3.224
 6759SOL     OW21175   1.665   1.679   2.574
 6759SOL    HW121176   1.620   1.661   2.487
 6759SOL    HW221177   1.739   1.745   2.560
 6760SOL     OW21178   5.820   2.140   5.543
 6760SOL    HW121179   5.754   2.163   5.615
 6760SOL    HW221180   5.908   2.116   5.584
 6761SOL     OW21181   2.974   0.762   5.122
 6761SOL    HW121182   2.992   0.807   5.035
 6761SOL    HW221183   3.032   0.680   5.130
 6762SOL     OW21184   5.930   4.996   4.221
 6762SOL    HW121185   6.027   5.011   4.201
 6762SOL    HW221186   5.882   5.084   4.221
 6763SOL     OW21187   5.807   6.693   4.269
 6763SOL    HW121188   5.805   6.609   4.214
 6763SOL    HW221189   5.899   6.732   4.268
 6764SOL     OW21190   0.684   4.882   1.592
 6764SOL    HW121191   0.655   4.961   1.538
 6764SOL    HW221192   0.609   4.852   1.651
 6765SOL     OW21193   0.114   4.237   2.614
 6765SOL    HW121194   0.062   4.316   2.648
 6765SOL    HW221195   0.063   4.153   2.632
 6766SOL     OW21196   5.891   0.116   0.969
 6766SOL    HW121197   5.807   0.083   1.012
 6766SOL    HW221198   5.917   0.204   1.009
 6767SOL     OW21199   3.157   0.663   1.370
 6767SOL    HW121200   3.093   0.707   1.433
 6767SOL    HW221201   3.157   0.565   1.386
 6768SOL     OW21202   2.126   6.803   6.893
 6768SOL    HW121203   2.113   6.832   6.988
 6768SOL    HW221204   2.136   6.883   6.835
 6769SOL     OW21205   5.110   3.236   1.044
 6769SOL    HW121206   5.083   3.156   0.990
 6769SOL    HW221207   5.068   3.232   1.134
 6770SOL     OW21208   0.036   1.375   1.823
 6770SOL    HW121209   0.114   1.434   1.845
 6770SOL    HW221210   7.015   1.344   1.907
 6771SOL     OW21211   4.974   1.836   3.398
 6771SOL    HW121212   5.059   1.888   3.405
 6771SOL    HW221213   4.931   1.830   3.488
 6772SOL     OW21214   3.376   1.889   4.734
 6772SOL    HW121215   3.325   1.878   4.648
 6772SOL    HW221216   3.323   1.946   4.797
 6773SOL     OW21217   0.605   3.936   1.388
 6773SOL    HW121218   0.594   3.997   1.467
 6773SOL    HW221219   0.666   3.861   1.412
 6774SOL     OW21220   1.225   2.148   6.512
 6774SOL    HW121221   1.190   2.056   6.494
 6774SOL    HW221222   1.257   2.154   6.606
 6775SOL     OW21223   0.613   3.820   6.972
 6775SOL    HW121224   0.599   3.835   0.048
 6775SOL    HW221225   0.710   3.830   6.951
 6776SOL     OW21226   5.998   5.976   6.834
 6776SOL    HW121227   5.965   5.998   6.926
 6776SOL    HW221228   5.930   6.003   6.767
 6777SOL     OW21229   4.660   4.905   6.799
 6777SOL    HW121230   4.740   4.963   6.783
 6777SOL    HW221231   4.689   4.817   6.836
 6778SOL     OW21232   6.467   5.766   3.569
 6778SOL    HW121233   6.440   5.710   3.648
 6778SOL    HW221234   6.429   5.727   3.486
 6779SOL     OW21235   5.878   3.921   6.300
 6779SOL    HW121236   5.901   3.824   6.301
 6779SOL    HW221237   5.840   3.948   6.388
 6780SOL     OW21238   0.447   3.333   1.586
 6780SOL    HW121239   0.356   3.293   1.590
 6780SOL    HW221240   0.465   3.366   1.493
 6781SOL     OW21241   5.543   5.221   5.549
 6781SOL    HW121242   5.515   5.141   5.496
 6781SOL    HW221243   5.537   5.303   5.492
 6782SOL     OW21244   5.448   1.025   3.183
 6782SOL    HW121245   5.537   0.983   3.164
 6782SOL    HW221246   5.461   1.121   3.209
 6783SOL     OW21247   1.406   5.730   6.435
 6783SOL    HW121248   1.352   5.743   6.519
 6783SOL    HW221249   1.352   5.758   6.356
 6784SOL     OW21250   3.895   3.458   6.950
 6784SOL    HW121251   3.944   3.398   6.887
 6784SOL    HW221252   3.799   3.429   6.955
 6785SOL     OW21253   5.816   5.492   2.171
 6785SOL    HW121254   5.802   5.589   2.189
 6785SOL    HW221255   5.790   5.472   2.077
 6786SOL     OW21256   1.667   3.487   5.650
 6786SOL    HW121257   1.626   3.558   5.592
 6786SOL    HW221258   1.762   3.472   5.622
 6787SOL     OW21259   1.163   4.078   1.281
 6787SOL    HW121260   1.213   4.053   1.198
 6787SOL    HW221261   1.093   4.145   1.259
 6788SOL     OW21262   2.563   3.791   1.149
 6788SOL    HW121263   2.556   3.840   1.062
 6788SOL    HW221264   2.636   3.831   1.204
 6789SOL     OW21265   1.183   5.099   3.311
 6789SOL    HW121266   1.209   5.195   3.316
 6789SOL    HW221267   1.166   5.064   3.404
 6790SOL     OW21268   1.359   2.624   1.034
 6790SOL    HW121269   1.431   2.654   1.097
 6790SOL    HW221270   1.383   2.534   0.997
 6791SOL     OW21271   3.325   4.026   6.223
 6791SOL    HW121272   3.323   3.989   6.315
 6791SOL    HW221273   3.287   3.959   6.159
 6792SOL     OW21274   0.357   4.877   0.541
 6792SOL    HW121275   0.362   4.778   0.551
 6792SOL    HW221276   0.263   4.908   0.556
 6793SOL     OW21277   5.813   1.334   1.493
 6793SOL    HW121278   5.861   1.390   1.561
 6793SOL    HW221279   5.715   1.344   1.504
 6794SOL     OW21280   4.011   1.176   4.405
 6794SOL    HW121281   3.924   1.130   4.385
 6794SOL    HW221282   3.993   1.257   4.461
 6795SOL     OW21283   3.441   6.303   0.065
 6795SOL    HW121284   3.528   6.258   0.044
 6795SOL    HW221285   3.450   6.401   0.049
 6796SOL     OW21286   4.050   1.939   2.682
 6796SOL    HW121287   4.127   1.987   2.724
 6796SOL    HW221288   3.964   1.978   2.713
 6797SOL     OW21289   6.726   2.140   2.120
 6797SOL    HW121290   6.728   2.040   2.119
 6797SOL    HW221291   6.659   2.173   2.053
 6798SOL     OW21292   6.821   6.968   2.307
 6798SOL    HW121293   6.878   7.007   2.379
 6798SOL    HW221294   6.756   6.903   2.348
 6799SOL     OW21295   5.195   5.909   1.613
 6799SOL    HW121296   5.191   6.002   1.576
 6799SOL    HW221297   5.160   5.910   1.707
 6800SOL     OW21298   3.478   4.080   6.758
 6800SOL    HW121299   3.448   4.013   6.826
 6800SOL    HW221300   3.578   4.080   6.753
 6801SOL     OW21301   0.891   2.890   2.713
 6801SOL    HW121302   0.879   2.841   2.799
 6801SOL    HW221303   0.960   2.962   2.725
 6802SOL     OW21304   2.805   4.716   2.357
 6802SOL    HW121305   2.743   4.769   2.300
 6802SOL    HW221306   2.840   4.638   2.305
 6803SOL     OW21307   3.462   2.492   0.905
 6803SOL    HW121308   3.544   2.493   0.962
 6803SOL    HW221309   3.470   2.560   0.833
 6804SOL     OW21310   1.175   6.635   3.692
 6804SOL    HW121311   1.146   6.643   3.788
 6804SOL    HW221312   1.121   6.699   3.636
 6805SOL     OW21313   5.706   1.328   5.584
 6805SOL    HW121314   5.663   1.340   5.494
 6805SOL    HW221315   5.670   1.245   5.627
 6806SOL     OW21316   5.488   6.726   5.089
 6806SOL    HW121317   5.455   6.820   5.103
 6806SOL    HW221318   5.411   6.667   5.064
 6807SOL     OW21319   2.972   3.747   6.856
 6807SOL    HW121320   2.896   3.797   6.896
 6807SOL    HW221321   2.938   3.680   6.790
 6808SOL     OW21322   2.148   3.640   4.030
 6808SOL    HW121323   2.150   3.658   4.128
 6808SOL    HW221324   2.130   3.543   4.014
 6809SOL     OW21325   1.403   3.830   0.184
 6809SOL    HW121326   1.390   3.911   0.127
 6809SOL    HW221327   1.320   3.810   0.235
 6810SOL     OW21328   5.716   1.363   3.430
 6810SOL    HW121329   5.707   1.456   3.464
 6810SOL    HW221330   5.811   1.346   3.402
 6811SOL     OW21331   4.934   6.025   1.743
 6811SOL    HW121332   4.955   6.061   1.652
 6811SOL    HW221333   4.858   5.960   1.737
 6812SOL     OW21334   3.590   3.163   2.744
 6812SOL    HW121335   3.623   3.072   2.718
 6812SOL    HW221336   3.491   3.160   2.755
 6813SOL     OW21337   5.297   3.427   1.085
 6813SOL    HW121338   5.364   3.459   1.018
 6813SOL    HW221339   5.230   3.369   1.039
 6814SOL     OW21340   2.400   3.257   0.608
 6814SOL    HW121341   2.378   3.204   0.690
 6814SOL    HW221342   2.487   3.225   0.571
 6815SOL     OW21343   1.404   0.434   1.021
 6815SOL    HW121344   1.389   0.496   0.944
 6815SOL    HW221345   1.423   0.488   1.103
 6816SOL     OW21346   6.303   4.351   1.080
 6816SOL    HW121347   6.340   4.442   1.059
 6816SOL    HW221348   6.306   4.294   0.998
 6817SOL     OW21349   0.599   2.437   6.297
 6817SOL    HW121350   0.544   2.364   6.258
 6817SOL    HW221351   0.616   2.507   6.228
 6818SOL     OW21352   3.962   5.176   1.271
 6818SOL    HW121353   3.863   5.169   1.254
 6818SOL    HW221354   3.998   5.256   1.223
 6819SOL     OW21355   2.971   1.671   4.029
 6819SOL    HW121356   2.880   1.669   3.986
 6819SOL    HW221357   3.017   1.756   4.005
 6820SOL     OW21358   1.666   5.280   4.550
 6820SOL    HW121359   1.684   5.262   4.647
 6820SOL    HW221360   1.749   5.263   4.497
 6821SOL     OW21361   2.252   2.913   4.221
 6821SOL    HW121362   2.233   3.010   4.205
 6821SOL    HW221363   2.320   2.905   4.294
 6822SOL     OW21364   4.600   2.002   6.223
 6822SOL    HW121365   4.573   1.912   6.190
 6822SOL    HW221366   4.662   2.045   6.157
 6823SOL     OW21367   3.913   3.396   2.049
 6823SOL    HW121368   3.980   3.470   2.043
 6823SOL    HW221369   3.837   3.424   2.106
 6824SOL     OW21370   1.038   5.178   5.400
 6824SOL    HW121371   1.102   5.252   5.423
 6824SOL    HW221372   1.089   5.095   5.377
 6825SOL     OW21373   5.664   0.085   3.831
 6825SOL    HW121374   5.722   0.016   3.787
 6825SOL    HW221375   5.584   0.102   3.774
 6826SOL     OW21376   0.979   3.084   3.013
 6826SOL    HW121377   1.001   2.990   3.039
 6826SOL    HW221378   0.995   3.096   2.915
 6827SOL     OW21379   5.508   5.889   5.156
 6827SOL    HW121380   5.604   5.911   5.137
 6827SOL    HW221381   5.502   5.843   5.245
 6828SOL     OW21382   2.234   1.797   1.326
 6828SOL    HW121383   2.175   1.855   1.270
 6828SOL    HW221384   2.205   1.802   1.421
 6829SOL     OW21385   5.759   4.872   3.697
 6829SOL    HW121386   5.703   4.951   3.677
 6829SOL    HW221387   5.821   4.854   3.620
 6830SOL     OW21388   5.004   1.957   4.024
 6830SOL    HW121389   5.099   1.927   4.031
 6830SOL    HW221390   4.943   1.879   4.037
 6831SOL     OW21391   6.991   1.393   5.912
 6831SOL    HW121392   6.983   1.294   5.926
 6831SOL    HW221393   7.015   1.437   5.998
 6832SOL     OW21394   3.062   4.930   1.463
 6832SOL    HW121395   3.016   4.956   1.548
 6832SOL    HW221396   3.044   4.998   1.392
 6833SOL     OW21397   4.581   5.886   6.925
 6833SOL    HW121398   4.548   5.875   6.832
 6833SOL    HW221399   4.507   5.865   6.989
 6834SOL     OW21400   3.385   5.470   2.372
 6834SOL    HW121401   3.381   5.534   2.450
 6834SOL    HW221402   3.299   5.473   2.322
 6835SOL     OW21403   4.070   0.083   4.623
 6835SOL    HW121404   4.137   0.041   4.685
 6835SOL    HW221405   4.072   0.182   4.634
 6836SOL     OW21406   3.827   5.801   0.008
 6836SOL    HW121407   3.743   5.791   6.976
 6836SOL    HW221408   3.836   5.723   0.069
 6837SOL     OW21409   0.189   3.201   3.035
 6837SOL    HW121410   0.183   3.295   3.002
 6837SOL    HW221411   0.198   3.139   2.957
 6838SOL     OW21412   2.573   1.367   1.286
 6838SOL    HW121413   2.496   1.430   1.278
 6838SOL    HW221414   2.628   1.371   1.203
 6839SOL     OW21415   4.565   0.759   1.884
 6839SOL    HW121416   4.569   0.793   1.978
 6839SOL    HW221417   4.475   0.718   1.867
 6840SOL     OW21418   1.149   1.169   6.815
 6840SOL    HW121419   1.210   1.231   6.766
 6840SOL    HW221420   1.132   1.088   6.759
 6841SOL     OW21421   0.361   2.900   5.513
 6841SOL    HW121422   0.381   2.988   5.555
 6841SOL    HW221423   0.291   2.853   5.566
 6842SOL     OW21424   2.513   4.543   2.288
 6842SOL    HW121425   2.580   4.581   2.224
 6842SOL    HW221426   2.445   4.489   2.237
 6843SOL     OW21427   4.478   0.300   1.070
 6843SOL    HW121428   4.495   0.303   0.972
 6843SOL    HW221429   4.519   0.217   1.109
 6844SOL     OW21430   5.410   0.597   5.590
 6844SOL    HW121431   5.346   0.537   5.638
 6844SOL    HW221432   5.464   0.543   5.525
 6845SOL     OW21433   5.387   2.035   2.666
 6845SOL    HW121434   5.456   2.102   2.637
 6845SOL    HW221435   5.298   2.062   2.630
 6846SOL     OW21436   2.018   3.570   0.307
 6846SOL    HW121437   2.100   3.619   0.279
 6846SOL    HW221438   2.020   3.477   0.269
 6847SOL     OW21439   6.660   2.373   4.573
 6847SOL    HW121440   6.686   2.354   4.667
 6847SOL    HW221441   6.709   2.311   4.511
 6848SOL     OW21442   0.122   4.999   3.460
 6848SOL    HW121443   0.157   5.048   3.540
 6848SOL    HW221444   0.038   5.044   3.428
 6849SOL     OW21445   2.587   4.398   5.815
 6849SOL    HW121446   2.497   4.418   5.777
 6849SOL    HW221447   2.635   4.334   5.755
 6850SOL     OW21448   5.033   0.208   4.067
 6850SOL    HW121449   5.120   0.222   4.116
 6850SOL    HW221450   4.957   0.231   4.127
 6851SOL     OW21451   1.852   3.967   2.879
 6851SOL    HW121452   1.851   4.061   2.842
 6851SOL    HW221453   1.798   3.908   2.820
 6852SOL     OW21454   4.217   3.623   0.302
 6852SOL    HW121455   4.178   3.597   0.214
 6852SOL    HW221456   4.153   3.602   0.375
 6853SOL     OW21457   3.742   4.762   6.211
 6853SOL    HW121458   3.666   4.823   6.234
 6853SOL    HW221459   3.757   4.762   6.112
 6854SOL     OW21460   5.047   5.999   5.636
 6854SOL    HW121461   5.119   5.969   5.699
 6854SOL    HW221462   4.959   5.963   5.666
 6855SOL     OW21463   4.145   5.061   2.891
 6855SOL    HW121464   4.189   5.047   2.980
 6855SOL    HW221465   4.152   4.978   2.837
 6856SOL     OW21466   6.584   2.830   0.257
 6856SOL    HW121467   6.677   2.849   0.225
 6856SOL    HW221468   6.518   2.858   0.187
 6857SOL     OW21469   1.123   4.324   5.811
 6857SOL    HW121470   1.108   4.325   5.910
 6857SOL    HW221471   1.200   4.265   5.789
 6858SOL     OW21472   1.483   3.507   1.370
 6858SOL    HW121473   1.497   3.498   1.469
 6858SOL    HW221474   1.554   3.458   1.321
 6859SOL     OW21475   2.026   1.876   1.117
 6859SOL    HW121476   1.978   1.839   1.196
 6859SOL    HW221477   1.960   1.898   1.045
 6860SOL     OW21478   0.359   6.440   0.190
 6860SOL    HW121479   0.318   6.380   0.259
 6860SOL    HW221480   0.357   6.395   0.101
 6861SOL     OW21481   6.165   3.390   6.579
 6861SOL    HW121482   6.066   3.386   6.589
 6861SOL    HW221483   6.190   3.360   6.487
 6862SOL     OW21484   0.720   4.507   3.821
 6862SOL    HW121485   0.649   4.543   3.882
 6862SOL    HW221486   0.801   4.566   3.827
 6863SOL     OW21487   5.010   1.645   4.865
 6863SOL    HW121488   4.913   1.620   4.856
 6863SOL    HW221489   5.063   1.592   4.798
 6864SOL     OW21490   2.013   3.631   6.566
 6864SOL    HW121491   2.059   3.592   6.487
 6864SOL    HW221492   2.005   3.561   6.638
 6865SOL     OW21493   2.201   0.037   4.442
 6865SOL    HW121494   2.255   0.060   4.361
 6865SOL    HW221495   2.113   7.021   4.414
 6866SOL     OW21496   2.008   4.756   0.033
 6866SOL    HW121497   1.990   4.703   0.116
 6866SOL    HW221498   2.000   4.696   6.976
 6867SOL     OW21499   2.023   2.264   6.263
 6867SOL    HW121500   2.061   2.315   6.186
 6867SOL    HW221501   1.971   2.326   6.321
 6868SOL     OW21502   3.390   4.984   3.124
 6868SOL    HW121503   3.409   5.081   3.138
 6868SOL    HW221504   3.369   4.941   3.212
 6869SOL     OW21505   1.549   0.918   5.607
 6869SOL    HW121506   1.596   0.845   5.657
 6869SOL    HW221507   1.561   1.005   5.653
 6870SOL     OW21508   5.791   2.533   6.421
 6870SOL    HW121509   5.764   2.574   6.333
 6870SOL    HW221510   5.712   2.489   6.463
 6871SOL     OW21511   6.696   2.492   2.623
 6871SOL    HW121512   6.722   2.395   2.623
 6871SOL    HW221513   6.653   2.515   2.710
 6872SOL     OW21514   1.315   3.909   1.082
 6872SOL    HW121515   1.314   3.811   1.101
 6872SOL    HW221516   1.409   3.940   1.066
 6873SOL     OW21517   0.513   4.400   2.864
 6873SOL    HW121518   0.502   4.418   2.766
 6873SOL    HW221519   0.424   4.404   2.909
 6874SOL     OW21520   4.762   6.501   2.349
 6874SOL    HW121521   4.682   6.443   2.366
 6874SOL    HW221522   4.739   6.597   2.366
 6875SOL     OW21523   2.613   1.090   0.135
 6875SOL    HW121524   2.684   1.031   0.174
 6875SOL    HW221525   2.565   1.138   0.208
 6876SOL     OW21526   5.559   5.307   3.025
 6876SOL    HW121527   5.633   5.340   2.966
 6876SOL    HW221528   5.562   5.357   3.112
 6877SOL     OW21529   0.497   4.733   1.263
 6877SOL    HW121530   0.595   4.718   1.256
 6877SOL    HW221531   0.463   4.692   1.348
 6878SOL     OW21532   2.213   0.678   4.667
 6878SOL    HW121533   2.288   0.683   4.601
 6878SOL    HW221534   2.184   0.583   4.677
 6879SOL     OW21535   1.363   1.678   1.645
 6879SOL    HW121536   1.369   1.753   1.579
 6879SOL    HW221537   1.341   1.593   1.598
 6880SOL     OW21538   2.182   6.379   0.584
 6880SOL    HW121539   2.116   6.454   0.577
 6880SOL    HW221540   2.135   6.296   0.613
 6881SOL     OW21541   0.027   3.500   0.428
 6881SOL    HW121542   7.006   3.411   0.411
 6881SOL    HW221543   0.126   3.489   0.431
 6882SOL     OW21544   2.857   6.684   6.998
 6882SOL    HW121545   2.869   6.652   0.070
 6882SOL    HW221546   2.759   6.689   6.977
 6883SOL     OW21547   5.006   0.572   1.083
 6883SOL    HW121548   5.027   0.484   1.127
 6883SOL    HW221549   4.941   0.558   1.009
 6884SOL     OW21550   1.900   5.008   3.949
 6884SOL    HW121551   1.810   5.034   3.913
 6884SOL    HW221552   1.967   5.008   3.875
 6885SOL     OW21553   5.631   5.110   4.538
 6885SOL    HW121554   5.703   5.064   4.591
 6885SOL    HW221555   5.544   5.102   4.586
 6886SOL     OW21556   5.168   3.222   0.158
 6886SOL    HW121557   5.120   3.300   0.117
 6886SOL    HW221558   5.131   3.137   0.122
 6887SOL     OW21559   5.770   6.456   5.593
 6887SOL    HW121560   5.700   6.475   5.525
 6887SOL    HW221561   5.756   6.364   5.630
 6888SOL     OW21562   6.709   4.025   7.000
 6888SOL    HW121563   6.670   4.115   7.020
 6888SOL    HW221564   6.704   3.968   0.059
 6889SOL     OW21565   6.950   2.282   5.556
 6889SOL    HW121566   6.967   2.207   5.493
 6889SOL    HW221567   6.940   2.247   5.649
 6890SOL     OW21568   4.837   4.769   4.058
 6890SOL    HW121569   4.857   4.671   4.069
 6890SOL    HW221570   4.763   4.780   3.992
 6891SOL     OW21571   1.842   1.757   0.947
 6891SOL    HW121572   1.863   1.680   1.007
 6891SOL    HW221573   1.870   1.736   0.854
 6892SOL     OW21574   2.414   0.937   5.106
 6892SOL    HW121575   2.452   0.971   5.192
 6892SOL    HW221576   2.316   0.954   5.105
 6893SOL     OW21577   6.137   2.703   0.194
 6893SOL    HW121578   6.220   2.722   0.247
 6893SOL    HW221579   6.060   2.694   0.256
 6894SOL     OW21580   5.563   4.903   0.288
 6894SOL    HW121581   5.501   4.826   0.302
 6894SOL    HW221582   5.580   4.914   0.190
 6895SOL     OW21583   1.025   5.401   2.071
 6895SOL    HW121584   1.048   5.491   2.035
 6895SOL    HW221585   1.095   5.335   2.040
 6896SOL     OW21586   5.633   1.231   6.153
 6896SOL    HW121587   5.700   1.161   6.129
 6896SOL    HW221588   5.545   1.210   6.111
 6897SOL     OW21589   4.324   2.743   5.287
 6897SOL    HW121590   4.280   2.670   5.236
 6897SOL    HW221591   4.261   2.819   5.299
 6898SOL     OW21592   1.736   6.758   1.292
 6898SOL    HW121593   1.788   6.699   1.354
 6898SOL    HW221594   1.782   6.846   1.282
 6899SOL     OW21595   5.059   5.619   2.221
 6899SOL    HW121596   5.097   5.576   2.139
 6899SOL    HW221597   4.959   5.617   2.216
 6900SOL     OW21598   6.706   3.837   4.337
 6900SOL    HW121599   6.636   3.823   4.267
 6900SOL    HW221600   6.729   3.935   4.342
 6901SOL     OW21601   4.860   4.963   5.735
 6901SOL    HW121602   4.910   5.029   5.791
 6901SOL    HW221603   4.795   5.011   5.676
 6902SOL     OW21604   0.118   5.366   6.026
 6902SOL    HW121605   0.060   5.354   5.946
 6902SOL    HW221606   0.133   5.464   6.043
 6903SOL     OW21607   1.872   6.255   5.452
 6903SOL    HW121608   1.820   6.179   5.414
 6903SOL    HW221609   1.814   6.310   5.511
 6904SOL     OW21610   0.665   0.440   5.679
 6904SOL    HW121611   0.754   0.421   5.638
 6904SOL    HW221612   0.673   0.440   5.778
 6905SOL     OW21613   4.553   6.413   5.376
 6905SOL    HW121614   4.651   6.408   5.357
 6905SOL    HW221615   4.503   6.352   5.315
 6906SOL     OW21616   2.759   1.196   3.481
 6906SOL    HW121617   2.822   1.130   3.523
 6906SOL    HW221618   2.678   1.207   3.539
 6907SOL     OW21619   5.723   2.310   0.841
 6907SOL    HW121620   5.716   2.401   0.800
 6907SOL    HW221621   5.815   2.274   0.826
 6908SOL     OW21622   3.874   5.901   0.490
 6908SOL    HW121623   3.957   5.866   0.533
 6908SOL    HW221624   3.893   5.924   0.394
 6909SOL     OW21625   5.722   4.036   1.673
 6909SOL    HW121626   5.627   4.007   1.665
 6909SOL    HW221627   5.750   4.034   1.769
 6910SOL     OW21628   0.550   2.682   2.240
 6910SOL    HW121629   0.642   2.712   2.214
 6910SOL    HW221630   0.546   2.663   2.338
 6911SOL     OW21631   2.706   6.603   5.400
 6911SOL    HW121632   2.753   6.564   5.479
 6911SOL    HW221633   2.740   6.696   5.384
 6912SOL     OW21634   3.305   4.227   0.154
 6912SOL    HW121635   3.309   4.255   0.058
 6912SOL    HW221636   3.367   4.150   0.169
 6913SOL     OW21637   3.855   5.849   6.009
 6913SOL    HW121638   3.869   5.913   5.933
 6913SOL    HW221639   3.869   5.897   6.095
 6914SOL     OW21640   6.702   2.196   2.909
 6914SOL    HW121641   6.705   2.196   2.809
 6914SOL    HW221642   6.726   2.287   2.943
 6915SOL     OW21643   0.044   3.796   3.883
 6915SOL    HW121644   6.987   3.768   3.937
 6915SOL    HW221645   0.128   3.777   3.933
 6916SOL     OW21646   4.520   6.141   5.618
 6916SOL    HW121647   4.567   6.178   5.537
 6916SOL    HW221648   4.427   6.114   5.593
 6917SOL     OW21649   3.926   6.355   2.076
 6917SOL    HW121650   3.907   6.260   2.103
 6917SOL    HW221651   3.842   6.409   2.085
 6918SOL     OW21652   1.579   3.629   0.193
 6918SOL    HW121653   1.510   3.701   0.188
 6918SOL    HW221654   1.669   3.670   0.208
 6919SOL     OW21655   6.290   5.884   3.333
 6919SOL    HW121656   6.219   5.934   3.284
 6919SOL    HW221657   6.343   5.829   3.268
 6920SOL     OW21658   0.013   2.512   5.635
 6920SOL    HW121659   7.014   2.418   5.611
 6920SOL    HW221660   6.969   2.545   5.703
 6921SOL     OW21661   3.041   0.423   4.390
 6921SOL    HW121662   3.129   0.380   4.368
 6921SOL    HW221663   3.001   0.377   4.469
 6922SOL     OW21664   2.885   5.138   6.501
 6922SOL    HW121665   2.883   5.176   6.409
 6922SOL    HW221666   2.840   5.048   6.501
 6923SOL     OW21667   5.074   0.145   3.060
 6923SOL    HW121668   5.159   0.121   3.014
 6923SOL    HW221669   5.002   0.162   2.993
 6924SOL     OW21670   3.272   5.102   1.797
 6924SOL    HW121671   3.201   5.155   1.844
 6924SOL    HW221672   3.276   5.010   1.835
 6925SOL     OW21673   6.215   6.591   4.819
 6925SOL    HW121674   6.226   6.569   4.722
 6925SOL    HW221675   6.120   6.575   4.846
 6926SOL     OW21676   2.862   2.071   0.478
 6926SOL    HW121677   2.774   2.114   0.498
 6926SOL    HW221678   2.846   1.985   0.430
 6927SOL     OW21679   3.402   0.631   6.397
 6927SOL    HW121680   3.384   0.715   6.449
 6927SOL    HW221681   3.342   0.628   6.317
 6928SOL     OW21682   3.505   5.929   0.222
 6928SOL    HW121683   3.456   6.007   0.182
 6928SOL    HW221684   3.559   5.961   0.301
 6929SOL     OW21685   4.703   5.355   2.817
 6929SOL    HW121686   4.612   5.394   2.832
 6929SOL    HW221687   4.730   5.301   2.896
 6930SOL     OW21688   0.897   6.488   1.974
 6930SOL    HW121689   0.967   6.444   2.030
 6930SOL    HW221690   0.924   6.484   1.878
 6931SOL     OW21691   3.239   3.157   1.006
 6931SOL    HW121692   3.325   3.141   0.957
 6931SOL    HW221693   3.223   3.081   1.070
 6932SOL     OW21694   4.427   0.440   6.705
 6932SOL    HW121695   4.379   0.371   6.650
 6932SOL    HW221696   4.362   0.485   6.765
 6933SOL     OW21697   2.946   5.956   5.772
 6933SOL    HW121698   2.853   5.992   5.759
 6933SOL    HW221699   2.959   5.877   5.712
 6934SOL     OW21700   5.270   4.969   0.028
 6934SOL    HW121701   5.314   4.906   6.985
 6934SOL    HW221702   5.334   5.041   0.053
 6935SOL     OW21703   4.287   5.909   1.810
 6935SOL    HW121704   4.244   5.844   1.747
 6935SOL    HW221705   4.328   5.984   1.758
 6936SOL     OW21706   0.804   1.776   6.919
 6936SOL    HW121707   0.837   1.807   7.009
 6936SOL    HW221708   0.777   1.855   6.865
 6937SOL     OW21709   5.795   4.915   0.419
 6937SOL    HW121710   5.705   4.909   0.376
 6937SOL    HW221711   5.807   5.005   0.461
 6938SOL     OW21712   3.569   0.661   4.748
 6938SOL    HW121713   3.568   0.761   4.739
 6938SOL    HW221714   3.657   0.626   4.715
 6939SOL     OW21715   5.599   2.904   3.553
 6939SOL    HW121716   5.603   2.914   3.454
 6939SOL    HW221717   5.691   2.915   3.591
 6940SOL     OW21718   2.317   6.401   1.457
 6940SOL    HW121719   2.349   6.460   1.383
 6940SOL    HW221720   2.365   6.313   1.454
 6941SOL     OW21721   3.726   2.918   2.713
 6941SOL    HW121722   3.680   2.881   2.794
 6941SOL    HW221723   3.677   2.888   2.631
 6942SOL     OW21724   6.487   4.655   3.186
 6942SOL    HW121725   6.461   4.604   3.268
 6942SOL    HW221726   6.545   4.597   3.128
 6943SOL     OW21727   3.904   5.140   5.724
 6943SOL    HW121728   3.924   5.050   5.684
 6943SOL    HW221729   3.844   5.191   5.662
 6944SOL     OW21730   0.461   5.337   4.911
 6944SOL    HW121731   0.458   5.433   4.938
 6944SOL    HW221732   0.513   5.285   4.978
 6945SOL     OW21733   4.568   1.701   0.541
 6945SOL    HW121734   4.602   1.784   0.585
 6945SOL    HW221735   4.603   1.621   0.589
 6946SOL     OW21736   5.550   5.882   2.315
 6946SOL    HW121737   5.454   5.879   2.341
 6946SOL    HW221738   5.560   5.939   2.233
 6947SOL     OW21739   6.130   4.076   5.493
 6947SOL    HW121740   6.190   4.004   5.458
 6947SOL    HW221741   6.161   4.165   5.459
 6948SOL     OW21742   6.957   4.236   6.643
 6948SOL    HW121743   6.994   4.155   6.690
 6948SOL    HW221744   6.868   4.258   6.682
 6949SOL     OW21745   2.998   1.203   2.957
 6949SOL    HW121746   2.916   1.165   2.914
 6949SOL    HW221747   3.064   1.229   2.887
 6950SOL     OW21748   1.896   1.058   3.904
 6950SOL    HW121749   1.797   1.076   3.900
 6950SOL    HW221750   1.936   1.114   3.977
 6951SOL     OW21751   1.169   3.713   6.858
 6951SOL    HW121752   1.180   3.723   6.759
 6951SOL    HW221753   1.091   3.767   6.888
 6952SOL     OW21754   4.211   5.644   3.300
 6952SOL    HW121755   4.241   5.594   3.218
 6952SOL    HW221756   4.116   5.674   3.287
 6953SOL     OW21757   0.133   0.977   1.991
 6953SOL    HW121758   0.081   0.891   1.990
 6953SOL    HW221759   0.162   0.999   1.897
 6954SOL     OW21760   6.502   4.526   5.926
 6954SOL    HW121761   6.525   4.433   5.957
 6954SOL    HW221762   6.584   4.583   5.931
 6955SOL     OW21763   4.475   5.611   2.501
 6955SOL    HW121764   4.391   5.563   2.528
 6955SOL    HW221765   4.469   5.636   2.404
 6956SOL     OW21766   5.372   4.892   1.599
 6956SOL    HW121767   5.340   4.891   1.504
 6956SOL    HW221768   5.466   4.925   1.602
 6957SOL     OW21769   6.100   4.480   5.153
 6957SOL    HW121770   6.016   4.443   5.114
 6957SOL    HW221771   6.129   4.424   5.231
 6958SOL     OW21772   3.422   3.762   2.170
 6958SOL    HW121773   3.356   3.689   2.188
 6958SOL    HW221774   3.453   3.801   2.257
 6959SOL     OW21775   1.362   4.504   2.533
 6959SOL    HW121776   1.320   4.595   2.539
 6959SOL    HW221777   1.308   4.438   2.585
 6960SOL     OW21778   4.965   4.848   1.555
 6960SOL    HW121779   5.017   4.771   1.516
 6960SOL    HW221780   4.929   4.904   1.481
 6961SOL     OW21781   5.510   2.420   4.793
 6961SOL    HW121782   5.445   2.416   4.868
 6961SOL    HW221783   5.526   2.515   4.768
 6962SOL     OW21784   2.637   6.322   0.669
 6962SOL    HW121785   2.643   6.389   0.595
 6962SOL    HW221786   2.677   6.235   0.640
 6963SOL     OW21787   0.821   6.537   6.451
 6963SOL    HW121788   0.804   6.526   6.549
 6963SOL    HW221789   0.881   6.615   6.436
 6964SOL     OW21790   2.160   1.669   5.023
 6964SOL    HW121791   2.163   1.760   5.065
 6964SOL    HW221792   2.249   1.625   5.034
 6965SOL     OW21793   1.920   1.258   0.141
 6965SOL    HW121794   1.824   1.262   0.113
 6965SOL    HW221795   1.941   1.339   0.196
 6966SOL     OW21796   1.695   6.341   1.042
 6966SOL    HW121797   1.603   6.380   1.040
 6966SOL    HW221798   1.700   6.273   1.115
 6967SOL     OW21799   3.779   0.545   6.574
 6967SOL    HW121800   3.836   0.627   6.560
 6967SOL    HW221801   3.765   0.499   6.487
 6968SOL     OW21802   3.225   0.573   2.429
 6968SOL    HW121803   3.310   0.603   2.473
 6968SOL    HW221804   3.243   0.553   2.333
 6969SOL     OW21805   1.457   3.106   2.681
 6969SOL    HW121806   1.512   3.100   2.598
 6969SOL    HW221807   1.515   3.131   2.758
 6970SOL     OW21808   3.111   6.102   5.534
 6970SOL    HW121809   3.147   6.194   5.516
 6970SOL    HW221810   3.107   6.086   5.632
 6971SOL     OW21811   6.075   3.809   6.593
 6971SOL    HW121812   6.148   3.743   6.579
 6971SOL    HW221813   6.090   3.889   6.534
 6972SOL     OW21814   5.641   3.729   1.597
 6972SOL    HW121815   5.694   3.708   1.679
 6972SOL    HW221816   5.703   3.744   1.521
 6973SOL     OW21817   1.023   1.657   2.853
 6973SOL    HW121818   1.110   1.706   2.863
 6973SOL    HW221819   1.041   1.563   2.822
 6974SOL     OW21820   4.047   3.199   2.837
 6974SOL    HW121821   3.952   3.217   2.863
 6974SOL    HW221822   4.050   3.147   2.752
 6975SOL     OW21823   2.675   5.378   4.395
 6975SOL    HW121824   2.713   5.470   4.403
 6975SOL    HW221825   2.577   5.383   4.375
 6976SOL     OW21826   4.393   5.242   6.143
 6976SOL    HW121827   4.410   5.144   6.146
 6976SOL    HW221828   4.395   5.279   6.236
 6977SOL     OW21829   4.935   4.681   2.745
 6977SOL    HW121830   4.847   4.655   2.785
 6977SOL    HW221831   4.924   4.695   2.647
 6978SOL     OW21832   0.863   3.895   0.899
 6978SOL    HW121833   0.835   3.896   0.995
 6978SOL    HW221834   0.858   3.802   0.864
 6979SOL     OW21835   1.242   3.917   3.005
 6979SOL    HW121836   1.205   3.835   2.962
 6979SOL    HW221837   1.272   3.896   3.098
 6980SOL     OW21838   2.090   4.506   2.726
 6980SOL    HW121839   2.130   4.455   2.802
 6980SOL    HW221840   2.023   4.572   2.761
 6981SOL     OW21841   4.093   2.624   6.875
 6981SOL    HW121842   4.012   2.679   6.898
 6981SOL    HW221843   4.066   2.547   6.817
 6982SOL     OW21844   6.326   0.219   1.623
 6982SOL    HW121845   6.228   0.216   1.642
 6982SOL    HW221846   6.361   0.125   1.616
 6983SOL     OW21847   6.841   0.021   4.373
 6983SOL    HW121848   6.750   7.007   4.393
 6983SOL    HW221849   6.836   0.085   4.296
 6984SOL     OW21850   2.119   4.724   3.564
 6984SOL    HW121851   2.192   4.673   3.611
 6984SOL    HW221852   2.064   4.660   3.510
 6985SOL     OW21853   5.391   3.044   0.716
 6985SOL    HW121854   5.305   3.012   0.678
 6985SOL    HW221855   5.425   3.122   0.663
 6986SOL     OW21856   3.449   5.408   5.482
 6986SOL    HW121857   3.428   5.313   5.460
 6986SOL    HW221858   3.404   5.434   5.567
 6987SOL     OW21859   0.110   0.802   6.819
 6987SOL    HW121860   0.161   0.875   6.865
 6987SOL    HW221861   0.015   0.803   6.852
 6988SOL     OW21862   2.278   0.724   5.820
 6988SOL    HW121863   2.203   0.706   5.884
 6988SOL    HW221864   2.255   0.803   5.762
 6989SOL     OW21865   0.737   3.862   2.356
 6989SOL    HW121866   0.707   3.957   2.350
 6989SOL    HW221867   0.810   3.846   2.290
 6990SOL     OW21868   3.703   4.147   0.008
 6990SOL    HW121869   3.694   4.234   0.058
 6990SOL    HW221870   3.686   4.164   6.933
 6991SOL     OW21871   5.765   4.192   3.409
 6991SOL    HW121872   5.837   4.235   3.462
 6991SOL    HW221873   5.729   4.113   3.459
 6992SOL     OW21874   2.059   5.171   6.211
 6992SOL    HW121875   1.974   5.198   6.256
 6992SOL    HW221876   2.118   5.251   6.203
 6993SOL     OW21877   4.230   2.360   1.885
 6993SOL    HW121878   4.228   2.319   1.794
 6993SOL    HW221879   4.233   2.287   1.954
 6994SOL     OW21880   2.448   1.222   2.678
 6994SOL    HW121881   2.545   1.245   2.690
 6994SOL    HW221882   2.409   1.278   2.605
 6995SOL     OW21883   0.247   4.083   0.659
 6995SOL    HW121884   0.321   4.022   0.632
 6995SOL    HW221885   0.282   4.176   0.667
 6996SOL     OW21886   1.018   1.594   6.349
 6996SOL    HW121887   1.101   1.634   6.311
 6996SOL    HW221888   0.947   1.592   6.279
 6997SOL     OW21889   6.222   6.235   5.884
 6997SOL    HW121890   6.247   6.140   5.899
 6997SOL    HW221891   6.176   6.271   5.965
 6998SOL     OW21892   0.695   0.415   0.250
 6998SOL    HW121893   0.749   0.412   0.166
 6998SOL    HW221894   0.753   0.443   0.327
 6999SOL     OW21895   6.991   2.743   6.876
 6999SOL    HW121896   6.946   2.763   6.789
 6999SOL    HW221897   6.982   2.646   6.896
 7000SOL     OW21898   0.550   5.429   3.762
 7000SOL    HW121899   0.471   5.391   3.811
 7000SOL    HW221900   0.523   5.512   3.714
 7001SOL     OW21901   0.545   1.374   3.471
 7001SOL    HW121902   0.501   1.429   3.399
 7001SOL    HW221903   0.594   1.298   3.430
 7002SOL     OW21904   1.322   4.794   2.595
 7002SOL    HW121905   1.405   4.841   2.626
 7002SOL    HW221906   1.243   4.831   2.644
 7003SOL     OW21907   0.636   5.322   6.502
 7003SOL    HW121908   0.687   5.239   6.480
 7003SOL    HW221909   0.657   5.392   6.434
 7004SOL     OW21910   1.684   0.637   6.595
 7004SOL    HW121911   1.728   0.584   6.668
 7004SOL    HW221912   1.631   0.575   6.537
 7005SOL     OW21913   2.025   5.553   0.439
 7005SOL    HW121914   2.121   5.581   0.447
 7005SOL    HW221915   2.017   5.456   0.465
 7006SOL     OW21916   0.704   0.518   3.541
 7006SOL    HW121917   0.607   0.511   3.565
 7006SOL    HW221918   0.743   0.426   3.532
 7007SOL     OW21919   2.056   0.115   6.204
 7007SOL    HW121920   2.142   0.162   6.186
 7007SOL    HW221921   1.980   0.177   6.187
 7008SOL     OW21922   5.196   2.826   2.754
 7008SOL    HW121923   5.153   2.822   2.663
 7008SOL    HW221924   5.281   2.879   2.749
 7009SOL     OW21925   5.374   5.936   1.921
 7009SOL    HW121926   5.280   5.957   1.947
 7009SOL    HW221927   5.436   6.004   1.961
 7010SOL     OW21928   5.179   3.190   2.572
 7010SOL    HW121929   5.088   3.172   2.610
 7010SOL    HW221930   5.170   3.217   2.476
 7011SOL     OW21931   2.422   6.526   6.136
 7011SOL    HW121932   2.479   6.561   6.210
 7011SOL    HW221933   2.326   6.548   6.155
 7012SOL     OW21934   0.444   3.848   0.684
 7012SOL    HW121935   0.383   3.803   0.620
 7012SOL    HW221936   0.408   3.840   0.777
 7013SOL     OW21937   3.274   2.919   0.070
 7013SOL    HW121938   3.208   2.844   0.068
 7013SOL    HW221939   3.343   2.904   7.021
 7014SOL     OW21940   6.347   3.435   0.261
 7014SOL    HW121941   6.348   3.525   0.216
 7014SOL    HW221942   6.334   3.364   0.192
 7015SOL     OW21943   6.164   6.463   0.667
 7015SOL    HW121944   6.255   6.443   0.701
 7015SOL    HW221945   6.170   6.523   0.588
 7016SOL     OW21946   3.277   5.248   1.137
 7016SOL    HW121947   3.222   5.331   1.134
 7016SOL    HW221948   3.366   5.266   1.094
 7017SOL     OW21949   6.063   4.349   6.607
 7017SOL    HW121950   6.163   4.346   6.600
 7017SOL    HW221951   6.023   4.344   6.516
 7018SOL     OW21952   5.828   3.554   5.233
 7018SOL    HW121953   5.801   3.464   5.268
 7018SOL    HW221954   5.749   3.615   5.233
 7019SOL     OW21955   3.890   5.580   1.952
 7019SOL    HW121956   3.928   5.518   2.020
 7019SOL    HW221957   3.848   5.659   1.998
 7020SOL     OW21958   0.527   1.638   0.647
 7020SOL    HW121959   0.597   1.630   0.718
 7020SOL    HW221960   0.436   1.626   0.688
 7021SOL     OW21961   1.006   1.621   4.948
 7021SOL    HW121962   0.967   1.623   5.041
 7021SOL    HW221963   0.960   1.689   4.892
 7022SOL     OW21964   2.041   3.570   1.024
 7022SOL    HW121965   1.947   3.534   1.019
 7022SOL    HW221966   2.095   3.514   1.087
 7023SOL     OW21967   0.354   1.908   1.276
 7023SOL    HW121968   0.330   1.967   1.353
 7023SOL    HW221969   0.273   1.892   1.219
 7024SOL     OW21970   3.626   3.847   5.557
 7024SOL    HW121971   3.723   3.826   5.545
 7024SOL    HW221972   3.571   3.774   5.516
 7025SOL     OW21973   3.022   1.004   1.121
 7025SOL    HW121974   3.121   1.000   1.105
 7025SOL    HW221975   2.986   0.911   1.128
 7026SOL     OW21976   2.856   1.901   1.094
 7026SOL    HW121977   2.835   1.904   0.996
 7026SOL    HW221978   2.949   1.868   1.107
 7027SOL     OW21979   3.122   4.740   1.272
 7027SOL    HW121980   3.123   4.825   1.326
 7027SOL    HW221981   3.107   4.662   1.332
 7028SOL     OW21982   3.410   0.284   3.657
 7028SOL    HW121983   3.483   0.351   3.673
 7028SOL    HW221984   3.335   0.301   3.721
 7029SOL     OW21985   3.432   4.187   3.548
 7029SOL    HW121986   3.527   4.155   3.537
 7029SOL    HW221987   3.386   4.184   3.459
 7030SOL     OW21988   6.485   6.893   5.175
 7030SOL    HW121989   6.440   6.913   5.089
 7030SOL    HW221990   6.573   6.848   5.157
 7031SOL     OW21991   5.143   5.481   0.750
 7031SOL    HW121992   5.122   5.566   0.799
 7031SOL    HW221993   5.090   5.406   0.791
 7032SOL     OW21994   4.024   5.251   4.487
 7032SOL    HW121995   3.994   5.164   4.527
 7032SOL    HW221996   3.953   5.287   4.427
 7033SOL     OW21997   2.242   1.932   5.444
 7033SOL    HW121998   2.193   1.876   5.376
 7033SOL    HW221999   2.306   1.992   5.398
 7034SOL     OW22000   6.690   1.866   2.096
 7034SOL    HW122001   6.635   1.841   2.175
 7034SOL    HW222002   6.731   1.784   2.056
 7035SOL     OW22003   2.563   1.921   1.532
 7035SOL    HW122004   2.468   1.938   1.555
 7035SOL    HW222005   2.593   1.835   1.574
 7036SOL     OW22006   6.283   1.791   1.479
 7036SOL    HW122007   6.272   1.881   1.438
 7036SOL    HW222008   6.231   1.786   1.564
 7037SOL     OW22009   1.427   0.755   6.309
 7037SOL    HW122010   1.359   0.819   6.345
 7037SOL    HW222011   1.385   0.698   6.238
 7038SOL     OW22012   0.527   4.906   0.302
 7038SOL    HW122013   0.560   4.836   0.239
 7038SOL    HW222014   0.488   4.862   0.383
 7039SOL     OW22015   6.540   0.096   1.432
 7039SOL    HW122016   6.441   0.082   1.430
 7039SOL    HW222017   6.586   0.018   1.391
 7040SOL     OW22018   5.246   2.817   5.135
 7040SOL    HW122019   5.217   2.913   5.127
 7040SOL    HW222020   5.319   2.810   5.203
 7041SOL     OW22021   1.028   0.202   3.986
 7041SOL    HW122022   1.090   0.171   3.914
 7041SOL    HW222023   0.967   0.272   3.950
 7042SOL     OW22024   5.689   5.951   4.918
 7042SOL    HW122025   5.734   5.866   4.945
 7042SOL    HW222026   5.754   6.026   4.920
 7043SOL     OW22027   1.881   5.963   0.791
 7043SOL    HW122028   1.804   5.915   0.750
 7043SOL    HW222029   1.872   5.960   0.891
 7044SOL     OW22030   4.413   6.268   5.170
 7044SOL    HW122031   4.367   6.180   5.166
 7044SOL    HW222032   4.346   6.342   5.157
 7045SOL     OW22033   5.808   6.865   1.537
 7045SOL    HW122034   5.889   6.812   1.562
 7045SOL    HW222035   5.742   6.805   1.490
 7046SOL     OW22036   2.687   1.316   2.721
 7046SOL    HW122037   2.742   1.281   2.646
 7046SOL    HW222038   2.724   1.404   2.752
 7047SOL     OW22039   1.584   6.857   1.101
 7047SOL    HW122040   1.636   6.829   1.181
 7047SOL    HW222041   1.556   6.952   1.111
 7048SOL     OW22042   0.363   5.935   3.788
 7048SOL    HW122043   0.311   5.941   3.873
 7048SOL    HW222044   0.322   5.995   3.719
 7049SOL     OW22045   3.413   1.542   4.672
 7049SOL    HW122046   3.379   1.449   4.686
 7049SOL    HW222047   3.339   1.600   4.638
 7050SOL     OW22048   4.040   4.275   1.145
 7050SOL    HW122049   4.043   4.233   1.053
 7050SOL    HW222050   3.976   4.351   1.145
 7051SOL     OW22051   1.719   1.277   2.168
 7051SOL    HW122052   1.619   1.282   2.163
 7051SOL    HW222053   1.753   1.214   2.098
 7052SOL     OW22054   5.409   2.787   3.125
 7052SOL    HW122055   5.357   2.704   3.108
 7052SOL    HW222056   5.417   2.839   3.040
 7053SOL     OW22057   1.281   4.902   3.567
 7053SOL    HW122058   1.347   4.951   3.625
 7053SOL    HW222059   1.319   4.814   3.540
 7054SOL     OW22060   5.267   0.055   0.189
 7054SOL    HW122061   5.366   0.043   0.196
 7054SOL    HW222062   5.222   6.989   0.201
 7055SOL     OW22063   2.146   0.390   0.251
 7055SOL    HW122064   2.049   0.392   0.229
 7055SOL    HW222065   2.158   0.368   0.348
 7056SOL     OW22066   6.740   5.250   0.709
 7056SOL    HW122067   6.821   5.273   0.762
 7056SOL    HW222068   6.681   5.189   0.763
 7057SOL     OW22069   2.939   5.575   4.768
 7057SOL    HW122070   2.998   5.533   4.837
 7057SOL    HW222071   2.921   5.510   4.695
 7058SOL     OW22072   6.223   2.257   6.332
 7058SOL    HW122073   6.171   2.298   6.407
 7058SOL    HW222074   6.218   2.316   6.251
 7059SOL     OW22075   1.919   0.914   5.040
 7059SOL    HW122076   1.943   0.850   4.968
 7059SOL    HW222077   1.927   0.869   5.129
 7060SOL     OW22078   3.029   2.282   1.671
 7060SOL    HW122079   3.123   2.316   1.678
 7060SOL    HW222080   2.969   2.335   1.731
 7061SOL     OW22081   2.066   0.669   1.427
 7061SOL    HW122082   2.052   0.601   1.499
 7061SOL    HW222083   2.068   0.623   1.338
 7062SOL     OW22084   3.997   0.946   4.880
 7062SOL    HW122085   3.983   0.861   4.931
 7062SOL    HW222086   4.093   0.974   4.888
 7063SOL     OW22087   0.190   0.999   1.730
 7063SOL    HW122088   0.156   1.062   1.660
 7063SOL    HW222089   0.290   0.993   1.724
 7064SOL     OW22090   3.121   1.505   5.158
 7064SOL    HW122091   3.181   1.461   5.225
 7064SOL    HW222092   3.094   1.438   5.089
 7065SOL     OW22093   3.528   6.596   4.278
 7065SOL    HW122094   3.557   6.628   4.368
 7065SOL    HW222095   3.487   6.671   4.227
 7066SOL     OW22096   3.797   0.892   1.248
 7066SOL    HW122097   3.800   0.861   1.343
 7066SOL    HW222098   3.890   0.909   1.215
 7067SOL     OW22099   2.307   4.517   6.735
 7067SOL    HW122100   2.316   4.521   6.834
 7067SOL    HW222101   2.272   4.604   6.701
 7068SOL     OW22102   5.063   4.571   3.823
 7068SOL    HW122103   5.028   4.656   3.862
 7068SOL    HW222104   5.058   4.499   3.893
 7069SOL     OW22105   4.421   0.541   5.055
 7069SOL    HW122106   4.514   0.536   5.019
 7069SOL    HW222107   4.388   0.449   5.076
 7070SOL     OW22108   6.995   0.877   5.966
 7070SOL    HW122109   6.944   0.962   5.960
 7070SOL    HW222110   6.942   0.803   5.923
 7071SOL     OW22111   4.224   5.454   6.516
 7071SOL    HW122112   4.200   5.425   6.609
 7071SOL    HW222113   4.231   5.554   6.514
 7072SOL     OW22114   0.704   3.973   6.269
 7072SOL    HW122115   0.647   4.055   6.257
 7072SOL    HW222116   0.755   3.956   6.185
 7073SOL     OW22117   4.318   0.770   3.600
 7073SOL    HW122118   4.368   0.696   3.645
 7073SOL    HW222119   4.225   0.740   3.580
 7074SOL     OW22120   6.348   3.605   1.873
 7074SOL    HW122121   6.290   3.525   1.856
 7074SOL    HW222122   6.333   3.673   1.802
 7075SOL     OW22123   2.337   5.575   2.125
 7075SOL    HW122124   2.305   5.512   2.196
 7075SOL    HW222125   2.263   5.639   2.103
 7076SOL     OW22126   5.652   2.315   1.105
 7076SOL    HW122127   5.657   2.409   1.140
 7076SOL    HW222128   5.685   2.313   1.010
 7077SOL     OW22129   3.724   6.115   1.584
 7077SOL    HW122130   3.818   6.145   1.598
 7077SOL    HW222131   3.668   6.145   1.661
 7078SOL     OW22132   0.098   1.758   6.437
 7078SOL    HW122133   0.169   1.728   6.500
 7078SOL    HW222134   0.087   1.690   6.364
 7079SOL     OW22135   2.384   5.488   5.142
 7079SOL    HW122136   2.340   5.504   5.230
 7079SOL    HW222137   2.321   5.436   5.083
 7080SOL     OW22138   4.052   1.647   6.288
 7080SOL    HW122139   3.977   1.706   6.257
 7080SOL    HW222140   4.134   1.667   6.233
 7081SOL     OW22141   2.347   6.275   0.381
 7081SOL    HW122142   2.314   6.303   0.290
 7081SOL    HW222143   2.286   6.311   0.451
 7082SOL     OW22144   1.043   4.562   2.139
 7082SOL    HW122145   1.032   4.464   2.123
 7082SOL    HW222146   1.029   4.612   2.054
 7083SOL     OW22147   5.436   3.272   2.439
 7083SOL    HW122148   5.385   3.277   2.525
 7083SOL    HW222149   5.469   3.178   2.426
 7084SOL     OW22150   1.037   5.147   0.452
 7084SOL    HW122151   0.971   5.075   0.471
 7084SOL    HW222152   0.989   5.228   0.418
 7085SOL     OW22153   0.554   4.116   2.565
 7085SOL    HW122154   0.647   4.148   2.550
 7085SOL    HW222155   0.556   4.019   2.590
 7086SOL     OW22156   4.565   0.815   3.432
 7086SOL    HW122157   4.601   0.731   3.393
 7086SOL    HW222158   4.477   0.798   3.475
 7087SOL     OW22159   5.158   2.928   3.738
 7087SOL    HW122160   5.224   2.967   3.674
 7087SOL    HW222161   5.170   2.829   3.744
 7088SOL     OW22162   6.141   2.744   4.987
 7088SOL    HW122163   6.073   2.697   5.043
 7088SOL    HW222164   6.224   2.759   5.042
 7089SOL     OW22165   3.369   6.008   1.081
 7089SOL    HW122166   3.356   5.986   0.984
 7089SOL    HW222167   3.291   5.973   1.134
 7090SOL     OW22168   4.685   3.267   1.046
 7090SOL    HW122169   4.729   3.331   1.109
 7090SOL    HW222170   4.622   3.208   1.098
 7091SOL     OW22171   6.425   0.469   6.441
 7091SOL    HW122172   6.469   0.547   6.398
 7091SOL    HW222173   6.493   0.399   6.463
 7092SOL     OW22174   4.035   0.066   5.849
 7092SOL    HW122175   4.053   0.164   5.846
 7092SOL    HW222176   3.953   0.048   5.903
 7093SOL     OW22177   3.906   3.069   0.718
 7093SOL    HW122178   4.000   3.066   0.682
 7093SOL    HW222179   3.897   3.004   0.793
 7094SOL     OW22180   4.389   0.923   4.803
 7094SOL    HW122181   4.328   0.991   4.763
 7094SOL    HW222182   4.359   0.902   4.896
 7095SOL     OW22183   2.569   4.517   3.963
 7095SOL    HW122184   2.663   4.493   3.987
 7095SOL    HW222185   2.558   4.616   3.967
 7096SOL     OW22186   6.811   5.619   0.209
 7096SOL    HW122187   6.842   5.682   0.137
 7096SOL    HW222188   6.779   5.672   0.288
 7097SOL     OW22189   4.267   1.968   2.840
 7097SOL    HW122190   4.288   1.919   2.755
 7097SOL    HW222191   4.341   2.032   2.860
 7098SOL     OW22192   0.883   1.322   2.538
 7098SOL    HW122193   0.824   1.394   2.501
 7098SOL    HW222194   0.833   1.235   2.539
 7099SOL     OW22195   3.502   2.068   4.418
 7099SOL    HW122196   3.575   2.121   4.461
 7099SOL    HW222197   3.537   1.980   4.386
 7100SOL     OW22198   0.350   4.355   1.692
 7100SOL    HW122199   0.348   4.273   1.748
 7100SOL    HW222200   0.344   4.436   1.751
 7101SOL     OW22201   2.329   5.232   3.992
 7101SOL    HW122202   2.262   5.262   4.061
 7101SOL    HW222203   2.358   5.139   4.013
 7102SOL     OW22204   5.195   1.634   2.862
 7102SOL    HW122205   5.098   1.621   2.843
 7102SOL    HW222206   5.248   1.607   2.781
 7103SOL     OW22207   6.049   3.990   3.917
 7103SOL    HW122208   5.979   3.923   3.942
 7103SOL    HW222209   6.036   4.074   3.971
 7104SOL     OW22210   5.201   2.573   4.522
 7104SOL    HW122211   5.157   2.634   4.588
 7104SOL    HW222212   5.148   2.573   4.437
 7105SOL     OW22213   3.149   3.998   2.272
 7105SOL    HW122214   3.214   4.068   2.302
 7105SOL    HW222215   3.061   4.013   2.316
 7106SOL     OW22216   2.808   2.240   2.459
 7106SOL    HW122217   2.827   2.249   2.362
 7106SOL    HW222218   2.811   2.144   2.485
 7107SOL     OW22219   4.140   0.762   0.349
 7107SOL    HW122220   4.220   0.810   0.383
 7107SOL    HW222221   4.091   0.720   0.425
 7108SOL     OW22222   3.457   6.771   1.906
 7108SOL    HW122223   3.430   6.867   1.906
 7108SOL    HW222224   3.527   6.755   1.836
 7109SOL     OW22225   2.955   4.590   5.732
 7109SOL    HW122226   2.988   4.501   5.698
 7109SOL    HW222227   2.943   4.652   5.655
 7110SOL     OW22228   2.521   5.774   5.615
 7110SOL    HW122229   2.434   5.741   5.650
 7110SOL    HW222230   2.547   5.721   5.534
 7111SOL     OW22231   6.820   0.974   4.968
 7111SOL    HW122232   6.817   0.896   5.031
 7111SOL    HW222233   6.779   1.054   5.011
 7112SOL     OW22234   6.460   4.894   5.497
 7112SOL    HW122235   6.535   4.843   5.456
 7112SOL    HW222236   6.426   4.844   5.577
 7113SOL     OW22237   3.382   0.310   5.059
 7113SOL    HW122238   3.458   0.339   5.118
 7113SOL    HW222239   3.374   0.372   4.982
 7114SOL     OW22240   5.237   4.144   0.446
 7114SOL    HW122241   5.263   4.176   0.355
 7114SOL    HW222242   5.145   4.104   0.442
 7115SOL     OW22243   4.894   2.605   5.677
 7115SOL    HW122244   4.828   2.666   5.633
 7115SOL    HW222245   4.968   2.659   5.716
 7116SOL     OW22246   6.367   5.412   4.832
 7116SOL    HW122247   6.414   5.352   4.768
 7116SOL    HW222248   6.418   5.497   4.843
 7117SOL     OW22249   4.299   0.318   3.092
 7117SOL    HW122250   4.320   0.340   3.188
 7117SOL    HW222251   4.360   0.369   3.032
 7118SOL     OW22252   4.670   4.113   5.782
 7118SOL    HW122253   4.768   4.119   5.766
 7118SOL    HW222254   4.643   4.182   5.849
 7119SOL     OW22255   2.833   6.611   4.480
 7119SOL    HW122256   2.847   6.581   4.385
 7119SOL    HW222257   2.779   6.695   4.480
 7120SOL     OW22258   4.547   1.451   1.885
 7120SOL    HW122259   4.498   1.401   1.957
 7120SOL    HW222260   4.482   1.507   1.833
 7121SOL     OW22261   1.164   6.116   2.049
 7121SOL    HW122262   1.213   6.130   2.135
 7121SOL    HW222263   1.067   6.140   2.061
 7122SOL     OW22264   3.163   1.905   6.276
 7122SOL    HW122265   3.161   2.003   6.295
 7122SOL    HW222266   3.107   1.885   6.196
 7123SOL     OW22267   4.971   4.470   6.689
 7123SOL    HW122268   4.895   4.517   6.643
 7123SOL    HW222269   4.947   4.374   6.704
 7124SOL     OW22270   2.760   2.730   6.619
 7124SOL    HW122271   2.684   2.764   6.563
 7124SOL    HW222272   2.728   2.715   6.712
 7125SOL     OW22273   1.022   6.473   1.726
 7125SOL    HW122274   0.976   6.418   1.657
 7125SOL    HW222275   1.112   6.501   1.691
 7126SOL     OW22276   4.147   5.170   1.028
 7126SOL    HW122277   4.110   5.096   1.086
 7126SOL    HW222278   4.188   5.131   0.946
 7127SOL     OW22279   3.237   6.865   5.386
 7127SOL    HW122280   3.277   6.877   5.295
 7127SOL    HW222281   3.194   6.950   5.415
 7128SOL     OW22282   3.184   4.635   0.223
 7128SOL    HW122283   3.107   4.590   0.267
 7128SOL    HW222284   3.269   4.607   0.268
 7129SOL     OW22285   6.691   0.989   0.206
 7129SOL    HW122286   6.744   0.977   0.290
 7129SOL    HW222287   6.747   1.035   0.138
 7130SOL     OW22288   3.328   0.416   4.117
 7130SOL    HW122289   3.393   0.441   4.189
 7130SOL    HW222290   3.241   0.388   4.158
 7131SOL     OW22291   2.226   1.597   2.841
 7131SOL    HW122292   2.149   1.614   2.903
 7131SOL    HW222293   2.207   1.516   2.786
 7132SOL     OW22294   5.514   4.436   1.798
 7132SOL    HW122295   5.457   4.518   1.802
 7132SOL    HW222296   5.521   4.396   1.889
 7133SOL     OW22297   3.527   5.962   2.241
 7133SOL    HW122298   3.496   6.028   2.310
 7133SOL    HW222299   3.554   5.877   2.286
 7134SOL     OW22300   4.850   4.808   0.185
 7134SOL    HW122301   4.866   4.717   0.147
 7134SOL    HW222302   4.928   4.867   0.164
 7135SOL     OW22303   2.248   4.379   1.419
 7135SOL    HW122304   2.280   4.467   1.455
 7135SOL    HW222305   2.251   4.310   1.491
 7136SOL     OW22306   1.151   2.988   2.325
 7136SOL    HW122307   1.235   3.016   2.278
 7136SOL    HW222308   1.141   2.889   2.318
 7137SOL     OW22309   2.193   0.424   2.068
 7137SOL    HW122310   2.257   0.500   2.073
 7137SOL    HW222311   2.153   0.409   2.159
 7138SOL     OW22312   6.531   3.363   6.705
 7138SOL    HW122313   6.506   3.330   6.614
 7138SOL    HW222314   6.605   3.430   6.697
 7139SOL     OW22315   6.033   5.712   1.208
 7139SOL    HW122316   5.988   5.625   1.190
 7139SOL    HW222317   5.968   5.776   1.248
 7140SOL     OW22318   0.209   5.256   0.607
 7140SOL    HW122319   0.230   5.161   0.583
 7140SOL    HW222320   0.238   5.273   0.702
 7141SOL     OW22321   3.157   1.507   0.920
 7141SOL    HW122322   3.194   1.414   0.924
 7141SOL    HW222323   3.112   1.522   0.832
 7142SOL     OW22324   4.603   6.676   5.653
 7142SOL    HW122325   4.626   6.715   5.742
 7142SOL    HW222326   4.577   6.580   5.664
 7143SOL     OW22327   3.468   3.047   5.646
 7143SOL    HW122328   3.439   3.041   5.550
 7143SOL    HW222329   3.498   2.957   5.677
 7144SOL     OW22330   6.242   1.224   5.665
 7144SOL    HW122331   6.319   1.162   5.651
 7144SOL    HW222332   6.168   1.201   5.602
 7145SOL     OW22333   6.988   2.765   5.888
 7145SOL    HW122334   6.918   2.729   5.827
 7145SOL    HW222335   0.038   2.810   5.835
 7146SOL     OW22336   0.208   1.638   4.493
 7146SOL    HW122337   0.249   1.692   4.566
 7146SOL    HW222338   0.113   1.615   4.518
 7147SOL     OW22339   6.955   6.777   0.929
 7147SOL    HW122340   0.017   6.790   0.981
 7147SOL    HW222341   6.917   6.866   0.904
 7148SOL     OW22342   5.429   6.424   0.622
 7148SOL    HW122343   5.341   6.405   0.666
 7148SOL    HW222344   5.456   6.346   0.565
 7149SOL     OW22345   5.780   4.441   6.200
 7149SOL    HW122346   5.871   4.461   6.235
 7149SOL    HW222347   5.728   4.527   6.191
 7150SOL     OW22348   2.889   2.110   0.020
 7150SOL    HW122349   2.891   2.036   0.086
 7150SOL    HW222350   2.983   2.141   0.002
 7151SOL     OW22351   5.599   1.918   0.187
 7151SOL    HW122352   5.518   1.974   0.168
 7151SOL    HW222353   5.677   1.953   0.135
 7152SOL     OW22354   5.150   0.252   5.501
 7152SOL    HW122355   5.162   0.223   5.406
 7152SOL    HW222356   5.228   0.221   5.556
 7153SOL     OW22357   4.742   5.540   1.033
 7153SOL    HW122358   4.682   5.581   1.102
 7153SOL    HW222359   4.707   5.562   0.942
 7154SOL     OW22360   4.882   0.511   1.651
 7154SOL    HW122361   4.857   0.564   1.732
 7154SOL    HW222362   4.975   0.477   1.660
 7155SOL     OW22363   2.193   7.022   1.145
 7155SOL    HW122364   2.226   7.001   1.054
 7155SOL    HW222365   2.271   0.013   1.207
 7156SOL     OW22366   6.396   3.425   4.846
 7156SOL    HW122367   6.362   3.513   4.812
 7156SOL    HW222368   6.471   3.394   4.787
 7157SOL     OW22369   0.011   3.717   5.171
 7157SOL    HW122370   7.010   3.763   5.085
 7157SOL    HW222371   7.001   3.622   5.166
 7158SOL     OW22372   4.988   0.196   3.805
 7158SOL    HW122373   4.998   0.228   3.900
 7158SOL    HW222374   4.894   0.212   3.775
 7159SOL     OW22375   0.248   6.507   3.006
 7159SOL    HW122376   0.244   6.594   3.054
 7159SOL    HW222377   0.339   6.467   3.016
 7160SOL     OW22378   5.716   6.689   2.702
 7160SOL    HW122379   5.675   6.603   2.731
 7160SOL    HW222380   5.727   6.690   2.602
 7161SOL     OW22381   3.722   3.490   2.197
 7161SOL    HW122382   3.635   3.445   2.175
 7161SOL    HW222383   3.702   3.575   2.246
 7162SOL     OW22384   0.540   6.306   0.486
 7162SOL    HW122385   0.465   6.249   0.518
 7162SOL    HW222386   0.627   6.271   0.521
 7163SOL     OW22387   0.102   6.974   7.006
 7163SOL    HW122388   0.180   6.974   0.046
 7163SOL    HW222389   0.036   0.022   0.011
 7164SOL     OW22390   1.992   0.012   0.311
 7164SOL    HW122391   1.969   0.107   0.289
 7164SOL    HW222392   1.909   6.981   0.320
 7165SOL     OW22393   4.367   2.162   6.471
 7165SOL    HW122394   4.364   2.133   6.567
 7165SOL    HW222395   4.459   2.194   6.449
 7166SOL     OW22396   6.372   5.935   5.086
 7166SOL    HW122397   6.377   5.836   5.100
 7166SOL    HW222398   6.437   5.980   5.148
 7167SOL     OW22399   0.400   3.163   5.593
 7167SOL    HW122400   0.493   3.138   5.567
 7167SOL    HW222401   0.402   3.246   5.648
 7168SOL     OW22402   1.368   0.544   2.583
 7168SOL    HW122403   1.369   0.519   2.680
 7168SOL    HW222404   1.280   0.585   2.560
 7169SOL     OW22405   1.909   4.524   5.973
 7169SOL    HW122406   1.899   4.448   6.037
 7169SOL    HW222407   1.827   4.531   5.917
 7170SOL     OW22408   3.701   2.094   1.056
 7170SOL    HW122409   3.762   2.153   1.004
 7170SOL    HW222410   3.753   2.047   1.128
 7171SOL     OW22411   0.189   4.934   1.076
 7171SOL    HW122412   0.273   4.974   1.040
 7171SOL    HW222413   0.211   4.873   1.152
 7172SOL     OW22414   1.099   2.779   3.383
 7172SOL    HW122415   1.088   2.839   3.462
 7172SOL    HW222416   1.036   2.702   3.390
 7173SOL     OW22417   3.430   5.509   4.922
 7173SOL    HW122418   3.489   5.590   4.912
 7173SOL    HW222419   3.350   5.532   4.976
 7174SOL     OW22420   6.710   3.733   2.022
 7174SOL    HW122421   6.613   3.728   1.998
 7174SOL    HW222422   6.750   3.641   2.019
 7175SOL     OW22423   6.650   3.185   5.823
 7175SOL    HW122424   6.728   3.187   5.885
 7175SOL    HW222425   6.569   3.220   5.870
 7176SOL     OW22426   6.885   1.451   6.740
 7176SOL    HW122427   6.895   1.466   6.838
 7176SOL    HW222428   6.881   1.540   6.693
 7177SOL     OW22429   1.223   5.852   2.914
 7177SOL    HW122430   1.163   5.773   2.926
 7177SOL    HW222431   1.239   5.868   2.817
 7178SOL     OW22432   1.231   6.521   5.783
 7178SOL    HW122433   1.240   6.522   5.684
 7178SOL    HW222434   1.164   6.452   5.810
 7179SOL     OW22435   4.773   4.493   5.822
 7179SOL    HW122436   4.811   4.493   5.729
 7179SOL    HW222437   4.737   4.584   5.843
 7180SOL     OW22438   0.332   2.541   1.769
 7180SOL    HW122439   0.400   2.490   1.716
 7180SOL    HW222440   0.354   2.535   1.866
 7181SOL     OW22441   3.168   0.328   0.237
 7181SOL    HW122442   3.193   0.335   0.333
 7181SOL    HW222443   3.198   0.410   0.188
 7182SOL     OW22444   2.167   0.952   3.082
 7182SOL    HW122445   2.147   1.045   3.054
 7182SOL    HW222446   2.209   0.953   3.173
 7183SOL     OW22447   1.632   0.036   1.476
 7183SOL    HW122448   1.666   0.029   1.570
 7183SOL    HW222449   1.701   7.022   1.413
 7184SOL     OW22450   0.485   1.000   3.377
 7184SOL    HW122451   0.528   0.958   3.457
 7184SOL    HW222452   0.407   0.945   3.349
 7185SOL     OW22453   4.096   0.653   3.512
 7185SOL    HW122454   4.043   0.708   3.448
 7185SOL    HW222455   4.045   0.570   3.535
 7186SOL     OW22456   6.739   1.225   6.642
 7186SOL    HW122457   6.639   1.225   6.639
 7186SOL    HW222458   6.771   1.316   6.670
 7187SOL     OW22459   3.641   3.477   3.955
 7187SOL    HW122460   3.631   3.518   4.046
 7187SOL    HW222461   3.606   3.539   3.886
 7188SOL     OW22462   5.095   4.615   0.097
 7188SOL    HW122463   5.160   4.549   0.057
 7188SOL    HW222464   5.026   4.566   0.149
 7189SOL     OW22465   0.184   2.181   5.958
 7189SOL    HW122466   0.145   2.232   5.882
 7189SOL    HW222467   0.142   2.212   6.043
 7190SOL     OW22468   5.986   5.921   0.337
 7190SOL    HW122469   5.949   5.869   0.414
 7190SOL    HW222470   6.013   6.013   0.368
 7191SOL     OW22471   6.956   5.126   3.039
 7191SOL    HW122472   0.008   5.067   3.009
 7191SOL    HW222473   6.988   5.220   3.048
 7192SOL     OW22474   3.084   4.120   5.516
 7192SOL    HW122475   3.135   4.061   5.578
 7192SOL    HW222476   2.986   4.106   5.530
 7193SOL     OW22477   3.524   1.401   3.958
 7193SOL    HW122478   3.606   1.440   3.999
 7193SOL    HW222479   3.536   1.393   3.859
 7194SOL     OW22480   3.575   2.563   5.414
 7194SOL    HW122481   3.672   2.542   5.409
 7194SOL    HW222482   3.554   2.600   5.504
 7195SOL     OW22483   0.699   4.079   5.793
 7195SOL    HW122484   0.744   4.166   5.812
 7195SOL    HW222485   0.766   4.005   5.792
 7196SOL     OW22486   3.166   3.838   1.778
 7196SOL    HW122487   3.159   3.877   1.686
 7196SOL    HW222488   3.203   3.906   1.840
 7197SOL     OW22489   3.422   4.727   6.556
 7197SOL    HW122490   3.428   4.825   6.577
 7197SOL    HW222491   3.513   4.694   6.531
 7198SOL     OW22492   1.234   0.431   2.014
 7198SOL    HW122493   1.254   0.334   2.024
 7198SOL    HW222494   1.217   0.471   2.104
 7199SOL     OW22495   5.796   0.812   3.222
 7199SOL    HW122496   5.832   0.876   3.154
 7199SOL    HW222497   5.869   0.787   3.286
 7200SOL     OW22498   0.916   3.517   6.710
 7200SOL    HW122499   0.819   3.495   6.700
 7200SOL    HW222500   0.930   3.566   6.795
 7201SOL     OW22501   5.559   6.196   4.258
 7201SOL    HW122502   5.527   6.286   4.289
 7201SOL    HW222503   5.544   6.129   4.330
 7202SOL     OW22504   4.700   0.792   6.079
 7202SOL    HW122505   4.676   0.858   6.008
 7202SOL    HW222506   4.795   0.764   6.068
 7203SOL     OW22507   0.723   1.792   1.134
 7203SOL    HW122508   0.783   1.814   1.057
 7203SOL    HW222509   0.778   1.753   1.208
 7204SOL     OW22510   6.213   0.644   3.225
 7204SOL    HW122511   6.292   0.676   3.173
 7204SOL    HW222512   6.134   0.639   3.164
 7205SOL     OW22513   3.165   1.318   4.223
 7205SOL    HW122514   3.250   1.269   4.202
 7205SOL    HW222515   3.180   1.416   4.219
 7206SOL     OW22516   2.100   3.245   6.520
 7206SOL    HW122517   2.087   3.298   6.603
 7206SOL    HW222518   2.075   3.149   6.537
 7207SOL     OW22519   1.490   1.706   2.968
 7207SOL    HW122520   1.460   1.727   3.061
 7207SOL    HW222521   1.455   1.616   2.941
 7208SOL     OW22522   3.342   6.943   3.320
 7208SOL    HW122523   3.385   6.853   3.315
 7208SOL    HW222524   3.357   6.992   3.234
 7209SOL     OW22525   3.815   0.474   2.462
 7209SOL    HW122526   3.878   0.493   2.387
 7209SOL    HW222527   3.861   0.418   2.531
 7210SOL     OW22528   3.600   1.336   4.340
 7210SOL    HW122529   3.587   1.436   4.340
 7210SOL    HW222530   3.631   1.306   4.430
 7211SOL     OW22531   4.081   6.184   5.866
 7211SOL    HW122532   4.076   6.112   5.796
 7211SOL    HW222533   4.075   6.273   5.822
 7212SOL     OW22534   0.593   5.759   5.241
 7212SOL    HW122535   0.628   5.851   5.257
 7212SOL    HW222536   0.666   5.692   5.259
 7213SOL     OW22537   4.475   2.634   0.486
 7213SOL    HW122538   4.449   2.538   0.502
 7213SOL    HW222539   4.464   2.655   0.389
 7214SOL     OW22540   6.573   1.212   5.916
 7214SOL    HW122541   6.614   1.222   6.006
 7214SOL    HW222542   6.623   1.142   5.864
 7215SOL     OW22543   6.074   1.760   2.723
 7215SOL    HW122544   6.115   1.834   2.775
 7215SOL    HW222545   6.022   1.700   2.784
 7216SOL     OW22546   5.448   6.694   3.738
 7216SOL    HW122547   5.469   6.775   3.793
 7216SOL    HW222548   5.470   6.612   3.790
 7217SOL     OW22549   1.106   3.411   3.360
 7217SOL    HW122550   1.120   3.353   3.279
 7217SOL    HW222551   1.175   3.484   3.361
 7218SOL     OW22552   6.627   2.326   5.262
 7218SOL    HW122553   6.577   2.323   5.349
 7218SOL    HW222554   6.702   2.260   5.265
 7219SOL     OW22555   2.915   6.296   1.947
 7219SOL    HW122556   2.819   6.300   1.975
 7219SOL    HW222557   2.972   6.279   2.027
 7220SOL     OW22558   6.688   3.831   3.569
 7220SOL    HW122559   6.783   3.860   3.558
 7220SOL    HW222560   6.655   3.791   3.483
 7221SOL     OW22561   4.216   4.847   3.686
 7221SOL    HW122562   4.289   4.791   3.725
 7221SOL    HW222563   4.182   4.804   3.603
 7222SOL     OW22564   6.882   6.274   4.392
 7222SOL    HW122565   6.831   6.313   4.468
 7222SOL    HW222566   6.890   6.342   4.319
 7223SOL     OW22567   6.607   5.957   1.845
 7223SOL    HW122568   6.674   5.898   1.800
 7223SOL    HW222569   6.615   5.947   1.944
 7224SOL     OW22570   4.910   2.553   2.748
 7224SOL    HW122571   4.953   2.612   2.817
 7224SOL    HW222572   4.875   2.610   2.674
 7225SOL     OW22573   0.705   5.523   0.134
 7225SOL    HW122574   0.640   5.562   0.069
 7225SOL    HW222575   0.656   5.492   0.216
 7226SOL     OW22576   6.043   6.425   6.863
 7226SOL    HW122577   6.085   6.505   6.907
 7226SOL    HW222578   6.060   6.429   6.765
 7227SOL     OW22579   1.974   0.848   2.273
 7227SOL    HW122580   2.066   0.887   2.273
 7227SOL    HW222581   1.906   0.921   2.276
 7228SOL     OW22582   5.830   3.403   2.738
 7228SOL    HW122583   5.795   3.390   2.645
 7228SOL    HW222584   5.762   3.372   2.804
 7229SOL     OW22585   6.091   6.956   5.093
 7229SOL    HW122586   6.105   0.019   5.143
 7229SOL    HW222587   6.158   6.949   5.020
 7230SOL     OW22588   2.048   4.856   4.915
 7230SOL    HW122589   2.099   4.942   4.910
 7230SOL    HW222590   2.024   4.838   5.011
 7231SOL     OW22591   3.894   3.709   6.003
 7231SOL    HW122592   3.919   3.806   6.009
 7231SOL    HW222593   3.895   3.669   6.094
 7232SOL     OW22594   4.149   6.297   3.466
 7232SOL    HW122595   4.053   6.278   3.487
 7232SOL    HW222596   4.206   6.222   3.502
 7233SOL     OW22597   0.298   1.504   6.231
 7233SOL    HW122598   0.199   1.518   6.236
 7233SOL    HW222599   0.318   1.409   6.207
 7234SOL     OW22600   5.412   5.035   3.211
 7234SOL    HW122601   5.405   5.056   3.113
 7234SOL    HW222602   5.321   5.024   3.250
 7235SOL     OW22603   6.327   0.673   2.078
 7235SOL    HW122604   6.387   0.594   2.068
 7235SOL    HW222605   6.243   0.646   2.125
 7236SOL     OW22606   0.865   3.839   3.086
 7236SOL    HW122607   0.831   3.785   3.009
 7236SOL    HW222608   0.898   3.777   3.157
 7237SOL     OW22609   5.442   1.571   0.020
 7237SOL    HW122610   5.468   1.561   0.116
 7237SOL    HW222611   5.495   1.508   6.986
 7238SOL     OW22612   4.110   3.573   0.039
 7238SOL    HW122613   4.166   3.619   6.992
 7238SOL    HW222614   4.022   3.546   7.021
 7239SOL     OW22615   5.436   2.589   1.864
 7239SOL    HW122616   5.401   2.677   1.832
 7239SOL    HW222617   5.526   2.572   1.823
 7240SOL     OW22618   0.288   1.574   0.167
 7240SOL    HW122619   0.243   1.531   0.089
 7240SOL    HW222620   0.347   1.507   0.212
 7241SOL     OW22621   1.608   0.069   2.605
 7241SOL    HW122622   1.634   0.089   2.510
 7241SOL    HW222623   1.616   6.993   2.622
 7242SOL     OW22624   6.445   4.401   5.213
 7242SOL    HW122625   6.469   4.498   5.213
 7242SOL    HW222626   6.506   4.351   5.275
 7243SOL     OW22627   5.550   4.626   6.163
 7243SOL    HW122628   5.585   4.678   6.085
 7243SOL    HW222629   5.495   4.549   6.129
 7244SOL     OW22630   6.627   5.676   6.735
 7244SOL    HW122631   6.631   5.581   6.764
 7244SOL    HW222632   6.649   5.683   6.638
 7245SOL     OW22633   1.671   2.423   6.809
 7245SOL    HW122634   1.713   2.387   6.892
 7245SOL    HW222635   1.573   2.435   6.823
 7246SOL     OW22636   4.021   0.127   3.638
 7246SOL    HW122637   4.016   0.168   3.547
 7246SOL    HW222638   4.062   0.036   3.632
 7247SOL     OW22639   3.207   3.771   4.449
 7247SOL    HW122640   3.231   3.853   4.398
 7247SOL    HW222641   3.269   3.696   4.423
 7248SOL     OW22642   2.851   2.005   5.507
 7248SOL    HW122643   2.917   2.066   5.552
 7248SOL    HW222644   2.852   1.916   5.551
 7249SOL     OW22645   3.125   5.730   2.903
 7249SOL    HW122646   3.039   5.696   2.865
 7249SOL    HW222647   3.106   5.781   2.986
 7250SOL     OW22648   5.316   5.564   5.549
 7250SOL    HW122649   5.350   5.529   5.637
 7250SOL    HW222650   5.297   5.488   5.488
 7251SOL     OW22651   0.894   5.724   4.130
 7251SOL    HW122652   0.831   5.702   4.205
 7251SOL    HW222653   0.946   5.642   4.106
 7252SOL     OW22654   4.136   3.583   2.029
 7252SOL    HW122655   4.185   3.522   1.966
 7252SOL    HW222656   4.140   3.545   2.122
 7253SOL     OW22657   2.064   5.205   4.808
 7253SOL    HW122658   2.079   5.298   4.774
 7253SOL    HW222659   2.054   5.207   4.907
 7254SOL     OW22660   6.742   3.609   3.980
 7254SOL    HW122661   6.734   3.516   3.946
 7254SOL    HW222662   6.728   3.610   4.079
 7255SOL     OW22663   4.551   3.816   6.942
 7255SOL    HW122664   4.580   3.721   6.936
 7255SOL    HW222665   4.535   3.840   0.016
 7256SOL     OW22666   3.270   7.018   4.192
 7256SOL    HW122667   3.323   6.936   4.171
 7256SOL    HW222668   3.228   7.007   4.282
 7257SOL     OW22669   0.736   1.284   5.085
 7257SOL    HW122670   0.639   1.279   5.060
 7257SOL    HW222671   0.754   1.369   5.134
 7258SOL     OW22672   6.425   2.464   1.837
 7258SOL    HW122673   6.520   2.480   1.808
 7258SOL    HW222674   6.390   2.545   1.883
 7259SOL     OW22675   1.254   4.189   2.625
 7259SOL    HW122676   1.241   4.097   2.662
 7259SOL    HW222677   1.238   4.257   2.697
 7260SOL     OW22678   6.121   3.235   1.050
 7260SOL    HW122679   6.060   3.160   1.024
 7260SOL    HW222680   6.213   3.199   1.064
 7261SOL     OW22681   6.975   4.007   6.951
 7261SOL    HW122682   6.878   4.005   6.978
 7261SOL    HW222683   7.019   3.922   6.980
 7262SOL     OW22684   4.623   1.035   4.843
 7262SOL    HW122685   4.607   1.134   4.844
 7262SOL    HW222686   4.536   0.987   4.849
 7263SOL     OW22687   6.173   5.275   5.574
 7263SOL    HW122688   6.255   5.219   5.561
 7263SOL    HW222689   6.109   5.258   5.499
 7264SOL     OW22690   5.567   1.427   1.688
 7264SOL    HW122691   5.540   1.423   1.784
 7264SOL    HW222692   5.517   1.502   1.643
 7265SOL     OW22693   4.016   0.751   5.535
 7265SOL    HW122694   4.065   0.786   5.615
 7265SOL    HW222695   3.954   0.678   5.562
 7266SOL     OW22696   0.061   0.609   3.054
 7266SOL    HW122697   0.092   0.663   2.975
 7266SOL    HW222698   0.083   0.658   3.138
 7267SOL     OW22699   6.704   4.228   4.527
 7267SOL    HW122700   6.779   4.172   4.492
 7267SOL    HW222701   6.742   4.312   4.567
 7268SOL     OW22702   5.728   6.407   4.140
 7268SOL    HW122703   5.714   6.312   4.169
 7268SOL    HW222704   5.817   6.415   4.094
 7269SOL     OW22705   2.656   5.022   4.471
 7269SOL    HW122706   2.676   4.934   4.514
 7269SOL    HW222707   2.571   5.059   4.508
 7270SOL     OW22708   0.644   0.052   4.640
 7270SOL    HW122709   0.593   0.126   4.595
 7270SOL    HW222710   0.738   0.051   4.608
 7271SOL     OW22711   0.771   5.040   3.329
 7271SOL    HW122712   0.805   4.969   3.267
 7271SOL    HW222713   0.682   5.013   3.365
 7272SOL     OW22714   6.093   4.113   1.999
 7272SOL    HW122715   6.186   4.083   2.022
 7272SOL    HW222716   6.085   4.126   1.901
 7273SOL     OW22717   0.690   1.558   5.318
 7273SOL    HW122718   0.699   1.625   5.392
 7273SOL    HW222719   0.781   1.528   5.290
 7274SOL     OW22720   0.195   4.946   5.911
 7274SOL    HW122721   0.213   5.043   5.925
 7274SOL    HW222722   0.219   4.895   5.994
 7275SOL     OW22723   0.877   5.705   3.696
 7275SOL    HW122724   0.838   5.637   3.634
 7275SOL    HW222725   0.811   5.778   3.712
 7276SOL     OW22726   4.587   6.089   3.487
 7276SOL    HW122727   4.610   6.005   3.538
 7276SOL    HW222728   4.636   6.166   3.527
 7277SOL     OW22729   4.971   0.906   0.514
 7277SOL    HW122730   4.876   0.888   0.540
 7277SOL    HW222731   4.978   0.908   0.414
 7278SOL     OW22732   3.637   2.857   2.488
 7278SOL    HW122733   3.716   2.867   2.426
 7278SOL    HW222734   3.554   2.849   2.433
 7279SOL     OW22735   3.553   6.995   6.136
 7279SOL    HW122736   3.523   0.066   6.112
 7279SOL    HW222737   3.501   6.929   6.081
 7280SOL     OW22738   4.916   1.384   6.126
 7280SOL    HW122739   4.857   1.457   6.091
 7280SOL    HW222740   4.875   1.345   6.209
 7281SOL     OW22741   5.955   1.482   6.060
 7281SOL    HW122742   5.904   1.460   5.977
 7281SOL    HW222743   5.892   1.517   6.129
 7282SOL     OW22744   5.594   6.029   2.067
 7282SOL    HW122745   5.685   6.001   2.036
 7282SOL    HW222746   5.603   6.096   2.140
 7283SOL     OW22747   2.480   1.078   4.117
 7283SOL    HW122748   2.459   1.011   4.189
 7283SOL    HW222749   2.579   1.081   4.103
 7284SOL     OW22750   1.223   1.600   5.252
 7284SOL    HW122751   1.250   1.582   5.157
 7284SOL    HW222752   1.262   1.687   5.282
 7285SOL     OW22753   6.095   5.165   1.430
 7285SOL    HW122754   6.094   5.160   1.530
 7285SOL    HW222755   6.013   5.120   1.394
 7286SOL     OW22756   2.293   3.994   0.806
 7286SOL    HW122757   2.281   3.902   0.842
 7286SOL    HW222758   2.212   4.049   0.828
 7287SOL     OW22759   6.035   1.435   5.442
 7287SOL    HW122760   6.002   1.428   5.536
 7287SOL    HW222761   6.048   1.531   5.418
 7288SOL     OW22762   2.688   0.018   0.153
 7288SOL    HW122763   2.630   0.056   0.224
 7288SOL    HW222764   2.783   0.042   0.171
 7289SOL     OW22765   4.903   2.449   4.568
 7289SOL    HW122766   4.828   2.446   4.635
 7289SOL    HW222767   4.900   2.536   4.519
 7290SOL     OW22768   2.746   5.652   4.451
 7290SOL    HW122769   2.783   5.697   4.369
 7290SOL    HW222770   2.787   5.693   4.533
 7291SOL     OW22771   3.551   4.424   1.436
 7291SOL    HW122772   3.530   4.388   1.527
 7291SOL    HW222773   3.582   4.519   1.444
 7292SOL     OW22774   3.208   0.137   4.903
 7292SOL    HW122775   3.264   0.063   4.866
 7292SOL    HW222776   3.267   0.214   4.928
 7293SOL     OW22777   1.692   1.497   6.642
 7293SOL    HW122778   1.736   1.587   6.638
 7293SOL    HW222779   1.744   1.431   6.588
 7294SOL     OW22780   5.154   5.417   0.285
 7294SOL    HW122781   5.169   5.367   0.200
 7294SOL    HW222782   5.056   5.417   0.307
 7295SOL     OW22783   5.087   0.062   1.222
 7295SOL    HW122784   5.073   0.152   1.181
 7295SOL    HW222785   5.073   0.068   1.321
 7296SOL     OW22786   4.319   5.316   1.571
 7296SOL    HW122787   4.261   5.394   1.596
 7296SOL    HW222788   4.264   5.245   1.528
 7297SOL     OW22789   5.024   6.783   2.266
 7297SOL    HW122790   5.073   6.810   2.183
 7297SOL    HW222791   4.956   6.852   2.288
 7298SOL     OW22792   6.667   3.503   4.234
 7298SOL    HW122793   6.632   3.426   4.180
 7298SOL    HW222794   6.694   3.470   4.324
 7299SOL     OW22795   5.584   3.590   6.632
 7299SOL    HW122796   5.684   3.601   6.636
 7299SOL    HW222797   5.553   3.605   6.538
 7300SOL     OW22798   4.789   5.523   1.515
 7300SOL    HW122799   4.812   5.511   1.419
 7300SOL    HW222800   4.862   5.573   1.561
 7301SOL     OW22801   6.743   1.210   6.174
 7301SOL    HW122802   6.670   1.169   6.229
 7301SOL    HW222803   6.828   1.211   6.226
 7302SOL     OW22804   5.976   0.924   6.484
 7302SOL    HW122805   6.062   0.973   6.473
 7302SOL    HW222806   5.971   0.850   6.416
 7303SOL     OW22807   3.544   0.437   0.709
 7303SOL    HW122808   3.636   0.476   0.698
 7303SOL    HW222809   3.476   0.505   0.682
 7304SOL     OW22810   3.914   3.488   5.227
 7304SOL    HW122811   3.851   3.564   5.208
 7304SOL    HW222812   3.887   3.442   5.311
 7305SOL     OW22813   5.540   1.662   0.270
 7305SOL    HW122814   5.540   1.743   0.212
 7305SOL    HW222815   5.459   1.664   0.329
 7306SOL     OW22816   4.993   5.106   2.446
 7306SOL    HW122817   5.089   5.130   2.461
 7306SOL    HW222818   4.945   5.186   2.411
 7307SOL     OW22819   4.327   6.192   2.332
 7307SOL    HW122820   4.318   6.257   2.257
 7307SOL    HW222821   4.336   6.099   2.294
 7308SOL     OW22822   6.176   0.739   4.101
 7308SOL    HW122823   6.190   0.835   4.124
 7308SOL    HW222824   6.227   0.717   4.018
 7309SOL     OW22825   4.292   5.159   1.969
 7309SOL    HW122826   4.310   5.123   2.061
 7309SOL    HW222827   4.366   5.220   1.942
 7310SOL     OW22828   2.062   5.709   1.857
 7310SOL    HW122829   1.970   5.748   1.859
 7310SOL    HW222830   2.119   5.753   1.927
 7311SOL     OW22831   2.749   1.975   2.494
 7311SOL    HW122832   2.780   1.990   2.400
 7311SOL    HW222833   2.674   1.909   2.494
 7312SOL     OW22834   0.060   2.277   6.224
 7312SOL    HW122835   7.000   2.288   6.169
 7312SOL    HW222836   0.056   2.191   6.275
 7313SOL     OW22837   3.609   2.494   6.214
 7313SOL    HW122838   3.602   2.435   6.134
 7313SOL    HW222839   3.699   2.538   6.216
 7314SOL     OW22840   1.055   2.723   4.421
 7314SOL    HW122841   1.078   2.672   4.504
 7314SOL    HW222842   1.123   2.796   4.408
 7315SOL     OW22843   0.138   0.624   5.733
 7315SOL    HW122844   0.072   0.633   5.658
 7315SOL    HW222845   0.089   0.606   5.818
 7316SOL     OW22846   4.106   3.282   4.794
 7316SOL    HW122847   4.169   3.214   4.829
 7316SOL    HW222848   4.047   3.240   4.725
 7317SOL     OW22849   2.944   1.407   4.044
 7317SOL    HW122850   2.999   1.371   4.119
 7317SOL    HW222851   2.957   1.506   4.037
 7318SOL     OW22852   1.601   1.706   1.332
 7318SOL    HW122853   1.536   1.753   1.392
 7318SOL    HW222854   1.589   1.607   1.340
 7319SOL     OW22855   0.246   3.959   6.121
 7319SOL    HW122856   0.335   3.991   6.088
 7319SOL    HW222857   0.234   3.986   6.217
 7320SOL     OW22858   6.963   2.209   2.521
 7320SOL    HW122859   6.929   2.116   2.535
 7320SOL    HW222860   0.001   2.211   2.442
 7321SOL     OW22861   2.858   1.708   4.286
 7321SOL    HW122862   2.922   1.692   4.210
 7321SOL    HW222863   2.907   1.706   4.373
 7322SOL     OW22864   0.201   3.675   1.789
 7322SOL    HW122865   0.149   3.750   1.830
 7322SOL    HW222866   0.172   3.588   1.829
 7323SOL     OW22867   2.174   4.039   3.344
 7323SOL    HW122868   2.169   4.002   3.251
 7323SOL    HW222869   2.133   3.974   3.408
 7324SOL     OW22870   5.285   5.535   2.907
 7324SOL    HW122871   5.299   5.510   3.003
 7324SOL    HW222872   5.191   5.513   2.880
 7325SOL     OW22873   3.165   6.193   0.627
 7325SOL    HW122874   3.123   6.277   0.659
 7325SOL    HW222875   3.264   6.204   0.622
 7326SOL     OW22876   2.216   0.975   4.734
 7326SOL    HW122877   2.151   1.044   4.703
 7326SOL    HW222878   2.185   0.884   4.706
 7327SOL     OW22879   1.464   2.706   5.405
 7327SOL    HW122880   1.396   2.649   5.450
 7327SOL    HW222881   1.489   2.783   5.464
 7328SOL     OW22882   2.318   0.087   6.528
 7328SOL    HW122883   2.361   0.119   6.443
 7328SOL    HW222884   2.389   0.062   6.594
 7329SOL     OW22885   4.418   3.568   1.500
 7329SOL    HW122886   4.436   3.658   1.459
 7329SOL    HW222887   4.381   3.580   1.592
 7330SOL     OW22888   4.245   2.448   0.852
 7330SOL    HW122889   4.305   2.505   0.908
 7330SOL    HW222890   4.159   2.433   0.901
 7331SOL     OW22891   5.026   1.319   1.974
 7331SOL    HW122892   5.030   1.226   2.012
 7331SOL    HW222893   5.106   1.334   1.916
 7332SOL     OW22894   3.505   5.498   0.843
 7332SOL    HW122895   3.568   5.517   0.919
 7332SOL    HW222896   3.489   5.399   0.838
 7333SOL     OW22897   0.618   4.752   2.585
 7333SOL    HW122898   0.645   4.692   2.660
 7333SOL    HW222899   0.544   4.812   2.615
 7334SOL     OW22900   3.554   6.792   4.566
 7334SOL    HW122901   3.571   6.820   4.660
 7334SOL    HW222902   3.563   6.871   4.506
 7335SOL     OW22903   2.125   3.245   2.718
 7335SOL    HW122904   2.132   3.269   2.621
 7335SOL    HW222905   2.115   3.328   2.772
 7336SOL     OW22906   1.825   6.245   4.155
 7336SOL    HW122907   1.837   6.295   4.241
 7336SOL    HW222908   1.910   6.195   4.134
 7337SOL     OW22909   4.942   2.373   2.002
 7337SOL    HW122910   4.886   2.425   1.939
 7337SOL    HW222911   4.993   2.435   2.062
 7338SOL     OW22912   6.688   3.008   6.882
 7338SOL    HW122913   6.773   3.061   6.879
 7338SOL    HW222914   6.709   2.911   6.867
 7339SOL     OW22915   1.350   5.873   4.863
 7339SOL    HW122916   1.265   5.925   4.852
 7339SOL    HW222917   1.388   5.890   4.955
 7340SOL     OW22918   2.427   6.904   6.705
 7340SOL    HW122919   2.397   6.808   6.711
 7340SOL    HW222920   2.455   6.935   6.796
 7341SOL     OW22921   6.868   1.571   0.830
 7341SOL    HW122922   6.849   1.651   0.773
 7341SOL    HW222923   6.791   1.508   0.825
 7342SOL     OW22924   0.462   6.365   2.177
 7342SOL    HW122925   0.409   6.392   2.257
 7342SOL    HW222926   0.522   6.441   2.151
 7343SOL     OW22927   5.906   2.914   0.791
 7343SOL    HW122928   5.818   2.886   0.829
 7343SOL    HW222929   5.964   2.833   0.780
 7344SOL     OW22930   2.205   6.097   5.745
 7344SOL    HW122931   2.215   6.184   5.696
 7344SOL    HW222932   2.272   6.093   5.819
 7345SOL     OW22933   3.344   5.877   5.844
 7345SOL    HW122934   3.391   5.856   5.758
 7345SOL    HW222935   3.405   5.857   5.921
 7346SOL     OW22936   3.871   5.147   2.075
 7346SOL    HW122937   3.877   5.051   2.102
 7346SOL    HW222938   3.944   5.167   2.009
 7347SOL     OW22939   6.016   1.342   0.248
 7347SOL    HW122940   6.099   1.394   0.265
 7347SOL    HW222941   5.959   1.344   0.330
 7348SOL     OW22942   6.582   4.701   0.172
 7348SOL    HW122943   6.656   4.757   0.136
 7348SOL    HW222944   6.562   4.627   0.109
 7349SOL     OW22945   3.708   1.660   1.621
 7349SOL    HW122946   3.802   1.658   1.586
 7349SOL    HW222947   3.673   1.754   1.616
 7350SOL     OW22948   3.792   0.866   4.425
 7350SOL    HW122949   3.760   0.954   4.388
 7350SOL    HW222950   3.884   0.847   4.392
 7351SOL     OW22951   2.005   4.410   4.338
 7351SOL    HW122952   2.096   4.369   4.328
 7351SOL    HW222953   1.970   4.435   4.247
 7352SOL     OW22954   6.017   3.845   4.316
 7352SOL    HW122955   6.022   3.747   4.335
 7352SOL    HW222956   6.108   3.879   4.293
 7353SOL     OW22957   6.374   0.979   5.440
 7353SOL    HW122958   6.275   0.977   5.426
 7353SOL    HW222959   6.408   0.887   5.455
 7354SOL     OW22960   0.827   1.720   2.662
 7354SOL    HW122961   0.737   1.713   2.704
 7354SOL    HW222962   0.898   1.692   2.727
 7355SOL     OW22963   3.526   1.639   0.518
 7355SOL    HW122964   3.592   1.567   0.541
 7355SOL    HW222965   3.440   1.597   0.488
 7356SOL     OW22966   4.079   3.927   6.217
 7356SOL    HW122967   4.171   3.965   6.227
 7356SOL    HW222968   4.025   3.986   6.157
 7357SOL     OW22969   5.345   6.651   1.939
 7357SOL    HW122970   5.311   6.588   2.009
 7357SOL    HW222971   5.433   6.618   1.904
 7358SOL     OW22972   5.359   0.565   3.637
 7358SOL    HW122973   5.364   0.495   3.565
 7358SOL    HW222974   5.320   0.525   3.720
 7359SOL     OW22975   4.389   6.751   1.920
 7359SOL    HW122976   4.428   6.694   1.992
 7359SOL    HW222977   4.456   6.818   1.890
 7360SOL     OW22978   2.830   3.715   5.156
 7360SOL    HW122979   2.879   3.784   5.210
 7360SOL    HW222980   2.794   3.756   5.073
 7361SOL     OW22981   6.793   0.334   3.186
 7361SOL    HW122982   6.693   0.331   3.188
 7361SOL    HW222983   6.824   0.429   3.191
 7362SOL     OW22984   3.260   5.801   0.224
 7362SOL    HW122985   3.237   5.705   0.209
 7362SOL    HW222986   3.356   5.817   0.199
 7363SOL     OW22987   4.065   0.880   1.216
 7363SOL    HW122988   4.080   0.876   1.315
 7363SOL    HW222989   4.087   0.972   1.183
 7364SOL     OW22990   5.919   6.666   1.703
 7364SOL    HW122991   5.886   6.572   1.717
 7364SOL    HW222992   5.874   6.728   1.767
 7365SOL     OW22993   4.957   4.090   2.417
 7365SOL    HW122994   4.916   4.152   2.485
 7365SOL    HW222995   5.053   4.115   2.403
 7366SOL     OW22996   2.419   0.032   3.450
 7366SOL    HW122997   2.386   0.125   3.466
 7366SOL    HW222998   2.517   0.035   3.429
 7367SOL     OW22999   4.483   0.876   6.205
 7367SOL    HW123000   4.569   0.839   6.169
 7367SOL    HW223001   4.494   0.898   6.302
 7368SOL     OW23002   3.442   3.340   3.372
 7368SOL    HW123003   3.484   3.426   3.341
 7368SOL    HW223004   3.481   3.313   3.460
 7369SOL     OW23005   5.598   3.375   0.097
 7369SOL    HW123006   5.574   3.457   0.148
 7369SOL    HW223007   5.579   3.389   7.022
 7370SOL     OW23008   1.745   1.317   4.804
 7370SOL    HW123009   1.834   1.284   4.834
 7370SOL    HW223010   1.713   1.261   4.728
 7371SOL     OW23011   3.672   1.319   3.714
 7371SOL    HW123012   3.634   1.274   3.633
 7371SOL    HW223013   3.744   1.261   3.753
 7372SOL     OW23014   4.946   1.294   5.413
 7372SOL    HW123015   4.909   1.387   5.408
 7372SOL    HW223016   4.932   1.248   5.325
 7373SOL     OW23017   5.959   3.100   4.255
 7373SOL    HW123018   5.930   3.056   4.170
 7373SOL    HW223019   5.933   3.042   4.333
 7374SOL     OW23020   0.581   2.198   6.748
 7374SOL    HW123021   0.532   2.283   6.766
 7374SOL    HW223022   0.533   2.146   6.677
 7375SOL     OW23023   1.924   3.672   0.537
 7375SOL    HW123024   2.004   3.711   0.582
 7375SOL    HW223025   1.951   3.633   0.449
 7376SOL     OW23026   6.909   4.213   0.706
 7376SOL    HW123027   6.920   4.259   0.618
 7376SOL    HW223028   6.959   4.126   0.705
 7377SOL     OW23029   2.615   5.798   1.139
 7377SOL    HW123030   2.707   5.811   1.177
 7377SOL    HW223031   2.618   5.729   1.067
 7378SOL     OW23032   2.062   4.981   5.310
 7378SOL    HW123033   2.009   4.915   5.258
 7378SOL    HW223034   2.100   4.937   5.391
 7379SOL     OW23035   4.383   1.805   2.644
 7379SOL    HW123036   4.351   1.809   2.550
 7379SOL    HW223037   4.446   1.728   2.655
 7380SOL     OW23038   5.332   3.248   1.679
 7380SOL    HW123039   5.399   3.321   1.665
 7380SOL    HW223040   5.308   3.244   1.776
 7381SOL     OW23041   3.639   6.698   1.723
 7381SOL    HW123042   3.686   6.651   1.797
 7381SOL    HW223043   3.706   6.744   1.665
 7382SOL     OW23044   0.030   1.508   6.320
 7382SOL    HW123045   6.969   1.457   6.295
 7382SOL    HW223046   0.055   1.485   6.414
 7383SOL     OW23047   2.080   6.704   0.877
 7383SOL    HW123048   2.042   6.613   0.891
 7383SOL    HW223049   2.016   6.772   0.912
 7384SOL     OW23050   6.966   6.529   0.832
 7384SOL    HW123051   6.947   6.628   0.834
 7384SOL    HW223052   0.029   6.512   0.783
 7385SOL     OW23053   6.068   4.820   3.122
 7385SOL    HW123054   6.014   4.895   3.160
 7385SOL    HW223055   6.154   4.857   3.085
 7386SOL     OW23056   5.302   3.824   6.863
 7386SOL    HW123057   5.336   3.788   6.776
 7386SOL    HW223058   5.246   3.755   6.909
 7387SOL     OW23059   6.502   5.973   4.324
 7387SOL    HW123060   6.472   6.000   4.232
 7387SOL    HW223061   6.539   5.880   4.322
 7388SOL     OW23062   2.300   4.258   2.391
 7388SOL    HW123063   2.322   4.277   2.295
 7388SOL    HW223064   2.226   4.191   2.395
 7389SOL     OW23065   6.628   3.201   0.412
 7389SOL    HW123066   6.628   3.216   0.313
 7389SOL    HW223067   6.534   3.189   0.444
 7390SOL     OW23068   2.843   2.338   3.808
 7390SOL    HW123069   2.769   2.273   3.791
 7390SOL    HW223070   2.926   2.306   3.761
 7391SOL     OW23071   3.418   3.876   3.326
 7391SOL    HW123072   3.506   3.920   3.309
 7391SOL    HW223073   3.417   3.838   3.418
 7392SOL     OW23074   3.259   6.789   0.464
 7392SOL    HW123075   3.170   6.786   0.510
 7392SOL    HW223076   3.327   6.830   0.525
 7393SOL     OW23077   4.823   5.840   3.401
 7393SOL    HW123078   4.757   5.821   3.328
 7393SOL    HW223079   4.893   5.769   3.402
 7394SOL     OW23080   2.298   2.077   6.066
 7394SOL    HW123081   2.230   2.127   6.011
 7394SOL    HW223082   2.382   2.130   6.071
 7395SOL     OW23083   2.840   5.910   0.849
 7395SOL    HW123084   2.850   5.817   0.814
 7395SOL    HW223085   2.897   5.972   0.796
 7396SOL     OW23086   1.254   5.038   2.342
 7396SOL    HW123087   1.235   5.072   2.434
 7396SOL    HW223088   1.353   5.025   2.331
 7397SOL     OW23089   5.804   4.476   4.122
 7397SOL    HW123090   5.767   4.539   4.053
 7397SOL    HW223091   5.903   4.488   4.128
 7398SOL     OW23092   3.202   4.911   2.264
 7398SOL    HW123093   3.279   4.961   2.304
 7398SOL    HW223094   3.210   4.913   2.164
 7399SOL     OW23095   5.763   1.358   5.875
 7399SOL    HW123096   5.763   1.263   5.844
 7399SOL    HW223097   5.670   1.386   5.898
 7400SOL     OW23098   4.612   3.698   5.705
 7400SOL    HW123099   4.681   3.757   5.745
 7400SOL    HW223100   4.562   3.747   5.634
 7401SOL     OW23101   1.405   2.520   3.690
 7401SOL    HW123102   1.455   2.605   3.675
 7401SOL    HW223103   1.411   2.496   3.787
 7402SOL     OW23104   3.584   5.594   4.262
 7402SOL    HW123105   3.665   5.619   4.315
 7402SOL    HW223106   3.511   5.659   4.280
 7403SOL     OW23107   1.894   4.226   3.929
 7403SOL    HW123108   1.822   4.167   3.893
 7403SOL    HW223109   1.860   4.320   3.935
 7404SOL     OW23110   2.907   3.819   0.579
 7404SOL    HW123111   3.006   3.804   0.584
 7404SOL    HW223112   2.864   3.784   0.662
 7405SOL     OW23113   3.835   6.629   5.401
 7405SOL    HW123114   3.881   6.704   5.354
 7405SOL    HW223115   3.800   6.662   5.489
 7406SOL     OW23116   1.041   2.264   4.568
 7406SOL    HW123117   0.998   2.236   4.482
 7406SOL    HW223118   1.019   2.360   4.586
 7407SOL     OW23119   1.486   6.007   5.744
 7407SOL    HW123120   1.443   5.921   5.772
 7407SOL    HW223121   1.550   5.989   5.670
 7408SOL     OW23122   4.346   5.538   4.843
 7408SOL    HW123123   4.376   5.524   4.938
 7408SOL    HW223124   4.248   5.518   4.836
 7409SOL     OW23125   6.699   4.529   1.575
 7409SOL    HW123126   6.672   4.616   1.532
 7409SOL    HW223127   6.629   4.502   1.641
 7410SOL     OW23128   6.549   0.805   1.422
 7410SOL    HW123129   6.492   0.785   1.502
 7410SOL    HW223130   6.547   0.728   1.359
 7411SOL     OW23131   3.386   1.797   5.285
 7411SOL    HW123132   3.318   1.763   5.221
 7411SOL    HW223133   3.343   1.812   5.374
 7412SOL     OW23134   4.141   6.682   0.403
 7412SOL    HW123135   4.118   6.625   0.324
 7412SOL    HW223136   4.239   6.676   0.421
 7413SOL     OW23137   4.825   1.114   3.591
 7413SOL    HW123138   4.726   1.102   3.582
 7413SOL    HW223139   4.845   1.163   3.676
 7414SOL     OW23140   2.810   0.815   4.078
 7414SOL    HW123141   2.727   0.856   4.117
 7414SOL    HW223142   2.784   0.746   4.010
 7415SOL     OW23143   3.794   0.084   6.012
 7415SOL    HW123144   3.748   0.173   6.012
 7415SOL    HW223145   3.778   0.038   6.099
 7416SOL     OW23146   1.778   0.636   1.912
 7416SOL    HW123147   1.681   0.623   1.936
 7416SOL    HW223148   1.802   0.574   1.837
 7417SOL     OW23149   0.578   0.621   2.240
 7417SOL    HW123150   0.593   0.530   2.201
 7417SOL    HW223151   0.510   0.615   2.313
 7418SOL     OW23152   1.359   4.122   6.347
 7418SOL    HW123153   1.421   4.198   6.328
 7418SOL    HW223154   1.273   4.157   6.384
 7419SOL     OW23155   6.839   3.193   4.203
 7419SOL    HW123156   6.868   3.208   4.108
 7419SOL    HW223157   6.795   3.104   4.211
 7420SOL     OW23158   6.798   6.349   0.922
 7420SOL    HW123159   6.716   6.396   0.955
 7420SOL    HW223160   6.865   6.416   0.890
 7421SOL     OW23161   5.608   4.157   0.873
 7421SOL    HW123162   5.707   4.150   0.859
 7421SOL    HW223163   5.561   4.105   0.802
 7422SOL     OW23164   5.600   3.515   1.922
 7422SOL    HW123165   5.670   3.473   1.865
 7422SOL    HW223166   5.619   3.494   2.018
 7423SOL     OW23167   4.765   2.755   6.243
 7423SOL    HW123168   4.729   2.684   6.304
 7423SOL    HW223169   4.865   2.756   6.248
 7424SOL     OW23170   0.883   2.322   3.841
 7424SOL    HW123171   0.848   2.323   3.747
 7424SOL    HW223172   0.976   2.284   3.841
 7425SOL     OW23173   5.771   0.527   1.016
 7425SOL    HW123174   5.823   0.549   1.098
 7425SOL    HW223175   5.676   0.556   1.027
 7426SOL     OW23176   2.937   3.067   5.751
 7426SOL    HW123177   2.861   3.079   5.688
 7426SOL    HW223178   2.989   3.152   5.757
 7427SOL     OW23179   2.694   0.021   3.386
 7427SOL    HW123180   2.783   7.012   3.421
 7427SOL    HW223181   2.689   0.120   3.393
 7428SOL     OW23182   3.222   0.587   5.150
 7428SOL    HW123183   3.279   0.628   5.078
 7428SOL    HW223184   3.226   0.488   5.143
 7429SOL     OW23185   0.938   0.484   2.276
 7429SOL    HW123186   0.914   0.470   2.180
 7429SOL    HW223187   1.037   0.476   2.287
 7430SOL     OW23188   0.137   4.385   3.032
 7430SOL    HW123189   0.181   4.318   3.091
 7430SOL    HW223190   0.043   4.400   3.061
 7431SOL     OW23191   0.825   1.885   3.795
 7431SOL    HW123192   0.785   1.976   3.804
 7431SOL    HW223193   0.753   1.819   3.772
 7432SOL     OW23194   1.904   0.998   3.267
 7432SOL    HW123195   1.984   0.979   3.211
 7432SOL    HW223196   1.883   1.095   3.263
 7433SOL     OW23197   3.176   6.677   6.623
 7433SOL    HW123198   3.192   6.713   6.531
 7433SOL    HW223199   3.204   6.745   6.691
 7434SOL     OW23200   4.349   0.093   3.791
 7434SOL    HW123201   4.295   0.009   3.786
 7434SOL    HW223202   4.360   0.120   3.886
 7435SOL     OW23203   4.927   4.807   3.182
 7435SOL    HW123204   5.003   4.834   3.242
 7435SOL    HW223205   4.933   4.859   3.097
 7436SOL     OW23206   5.334   3.119   6.118
 7436SOL    HW123207   5.335   3.201   6.060
 7436SOL    HW223208   5.290   3.141   6.205
 7437SOL     OW23209   3.452   0.715   1.422
 7437SOL    HW123210   3.471   0.803   1.377
 7437SOL    HW223211   3.364   0.680   1.392
 7438SOL     OW23212   2.070   0.376   6.515
 7438SOL    HW123213   2.163   0.339   6.523
 7438SOL    HW223214   2.005   0.311   6.554
 7439SOL     OW23215   1.022   4.782   6.132
 7439SOL    HW123216   1.063   4.743   6.049
 7439SOL    HW223217   1.068   4.867   6.155
 7440SOL     OW23218   5.515   3.782   4.181
 7440SOL    HW123219   5.532   3.853   4.249
 7440SOL    HW223220   5.599   3.730   4.165
 7441SOL     OW23221   4.644   5.890   1.075
 7441SOL    HW123222   4.603   5.805   1.108
 7441SOL    HW223223   4.574   5.948   1.034
 7442SOL     OW23224   5.894   0.999   6.150
 7442SOL    HW123225   5.850   0.938   6.084
 7442SOL    HW223226   5.978   0.956   6.184
 7443SOL     OW23227   0.023   0.389   1.337
 7443SOL    HW123228   0.010   0.289   1.333
 7443SOL    HW223229   0.121   0.410   1.335
 7444SOL     OW23230   1.411   6.459   6.929
 7444SOL    HW123231   1.403   6.491   0.002
 7444SOL    HW223232   1.389   6.534   6.867
 7445SOL     OW23233   3.613   5.743   2.357
 7445SOL    HW123234   3.688   5.694   2.401
 7445SOL    HW223235   3.526   5.701   2.383
 7446SOL     OW23236   5.555   4.998   6.940
 7446SOL    HW123237   5.545   5.075   7.003
 7446SOL    HW223238   5.599   5.029   6.856
 7447SOL     OW23239   1.174   5.316   0.953
 7447SOL    HW123240   1.172   5.269   0.865
 7447SOL    HW223241   1.082   5.349   0.975
 7448SOL     OW23242   4.496   5.122   6.763
 7448SOL    HW123243   4.579   5.067   6.764
 7448SOL    HW223244   4.416   5.063   6.759
 7449SOL     OW23245   6.042   4.527   6.294
 7449SOL    HW123246   6.110   4.546   6.365
 7449SOL    HW223247   6.083   4.472   6.221
 7450SOL     OW23248   5.921   2.101   6.412
 7450SOL    HW123249   5.953   2.017   6.456
 7450SOL    HW223250   5.821   2.099   6.406
 7451SOL     OW23251   4.582   4.516   3.163
 7451SOL    HW123252   4.620   4.431   3.201
 7451SOL    HW223253   4.486   4.524   3.188
 7452SOL     OW23254   6.397   5.335   6.316
 7452SOL    HW123255   6.380   5.354   6.219
 7452SOL    HW223256   6.364   5.243   6.338
 7453SOL     OW23257   4.135   5.915   6.171
 7453SOL    HW123258   4.106   5.832   6.219
 7453SOL    HW223259   4.200   5.965   6.227
 7454SOL     OW23260   3.419   2.165   1.189
 7454SOL    HW123261   3.442   2.069   1.201
 7454SOL    HW223262   3.501   2.217   1.168
 7455SOL     OW23263   6.767   0.620   3.118
 7455SOL    HW123264   6.838   0.651   3.055
 7455SOL    HW223265   6.744   0.695   3.181
 7456SOL     OW23266   2.881   2.264   6.042
 7456SOL    HW123267   2.902   2.175   6.080
 7456SOL    HW223268   2.794   2.260   5.991
 7457SOL     OW23269   1.193   1.149   2.735
 7457SOL    HW123270   1.289   1.132   2.756
 7457SOL    HW223271   1.140   1.066   2.751
 7458SOL     OW23272   0.723   5.507   5.173
 7458SOL    HW123273   0.665   5.474   5.099
 7458SOL    HW223274   0.674   5.501   5.260
 7459SOL     OW23275   5.937   7.018   3.392
 7459SOL    HW123276   5.883   7.003   3.310
 7459SOL    HW223277   6.006   0.066   3.375
 7460SOL     OW23278   1.014   0.768   1.331
 7460SOL    HW123279   1.078   0.783   1.407
 7460SOL    HW223280   0.945   0.701   1.359
 7461SOL     OW23281   1.953   4.688   4.493
 7461SOL    HW123282   2.023   4.646   4.436
 7461SOL    HW223283   1.976   4.675   4.590
 7462SOL     OW23284   1.806   4.439   0.441
 7462SOL    HW123285   1.852   4.517   0.398
 7462SOL    HW223286   1.871   4.364   0.452
 7463SOL     OW23287   4.808   5.263   1.959
 7463SOL    HW123288   4.834   5.166   1.965
 7463SOL    HW223289   4.794   5.288   1.864
 7464SOL     OW23290   6.014   5.556   5.020
 7464SOL    HW123291   5.932   5.612   5.007
 7464SOL    HW223292   5.990   5.474   5.073
 7465SOL     OW23293   1.340   4.417   6.517
 7465SOL    HW123294   1.387   4.502   6.492
 7465SOL    HW223295   1.404   4.356   6.563
 7466SOL     OW23296   0.463   0.340   5.200
 7466SOL    HW123297   0.544   0.380   5.159
 7466SOL    HW223298   0.460   0.363   5.297
 7467SOL     OW23299   0.430   3.678   4.729
 7467SOL    HW123300   0.430   3.651   4.632
 7467SOL    HW223301   0.369   3.617   4.780
 7468SOL     OW23302   5.189   2.398   5.648
 7468SOL    HW123303   5.175   2.303   5.677
 7468SOL    HW223304   5.247   2.445   5.714
 7469SOL     OW23305   0.218   1.581   0.571
 7469SOL    HW123306   0.206   1.508   0.638
 7469SOL    HW223307   0.136   1.589   0.514
 7470SOL     OW23308   5.208   3.443   4.009
 7470SOL    HW123309   5.258   3.457   3.923
 7470SOL    HW223310   5.179   3.531   4.046
 7471SOL     OW23311   3.820   6.972   6.648
 7471SOL    HW123312   3.796   0.006   6.569
 7471SOL    HW223313   3.880   0.001   6.709
 7472SOL     OW23314   0.540   7.020   5.747
 7472SOL    HW123315   0.502   0.050   5.671
 7472SOL    HW223316   0.478   6.947   5.772
 7473SOL     OW23317   3.936   5.718   3.323
 7473SOL    HW123318   3.925   5.728   3.224
 7473SOL    HW223319   3.855   5.672   3.361
 7474SOL     OW23320   6.321   2.325   0.246
 7474SOL    HW123321   6.294   2.403   0.302
 7474SOL    HW223322   6.272   2.243   0.276
 7475SOL     OW23323   4.939   2.913   0.757
 7475SOL    HW123324   4.906   2.961   0.839
 7475SOL    HW223325   4.909   2.818   0.760
 7476SOL     OW23326   2.344   1.002   2.768
 7476SOL    HW123327   2.349   0.986   2.866
 7476SOL    HW223328   2.384   1.091   2.747
 7477SOL     OW23329   2.238   3.547   6.072
 7477SOL    HW123330   2.326   3.566   6.028
 7477SOL    HW223331   2.201   3.632   6.109
 7478SOL     OW23332   0.245   1.907   5.900
 7478SOL    HW123333   0.236   2.006   5.894
 7478SOL    HW223334   0.260   1.881   5.995
 7479SOL     OW23335   4.587   2.564   1.373
 7479SOL    HW123336   4.626   2.498   1.309
 7479SOL    HW223337   4.611   2.540   1.466
 7480SOL     OW23338   3.641   5.931   2.601
 7480SOL    HW123339   3.604   5.875   2.527
 7480SOL    HW223340   3.658   6.024   2.567
 7481SOL     OW23341   0.060   3.558   5.877
 7481SOL    HW123342   0.117   3.640   5.881
 7481SOL    HW223343   0.053   3.518   5.969
 7482SOL     OW23344   5.094   2.324   4.133
 7482SOL    HW123345   5.155   2.402   4.146
 7482SOL    HW223346   5.038   2.312   4.216
 7483SOL     OW23347   4.823   1.647   6.452
 7483SOL    HW123348   4.814   1.730   6.508
 7483SOL    HW223349   4.892   1.662   6.381
 7484SOL     OW23350   2.905   0.663   4.440
 7484SOL    HW123351   2.938   0.728   4.371
 7484SOL    HW223352   2.966   0.583   4.443
 7485SOL     OW23353   3.981   0.355   6.684
 7485SOL    HW123354   4.004   0.421   6.612
 7485SOL    HW223355   3.883   0.359   6.703
 7486SOL     OW23356   4.566   6.785   0.827
 7486SOL    HW123357   4.500   6.715   0.855
 7486SOL    HW223358   4.618   6.753   0.748
 7487SOL     OW23359   3.210   6.562   3.996
 7487SOL    HW123360   3.135   6.520   3.945
 7487SOL    HW223361   3.297   6.540   3.952
 7488SOL     OW23362   1.283   5.768   4.155
 7488SOL    HW123363   1.253   5.862   4.140
 7488SOL    HW223364   1.332   5.762   4.242
 7489SOL     OW23365   5.201   2.837   6.860
 7489SOL    HW123366   5.118   2.814   6.911
 7489SOL    HW223367   5.186   2.922   6.808
 7490SOL     OW23368   2.068   2.785   2.323
 7490SOL    HW123369   2.094   2.694   2.356
 7490SOL    HW223370   2.033   2.778   2.230
 7491SOL     OW23371   4.312   3.833   0.139
 7491SOL    HW123372   4.377   3.903   0.170
 7491SOL    HW223373   4.262   3.796   0.217
 7492SOL     OW23374   1.691   0.336   3.951
 7492SOL    HW123375   1.635   0.352   3.869
 7492SOL    HW223376   1.674   0.408   4.018
 7493SOL     OW23377   6.448   4.901   4.629
 7493SOL    HW123378   6.375   4.953   4.674
 7493SOL    HW223379   6.497   4.846   4.697
 7494SOL     OW23380   6.111   1.485   2.612
 7494SOL    HW123381   6.110   1.578   2.647
 7494SOL    HW223382   6.132   1.486   2.514
 7495SOL     OW23383   1.258   3.195   5.213
 7495SOL    HW123384   1.356   3.203   5.200
 7495SOL    HW223385   1.229   3.101   5.194
 7496SOL     OW23386   6.406   4.144   2.372
 7496SOL    HW123387   6.330   4.111   2.428
 7496SOL    HW223388   6.492   4.132   2.420
 7497SOL     OW23389   6.262   0.075   1.365
 7497SOL    HW123390   6.213   7.020   1.324
 7497SOL    HW223391   6.204   0.120   1.433
 7498SOL     OW23392   2.952   6.718   3.890
 7498SOL    HW123393   2.855   6.726   3.868
 7498SOL    HW223394   2.991   6.640   3.840
 7499SOL     OW23395   3.203   1.330   3.402
 7499SOL    HW123396   3.166   1.343   3.494
 7499SOL    HW223397   3.129   1.310   3.339
 7500SOL     OW23398   4.116   0.682   4.033
 7500SOL    HW123399   4.198   0.668   4.089
 7500SOL    HW223400   4.113   0.777   4.003
 7501SOL     OW23401   6.545   2.071   4.440
 7501SOL    HW123402   6.633   2.105   4.408
 7501SOL    HW223403   6.556   2.029   4.530
 7502SOL     OW23404   4.405   1.007   3.736
 7502SOL    HW123405   4.361   0.925   3.699
 7502SOL    HW223406   4.465   1.047   3.668
 7503SOL     OW23407   1.547   6.026   1.466
 7503SOL    HW123408   1.593   6.109   1.496
 7503SOL    HW223409   1.522   5.971   1.545
 7504SOL     OW23410   5.723   6.411   4.705
 7504SOL    HW123411   5.755   6.492   4.656
 7504SOL    HW223412   5.710   6.336   4.640
 7505SOL     OW23413   0.839   6.463   5.747
 7505SOL    HW123414   0.917   6.408   5.718
 7505SOL    HW223415   0.863   6.560   5.740
 7506SOL     OW23416   3.272   2.071   3.953
 7506SOL    HW123417   3.300   2.072   3.857
 7506SOL    HW223418   3.347   2.105   4.010
 7507SOL     OW23419   6.626   4.119   6.368
 7507SOL    HW123420   6.675   4.057   6.429
 7507SOL    HW223421   6.590   4.067   6.290
 7508SOL     OW23422   3.037   6.444   0.738
 7508SOL    HW123423   2.950   6.432   0.786
 7508SOL    HW223424   3.094   6.509   0.788
 7509SOL     OW23425   6.126   4.473   2.184
 7509SOL    HW123426   6.033   4.492   2.218
 7509SOL    HW223427   6.173   4.559   2.168
 7510SOL     OW23428   3.258   4.048   1.960
 7510SOL    HW123429   3.340   4.102   1.977
 7510SOL    HW223430   3.214   4.025   2.046
 7511SOL     OW23431   4.414   5.974   3.790
 7511SOL    HW123432   4.498   5.943   3.745
 7511SOL    HW223433   4.347   6.003   3.722
 7512SOL     OW23434   4.239   0.551   0.919
 7512SOL    HW123435   4.322   0.569   0.971
 7512SOL    HW223436   4.159   0.578   0.972
 7513SOL     OW23437   1.151   0.801   1.929
 7513SOL    HW123438   1.158   0.773   2.025
 7513SOL    HW223439   1.137   0.899   1.923
 7514SOL     OW23440   0.438   6.642   1.151
 7514SOL    HW123441   0.535   6.633   1.129
 7514SOL    HW223442   0.427   6.650   1.250
 7515SOL     OW23443   0.274   4.406   5.235
 7515SOL    HW123444   0.184   4.368   5.213
 7515SOL    HW223445   0.291   4.397   5.333
 7516SOL     OW23446   1.923   6.446   5.229
 7516SOL    HW123447   1.914   6.445   5.130
 7516SOL    HW223448   1.928   6.353   5.264
 7517SOL     OW23449   0.725   1.646   6.323
 7517SOL    HW123450   0.648   1.591   6.355
 7517SOL    HW223451   0.769   1.600   6.246
 7518SOL     OW23452   4.076   1.962   4.333
 7518SOL    HW123453   4.060   2.046   4.282
 7518SOL    HW223454   4.131   1.982   4.415
 7519SOL     OW23455   3.630   7.011   4.422
 7519SOL    HW123456   3.684   6.962   4.354
 7519SOL    HW223457   3.686   0.060   4.464
 7520SOL     OW23458   1.849   1.439   0.698
 7520SOL    HW123459   1.891   1.377   0.764
 7520SOL    HW223460   1.849   1.397   0.608
 7521SOL     OW23461   4.137   1.636   5.456
 7521SOL    HW123462   4.105   1.542   5.470
 7521SOL    HW223463   4.068   1.699   5.492
 7522SOL     OW23464   2.121   6.472   4.217
 7522SOL    HW123465   2.124   6.539   4.143
 7522SOL    HW223466   2.213   6.457   4.252
 7523SOL     OW23467   5.799   1.309   0.483
 7523SOL    HW123468   5.780   1.244   0.410
 7523SOL    HW223469   5.742   1.390   0.471
 7524SOL     OW23470   0.324   3.483   4.894
 7524SOL    HW123471   0.231   3.518   4.903
 7524SOL    HW223472   0.378   3.509   4.974
 7525SOL     OW23473   2.785   4.892   5.762
 7525SOL    HW123474   2.749   4.985   5.752
 7525SOL    HW223475   2.850   4.889   5.838
 7526SOL     OW23476   2.040   4.063   0.991
 7526SOL    HW123477   2.030   4.129   1.065
 7526SOL    HW223478   1.996   3.977   1.016
 7527SOL     OW23479   2.828   5.212   2.741
 7527SOL    HW123480   2.875   5.191   2.655
 7527SOL    HW223481   2.741   5.163   2.744
 7528SOL     OW23482   6.167   2.813   5.762
 7528SOL    HW123483   6.177   2.721   5.723
 7528SOL    HW223484   6.243   2.870   5.731
 7529SOL     OW23485   6.032   3.540   4.318
 7529SOL    HW123486   5.956   3.476   4.313
 7529SOL    HW223487   6.059   3.553   4.414
 7530SOL     OW23488   1.168   2.822   3.042
 7530SOL    HW123489   1.114   2.738   3.033
 7530SOL    HW223490   1.185   2.861   2.952
 7531SOL     OW23491   4.000   1.827   3.687
 7531SOL    HW123492   4.093   1.865   3.688
 7531SOL    HW223493   3.936   1.897   3.657
 7532SOL     OW23494   4.900   5.650   6.686
 7532SOL    HW123495   4.842   5.703   6.624
 7532SOL    HW223496   4.896   5.689   6.777
 7533SOL     OW23497   4.498   4.518   1.886
 7533SOL    HW123498   4.569   4.534   1.817
 7533SOL    HW223499   4.509   4.426   1.924
 7534SOL     OW23500   4.411   5.989   5.023
 7534SOL    HW123501   4.337   6.008   5.086
 7534SOL    HW223502   4.496   5.977   5.074
 7535SOL     OW23503   0.327   6.774   4.223
 7535SOL    HW123504   0.299   6.730   4.138
 7535SOL    HW223505   0.246   6.804   4.273
 7536SOL     OW23506   6.457   6.169   3.624
 7536SOL    HW123507   6.447   6.192   3.527
 7536SOL    HW223508   6.471   6.253   3.676
 7537SOL     OW23509   1.992   6.660   2.641
 7537SOL    HW123510   2.011   6.739   2.583
 7537SOL    HW223511   2.075   6.635   2.691
 7538SOL     OW23512   0.339   4.751   0.112
 7538SOL    HW123513   0.272   4.732   0.040
 7538SOL    HW223514   0.412   4.809   0.076
 7539SOL     OW23515   6.818   0.430   4.285
 7539SOL    HW123516   6.754   0.506   4.295
 7539SOL    HW223517   6.912   0.464   4.287
 7540SOL     OW23518   5.279   4.540   3.196
 7540SOL    HW123519   5.344   4.484   3.248
 7540SOL    HW223520   5.275   4.631   3.238
 7541SOL     OW23521   2.505   3.924   5.960
 7541SOL    HW123522   2.464   4.010   5.991
 7541SOL    HW223523   2.482   3.909   5.863
 7542SOL     OW23524   6.017   5.856   4.834
 7542SOL    HW123525   6.025   5.885   4.930
 7542SOL    HW223526   6.064   5.768   4.822
 7543SOL     OW23527   2.256   1.427   0.630
 7543SOL    HW123528   2.327   1.366   0.665
 7543SOL    HW223529   2.254   1.511   0.685
 7544SOL     OW23530   6.276   1.235   4.412
 7544SOL    HW123531   6.348   1.167   4.397
 7544SOL    HW223532   6.199   1.216   4.350
 7545SOL     OW23533   1.478   5.430   5.482
 7545SOL    HW123534   1.562   5.476   5.454
 7545SOL    HW223535   1.500   5.337   5.512
 7546SOL     OW23536   2.530   2.714   1.746
 7546SOL    HW123537   2.572   2.804   1.741
 7546SOL    HW223538   2.599   2.644   1.730
 7547SOL     OW23539   4.199   6.998   1.918
 7547SOL    HW123540   4.274   6.957   1.866
 7547SOL    HW223541   4.113   6.988   1.866
 7548SOL     OW23542   2.640   2.317   6.377
 7548SOL    HW123543   2.586   2.236   6.354
 7548SOL    HW223544   2.585   2.399   6.363
 7549SOL     OW23545   5.141   0.984   4.577
 7549SOL    HW123546   5.090   1.035   4.508
 7549SOL    HW223547   5.226   0.950   4.538
 7550SOL     OW23548   2.948   6.079   4.398
 7550SOL    HW123549   2.978   5.994   4.443
 7550SOL    HW223550   2.858   6.064   4.357
 7551SOL     OW23551   6.328   3.104   6.233
 7551SOL    HW123552   6.392   3.155   6.175
 7551SOL    HW223553   6.319   3.011   6.198
 7552SOL     OW23554   2.564   6.554   4.809
 7552SOL    HW123555   2.594   6.459   4.815
 7552SOL    HW223556   2.516   6.579   4.894
 7553SOL     OW23557   6.503   6.256   5.812
 7553SOL    HW123558   6.416   6.253   5.862
 7553SOL    HW223559   6.547   6.344   5.828
 7554SOL     OW23560   4.956   1.433   0.887
 7554SOL    HW123561   4.974   1.412   0.983
 7554SOL    HW223562   4.907   1.357   0.845
 7555SOL     OW23563   4.252   5.019   4.043
 7555SOL    HW123564   4.191   5.046   3.969
 7555SOL    HW223565   4.212   4.942   4.093
 7556SOL     OW23566   1.190   5.965   1.493
 7556SOL    HW123567   1.212   6.036   1.560
 7556SOL    HW223568   1.263   5.960   1.425
 7557SOL     OW23569   4.576   6.588   1.485
 7557SOL    HW123570   4.614   6.592   1.578
 7557SOL    HW223571   4.624   6.518   1.433
 7558SOL     OW23572   0.779   1.865   3.440
 7558SOL    HW123573   0.687   1.904   3.438
 7558SOL    HW223574   0.775   1.771   3.473
 7559SOL     OW23575   2.978   1.152   4.905
 7559SOL    HW123576   2.963   1.166   5.003
 7559SOL    HW223577   3.014   1.060   4.889
 7560SOL     OW23578   0.807   1.035   5.840
 7560SOL    HW123579   0.848   1.014   5.751
 7560SOL    HW223580   0.834   1.127   5.868
 7561SOL     OW23581   5.268   1.272   5.380
 7561SOL    HW123582   5.243   1.227   5.294
 7561SOL    HW223583   5.210   1.237   5.453
 7562SOL     OW23584   2.194   5.533   3.356
 7562SOL    HW123585   2.284   5.535   3.312
 7562SOL    HW223586   2.129   5.582   3.299
 7563SOL     OW23587   3.011   6.179   2.972
 7563SOL    HW123588   3.092   6.234   2.993
 7563SOL    HW223589   2.968   6.214   2.888
 7564SOL     OW23590   5.059   1.925   5.387
 7564SOL    HW123591   5.031   1.872   5.307
 7564SOL    HW223592   5.108   2.007   5.357
 7565SOL     OW23593   6.625   2.917   5.780
 7565SOL    HW123594   6.675   2.905   5.695
 7565SOL    HW223595   6.646   3.007   5.818
 7566SOL     OW23596   5.040   4.955   2.136
 7566SOL    HW123597   5.042   4.944   2.236
 7566SOL    HW223598   4.946   4.969   2.106
 7567SOL     OW23599   1.215   0.144   4.667
 7567SOL    HW123600   1.311   0.167   4.681
 7567SOL    HW223601   1.204   0.044   4.664
 7568SOL     OW23602   6.287   4.351   1.359
 7568SOL    HW123603   6.305   4.330   1.263
 7568SOL    HW223604   6.257   4.268   1.406
 7569SOL     OW23605   4.477   3.558   0.365
 7569SOL    HW123606   4.381   3.588   0.373
 7569SOL    HW223607   4.536   3.621   0.415
 7570SOL     OW23608   0.829   3.236   1.866
 7570SOL    HW123609   0.848   3.142   1.839
 7570SOL    HW223610   0.739   3.240   1.909
 7571SOL     OW23611   4.543   1.569   2.682
 7571SOL    HW123612   4.461   1.512   2.672
 7571SOL    HW223613   4.555   1.591   2.779
 7572SOL     OW23614   4.924   6.465   3.761
 7572SOL    HW123615   4.920   6.544   3.700
 7572SOL    HW223616   4.839   6.457   3.812
 7573SOL     OW23617   4.499   6.424   6.326
 7573SOL    HW123618   4.471   6.454   6.418
 7573SOL    HW223619   4.426   6.371   6.284
 7574SOL     OW23620   0.728   2.730   4.144
 7574SOL    HW123621   0.668   2.658   4.110
 7574SOL    HW223622   0.682   2.779   4.218
 7575SOL     OW23623   6.862   6.590   1.152
 7575SOL    HW123624   6.771   6.563   1.122
 7575SOL    HW223625   6.921   6.604   1.072
 7576SOL     OW23626   4.864   2.578   6.805
 7576SOL    HW123627   4.861   2.481   6.827
 7576SOL    HW223628   4.771   2.616   6.807
 7577SOL     OW23629   0.637   0.171   6.755
 7577SOL    HW123630   0.639   0.113   6.673
 7577SOL    HW223631   0.597   0.260   6.732
 7578SOL     OW23632   6.242   6.212   3.072
 7578SOL    HW123633   6.169   6.196   3.005
 7578SOL    HW223634   6.205   6.263   3.150
 7579SOL     OW23635   0.639   1.887   0.131
 7579SOL    HW123636   0.664   1.892   0.034
 7579SOL    HW223637   0.717   1.852   0.183
 7580SOL     OW23638   2.169   5.351   3.048
 7580SOL    HW123639   2.190   5.448   3.035
 7580SOL    HW223640   2.232   5.312   3.115
 7581SOL     OW23641   6.941   6.774   1.360
 7581SOL    HW123642   6.958   6.858   1.308
 7581SOL    HW223643   6.929   6.698   1.296
 7582SOL     OW23644   2.064   1.480   6.546
 7582SOL    HW123645   2.155   1.447   6.571
 7582SOL    HW223646   2.053   1.575   6.576
 7583SOL     OW23647   5.390   3.628   2.255
 7583SOL    HW123648   5.431   3.717   2.238
 7583SOL    HW223649   5.298   3.639   2.291
 7584SOL     OW23650   0.552   0.844   3.073
 7584SOL    HW123651   0.648   0.851   3.101
 7584SOL    HW223652   0.506   0.777   3.131
 7585SOL     OW23653   0.993   1.410   5.546
 7585SOL    HW123654   0.914   1.367   5.501
 7585SOL    HW223655   0.982   1.509   5.545
 7586SOL     OW23656   1.985   6.593   3.979
 7586SOL    HW123657   1.888   6.588   4.006
 7586SOL    HW223658   1.991   6.603   3.880
 7587SOL     OW23659   4.800   0.244   1.561
 7587SOL    HW123660   4.829   0.173   1.625
 7587SOL    HW223661   4.840   0.332   1.588
 7588SOL     OW23662   2.111   3.299   4.522
 7588SOL    HW123663   2.106   3.302   4.622
 7588SOL    HW223664   2.018   3.296   4.485
 7589SOL     OW23665   6.946   0.423   2.788
 7589SOL    HW123666   7.007   0.414   2.709
 7589SOL    HW223667   6.934   0.334   2.832
 7590SOL     OW23668   6.058   1.174   0.875
 7590SOL    HW123669   6.047   1.170   0.776
 7590SOL    HW223670   6.017   1.093   0.916
 7591SOL     OW23671   3.040   3.825   4.684
 7591SOL    HW123672   2.960   3.784   4.641
 7591SOL    HW223673   3.123   3.795   4.635
 7592SOL     OW23674   0.607   6.579   3.757
 7592SOL    HW123675   0.514   6.614   3.748
 7592SOL    HW223676   0.652   6.624   3.834
 7593SOL     OW23677   6.807   0.908   6.364
 7593SOL    HW123678   6.845   0.983   6.311
 7593SOL    HW223679   6.806   0.933   6.461
 7594SOL     OW23680   6.575   3.471   5.806
 7594SOL    HW123681   6.634   3.439   5.732
 7594SOL    HW223682   6.508   3.536   5.769
 7595SOL     OW23683   0.276   3.444   6.636
 7595SOL    HW123684   0.290   3.522   6.575
 7595SOL    HW223685   0.265   3.477   6.730
 7596SOL     OW23686   2.606   1.545   0.657
 7596SOL    HW123687   2.621   1.568   0.560
 7596SOL    HW223688   2.537   1.473   0.664
 7597SOL     OW23689   2.322   4.630   1.023
 7597SOL    HW123690   2.228   4.609   1.049
 7597SOL    HW223691   2.366   4.683   1.095
 7598SOL     OW23692   5.739   0.833   2.117
 7598SOL    HW123693   5.671   0.905   2.124
 7598SOL    HW223694   5.778   0.833   2.025
 7599SOL     OW23695   3.245   3.348   0.556
 7599SOL    HW123696   3.183   3.416   0.596
 7599SOL    HW223697   3.312   3.394   0.498
 7600SOL     OW23698   0.853   7.021   4.024
 7600SOL    HW123699   0.917   0.074   4.009
 7600SOL    HW223700   0.893   6.955   4.086
 7601SOL     OW23701   3.113   6.842   1.266
 7601SOL    HW123702   3.046   6.879   1.329
 7601SOL    HW223703   3.097   6.744   1.254
 7602SOL     OW23704   0.918   1.846   0.968
 7602SOL    HW123705   1.010   1.844   1.007
 7602SOL    HW223706   0.911   1.920   0.901
 7603SOL     OW23707   4.756   1.136   6.194
 7603SOL    HW123708   4.686   1.204   6.216
 7603SOL    HW223709   4.725   1.080   6.117
 7604SOL     OW23710   2.294   2.461   5.063
 7604SOL    HW123711   2.372   2.493   5.010
 7604SOL    HW223712   2.218   2.525   5.054
 7605SOL     OW23713   2.943   6.082   6.884
 7605SOL    HW123714   2.979   6.117   6.797
 7605SOL    HW223715   3.011   6.022   6.926
 7606SOL     OW23716   0.026   0.815   3.251
 7606SOL    HW123717   6.997   0.884   3.200
 7606SOL    HW223718   6.988   0.769   3.316
 7607SOL     OW23719   1.874   5.919   5.393
 7607SOL    HW123720   1.784   5.875   5.401
 7607SOL    HW223721   1.905   5.947   5.484
 7608SOL     OW23722   0.069   2.060   6.399
 7608SOL    HW123723   0.137   2.075   6.470
 7608SOL    HW223724   0.031   1.968   6.408
 7609SOL     OW23725   3.528   1.064   4.898
 7609SOL    HW123726   3.451   1.101   4.846
 7609SOL    HW223727   3.609   1.122   4.883
 7610SOL     OW23728   4.026   4.985   4.557
 7610SOL    HW123729   4.027   4.987   4.657
 7610SOL    HW223730   4.104   4.932   4.524
 7611SOL     OW23731   4.410   2.350   0.230
 7611SOL    HW123732   4.438   2.378   0.138
 7611SOL    HW223733   4.354   2.422   0.272
 7612SOL     OW23734   4.092   2.233   2.864
 7612SOL    HW123735   4.099   2.232   2.964
 7612SOL    HW223736   3.996   2.232   2.837
 7613SOL     OW23737   0.829   0.614   6.983
 7613SOL    HW123738   0.834   0.637   6.885
 7613SOL    HW223739   0.885   0.533   7.001
 7614SOL     OW23740   5.542   4.439   0.610
 7614SOL    HW123741   5.534   4.430   0.710
 7614SOL    HW223742   5.453   4.419   0.568
 7615SOL     OW23743   6.111   3.384   5.800
 7615SOL    HW123744   6.160   3.323   5.738
 7615SOL    HW223745   6.175   3.428   5.863
 7616SOL     OW23746   6.946   6.635   2.325
 7616SOL    HW123747   0.006   6.589   2.292
 7616SOL    HW223748   6.876   6.566   2.345
 7617SOL     OW23749   6.456   3.771   2.763
 7617SOL    HW123750   6.408   3.689   2.794
 7617SOL    HW223751   6.392   3.830   2.712
 7618SOL     OW23752   2.573   2.543   0.147
 7618SOL    HW123753   2.644   2.473   0.144
 7618SOL    HW223754   2.483   2.500   0.137
 7619SOL     OW23755   1.191   0.990   4.784
 7619SOL    HW123756   1.138   0.937   4.718
 7619SOL    HW223757   1.136   1.006   4.866
 7620SOL     OW23758   3.464   3.494   0.429
 7620SOL    HW123759   3.503   3.521   0.517
 7620SOL    HW223760   3.501   3.406   0.401
 7621SOL     OW23761   5.877   4.834   6.829
 7621SOL    HW123762   5.845   4.794   6.915
 7621SOL    HW223763   5.967   4.797   6.806
 7622SOL     OW23764   3.493   3.502   1.721
 7622SOL    HW123765   3.445   3.473   1.638
 7622SOL    HW223766   3.435   3.566   1.772
 7623SOL     OW23767   5.217   4.554   2.079
 7623SOL    HW123768   5.222   4.642   2.031
 7623SOL    HW223769   5.207   4.480   2.012
 7624SOL     OW23770   0.518   3.346   2.328
 7624SOL    HW123771   0.612   3.320   2.307
 7624SOL    HW223772   0.518   3.434   2.375
 7625SOL     OW23773   5.391   0.248   1.457
 7625SOL    HW123774   5.345   0.337   1.459
 7625SOL    HW223775   5.381   0.206   1.367
 7626SOL     OW23776   4.465   0.183   0.053
 7626SOL    HW123777   4.544   0.123   0.067
 7626SOL    HW223778   4.467   0.220   6.982
 7627SOL     OW23779   4.324   2.452   6.038
 7627SOL    HW123780   4.417   2.419   6.051
 7627SOL    HW223781   4.299   2.444   5.941
 7628SOL     OW23782   2.917   3.141   0.568
 7628SOL    HW123783   2.986   3.134   0.640
 7628SOL    HW223784   2.955   3.191   0.490
 7629SOL     OW23785   5.951   2.657   3.495
 7629SOL    HW123786   5.945   2.721   3.572
 7629SOL    HW223787   5.861   2.615   3.480
 7630SOL     OW23788   1.259   6.194   3.897
 7630SOL    HW123789   1.304   6.227   3.980
 7630SOL    HW223790   1.175   6.245   3.881
 7631SOL     OW23791   1.213   0.834   5.786
 7631SOL    HW123792   1.251   0.749   5.822
 7631SOL    HW223793   1.233   0.840   5.688
 7632SOL     OW23794   4.241   5.690   1.346
 7632SOL    HW123795   4.200   5.634   1.274
 7632SOL    HW223796   4.175   5.702   1.421
 7633SOL     OW23797   5.492   0.880   1.527
 7633SOL    HW123798   5.420   0.864   1.459
 7633SOL    HW223799   5.533   0.970   1.512
 7634SOL     OW23800   0.110   1.749   6.810
 7634SOL    HW123801   0.110   1.687   6.889
 7634SOL    HW223802   0.168   1.711   6.738
 7635SOL     OW23803   1.263   3.229   5.665
 7635SOL    HW123804   1.348   3.270   5.631
 7635SOL    HW223805   1.277   3.131   5.678
 7636SOL     OW23806   6.953   3.870   3.586
 7636SOL    HW123807   6.948   3.859   3.686
 7636SOL    HW223808   7.011   3.949   3.565
 7637SOL     OW23809   0.570   4.133   5.091
 7637SOL    HW123810   0.536   4.095   5.004
 7637SOL    HW223811   0.550   4.069   5.165
 7638SOL     OW23812   0.475   6.218   1.260
 7638SOL    HW123813   0.446   6.123   1.256
 7638SOL    HW223814   0.493   6.244   1.355
 7639SOL     OW23815   2.093   6.657   0.343
 7639SOL    HW123816   2.054   6.641   0.433
 7639SOL    HW223817   2.180   6.706   0.352
 7640SOL     OW23818   3.287   0.555   0.778
 7640SOL    HW123819   3.249   0.634   0.826
 7640SOL    HW223820   3.304   0.481   0.843
 7641SOL     OW23821   6.920   5.160   4.953
 7641SOL    HW123822   6.963   5.170   5.043
 7641SOL    HW223823   6.982   5.195   4.883
 7642SOL     OW23824   5.535   1.089   3.492
 7642SOL    HW123825   5.465   1.018   3.480
 7642SOL    HW223826   5.491   1.179   3.497
 7643SOL     OW23827   5.544   3.147   4.733
 7643SOL    HW123828   5.509   3.085   4.663
 7643SOL    HW223829   5.644   3.152   4.727
 7644SOL     OW23830   5.139   4.404   0.763
 7644SOL    HW123831   5.188   4.357   0.836
 7644SOL    HW223832   5.200   4.419   0.685
 7645SOL     OW23833   4.615   4.958   0.111
 7645SOL    HW123834   4.626   5.028   0.040
 7645SOL    HW223835   4.704   4.920   0.135
 7646SOL     OW23836   6.933   2.032   1.242
 7646SOL    HW123837   6.916   2.044   1.340
 7646SOL    HW223838   6.979   2.112   1.205
 7647SOL     OW23839   6.920   1.833   4.050
 7647SOL    HW123840   6.955   1.764   4.113
 7647SOL    HW223841   6.938   1.924   4.086
 7648SOL     OW23842   1.524   2.288   1.409
 7648SOL    HW123843   1.528   2.316   1.505
 7648SOL    HW223844   1.580   2.350   1.354
 7649SOL     OW23845   4.148   0.465   0.126
 7649SOL    HW123846   4.109   0.373   0.120
 7649SOL    HW223847   4.076   0.532   0.107
 7650SOL     OW23848   3.673   2.694   7.006
 7650SOL    HW123849   3.676   2.596   6.985
 7650SOL    HW223850   3.591   2.734   6.966
 7651SOL     OW23851   3.626   5.625   6.585
 7651SOL    HW123852   3.678   5.710   6.583
 7651SOL    HW223853   3.562   5.623   6.509
 7652SOL     OW23854   0.527   0.812   5.168
 7652SOL    HW123855   0.435   0.847   5.149
 7652SOL    HW223856   0.592   0.888   5.171
 7653SOL     OW23857   1.685   6.754   0.047
 7653SOL    HW123858   1.761   6.731   0.107
 7653SOL    HW223859   1.670   6.680   7.003
 7654SOL     OW23860   0.241   2.201   5.545
 7654SOL    HW123861   0.197   2.219   5.457
 7654SOL    HW223862   0.189   2.131   5.594
 7655SOL     OW23863   3.653   1.848   4.931
 7655SOL    HW123864   3.606   1.760   4.937
 7655SOL    HW223865   3.588   1.921   4.954
 7656SOL     OW23866   5.698   4.101   6.789
 7656SOL    HW123867   5.790   4.127   6.818
 7656SOL    HW223868   5.639   4.091   6.869
 7657SOL     OW23869   0.880   3.814   4.687
 7657SOL    HW123870   0.883   3.871   4.769
 7657SOL    HW223871   0.853   3.869   4.608
 7658SOL     OW23872   2.758   0.735   1.796
 7658SOL    HW123873   2.770   0.803   1.724
 7658SOL    HW223874   2.678   0.758   1.850
 7659SOL     OW23875   5.071   5.075   5.859
 7659SOL    HW123876   5.068   5.101   5.956
 7659SOL    HW223877   5.155   5.023   5.841
 7660SOL     OW23878   6.561   6.520   5.804
 7660SOL    HW123879   6.489   6.582   5.775
 7660SOL    HW223880   6.603   6.477   5.723
 7661SOL     OW23881   3.076   1.192   5.362
 7661SOL    HW123882   3.170   1.168   5.340
 7661SOL    HW223883   3.073   1.247   5.445
 7662SOL     OW23884   0.141   5.916   1.118
 7662SOL    HW123885   0.090   5.995   1.151
 7662SOL    HW223886   0.083   5.835   1.121
 7663SOL     OW23887   1.114   5.836   4.410
 7663SOL    HW123888   1.089   5.896   4.334
 7663SOL    HW223889   1.213   5.824   4.412
 7664SOL     OW23890   5.171   2.326   2.361
 7664SOL    HW123891   5.086   2.287   2.325
 7664SOL    HW223892   5.161   2.348   2.458
 7665SOL     OW23893   3.133   0.925   5.630
 7665SOL    HW123894   3.108   0.919   5.533
 7665SOL    HW223895   3.056   0.959   5.683
 7666SOL     OW23896   5.391   5.268   4.113
 7666SOL    HW123897   5.438   5.200   4.170
 7666SOL    HW223898   5.458   5.314   4.055
 7667SOL     OW23899   4.103   6.029   1.989
 7667SOL    HW123900   4.019   6.036   1.936
 7667SOL    HW223901   4.178   5.998   1.929
 7668SOL     OW23902   1.629   5.749   0.182
 7668SOL    HW123903   1.572   5.829   0.198
 7668SOL    HW223904   1.688   5.765   0.103
 7669SOL     OW23905   2.267   1.762   6.964
 7669SOL    HW123906   2.299   1.697   0.011
 7669SOL    HW223907   2.256   1.852   7.006
 7670SOL     OW23908   0.927   0.787   0.741
 7670SOL    HW123909   0.983   0.819   0.817
 7670SOL    HW223910   0.956   0.834   0.657
 7671SOL     OW23911   3.086   0.045   1.506
 7671SOL    HW123912   3.048   0.105   1.436
 7671SOL    HW223913   3.157   0.093   1.557
 7672SOL     OW23914   5.668   3.872   2.236
 7672SOL    HW123915   5.714   3.951   2.275
 7672SOL    HW223916   5.572   3.894   2.218
 7673SOL     OW23917   2.045   6.707   4.837
 7673SOL    HW123918   2.025   6.675   4.744
 7673SOL    HW223919   2.088   6.634   4.890
 7674SOL     OW23920   3.786   5.702   3.961
 7674SOL    HW123921   3.756   5.764   4.034
 7674SOL    HW223922   3.734   5.617   3.966
 7675SOL     OW23923   4.334   6.601   3.087
 7675SOL    HW123924   4.425   6.606   3.127
 7675SOL    HW223925   4.269   6.570   3.156
 7676SOL     OW23926   3.281   3.297   4.763
 7676SOL    HW123927   3.182   3.287   4.762
 7676SOL    HW223928   3.322   3.226   4.820
 7677SOL     OW23929   6.959   5.477   6.729
 7677SOL    HW123930   6.976   5.568   6.690
 7677SOL    HW223931   7.004   5.471   6.818
 7678SOL     OW23932   3.950   1.380   6.118
 7678SOL    HW123933   3.970   1.455   6.180
 7678SOL    HW223934   4.020   1.310   6.126
 7679SOL     OW23935   2.997   4.883   4.027
 7679SOL    HW123936   2.975   4.855   4.121
 7679SOL    HW223937   2.926   4.944   3.993
 7680SOL     OW23938   1.960   6.888   4.396
 7680SOL    HW123939   1.947   6.899   4.298
 7680SOL    HW223940   1.875   6.858   4.439
 7681SOL     OW23941   2.066   2.373   5.399
 7681SOL    HW123942   2.019   2.372   5.311
 7681SOL    HW223943   2.013   2.321   5.466
 7682SOL     OW23944   3.260   0.654   2.164
 7682SOL    HW123945   3.256   0.586   2.091
 7682SOL    HW223946   3.347   0.703   2.158
 7683SOL     OW23947   0.300   4.708   4.545
 7683SOL    HW123948   0.350   4.623   4.554
 7683SOL    HW223949   0.336   4.776   4.610
 7684SOL     OW23950   4.982   3.254   1.919
 7684SOL    HW123951   5.074   3.218   1.932
 7684SOL    HW223952   4.927   3.188   1.867
 7685SOL     OW23953   2.556   0.361   0.370
 7685SOL    HW123954   2.521   0.269   0.354
 7685SOL    HW223955   2.619   0.386   0.297
 7686SOL     OW23956   0.086   0.527   4.279
 7686SOL    HW123957   0.181   0.510   4.254
 7686SOL    HW223958   0.079   0.617   4.323
 7687SOL     OW23959   5.056   3.491   6.072
 7687SOL    HW123960   4.964   3.462   6.046
 7687SOL    HW223961   5.122   3.458   6.004
 7688SOL     OW23962   6.185   3.038   0.132
 7688SOL    HW123963   6.132   3.051   0.049
 7688SOL    HW223964   6.124   3.013   0.207
 7689SOL     OW23965   5.509   0.449   2.600
 7689SOL    HW123966   5.448   0.515   2.644
 7689SOL    HW223967   5.532   0.376   2.664
 7690SOL     OW23968   5.447   4.811   2.244
 7690SOL    HW123969   5.531   4.849   2.282
 7690SOL    HW223970   5.469   4.751   2.167
 7691SOL     OW23971   5.178   2.583   4.020
 7691SOL    HW123972   5.099   2.591   3.960
 7691SOL    HW223973   5.241   2.513   3.984
 7692SOL     OW23974   2.285   6.883   2.030
 7692SOL    HW123975   2.352   6.955   2.011
 7692SOL    HW223976   2.208   6.891   1.967
 7693SOL     OW23977   2.854   1.615   1.791
 7693SOL    HW123978   2.859   1.686   1.720
 7693SOL    HW223979   2.890   1.529   1.753
 7694SOL     OW23980   3.850   2.606   0.245
 7694SOL    HW123981   3.829   2.698   0.278
 7694SOL    HW223982   3.937   2.608   0.196
 7695SOL     OW23983   5.186   6.727   3.634
 7695SOL    HW123984   5.210   6.652   3.573
 7695SOL    HW223985   5.269   6.757   3.683
 7696SOL     OW23986   3.020   2.220   5.619
 7696SOL    HW123987   3.047   2.275   5.698
 7696SOL    HW223988   3.052   2.264   5.535
 7697SOL     OW23989   5.765   6.378   2.710
 7697SOL    HW123990   5.846   6.344   2.662
 7697SOL    HW223991   5.792   6.419   2.797
 7698SOL     OW23992   6.527   2.608   0.937
 7698SOL    HW123993   6.449   2.617   1.000
 7698SOL    HW223994   6.592   2.681   0.955
 7699SOL     OW23995   3.801   6.733   5.667
 7699SOL    HW123996   3.886   6.772   5.702
 7699SOL    HW223997   3.755   6.682   5.740
 7700SOL     OW23998   6.346   5.404   1.674
 7700SOL    HW123999   6.366   5.404   1.576
 7700SOL    HW224000   6.250   5.380   1.688
 7701SOL     OW24001   2.306   1.638   6.526
 7701SOL    HW124002   2.298   1.539   6.520
 7701SOL    HW224003   2.403   1.664   6.527
 7702SOL     OW24004   5.854   6.721   5.653
 7702SOL    HW124005   5.858   6.800   5.591
 7702SOL    HW224006   5.829   6.639   5.601
 7703SOL     OW24007   6.896   6.260   5.941
 7703SOL    HW124008   6.904   6.236   6.038
 7703SOL    HW224009   6.979   6.309   5.913
 7704SOL     OW24010   1.667   1.778   4.879
 7704SOL    HW124011   1.595   1.816   4.821
 7704SOL    HW224012   1.722   1.852   4.918
 7705SOL     OW24013   0.652   4.633   0.056
 7705SOL    HW124014   0.688   4.659   0.146
 7705SOL    HW224015   0.619   4.715   0.008
 7706SOL     OW24016   3.595   3.453   2.513
 7706SOL    HW124017   3.593   3.363   2.471
 7706SOL    HW224018   3.517   3.462   2.576
 7707SOL     OW24019   0.212   4.393   6.242
 7707SOL    HW124020   0.127   4.379   6.294
 7707SOL    HW224021   0.289   4.398   6.305
 7708SOL     OW24022   0.897   0.077   4.528
 7708SOL    HW124023   0.957   0.020   4.471
 7708SOL    HW224024   0.938   0.166   4.542
 7709SOL     OW24025   6.423   4.530   0.916
 7709SOL    HW124026   6.436   4.621   0.954
 7709SOL    HW224027   6.491   4.514   0.844
 7710SOL     OW24028   6.328   2.886   2.231
 7710SOL    HW124029   6.365   2.978   2.220
 7710SOL    HW224030   6.341   2.834   2.146
 7711SOL     OW24031   0.923   4.218   3.712
 7711SOL    HW124032   0.869   4.273   3.648
 7711SOL    HW224033   0.861   4.168   3.772
 7712SOL     OW24034   0.915   4.436   4.644
 7712SOL    HW124035   0.835   4.496   4.650
 7712SOL    HW224036   0.908   4.365   4.715
 7713SOL     OW24037   0.828   5.252   0.823
 7713SOL    HW124038   0.734   5.256   0.858
 7713SOL    HW224039   0.881   5.327   0.862
 7714SOL     OW24040   6.110   1.710   5.373
 7714SOL    HW124041   6.052   1.715   5.292
 7714SOL    HW224042   6.174   1.787   5.374
 7715SOL     OW24043   3.574   3.379   6.600
 7715SOL    HW124044   3.550   3.475   6.614
 7715SOL    HW224045   3.518   3.322   6.660
 7716SOL     OW24046   0.984   0.512   6.173
 7716SOL    HW124047   0.945   0.596   6.211
 7716SOL    HW224048   1.044   0.470   6.241
 7717SOL     OW24049   0.866   1.577   6.100
 7717SOL    HW124050   0.886   1.668   6.062
 7717SOL    HW224051   0.896   1.507   6.036
 7718SOL     OW24052   0.348   3.327   2.752
 7718SOL    HW124053   0.286   3.358   2.680
 7718SOL    HW224054   0.325   3.374   2.837
 7719SOL     OW24055   1.929   5.887   4.789
 7719SOL    HW124056   2.028   5.896   4.777
 7719SOL    HW224057   1.909   5.868   4.886
 7720SOL     OW24058   4.744   1.497   6.886
 7720SOL    HW124059   4.702   1.500   6.976
 7720SOL    HW224060   4.745   1.589   6.846
 7721SOL     OW24061   5.920   5.862   2.162
 7721SOL    HW124062   5.982   5.788   2.137
 7721SOL    HW224063   5.899   5.917   2.082
 7722SOL     OW24064   0.698   5.682   4.316
 7722SOL    HW124065   0.646   5.767   4.325
 7722SOL    HW224066   0.698   5.633   4.404
 7723SOL     OW24067   4.052   4.309   6.772
 7723SOL    HW124068   4.034   4.407   6.785
 7723SOL    HW224069   3.968   4.264   6.743
 7724SOL     OW24070   1.123   3.707   0.301
 7724SOL    HW124071   1.132   3.621   0.250
 7724SOL    HW224072   1.076   3.774   0.244
 7725SOL     OW24073   5.763   3.607   4.519
 7725SOL    HW124074   5.781   3.699   4.486
 7725SOL    HW224075   5.683   3.607   4.578
 7726SOL     OW24076   2.091   3.226   0.289
 7726SOL    HW124077   2.124   3.133   0.274
 7726SOL    HW224078   1.998   3.223   0.326
 7727SOL     OW24079   5.379   0.682   2.727
 7727SOL    HW124080   5.291   0.708   2.767
 7727SOL    HW224081   5.449   0.679   2.798
 7728SOL     OW24082   2.109   3.531   4.904
 7728SOL    HW124083   2.108   3.450   4.845
 7728SOL    HW224084   2.127   3.503   4.998
 7729SOL     OW24085   6.860   1.046   2.764
 7729SOL    HW124086   6.862   0.953   2.801
 7729SOL    HW224087   6.934   1.099   2.805
 7730SOL     OW24088   5.559   4.602   5.706
 7730SOL    HW124089   5.644   4.579   5.658
 7730SOL    HW224090   5.481   4.577   5.649
 7731SOL     OW24091   6.996   0.498   5.912
 7731SOL    HW124092   6.961   0.506   6.006
 7731SOL    HW224093   0.053   0.438   5.911
 7732SOL     OW24094   4.736   0.866   0.285
 7732SOL    HW124095   4.824   0.898   0.251
 7732SOL    HW224096   4.726   0.768   0.265
 7733SOL     OW24097   6.829   5.628   0.853
 7733SOL    HW124098   6.774   5.568   0.912
 7733SOL    HW224099   6.773   5.705   0.823
 7734SOL     OW24100   4.110   3.746   3.228
 7734SOL    HW124101   4.091   3.731   3.131
 7734SOL    HW224102   4.208   3.739   3.245
 7735SOL     OW24103   1.430   5.940   0.851
 7735SOL    HW124104   1.390   5.920   0.940
 7735SOL    HW224105   1.387   6.022   0.812
 7736SOL     OW24106   1.716   1.952   0.766
 7736SOL    HW124107   1.764   1.889   0.827
 7736SOL    HW224108   1.732   1.924   0.671
 7737SOL     OW24109   4.326   4.255   6.763
 7737SOL    HW124110   4.254   4.282   6.826
 7737SOL    HW224111   4.380   4.181   6.804
 7738SOL     OW24112   1.591   1.472   5.475
 7738SOL    HW124113   1.522   1.446   5.407
 7738SOL    HW224114   1.608   1.394   5.535
 7739SOL     OW24115   1.470   2.683   0.657
 7739SOL    HW124116   1.492   2.588   0.680
 7739SOL    HW224117   1.546   2.722   0.605
 7740SOL     OW24118   2.465   0.886   4.314
 7740SOL    HW124119   2.550   0.845   4.349
 7740SOL    HW224120   2.430   0.951   4.380
 7741SOL     OW24121   6.762   4.039   5.919
 7741SOL    HW124122   6.849   4.083   5.942
 7741SOL    HW224123   6.687   4.102   5.937
 7742SOL     OW24124   4.036   2.146   3.794
 7742SOL    HW124125   4.101   2.127   3.868
 7742SOL    HW224126   4.079   2.207   3.727
 7743SOL     OW24127   3.585   1.364   6.418
 7743SOL    HW124128   3.540   1.442   6.375
 7743SOL    HW224129   3.612   1.388   6.511
 7744SOL     OW24130   0.717   6.661   4.938
 7744SOL    HW124131   0.682   6.730   4.875
 7744SOL    HW224132   0.644   6.597   4.961
 7745SOL     OW24133   3.105   0.046   0.606
 7745SOL    HW124134   3.152   0.016   0.523
 7745SOL    HW224135   3.091   6.990   0.667
 7746SOL     OW24136   0.214   6.363   1.264
 7746SOL    HW124137   0.202   6.398   1.171
 7746SOL    HW224138   0.304   6.322   1.273
 7747SOL     OW24139   0.447   5.673   1.375
 7747SOL    HW124140   0.353   5.669   1.340
 7747SOL    HW224141   0.449   5.732   1.457
 7748SOL     OW24142   4.613   0.977   5.903
 7748SOL    HW124143   4.687   0.984   5.836
 7748SOL    HW224144   4.566   1.065   5.910
 7749SOL     OW24145   3.190   3.489   2.853
 7749SOL    HW124146   3.094   3.511   2.838
 7749SOL    HW224147   3.222   3.531   2.938
 7750SOL     OW24148   5.030   5.115   6.146
 7750SOL    HW124149   5.093   5.108   6.222
 7750SOL    HW224150   5.028   5.209   6.112
 7751SOL     OW24151   0.158   1.126   4.936
 7751SOL    HW124152   0.222   1.063   4.980
 7751SOL    HW224153   0.082   1.074   4.896
 7752SOL     OW24154   6.567   4.663   5.214
 7752SOL    HW124155   6.613   4.728   5.274
 7752SOL    HW224156   6.622   4.651   5.131
 7753SOL     OW24157   3.027   0.899   4.862
 7753SOL    HW124158   3.125   0.887   4.850
 7753SOL    HW224159   2.978   0.830   4.809
 7754SOL     OW24160   5.899   0.574   1.238
 7754SOL    HW124161   5.857   0.603   1.324
 7754SOL    HW224162   5.982   0.627   1.221
 7755SOL     OW24163   1.616   6.155   5.312
 7755SOL    HW124164   1.540   6.200   5.360
 7755SOL    HW224165   1.634   6.203   5.226
 7756SOL     OW24166   4.129   5.710   2.936
 7756SOL    HW124167   4.188   5.753   2.868
 7756SOL    HW224168   4.175   5.630   2.973
 7757SOL     OW24169   3.334   0.409   5.963
 7757SOL    HW124170   3.292   0.489   5.921
 7757SOL    HW224171   3.424   0.393   5.922
 7758SOL     OW24172   2.571   2.600   6.409
 7758SOL    HW124173   2.643   2.590   6.340
 7758SOL    HW224174   2.568   2.695   6.440
 7759SOL     OW24175   1.821   0.622   4.665
 7759SOL    HW124176   1.729   0.587   4.646
 7759SOL    HW224177   1.857   0.667   4.583
 7760SOL     OW24178   5.104   2.060   3.172
 7760SOL    HW124179   5.066   2.135   3.227
 7760SOL    HW224180   5.048   2.048   3.090
 7761SOL     OW24181   4.647   0.947   6.881
 7761SOL    HW124182   4.547   0.951   6.879
 7761SOL    HW224183   4.676   0.870   6.938
 7762SOL     OW24184   1.381   2.484   0.409
 7762SOL    HW124185   1.424   2.565   0.368
 7762SOL    HW224186   1.349   2.423   0.337
 7763SOL     OW24187   2.317   2.469   1.429
 7763SOL    HW124188   2.308   2.385   1.482
 7763SOL    HW224189   2.273   2.545   1.477
 7764SOL     OW24190   3.484   3.368   2.116
 7764SOL    HW124191   3.451   3.317   2.196
 7764SOL    HW224192   3.478   3.310   2.035
 7765SOL     OW24193   6.768   1.609   2.061
 7765SOL    HW124194   6.703   1.556   2.115
 7765SOL    HW224195   6.861   1.578   2.083
 7766SOL     OW24196   6.804   2.832   6.685
 7766SOL    HW124197   6.761   2.763   6.742
 7766SOL    HW224198   6.779   2.816   6.589
 7767SOL     OW24199   5.648   3.993   5.303
 7767SOL    HW124200   5.608   4.067   5.248
 7767SOL    HW224201   5.642   4.017   5.399
 7768SOL     OW24202   3.755   5.345   1.467
 7768SOL    HW124203   3.736   5.368   1.371
 7768SOL    HW224204   3.673   5.363   1.522
 7769SOL     OW24205   5.637   2.382   2.759
 7769SOL    HW124206   5.708   2.312   2.753
 7769SOL    HW224207   5.570   2.367   2.686
 7770SOL     OW24208   3.542   6.234   1.385
 7770SOL    HW124209   3.460   6.238   1.442
 7770SOL    HW224210   3.621   6.210   1.440
 7771SOL     OW24211   1.596   1.076   4.240
 7771SOL    HW124212   1.600   1.160   4.294
 7771SOL    HW224213   1.507   1.070   4.195
 7772SOL     OW24214   5.871   0.750   5.408
 7772SOL    HW124215   5.813   0.703   5.341
 7772SOL    HW224216   5.887   0.844   5.378
 7773SOL     OW24217   3.986   4.462   6.143
 7773SOL    HW124218   4.008   4.446   6.239
 7773SOL    HW224219   3.888   4.451   6.129
 7774SOL     OW24220   5.150   2.238   6.622
 7774SOL    HW124221   5.116   2.152   6.583
 7774SOL    HW224222   5.250   2.242   6.611
 7775SOL     OW24223   1.504   6.848   2.294
 7775SOL    HW124224   1.533   6.834   2.389
 7775SOL    HW224225   1.419   6.901   2.293
 7776SOL     OW24226   3.375   3.842   1.025
 7776SOL    HW124227   3.451   3.783   1.001
 7776SOL    HW224228   3.409   3.932   1.052
 7777SOL     OW24229   1.104   0.124   6.312
 7777SOL    HW124230   1.075   0.104   6.405
 7777SOL    HW224231   1.028   0.163   6.260
 7778SOL     OW24232   4.956   1.696   1.758
 7778SOL    HW124233   4.877   1.689   1.819
 7778SOL    HW224234   4.971   1.792   1.735
 7779SOL     OW24235   4.210   2.818   0.399
 7779SOL    HW124236   4.139   2.849   0.336
 7779SOL    HW224237   4.297   2.863   0.377
 7780SOL     OW24238   1.112   0.284   4.904
 7780SOL    HW124239   1.152   0.230   4.830
 7780SOL    HW224240   1.130   0.381   4.888
 7781SOL     OW24241   2.008   4.476   5.431
 7781SOL    HW124242   1.925   4.481   5.376
 7781SOL    HW224243   2.088   4.493   5.373
 7782SOL     OW24244   4.556   4.331   0.194
 7782SOL    HW124245   4.490   4.399   0.160
 7782SOL    HW224246   4.513   4.276   0.266
 7783SOL     OW24247   2.492   6.264   7.005
 7783SOL    HW124248   2.572   6.319   6.980
 7783SOL    HW224249   2.512   6.212   0.066
 7784SOL     OW24250   6.539   3.599   0.408
 7784SOL    HW124251   6.602   3.557   0.473
 7784SOL    HW224252   6.472   3.532   0.376
 7785SOL     OW24253   1.522   5.462   6.393
 7785SOL    HW124254   1.536   5.560   6.404
 7785SOL    HW224255   1.443   5.433   6.448
 7786SOL     OW24256   3.515   4.212   5.185
 7786SOL    HW124257   3.503   4.219   5.086
 7786SOL    HW224258   3.502   4.117   5.214
 7787SOL     OW24259   3.035   2.506   5.402
 7787SOL    HW124260   3.109   2.487   5.336
 7787SOL    HW224261   2.964   2.437   5.392
 7788SOL     OW24262   0.248   2.039   0.919
 7788SOL    HW124263   0.299   1.994   0.846
 7788SOL    HW224264   0.228   1.973   0.991
 7789SOL     OW24265   1.876   0.231   1.731
 7789SOL    HW124266   1.806   0.297   1.705
 7789SOL    HW224267   1.914   0.254   1.820
 7790SOL     OW24268   6.720   3.569   2.564
 7790SOL    HW124269   6.760   3.547   2.475
 7790SOL    HW224270   6.742   3.664   2.587
 7791SOL     OW24271   6.975   5.031   5.514
 7791SOL    HW124272   6.878   5.038   5.490
 7791SOL    HW224273   7.009   4.940   5.488
 7792SOL     OW24274   2.086   5.586   6.619
 7792SOL    HW124275   2.039   5.577   6.706
 7792SOL    HW224276   2.147   5.508   6.606
 7793SOL     OW24277   1.905   0.853   6.180
 7793SOL    HW124278   1.964   0.930   6.206
 7793SOL    HW224279   1.869   0.810   6.261
 7794SOL     OW24280   5.545   5.579   2.804
 7794SOL    HW124281   5.450   5.561   2.828
 7794SOL    HW224282   5.602   5.501   2.829
 7795SOL     OW24283   1.218   4.168   6.690
 7795SOL    HW124284   1.317   4.180   6.682
 7795SOL    HW224285   1.176   4.255   6.715
 7796SOL     OW24286   3.955   4.013   4.912
 7796SOL    HW124287   3.955   4.068   4.996
 7796SOL    HW224288   4.009   3.931   4.927
 7797SOL     OW24289   0.858   6.996   3.324
 7797SOL    HW124290   0.794   0.045   3.356
 7797SOL    HW224291   0.951   0.010   3.327
 7798SOL     OW24292   3.941   6.240   6.111
 7798SOL    HW124293   3.867   6.301   6.082
 7798SOL    HW224294   3.976   6.190   6.032
 7799SOL     OW24295   6.289   5.997   1.490
 7799SOL    HW124296   6.197   5.981   1.525
 7799SOL    HW224297   6.315   5.922   1.429
 7800SOL     OW24298   0.869   6.182   2.097
 7800SOL    HW124299   0.838   6.277   2.101
 7800SOL    HW224300   0.818   6.133   2.027
 7801SOL     OW24301   4.197   2.116   5.338
 7801SOL    HW124302   4.168   2.086   5.429
 7801SOL    HW224303   4.213   2.037   5.280
 7802SOL     OW24304   5.654   2.414   0.435
 7802SOL    HW124305   5.706   2.330   0.447
 7802SOL    HW224306   5.633   2.427   0.338
 7803SOL     OW24307   3.305   3.597   5.644
 7803SOL    HW124308   3.359   3.538   5.583
 7803SOL    HW224309   3.280   3.680   5.594
 7804SOL     OW24310   5.398   0.924   6.428
 7804SOL    HW124311   5.321   0.988   6.433
 7804SOL    HW224312   5.467   0.960   6.364
 7805SOL     OW24313   4.995   2.752   1.531
 7805SOL    HW124314   4.911   2.794   1.494
 7805SOL    HW224315   4.993   2.757   1.631
 7806SOL     OW24316   4.850   3.222   0.065
 7806SOL    HW124317   4.814   3.284   0.134
 7806SOL    HW224318   4.780   3.205   7.018
 7807SOL     OW24319   0.638   3.501   0.247
 7807SOL    HW124320   0.644   3.403   0.227
 7807SOL    HW224321   0.720   3.531   0.295
 7808SOL     OW24322   0.584   0.617   5.384
 7808SOL    HW124323   0.675   0.595   5.419
 7808SOL    HW224324   0.593   0.676   5.303
 7809SOL     OW24325   1.382   5.629   5.613
 7809SOL    HW124326   1.421   5.560   5.551
 7809SOL    HW224327   1.396   5.600   5.708
 7810SOL     OW24328   2.558   1.298   6.951
 7810SOL    HW124329   2.617   1.284   0.009
 7810SOL    HW224330   2.465   1.268   6.972
 7811SOL     OW24331   0.296   4.811   5.008
 7811SOL    HW124332   0.239   4.884   5.047
 7811SOL    HW224333   0.387   4.847   4.988
 7812SOL     OW24334   0.509   1.885   3.444
 7812SOL    HW124335   0.485   1.844   3.356
 7812SOL    HW224336   0.425   1.915   3.491
 7813SOL     OW24337   6.319   2.442   0.800
 7813SOL    HW124338   6.353   2.424   0.708
 7813SOL    HW224339   6.386   2.495   0.852
 7814SOL     OW24340   1.932   2.871   4.951
 7814SOL    HW124341   1.846   2.875   5.002
 7814SOL    HW224342   1.913   2.870   4.853
 7815SOL     OW24343   0.060   1.824   5.246
 7815SOL    HW124344   0.071   1.869   5.157
 7815SOL    HW224345   0.134   1.758   5.260
 7816SOL     OW24346   0.571   4.872   4.951
 7816SOL    HW124347   0.602   4.966   4.968
 7816SOL    HW224348   0.593   4.815   5.030
 7817SOL     OW24349   5.394   3.289   5.911
 7817SOL    HW124350   5.470   3.328   5.964
 7817SOL    HW224351   5.429   3.252   5.825
 7818SOL     OW24352   5.200   3.878   3.326
 7818SOL    HW124353   5.191   3.974   3.301
 7818SOL    HW224354   5.113   3.831   3.311
 7819SOL     OW24355   0.951   1.467   1.091
 7819SOL    HW124356   1.029   1.410   1.118
 7819SOL    HW224357   0.873   1.409   1.069
 7820SOL     OW24358   2.725   0.272   6.332
 7820SOL    HW124359   2.808   0.278   6.388
 7820SOL    HW224360   2.683   0.362   6.325
 7821SOL     OW24361   2.954   5.146   0.837
 7821SOL    HW124362   2.882   5.089   0.796
 7821SOL    HW224363   2.997   5.201   0.766
 7822SOL     OW24364   1.987   6.442   5.958
 7822SOL    HW124365   2.042   6.505   6.012
 7822SOL    HW224366   2.014   6.449   5.862
 7823SOL     OW24367   1.877   3.707   5.065
 7823SOL    HW124368   1.953   3.700   5.000
 7823SOL    HW224369   1.814   3.630   5.051
 7824SOL     OW24370   0.582   3.268   5.118
 7824SOL    HW124371   0.554   3.174   5.138
 7824SOL    HW224372   0.667   3.266   5.065
 7825SOL     OW24373   2.945   0.580   0.218
 7825SOL    HW124374   3.034   0.566   0.174
 7825SOL    HW224375   2.956   0.577   0.318
 7826SOL     OW24376   0.703   3.731   5.639
 7826SOL    HW124377   0.708   3.749   5.737
 7826SOL    HW224378   0.607   3.732   5.609
 7827SOL     OW24379   6.126   5.054   4.486
 7827SOL    HW124380   6.122   5.140   4.434
 7827SOL    HW224381   6.189   4.991   4.441
 7828SOL     OW24382   1.133   4.870   6.407
 7828SOL    HW124383   1.116   4.775   6.379
 7828SOL    HW224384   1.058   4.901   6.465
 7829SOL     OW24385   4.175   4.767   0.662
 7829SOL    HW124386   4.273   4.778   0.677
 7829SOL    HW224387   4.126   4.779   0.748
 7830SOL     OW24388   2.263   5.212   3.729
 7830SOL    HW124389   2.280   5.301   3.686
 7830SOL    HW224390   2.273   5.221   3.829
 7831SOL     OW24391   1.770   0.352   5.661
 7831SOL    HW124392   1.822   0.412   5.601
 7831SOL    HW224393   1.832   0.300   5.720
 7832SOL     OW24394   6.545   1.212   5.535
 7832SOL    HW124395   6.517   1.308   5.532
 7832SOL    HW224396   6.480   1.156   5.485
 7833SOL     OW24397   0.502   0.375   2.773
 7833SOL    HW124398   0.580   0.316   2.794
 7833SOL    HW224399   0.534   0.455   2.722
 7834SOL     OW24400   6.853   3.474   4.742
 7834SOL    HW124401   6.844   3.496   4.645
 7834SOL    HW224402   6.815   3.548   4.797
 7835SOL     OW24403   3.791   2.178   5.537
 7835SOL    HW124404   3.744   2.259   5.573
 7835SOL    HW224405   3.801   2.111   5.611
 7836SOL     OW24406   2.964   3.862   4.941
 7836SOL    HW124407   2.991   3.955   4.966
 7836SOL    HW224408   2.985   3.845   4.845
 7837SOL     OW24409   0.990   5.388   6.467
 7837SOL    HW124410   0.986   5.480   6.427
 7837SOL    HW224411   0.946   5.389   6.557
 7838SOL     OW24412   4.048   5.172   1.816
 7838SOL    HW124413   4.139   5.159   1.854
 7838SOL    HW224414   4.008   5.083   1.794
 7839SOL     OW24415   6.165   4.618   4.388
 7839SOL    HW124416   6.126   4.547   4.446
 7839SOL    HW224417   6.110   4.629   4.306
 7840SOL     OW24418   2.043   2.635   3.663
 7840SOL    HW124419   2.126   2.666   3.709
 7840SOL    HW224420   2.060   2.546   3.621
 7841SOL     OW24421   4.135   1.924   6.042
 7841SOL    HW124422   4.040   1.896   6.028
 7841SOL    HW224423   4.142   1.974   6.128
 7842SOL     OW24424   1.360   0.670   0.879
 7842SOL    HW124425   1.410   0.754   0.859
 7842SOL    HW224426   1.262   0.688   0.881
 7843SOL     OW24427   7.017   6.792   2.104
 7843SOL    HW124428   6.981   6.747   2.187
 7843SOL    HW224429   6.942   6.834   2.054
 7844SOL     OW24430   4.198   0.084   2.378
 7844SOL    HW124431   4.173   0.023   2.453
 7844SOL    HW224432   4.210   0.030   2.294
 7845SOL     OW24433   6.012   3.007   1.445
 7845SOL    HW124434   5.918   3.035   1.424
 7845SOL    HW224435   6.076   3.062   1.391
 7846SOL     OW24436   0.828   1.173   0.609
 7846SOL    HW124437   0.862   1.151   0.700
 7846SOL    HW224438   0.798   1.089   0.564
 7847SOL     OW24439   5.430   4.430   6.013
 7847SOL    HW124440   5.354   4.365   5.999
 7847SOL    HW224441   5.516   4.386   5.987
 7848SOL     OW24442   4.004   4.625   0.227
 7848SOL    HW124443   3.934   4.560   0.257
 7848SOL    HW224444   4.095   4.586   0.241
 7849SOL     OW24445   4.342   5.359   6.832
 7849SOL    HW124446   4.386   5.277   6.795
 7849SOL    HW224447   4.245   5.340   6.848
 7850SOL     OW24448   0.364   0.592   3.491
 7850SOL    HW124449   0.417   0.638   3.420
 7850SOL    HW224450   0.368   0.493   3.477
 7851SOL     OW24451   0.601   5.139   1.145
 7851SOL    HW124452   0.683   5.120   1.200
 7851SOL    HW224453   0.564   5.228   1.171
 7852SOL     OW24454   1.032   3.191   5.998
 7852SOL    HW124455   1.086   3.112   5.970
 7852SOL    HW224456   1.093   3.267   6.021
 7853SOL     OW24457   4.112   3.116   1.800
 7853SOL    HW124458   4.099   3.017   1.799
 7853SOL    HW224459   4.073   3.156   1.718
 7854SOL     OW24460   4.528   1.320   1.356
 7854SOL    HW124461   4.571   1.329   1.446
 7854SOL    HW224462   4.429   1.313   1.367
 7855SOL     OW24463   5.288   6.312   3.994
 7855SOL    HW124464   5.211   6.297   3.932
 7855SOL    HW224465   5.256   6.363   4.074
 7856SOL     OW24466   2.043   6.159   5.964
 7856SOL    HW124467   2.100   6.135   5.886
 7856SOL    HW224468   2.007   6.252   5.952
 7857SOL     OW24469   6.692   4.908   0.566
 7857SOL    HW124470   6.602   4.900   0.524
 7857SOL    HW224471   6.731   4.998   0.546
 7858SOL     OW24472   0.489   3.988   5.995
 7858SOL    HW124473   0.553   4.031   5.931
 7858SOL    HW224474   0.487   3.889   5.979
 7859SOL     OW24475   5.031   1.899   0.816
 7859SOL    HW124476   4.967   1.972   0.840
 7859SOL    HW224477   4.992   1.842   0.744
 7860SOL     OW24478   2.055   1.614   3.481
 7860SOL    HW124479   2.081   1.638   3.574
 7860SOL    HW224480   2.121   1.654   3.417
 7861SOL     OW24481   1.884   5.959   1.081
 7861SOL    HW124482   1.955   5.918   1.138
 7861SOL    HW224483   1.865   6.052   1.112
 7862SOL     OW24484   1.466   6.856   0.219
 7862SOL    HW124485   1.522   6.799   0.158
 7862SOL    HW224486   1.443   6.805   0.301
 7863SOL     OW24487   1.340   3.937   4.191
 7863SOL    HW124488   1.340   3.889   4.103
 7863SOL    HW224489   1.246   3.943   4.226
 7864SOL     OW24490   2.772   5.998   5.135
 7864SOL    HW124491   2.725   6.084   5.112
 7864SOL    HW224492   2.819   6.009   5.223
 7865SOL     OW24493   6.009   4.769   3.861
 7865SOL    HW124494   6.042   4.729   3.947
 7865SOL    HW224495   5.974   4.696   3.802
 7866SOL     OW24496   1.286   0.965   5.525
 7866SOL    HW124497   1.262   1.058   5.554
 7866SOL    HW224498   1.384   0.950   5.538
 7867SOL     OW24499   3.802   4.940   3.794
 7867SOL    HW124500   3.710   4.922   3.758
 7867SOL    HW224501   3.795   4.981   3.885
 7868SOL     OW24502   3.575   6.392   1.646
 7868SOL    HW124503   3.584   6.473   1.589
 7868SOL    HW224504   3.479   6.363   1.646
 7869SOL     OW24505   5.419   4.660   0.267
 7869SOL    HW124506   5.490   4.592   0.281
 7869SOL    HW224507   5.418   4.688   0.171
 7870SOL     OW24508   6.351   0.267   3.726
 7870SOL    HW124509   6.391   0.196   3.668
 7870SOL    HW224510   6.268   0.232   3.770
 7871SOL     OW24511   4.719   1.485   0.666
 7871SOL    HW124512   4.788   1.413   0.653
 7871SOL    HW224513   4.679   1.477   0.758
 7872SOL     OW24514   0.322   4.972   3.269
 7872SOL    HW124515   0.310   5.033   3.191
 7872SOL    HW224516   0.253   4.993   3.339
 7873SOL     OW24517   4.466   2.419   6.742
 7873SOL    HW124518   4.543   2.399   6.681
 7873SOL    HW224519   4.386   2.446   6.687
 7874SOL     OW24520   6.343   2.723   6.658
 7874SOL    HW124521   6.301   2.695   6.744
 7874SOL    HW224522   6.398   2.805   6.672
 7875SOL     OW24523   6.690   4.604   6.749
 7875SOL    HW124524   6.624   4.645   6.686
 7875SOL    HW224525   6.753   4.674   6.782
 7876SOL     OW24526   1.550   6.437   3.064
 7876SOL    HW124527   1.479   6.458   3.132
 7876SOL    HW224528   1.622   6.506   3.069
 7877SOL     OW24529   0.187   3.042   2.558
 7877SOL    HW124530   0.135   3.126   2.547
 7877SOL    HW224531   0.189   2.992   2.472
 7878SOL     OW24532   3.878   6.951   2.632
 7878SOL    HW124533   3.848   6.888   2.559
 7878SOL    HW224534   3.962   6.997   2.604
 7879SOL     OW24535   2.881   5.887   2.683
 7879SOL    HW124536   2.858   5.970   2.632
 7879SOL    HW224537   2.909   5.911   2.775
 7880SOL     OW24538   0.737   4.751   2.350
 7880SOL    HW124539   0.729   4.839   2.302
 7880SOL    HW224540   0.706   4.762   2.445
 7881SOL     OW24541   4.931   3.192   3.940
 7881SOL    HW124542   4.883   3.151   3.862
 7881SOL    HW224543   5.028   3.202   3.919
 7882SOL     OW24544   0.224   2.596   6.755
 7882SOL    HW124545   0.159   2.600   6.679
 7882SOL    HW224546   0.210   2.675   6.815
 7883SOL     OW24547   0.517   6.779   4.413
 7883SOL    HW124548   0.447   6.772   4.342
 7883SOL    HW224549   0.598   6.727   4.385
 7884SOL     OW24550   1.350   2.817   4.175
 7884SOL    HW124551   1.282   2.850   4.242
 7884SOL    HW224552   1.303   2.766   4.103
 7885SOL     OW24553   0.060   6.026   6.808
 7885SOL    HW124554   7.004   5.967   6.826
 7885SOL    HW224555   0.040   6.118   6.841
 7886SOL     OW24556   5.032   3.628   0.618
 7886SOL    HW124557   5.083   3.605   0.700
 7886SOL    HW224558   5.026   3.547   0.559
 7887SOL     OW24559   4.592   2.475   6.132
 7887SOL    HW124560   4.560   2.565   6.103
 7887SOL    HW224561   4.666   2.445   6.072
 7888SOL     OW24562   4.186   5.741   4.397
 7888SOL    HW124563   4.151   5.835   4.390
 7888SOL    HW224564   4.276   5.736   4.353
 7889SOL     OW24565   6.499   4.938   3.172
 7889SOL    HW124566   6.520   4.840   3.169
 7889SOL    HW224567   6.577   4.989   3.136
 7890SOL     OW24568   1.764   3.540   2.688
 7890SOL    HW124569   1.817   3.532   2.604
 7890SOL    HW224570   1.814   3.494   2.763
 7891SOL     OW24571   1.004   4.341   3.224
 7891SOL    HW124572   0.994   4.260   3.167
 7891SOL    HW224573   1.095   4.381   3.209
 7892SOL     OW24574   2.288   2.111   4.837
 7892SOL    HW124575   2.246   2.164   4.910
 7892SOL    HW224576   2.323   2.025   4.873
 7893SOL     OW24577   5.400   6.732   0.828
 7893SOL    HW124578   5.496   6.710   0.841
 7893SOL    HW224579   5.343   6.668   0.880
 7894SOL     OW24580   2.588   0.349   1.937
 7894SOL    HW124581   2.583   0.413   2.014
 7894SOL    HW224582   2.583   0.255   1.972
 7895SOL     OW24583   0.219   1.420   3.305
 7895SOL    HW124584   0.138   1.457   3.349
 7895SOL    HW224585   0.294   1.485   3.313
 7896SOL     OW24586   3.543   1.636   6.364
 7896SOL    HW124587   3.564   1.605   6.272
 7896SOL    HW224588   3.444   1.650   6.373
 7897SOL     OW24589   2.895   3.548   6.668
 7897SOL    HW124590   2.826   3.476   6.676
 7897SOL    HW224591   2.895   3.583   6.575
 7898SOL     OW24592   5.293   1.281   4.038
 7898SOL    HW124593   5.260   1.208   4.097
 7898SOL    HW224594   5.296   1.367   4.089
 7899SOL     OW24595   4.635   0.913   2.118
 7899SOL    HW124596   4.573   0.991   2.126
 7899SOL    HW224597   4.716   0.941   2.066
 7900SOL     OW24598   0.939   5.668   1.605
 7900SOL    HW124599   1.003   5.725   1.553
 7900SOL    HW224600   0.890   5.607   1.543
 7901SOL     OW24601   5.684   4.926   0.968
 7901SOL    HW124602   5.715   4.997   0.905
 7901SOL    HW224603   5.608   4.875   0.927
 7902SOL     OW24604   4.947   4.726   5.636
 7902SOL    HW124605   4.923   4.812   5.680
 7902SOL    HW224606   4.872   4.697   5.577
 7903SOL     OW24607   0.161   3.206   1.404
 7903SOL    HW124608   0.214   3.134   1.362
 7903SOL    HW224609   0.110   3.256   1.334
 7904SOL     OW24610   5.722   2.631   2.707
 7904SOL    HW124611   5.649   2.567   2.733
 7904SOL    HW224612   5.797   2.623   2.773
 7905SOL     OW24613   1.763   1.541   2.213
 7905SOL    HW124614   1.679   1.574   2.257
 7905SOL    HW224615   1.753   1.444   2.191
 7906SOL     OW24616   0.891   4.639   6.593
 7906SOL    HW124617   0.856   4.706   6.528
 7906SOL    HW224618   0.872   4.546   6.560
 7907SOL     OW24619   0.198   2.956   2.842
 7907SOL    HW124620   0.098   2.952   2.853
 7907SOL    HW224621   0.220   2.991   2.751
 7908SOL     OW24622   0.417   1.877   2.853
 7908SOL    HW124623   0.349   1.818   2.897
 7908SOL    HW224624   0.419   1.965   2.899
 7909SOL     OW24625   4.438   6.518   4.690
 7909SOL    HW124626   4.529   6.488   4.718
 7909SOL    HW224627   4.373   6.496   4.763
 7910SOL     OW24628   6.797   2.589   5.760
 7910SOL    HW124629   6.732   2.543   5.821
 7910SOL    HW224630   6.752   2.611   5.674
 7911SOL     OW24631   0.182   5.332   6.610
 7911SOL    HW124632   0.207   5.396   6.536
 7911SOL    HW224633   0.095   5.360   6.650
 7912SOL     OW24634   6.813   5.302   5.318
 7912SOL    HW124635   6.908   5.290   5.288
 7912SOL    HW224636   6.788   5.229   5.381
 7913SOL     OW24637   1.496   6.275   6.582
 7913SOL    HW124638   1.443   6.244   6.502
 7913SOL    HW224639   1.517   6.196   6.640
 7914SOL     OW24640   6.132   4.532   0.549
 7914SOL    HW124641   6.054   4.569   0.601
 7914SOL    HW224642   6.191   4.480   0.610
 7915SOL     OW24643   2.763   0.956   2.648
 7915SOL    HW124644   2.861   0.956   2.665
 7915SOL    HW224645   2.739   1.033   2.589
 7916SOL     OW24646   4.460   3.787   5.449
 7916SOL    HW124647   4.422   3.835   5.528
 7916SOL    HW224648   4.387   3.763   5.386
 7917SOL     OW24649   4.082   3.546   3.458
 7917SOL    HW124650   4.097   3.451   3.431
 7917SOL    HW224651   4.069   3.602   3.376
 7918SOL     OW24652   5.968   1.955   2.237
 7918SOL    HW124653   6.012   1.888   2.296
 7918SOL    HW224654   6.018   2.042   2.241
 7919SOL     OW24655   5.415   3.932   2.176
 7919SOL    HW124656   5.319   3.904   2.177
 7919SOL    HW224657   5.432   3.990   2.096
 7920SOL     OW24658   0.440   6.488   1.651
 7920SOL    HW124659   0.359   6.504   1.706
 7920SOL    HW224660   0.515   6.457   1.709
 7921SOL     OW24661   2.824   5.608   1.947
 7921SOL    HW124662   2.900   5.613   1.883
 7921SOL    HW224663   2.776   5.521   1.936
 7922SOL     OW24664   0.820   4.561   5.345
 7922SOL    HW124665   0.723   4.578   5.360
 7922SOL    HW224666   0.843   4.468   5.376
 7923SOL     OW24667   1.226   1.882   2.857
 7923SOL    HW124668   1.323   1.895   2.838
 7923SOL    HW224669   1.205   1.912   2.950
 7924SOL     OW24670   2.225   1.143   3.482
 7924SOL    HW124671   2.183   1.091   3.556
 7924SOL    HW224672   2.272   1.081   3.419
 7925SOL     OW24673   0.885   1.284   6.880
 7925SOL    HW124674   0.960   1.242   6.828
 7925SOL    HW224675   0.883   1.382   6.862
 7926SOL     OW24676   3.143   0.349   2.130
 7926SOL    HW124677   3.168   0.398   2.047
 7926SOL    HW224678   3.226   0.324   2.180
 7927SOL     OW24679   4.353   4.622   4.575
 7927SOL    HW124680   4.274   4.573   4.611
 7927SOL    HW224681   4.437   4.579   4.609
 7928SOL     OW24682   0.653   4.396   6.970
 7928SOL    HW124683   0.581   4.344   7.015
 7928SOL    HW224684   0.656   4.489   7.008
 7929SOL     OW24685   3.557   4.162   4.917
 7929SOL    HW124686   3.470   4.149   4.870
 7929SOL    HW224687   3.629   4.178   4.849
 7930SOL     OW24688   4.245   6.700   2.603
 7930SOL    HW124689   4.191   6.616   2.610
 7930SOL    HW224690   4.328   6.691   2.657
 7931SOL     OW24691   2.951   3.532   5.963
 7931SOL    HW124692   2.894   3.612   5.975
 7931SOL    HW224693   2.914   3.456   6.016
 7932SOL     OW24694   3.297   0.510   0.516
 7932SOL    HW124695   3.289   0.509   0.616
 7932SOL    HW224696   3.313   0.417   0.484
 7933SOL     OW24697   1.842   1.326   6.475
 7933SOL    HW124698   1.833   1.290   6.382
 7933SOL    HW224699   1.930   1.371   6.485
 7934SOL     OW24700   4.296   2.343   5.793
 7934SOL    HW124701   4.331   2.349   5.700
 7934SOL    HW224702   4.248   2.257   5.806
 7935SOL     OW24703   4.932   5.873   1.985
 7935SOL    HW124704   4.887   5.792   1.949
 7935SOL    HW224705   4.963   5.930   1.909
 7936SOL     OW24706   4.353   6.409   1.943
 7936SOL    HW124707   4.430   6.471   1.959
 7936SOL    HW224708   4.369   6.322   1.990
 7937SOL     OW24709   6.301   1.841   6.066
 7937SOL    HW124710   6.264   1.892   6.144
 7937SOL    HW224711   6.342   1.756   6.098
 7938SOL     OW24712   6.421   5.142   4.246
 7938SOL    HW124713   6.446   5.054   4.285
 7938SOL    HW224714   6.482   5.213   4.282
 7939SOL     OW24715   0.488   6.419   4.059
 7939SOL    HW124716   0.508   6.327   4.026
 7939SOL    HW224717   0.549   6.484   4.014
 7940SOL     OW24718   1.656   6.328   0.765
 7940SOL    HW124719   1.557   6.341   0.772
 7940SOL    HW224720   1.693   6.307   0.856
 7941SOL     OW24721   0.726   0.441   0.962
 7941SOL    HW124722   0.774   0.480   1.041
 7941SOL    HW224723   0.690   0.351   0.987
 7942SOL     OW24724   1.267   0.587   1.754
 7942SOL    HW124725   1.227   0.505   1.796
 7942SOL    HW224726   1.233   0.668   1.800
 7943SOL     OW24727   6.200   2.112   0.361
 7943SOL    HW124728   6.127   2.100   0.294
 7943SOL    HW224729   6.170   2.074   0.449
 7944SOL     OW24730   6.549   4.176   1.922
 7944SOL    HW124731   6.643   4.146   1.936
 7944SOL    HW224732   6.490   4.136   1.992
 7945SOL     OW24733   5.737   0.370   0.545
 7945SOL    HW124734   5.755   0.375   0.643
 7945SOL    HW224735   5.639   0.379   0.529
 7946SOL     OW24736   2.391   1.784   5.586
 7946SOL    HW124737   2.445   1.734   5.519
 7946SOL    HW224738   2.331   1.848   5.539
 7947SOL     OW24739   4.455   5.365   6.388
 7947SOL    HW124740   4.380   5.406   6.440
 7947SOL    HW224741   4.497   5.292   6.443
 7948SOL     OW24742   0.977   5.287   6.020
 7948SOL    HW124743   0.908   5.343   5.975
 7948SOL    HW224744   1.036   5.244   5.952
 7949SOL     OW24745   0.003   3.715   4.182
 7949SOL    HW124746   0.047   3.627   4.166
 7949SOL    HW224747   6.962   3.708   4.260
 7950SOL     OW24748   3.501   5.013   4.188
 7950SOL    HW124749   3.554   4.956   4.251
 7950SOL    HW224750   3.410   4.974   4.178
 7951SOL     OW24751   2.207   3.410   0.822
 7951SOL    HW124752   2.156   3.475   0.877
 7951SOL    HW224753   2.299   3.444   0.806
 7952SOL     OW24754   5.475   4.709   0.668
 7952SOL    HW124755   5.469   4.684   0.764
 7952SOL    HW224756   5.469   4.626   0.612
 7953SOL     OW24757   1.932   3.750   2.272
 7953SOL    HW124758   1.834   3.740   2.255
 7953SOL    HW224759   1.947   3.807   2.352
 7954SOL     OW24760   5.249   4.832   4.259
 7954SOL    HW124761   5.254   4.894   4.337
 7954SOL    HW224762   5.184   4.867   4.192
 7955SOL     OW24763   2.176   6.148   6.343
 7955SOL    HW124764   2.171   6.195   6.431
 7955SOL    HW224765   2.217   6.058   6.355
 7956SOL     OW24766   6.007   6.367   2.564
 7956SOL    HW124767   6.042   6.297   2.502
 7956SOL    HW224768   6.070   6.444   2.568
 7957SOL     OW24769   1.737   2.441   1.287
 7957SOL    HW124770   1.775   2.349   1.273
 7957SOL    HW224771   1.707   2.479   1.200
 7958SOL     OW24772   2.711   5.975   3.407
 7958SOL    HW124773   2.762   6.015   3.331
 7958SOL    HW224774   2.696   6.044   3.477
 7959SOL     OW24775   5.076   5.178   1.874
 7959SOL    HW124776   5.099   5.095   1.823
 7959SOL    HW224777   5.018   5.154   1.952
 7960SOL     OW24778   1.375   2.665   1.704
 7960SOL    HW124779   1.370   2.713   1.616
 7960SOL    HW224780   1.439   2.713   1.764
 7961SOL     OW24781   0.577   5.575   0.532
 7961SOL    HW124782   0.588   5.525   0.446
 7961SOL    HW224783   0.503   5.642   0.523
 7962SOL     OW24784   1.621   6.826   2.592
 7962SOL    HW124785   1.684   6.793   2.663
 7962SOL    HW224786   1.565   6.751   2.559
 7963SOL     OW24787   0.934   6.342   5.427
 7963SOL    HW124788   0.924   6.434   5.466
 7963SOL    HW224789   0.951   6.276   5.500
 7964SOL     OW24790   6.266   5.582   3.409
 7964SOL    HW124791   6.190   5.631   3.368
 7964SOL    HW224792   6.253   5.483   3.398
 7965SOL     OW24793   4.057   1.732   0.776
 7965SOL    HW124794   3.981   1.679   0.738
 7965SOL    HW224795   4.120   1.758   0.702
 7966SOL     OW24796   0.074   0.478   3.576
 7966SOL    HW124797   0.153   0.531   3.607
 7966SOL    HW224798   7.013   0.516   3.617
 7967SOL     OW24799   3.305   0.417   3.445
 7967SOL    HW124800   3.350   0.379   3.526
 7967SOL    HW224801   3.271   0.341   3.389
 7968SOL     OW24802   2.688   0.875   1.471
 7968SOL    HW124803   2.591   0.892   1.488
 7968SOL    HW224804   2.700   0.786   1.427
 7969SOL     OW24805   3.435   1.451   3.638
 7969SOL    HW124806   3.339   1.453   3.667
 7969SOL    HW224807   3.452   1.368   3.585
 7970SOL     OW24808   0.890   5.068   3.563
 7970SOL    HW124809   0.820   5.119   3.613
 7970SOL    HW224810   0.859   5.050   3.470
 7971SOL     OW24811   3.202   1.773   2.270
 7971SOL    HW124812   3.111   1.757   2.306
 7971SOL    HW224813   3.218   1.714   2.190
 7972SOL     OW24814   5.819   5.813   1.383
 7972SOL    HW124815   5.892   5.864   1.429
 7972SOL    HW224816   5.730   5.848   1.414
 7973SOL     OW24817   4.965   1.986   2.944
 7973SOL    HW124818   4.986   1.898   2.902
 7973SOL    HW224819   4.884   2.026   2.900
 7974SOL     OW24820   5.451   6.202   4.541
 7974SOL    HW124821   5.354   6.192   4.521
 7974SOL    HW224822   5.468   6.180   4.637
 7975SOL     OW24823   1.717   1.434   2.676
 7975SOL    HW124824   1.688   1.528   2.657
 7975SOL    HW224825   1.752   1.393   2.591
 7976SOL     OW24826   1.538   7.008   6.355
 7976SOL    HW124827   1.543   0.081   6.325
 7976SOL    HW224828   1.630   6.970   6.362
 7977SOL     OW24829   5.623   6.468   1.096
 7977SOL    HW124830   5.603   6.425   1.007
 7977SOL    HW224831   5.594   6.563   1.093
 7978SOL     OW24832   3.400   1.391   5.713
 7978SOL    HW124833   3.303   1.369   5.722
 7978SOL    HW224834   3.411   1.490   5.702
 7979SOL     OW24835   4.999   6.129   4.081
 7979SOL    HW124836   5.028   6.070   4.156
 7979SOL    HW224837   4.961   6.074   4.008
 7980SOL     OW24838   2.756   0.495   2.538
 7980SOL    HW124839   2.749   0.485   2.439
 7980SOL    HW224840   2.850   0.518   2.563
 7981SOL     OW24841   1.022   6.015   2.360
 7981SOL    HW124842   0.949   6.079   2.335
 7981SOL    HW224843   1.110   6.054   2.334
 7982SOL     OW24844   0.046   2.709   0.294
 7982SOL    HW124845   0.021   2.751   0.381
 7982SOL    HW224846   0.124   2.648   0.307
 7983SOL     OW24847   5.100   2.422   1.441
 7983SOL    HW124848   5.001   2.413   1.432
 7983SOL    HW224849   5.137   2.464   1.358
 7984SOL     OW24850   6.655   0.828   0.695
 7984SOL    HW124851   6.664   0.857   0.600
 7984SOL    HW224852   6.657   0.909   0.754
 7985SOL     OW24853   1.171   1.316   1.169
 7985SOL    HW124854   1.264   1.352   1.162
 7985SOL    HW224855   1.139   1.322   1.263
 7986SOL     OW24856   4.752   3.681   0.397
 7986SOL    HW124857   4.785   3.714   0.309
 7986SOL    HW224858   4.829   3.652   0.453
 7987SOL     OW24859   0.915   3.010   4.776
 7987SOL    HW124860   0.947   2.916   4.777
 7987SOL    HW224861   0.987   3.070   4.742
 7988SOL     OW24862   2.912   1.557   5.465
 7988SOL    HW124863   2.906   1.565   5.365
 7988SOL    HW224864   2.992   1.609   5.498
 7989SOL     OW24865   3.280   3.896   6.451
 7989SOL    HW124866   3.227   3.824   6.407
 7989SOL    HW224867   3.275   3.885   6.551
 7990SOL     OW24868   2.346   2.738   4.774
 7990SOL    HW124869   2.300   2.650   4.783
 7990SOL    HW224870   2.407   2.752   4.852
 7991SOL     OW24871   2.577   2.849   6.189
 7991SOL    HW124872   2.478   2.851   6.205
 7991SOL    HW224873   2.620   2.925   6.237
 7992SOL     OW24874   2.948   1.226   0.981
 7992SOL    HW124875   3.036   1.263   1.010
 7992SOL    HW224876   2.940   1.131   1.009
 7993SOL     OW24877   2.793   5.479   6.175
 7993SOL    HW124878   2.844   5.508   6.095
 7993SOL    HW224879   2.698   5.509   6.167
 7994SOL     OW24880   5.829   0.496   4.498
 7994SOL    HW124881   5.917   0.468   4.535
 7994SOL    HW224882   5.794   0.425   4.438
 7995SOL     OW24883   4.261   5.295   2.850
 7995SOL    HW124884   4.244   5.330   2.758
 7995SOL    HW224885   4.208   5.211   2.865
 7996SOL     OW24886   4.329   1.175   5.444
 7996SOL    HW124887   4.266   1.251   5.426
 7996SOL    HW224888   4.330   1.154   5.541
 7997SOL     OW24889   5.394   2.580   0.992
 7997SOL    HW124890   5.378   2.678   0.985
 7997SOL    HW224891   5.492   2.563   1.005
 7998SOL     OW24892   6.543   4.520   6.273
 7998SOL    HW124893   6.465   4.460   6.251
 7998SOL    HW224894   6.627   4.465   6.277
 7999SOL     OW24895   2.273   2.191   5.653
 7999SOL    HW124896   2.237   2.126   5.586
 7999SOL    HW224897   2.358   2.155   5.692
 8000SOL     OW24898   4.965   0.714   6.014
 8000SOL    HW124899   4.981   0.636   5.954
 8000SOL    HW224900   5.039   0.720   6.081
 8001SOL     OW24901   2.239   5.088   0.636
 8001SOL    HW124902   2.272   5.064   0.544
 8001SOL    HW224903   2.265   5.182   0.657
 8002SOL     OW24904   4.942   2.098   5.579
 8002SOL    HW124905   4.945   2.188   5.535
 8002SOL    HW224906   4.977   2.029   5.515
 8003SOL     OW24907   4.554   5.454   3.312
 8003SOL    HW124908   4.557   5.514   3.232
 8003SOL    HW224909   4.549   5.508   3.395
 8004SOL     OW24910   1.459   4.196   3.588
 8004SOL    HW124911   1.503   4.118   3.631
 8004SOL    HW224912   1.470   4.190   3.489
 8005SOL     OW24913   2.263   0.514   2.590
 8005SOL    HW124914   2.302   0.602   2.618
 8005SOL    HW224915   2.337   0.450   2.569
 8006SOL     OW24916   4.008   6.191   1.629
 8006SOL    HW124917   4.053   6.274   1.660
 8006SOL    HW224918   4.024   6.179   1.531
 8007SOL     OW24919   0.392   1.094   3.791
 8007SOL    HW124920   0.471   1.149   3.764
 8007SOL    HW224921   0.381   1.018   3.727
 8008SOL     OW24922   6.009   5.460   1.008
 8008SOL    HW124923   5.962   5.460   1.096
 8008SOL    HW224924   5.943   5.481   0.935
 8009SOL     OW24925   0.014   6.737   3.368
 8009SOL    HW124926   0.069   6.655   3.387
 8009SOL    HW224927   7.013   6.782   3.454
 8010SOL     OW24928   2.006   2.392   6.852
 8010SOL    HW124929   1.949   2.388   6.770
 8010SOL    HW224930   2.044   2.301   6.869
 8011SOL     OW24931   2.338   2.987   0.119
 8011SOL    HW124932   2.301   2.950   0.034
 8011SOL    HW224933   2.402   2.922   0.159
 8012SOL     OW24934   2.634   6.422   3.147
 8012SOL    HW124935   2.612   6.359   3.221
 8012SOL    HW224936   2.726   6.459   3.162
 8013SOL     OW24937   6.144   5.259   4.854
 8013SOL    HW124938   6.210   5.334   4.862
 8013SOL    HW224939   6.062   5.292   4.807
 8014SOL     OW24940   2.538   6.591   6.646
 8014SOL    HW124941   2.537   6.575   6.547
 8014SOL    HW224942   2.446   6.616   6.676
 8015SOL     OW24943   1.500   2.399   0.114
 8015SOL    HW124944   1.599   2.390   0.103
 8015SOL    HW224945   1.455   2.315   0.082
 8016SOL     OW24946   4.497   6.193   2.051
 8016SOL    HW124947   4.567   6.175   1.982
 8016SOL    HW224948   4.537   6.179   2.142
 8017SOL     OW24949   6.507   3.225   5.581
 8017SOL    HW124950   6.537   3.166   5.507
 8017SOL    HW224951   6.564   3.210   5.662
 8018SOL     OW24952   5.414   3.201   3.992
 8018SOL    HW124953   5.329   3.217   3.943
 8018SOL    HW224954   5.395   3.194   4.090
 8019SOL     OW24955   2.875   5.353   1.019
 8019SOL    HW124956   2.913   5.267   0.986
 8019SOL    HW224957   2.780   5.362   0.988
 8020SOL     OW24958   5.693   6.802   6.668
 8020SOL    HW124959   5.698   6.897   6.640
 8020SOL    HW224960   5.614   6.790   6.729
 8021SOL     OW24961   6.630   1.122   0.716
 8021SOL    HW124962   6.543   1.137   0.669
 8021SOL    HW224963   6.612   1.091   0.810
 8022SOL     OW24964   4.605   5.070   3.543
 8022SOL    HW124965   4.617   5.083   3.445
 8022SOL    HW224966   4.628   4.976   3.568
 8023SOL     OW24967   7.011   5.961   3.306
 8023SOL    HW124968   7.002   5.966   3.207
 8023SOL    HW224969   0.081   5.931   3.330
 8024SOL     OW24970   4.485   5.313   4.638
 8024SOL    HW124971   4.452   5.401   4.672
 8024SOL    HW224972   4.408   5.257   4.610
 8025SOL     OW24973   3.534   6.034   0.482
 8025SOL    HW124974   3.505   6.121   0.520
 8025SOL    HW224975   3.488   5.959   0.530
 8026SOL     OW24976   2.163   2.052   6.393
 8026SOL    HW124977   2.123   2.056   6.301
 8026SOL    HW224978   2.116   1.980   6.445
 8027SOL     OW24979   4.701   3.433   5.629
 8027SOL    HW124980   4.664   3.526   5.642
 8027SOL    HW224981   4.706   3.413   5.532
 8028SOL     OW24982   5.839   5.257   0.194
 8028SOL    HW124983   5.753   5.222   0.231
 8028SOL    HW224984   5.828   5.352   0.167
 8029SOL     OW24985   2.926   4.739   6.527
 8029SOL    HW124986   2.931   4.673   6.602
 8029SOL    HW224987   3.019   4.767   6.502
 8030SOL     OW24988   6.289   3.504   0.985
 8030SOL    HW124989   6.241   3.466   0.906
 8030SOL    HW224990   6.262   3.454   1.067
 8031SOL     OW24991   3.820   6.417   1.035
 8031SOL    HW124992   3.803   6.397   1.131
 8031SOL    HW224993   3.831   6.515   1.022
 8032SOL     OW24994   4.958   3.710   5.564
 8032SOL    HW124995   4.923   3.645   5.631
 8032SOL    HW224996   4.887   3.731   5.497
 8033SOL     OW24997   6.265   2.016   1.309
 8033SOL    HW124998   6.271   1.956   1.229
 8033SOL    HW224999   6.306   2.104   1.288
 8034SOL     OW25000   6.696   1.894   5.513
 8034SOL    HW125001   6.709   1.821   5.579
 8034SOL    HW225002   6.599   1.903   5.490
 8035SOL     OW25003   5.708   6.091   6.112
 8035SOL    HW125004   5.737   6.142   6.192
 8035SOL    HW225005   5.750   6.000   6.113
 8036SOL     OW25006   1.298   4.702   2.142
 8036SOL    HW125007   1.210   4.655   2.151
 8036SOL    HW225008   1.336   4.685   2.051
 8037SOL     OW25009   2.069   3.307   1.844
 8037SOL    HW125010   2.106   3.363   1.917
 8037SOL    HW225011   2.144   3.258   1.799
 8038SOL     OW25012   5.868   1.522   4.030
 8038SOL    HW125013   5.903   1.615   4.035
 8038SOL    HW225014   5.883   1.485   3.939
 8039SOL     OW25015   2.306   6.042   3.976
 8039SOL    HW125016   2.349   5.997   4.054
 8039SOL    HW225017   2.371   6.045   3.900
 8040SOL     OW25018   5.540   5.952   0.333
 8040SOL    HW125019   5.531   6.005   0.248
 8040SOL    HW225020   5.452   5.911   0.356
 8041SOL     OW25021   3.235   1.786   1.523
 8041SOL    HW125022   3.235   1.879   1.486
 8041SOL    HW225023   3.228   1.721   1.448
 8042SOL     OW25024   2.502   5.319   0.112
 8042SOL    HW125025   2.582   5.322   0.052
 8042SOL    HW225026   2.433   5.258   0.073
 8043SOL     OW25027   2.927   0.588   1.677
 8043SOL    HW125028   2.852   0.634   1.726
 8043SOL    HW225029   2.969   0.652   1.613
 8044SOL     OW25030   2.914   3.362   2.376
 8044SOL    HW125031   2.959   3.333   2.292
 8044SOL    HW225032   2.820   3.390   2.357
 8045SOL     OW25033   6.402   2.888   3.877
 8045SOL    HW125034   6.500   2.909   3.874
 8045SOL    HW225035   6.390   2.796   3.914
 8046SOL     OW25036   0.049   5.240   5.196
 8046SOL    HW125037   0.132   5.218   5.247
 8046SOL    HW225038   0.050   5.338   5.173
 8047SOL     OW25039   2.669   0.242   4.681
 8047SOL    HW125040   2.622   0.303   4.617
 8047SOL    HW225041   2.668   0.282   4.773
 8048SOL     OW25042   5.605   0.693   5.744
 8048SOL    HW125043   5.660   0.771   5.712
 8048SOL    HW225044   5.527   0.682   5.683
 8049SOL     OW25045   1.695   0.145   0.432
 8049SOL    HW125046   1.763   0.164   0.362
 8049SOL    HW225047   1.700   0.215   0.503
 8050SOL     OW25048   0.232   3.212   1.704
 8050SOL    HW125049   0.249   3.274   1.780
 8050SOL    HW225050   0.147   3.237   1.658
 8051SOL     OW25051   2.758   1.400   3.840
 8051SOL    HW125052   2.701   1.467   3.888
 8051SOL    HW225053   2.852   1.406   3.875
 8052SOL     OW25054   3.463   1.812   3.241
 8052SOL    HW125055   3.558   1.784   3.254
 8052SOL    HW225056   3.452   1.908   3.264
 8053SOL     OW25057   4.233   3.523   1.739
 8053SOL    HW125058   4.139   3.555   1.727
 8053SOL    HW225059   4.232   3.430   1.775
 8054SOL     OW25060   4.809   6.295   4.355
 8054SOL    HW125061   4.838   6.346   4.273
 8054SOL    HW225062   4.742   6.226   4.329
 8055SOL     OW25063   0.991   0.126   5.633
 8055SOL    HW125064   0.918   0.068   5.669
 8055SOL    HW225065   0.984   0.131   5.533
 8056SOL     OW25066   4.450   1.216   2.569
 8056SOL    HW125067   4.550   1.225   2.565
 8056SOL    HW225068   4.422   1.208   2.665
 8057SOL     OW25069   3.223   0.369   3.828
 8057SOL    HW125070   3.253   0.397   3.919
 8057SOL    HW225071   3.159   0.292   3.836
 8058SOL     OW25072   2.084   6.820   3.432
 8058SOL    HW125073   2.061   6.842   3.337
 8058SOL    HW225074   2.097   6.721   3.441
 8059SOL     OW25075   2.027   1.242   4.052
 8059SOL    HW125076   1.998   1.334   4.025
 8059SOL    HW225077   2.126   1.240   4.063
 8060SOL     OW25078   0.713   2.736   5.247
 8060SOL    HW125079   0.782   2.701   5.309
 8060SOL    HW225080   0.748   2.817   5.200
 8061SOL     OW25081   6.341   6.371   2.831
 8061SOL    HW125082   6.306   6.310   2.903
 8061SOL    HW225083   6.362   6.317   2.750
 8062SOL     OW25084   1.473   3.430   1.860
 8062SOL    HW125085   1.544   3.449   1.792
 8062SOL    HW225086   1.423   3.348   1.833
 8063SOL     OW25087   2.475   3.129   6.017
 8063SOL    HW125088   2.464   3.185   6.099
 8063SOL    HW225089   2.523   3.045   6.039
 8064SOL     OW25090   0.056   2.034   5.699
 8064SOL    HW125091   7.010   2.026   5.626
 8064SOL    HW225092   0.010   2.037   5.787
 8065SOL     OW25093   4.647   6.912   6.419
 8065SOL    HW125094   4.578   6.924   6.347
 8065SOL    HW225095   4.625   6.970   6.497
 8066SOL     OW25096   1.958   0.085   1.517
 8066SOL    HW125097   1.933   0.138   1.598
 8066SOL    HW225098   2.046   0.041   1.532
 8067SOL     OW25099   4.914   2.294   2.258
 8067SOL    HW125100   4.907   2.336   2.168
 8067SOL    HW225101   4.836   2.322   2.314
 8068SOL     OW25102   6.594   4.925   4.413
 8068SOL    HW125103   6.666   4.993   4.423
 8068SOL    HW225104   6.547   4.914   4.501
 8069SOL     OW25105   1.155   6.425   2.070
 8069SOL    HW125106   1.166   6.517   2.033
 8069SOL    HW225107   1.186   6.423   2.165
 8070SOL     OW25108   3.579   0.347   2.619
 8070SOL    HW125109   3.611   0.258   2.651
 8070SOL    HW225110   3.658   0.402   2.590
 8071SOL     OW25111   5.140   5.287   0.024
 8071SOL    HW125112   5.126   5.284   6.948
 8071SOL    HW225113   5.159   5.195   0.059
 8072SOL     OW25114   4.094   0.617   3.172
 8072SOL    HW125115   4.074   0.535   3.226
 8072SOL    HW225116   4.139   0.591   3.087
 8073SOL     OW25117   5.198   0.499   6.138
 8073SOL    HW125118   5.236   0.586   6.170
 8073SOL    HW225119   5.272   0.437   6.115
 8074SOL     OW25120   2.949   4.226   6.831
 8074SOL    HW125121   2.925   4.212   6.735
 8074SOL    HW225122   3.027   4.168   6.854
 8075SOL     OW25123   5.940   2.264   3.576
 8075SOL    HW125124   6.002   2.341   3.591
 8075SOL    HW225125   5.869   2.264   3.646
 8076SOL     OW25126   4.737   3.217   6.341
 8076SOL    HW125127   4.827   3.228   6.298
 8076SOL    HW225128   4.666   3.250   6.278
 8077SOL     OW25129   0.995   0.087   0.461
 8077SOL    HW125130   1.081   0.135   0.443
 8077SOL    HW225131   0.942   0.138   0.529
 8078SOL     OW25132   5.756   2.848   1.181
 8078SOL    HW125133   5.835   2.905   1.202
 8078SOL    HW225134   5.717   2.812   1.266
 8079SOL     OW25135   1.294   2.277   1.281
 8079SOL    HW125136   1.367   2.299   1.345
 8079SOL    HW225137   1.332   2.231   1.201
 8080SOL     OW25138   3.964   5.183   0.294
 8080SOL    HW125139   4.054   5.147   0.269
 8080SOL    HW225140   3.953   5.274   0.255
 8081SOL     OW25141   5.822   2.306   4.899
 8081SOL    HW125142   5.913   2.289   4.935
 8081SOL    HW225143   5.805   2.247   4.820
 8082SOL     OW25144   5.882   3.663   4.815
 8082SOL    HW125145   5.941   3.603   4.869
 8082SOL    HW225146   5.858   3.744   4.868
 8083SOL     OW25147   6.047   1.995   5.095
 8083SOL    HW125148   5.992   2.025   5.172
 8083SOL    HW225149   5.988   1.947   5.029
 8084SOL     OW25150   6.348   0.023   0.459
 8084SOL    HW125151   6.353   6.966   0.398
 8084SOL    HW225152   6.368   7.016   0.552
 8085SOL     OW25153   5.299   2.512   0.746
 8085SOL    HW125154   5.348   2.531   0.831
 8085SOL    HW225155   5.352   2.546   0.669
 8086SOL     OW25156   2.302   5.653   5.726
 8086SOL    HW125157   2.213   5.670   5.768
 8086SOL    HW225158   2.359   5.601   5.789
 8087SOL     OW25159   2.716   3.800   0.792
 8087SOL    HW125160   2.798   3.804   0.849
 8087SOL    HW225161   2.641   3.848   0.838
 8088SOL     OW25162   4.555   0.898   3.179
 8088SOL    HW125163   4.559   0.888   3.278
 8088SOL    HW225164   4.641   0.866   3.139
 8089SOL     OW25165   6.654   2.803   0.570
 8089SOL    HW125166   6.572   2.747   0.570
 8089SOL    HW225167   6.732   2.748   0.601
 8090SOL     OW25168   4.353   2.050   5.087
 8090SOL    HW125169   4.393   1.959   5.087
 8090SOL    HW225170   4.315   2.070   4.996
 8091SOL     OW25171   1.711   4.101   5.637
 8091SOL    HW125172   1.787   4.165   5.626
 8091SOL    HW225173   1.670   4.082   5.548
 8092SOL     OW25174   6.289   1.762   4.410
 8092SOL    HW125175   6.323   1.668   4.422
 8092SOL    HW225176   6.230   1.786   4.487
 8093SOL     OW25177   5.617   5.400   0.462
 8093SOL    HW125178   5.645   5.479   0.408
 8093SOL    HW225179   5.660   5.404   0.552
 8094SOL     OW25180   0.536   3.805   4.037
 8094SOL    HW125181   0.482   3.849   3.966
 8094SOL    HW225182   0.559   3.711   4.010
 8095SOL     OW25183   6.452   3.170   4.503
 8095SOL    HW125184   6.517   3.191   4.576
 8095SOL    HW225185   6.453   3.072   4.484
 8096SOL     OW25186   4.580   0.019   0.666
 8096SOL    HW125187   4.524   0.017   0.584
 8096SOL    HW225188   4.557   6.964   0.725
 8097SOL     OW25189   4.540   1.683   4.432
 8097SOL    HW125190   4.492   1.706   4.517
 8097SOL    HW225191   4.571   1.588   4.435
 8098SOL     OW25192   2.244   1.389   4.340
 8098SOL    HW125193   2.288   1.376   4.429
 8098SOL    HW225194   2.145   1.380   4.350
 8099SOL     OW25195   3.652   6.539   4.572
 8099SOL    HW125196   3.596   6.617   4.600
 8099SOL    HW225197   3.749   6.564   4.577
 8100SOL     OW25198   6.646   5.926   1.139
 8100SOL    HW125199   6.643   5.966   1.047
 8100SOL    HW225200   6.665   5.998   1.206
 8101SOL     OW25201   0.108   5.130   1.907
 8101SOL    HW125202   0.153   5.145   1.995
 8101SOL    HW225203   0.020   5.085   1.921
 8102SOL     OW25204   6.664   0.285   5.430
 8102SOL    HW125205   6.658   0.228   5.348
 8102SOL    HW225206   6.596   0.358   5.424
 8103SOL     OW25207   2.603   2.495   2.437
 8103SOL    HW125208   2.536   2.555   2.482
 8103SOL    HW225209   2.670   2.464   2.504
 8104SOL     OW25210   2.780   0.170   6.093
 8104SOL    HW125211   2.708   0.105   6.071
 8104SOL    HW225212   2.758   0.218   6.178
 8105SOL     OW25213   1.782   3.034   3.293
 8105SOL    HW125214   1.839   2.952   3.293
 8105SOL    HW225215   1.723   3.034   3.373
 8106SOL     OW25216   0.289   3.561   5.285
 8106SOL    HW125217   0.233   3.627   5.235
 8106SOL    HW225218   0.229   3.497   5.334
 8107SOL     OW25219   1.357   5.391   6.636
 8107SOL    HW125220   1.431   5.362   6.696
 8107SOL    HW225221   1.294   5.450   6.688
 8108SOL     OW25222   2.179   3.219   5.789
 8108SOL    HW125223   2.091   3.211   5.742
 8108SOL    HW225224   2.253   3.199   5.725
 8109SOL     OW25225   0.632   5.147   5.809
 8109SOL    HW125226   0.707   5.201   5.848
 8109SOL    HW225227   0.610   5.181   5.718
 8110SOL     OW25228   1.271   5.077   0.354
 8110SOL    HW125229   1.182   5.092   0.398
 8110SOL    HW225230   1.324   5.161   0.358
 8111SOL     OW25231   3.507   5.998   4.018
 8111SOL    HW125232   3.466   6.015   4.108
 8111SOL    HW225233   3.455   5.926   3.971
 8112SOL     OW25234   4.049   0.933   4.037
 8112SOL    HW125235   3.950   0.918   4.030
 8112SOL    HW225236   4.068   1.031   4.039
 8113SOL     OW25237   3.100   2.874   5.634
 8113SOL    HW125238   3.047   2.928   5.699
 8113SOL    HW225239   3.139   2.934   5.564
 8114SOL     OW25240   3.203   3.362   1.764
 8114SOL    HW125241   3.157   3.417   1.695
 8114SOL    HW225242   3.257   3.421   1.824
 8115SOL     OW25243   3.459   2.881   0.985
 8115SOL    HW125244   3.559   2.877   0.985
 8115SOL    HW225245   3.428   2.928   0.902
 8116SOL     OW25246   5.455   1.355   5.836
 8116SOL    HW125247   5.439   1.350   5.935
 8116SOL    HW225248   5.380   1.309   5.788
 8117SOL     OW25249   3.144   2.647   5.939
 8117SOL    HW125250   3.128   2.583   5.864
 8117SOL    HW225251   3.088   2.728   5.926
 8118SOL     OW25252   1.354   2.080   3.576
 8118SOL    HW125253   1.349   2.173   3.541
 8118SOL    HW225254   1.263   2.049   3.603
 8119SOL     OW25255   1.471   6.622   2.488
 8119SOL    HW125256   1.378   6.646   2.461
 8119SOL    HW225257   1.512   6.563   2.419
 8120SOL     OW25258   4.560   4.366   2.491
 8120SOL    HW125259   4.513   4.397   2.574
 8120SOL    HW225260   4.542   4.431   2.417
 8121SOL     OW25261   6.785   5.516   2.918
 8121SOL    HW125262   6.728   5.578   2.972
 8121SOL    HW225263   6.732   5.437   2.890
 8122SOL     OW25264   6.766   5.720   1.753
 8122SOL    HW125265   6.706   5.640   1.755
 8122SOL    HW225266   6.846   5.702   1.810
 8123SOL     OW25267   1.610   5.125   0.023
 8123SOL    HW125268   1.589   5.147   0.119
 8123SOL    HW225269   1.603   5.209   6.991
 8124SOL     OW25270   1.836   6.454   2.906
 8124SOL    HW125271   1.758   6.436   2.847
 8124SOL    HW225272   1.912   6.395   2.881
 8125SOL     OW25273   5.225   5.062   2.741
 8125SOL    HW125274   5.130   5.033   2.750
 8125SOL    HW225275   5.285   4.995   2.784
 8126SOL     OW25276   6.955   4.771   2.354
 8126SOL    HW125277   6.932   4.741   2.261
 8126SOL    HW225278   6.871   4.780   2.407
 8127SOL     OW25279   4.325   5.322   1.154
 8127SOL    HW125280   4.297   5.242   1.100
 8127SOL    HW225281   4.244   5.363   1.195
 8128SOL     OW25282   3.818   1.981   5.804
 8128SOL    HW125283   3.862   2.069   5.819
 8128SOL    HW225284   3.720   1.996   5.788
 8129SOL     OW25285   4.681   6.058   6.483
 8129SOL    HW125286   4.726   6.093   6.401
 8129SOL    HW225287   4.703   6.117   6.561
 8130SOL     OW25288   0.663   6.995   6.565
 8130SOL    HW125289   0.750   6.958   6.531
 8130SOL    HW225290   0.633   6.941   6.643
 8131SOL     OW25291   2.392   1.589   1.234
 8131SOL    HW125292   2.350   1.669   1.276
 8131SOL    HW225293   2.324   1.538   1.181
 8132SOL     OW25294   5.730   4.816   3.078
 8132SOL    HW125295   5.745   4.717   3.084
 8132SOL    HW225296   5.640   4.839   3.115
 8133SOL     OW25297   0.382   5.547   1.876
 8133SOL    HW125298   0.384   5.646   1.862
 8133SOL    HW225299   0.413   5.526   1.969
 8134SOL     OW25300   2.139   2.523   1.821
 8134SOL    HW125301   2.231   2.545   1.851
 8134SOL    HW225302   2.127   2.554   1.726
 8135SOL     OW25303   4.088   6.306   2.463
 8135SOL    HW125304   4.128   6.337   2.550
 8135SOL    HW225305   4.148   6.238   2.422
 8136SOL     OW25306   2.111   6.052   1.761
 8136SOL    HW125307   2.176   5.983   1.793
 8136SOL    HW225308   2.146   6.094   1.678
 8137SOL     OW25309   3.129   3.432   5.163
 8137SOL    HW125310   3.052   3.376   5.131
 8137SOL    HW225311   3.130   3.434   5.263
 8138SOL     OW25312   4.557   1.202   3.551
 8138SOL    HW125313   4.592   1.295   3.550
 8138SOL    HW225314   4.518   1.180   3.462
 8139SOL     OW25315   1.595   3.267   6.150
 8139SOL    HW125316   1.619   3.283   6.055
 8139SOL    HW225317   1.665   3.307   6.210
 8140SOL     OW25318   4.618   1.371   0.897
 8140SOL    HW125319   4.623   1.324   0.986
 8140SOL    HW225320   4.548   1.442   0.901
 8141SOL     OW25321   5.977   0.935   5.173
 8141SOL    HW125322   6.042   0.861   5.189
 8141SOL    HW225323   5.906   0.904   5.109
 8142SOL     OW25324   3.558   5.597   0.566
 8142SOL    HW125325   3.509   5.552   0.640
 8142SOL    HW225326   3.636   5.648   0.604
 8143SOL     OW25327   5.799   4.698   0.022
 8143SOL    HW125328   5.806   4.788   0.066
 8143SOL    HW225329   5.809   4.627   0.091
 8144SOL     OW25330   1.739   5.577   6.718
 8144SOL    HW125331   1.712   5.502   6.658
 8144SOL    HW225332   1.816   5.547   6.775
 8145SOL     OW25333   5.493   5.809   5.879
 8145SOL    HW125334   5.550   5.773   5.952
 8145SOL    HW225335   5.471   5.737   5.814
 8146SOL     OW25336   6.790   6.338   4.942
 8146SOL    HW125337   6.728   6.413   4.918
 8146SOL    HW225338   6.884   6.366   4.926
 8147SOL     OW25339   2.504   0.268   5.133
 8147SOL    HW125340   2.537   0.323   5.209
 8147SOL    HW225341   2.444   0.323   5.075
 8148SOL     OW25342   5.069   4.721   6.800
 8148SOL    HW125343   5.141   4.682   6.857
 8148SOL    HW225344   5.034   4.651   6.738
 8149SOL     OW25345   1.539   6.870   5.821
 8149SOL    HW125346   1.532   6.912   5.911
 8149SOL    HW225347   1.619   6.907   5.773
 8150SOL     OW25348   0.404   4.159   0.396
 8150SOL    HW125349   0.422   4.173   0.494
 8150SOL    HW225350   0.413   4.061   0.375
 8151SOL     OW25351   5.878   4.565   2.239
 8151SOL    HW125352   5.838   4.618   2.164
 8151SOL    HW225353   5.805   4.520   2.291
 8152SOL     OW25354   5.311   2.036   3.841
 8152SOL    HW125355   5.259   1.956   3.812
 8152SOL    HW225356   5.397   2.041   3.791
 8153SOL     OW25357   0.268   1.652   1.614
 8153SOL    HW125358   0.182   1.663   1.564
 8153SOL    HW225359   0.325   1.585   1.568
 8154SOL     OW25360   1.076   0.593   3.437
 8154SOL    HW125361   1.005   0.637   3.492
 8154SOL    HW225362   1.160   0.647   3.443
 8155SOL     OW25363   1.207   4.722   4.791
 8155SOL    HW125364   1.194   4.804   4.736
 8155SOL    HW225365   1.121   4.698   4.836
 8156SOL     OW25366   1.497   3.819   0.476
 8156SOL    HW125367   1.476   3.840   0.380
 8156SOL    HW225368   1.411   3.804   0.526
 8157SOL     OW25369   6.200   4.755   4.863
 8157SOL    HW125370   6.232   4.798   4.948
 8157SOL    HW225371   6.112   4.795   4.837
 8158SOL     OW25372   6.345   5.026   6.230
 8158SOL    HW125373   6.296   5.062   6.310
 8158SOL    HW225374   6.279   5.002   6.159
 8159SOL     OW25375   2.746   0.100   5.044
 8159SOL    HW125376   2.706   0.009   5.035
 8159SOL    HW225377   2.673   0.168   5.048
 8160SOL     OW25378   5.504   3.000   2.930
 8160SOL    HW125379   5.588   2.954   2.902
 8160SOL    HW225380   5.477   3.066   2.860
 8161SOL     OW25381   6.818   2.526   2.063
 8161SOL    HW125382   6.773   2.518   1.974
 8161SOL    HW225383   6.838   2.434   2.098
 8162SOL     OW25384   0.885   6.050   5.650
 8162SOL    HW125385   0.820   5.998   5.594
 8162SOL    HW225386   0.847   6.064   5.741
 8163SOL     OW25387   3.816   4.874   5.627
 8163SOL    HW125388   3.826   4.788   5.576
 8163SOL    HW225389   3.769   4.941   5.569
 8164SOL     OW25390   5.143   1.845   0.308
 8164SOL    HW125391   5.131   1.941   0.334
 8164SOL    HW225392   5.192   1.840   0.220
 8165SOL     OW25393   0.698   2.224   6.451
 8165SOL    HW125394   0.770   2.270   6.503
 8165SOL    HW225395   0.677   2.278   6.369
 8166SOL     OW25396   2.400   2.209   4.605
 8166SOL    HW125397   2.356   2.171   4.686
 8166SOL    HW225398   2.437   2.135   4.549
 8167SOL     OW25399   1.760   2.367   3.074
 8167SOL    HW125400   1.842   2.420   3.051
 8167SOL    HW225401   1.771   2.324   3.164
 8168SOL     OW25402   1.778   6.268   2.641
 8168SOL    HW125403   1.793   6.336   2.569
 8168SOL    HW225404   1.798   6.176   2.605
 8169SOL     OW25405   4.769   4.121   0.169
 8169SOL    HW125406   4.750   4.104   0.266
 8169SOL    HW225407   4.826   4.203   0.160
 8170SOL     OW25408   6.924   4.437   3.167
 8170SOL    HW125409   6.898   4.341   3.154
 8170SOL    HW225410   6.844   4.495   3.153
 8171SOL     OW25411   2.014   1.826   1.575
 8171SOL    HW125412   2.050   1.768   1.648
 8171SOL    HW225413   1.949   1.891   1.613
 8172SOL     OW25414   1.201   4.523   0.596
 8172SOL    HW125415   1.131   4.580   0.640
 8172SOL    HW225416   1.157   4.443   0.556
 8173SOL     OW25417   5.837   0.022   1.300
 8173SOL    HW125418   5.856   0.110   1.344
 8173SOL    HW225419   5.918   6.986   1.306
 8174SOL     OW25420   2.722   6.429   3.883
 8174SOL    HW125421   2.645   6.387   3.835
 8174SOL    HW225422   2.693   6.518   3.920
 8175SOL     OW25423   0.660   1.999   5.735
 8175SOL    HW125424   0.599   2.065   5.690
 8175SOL    HW225425   0.608   1.919   5.763
 8176SOL     OW25426   2.942   4.956   0.243
 8176SOL    HW125427   2.894   5.032   0.287
 8176SOL    HW225428   2.906   4.944   0.150
 8177SOL     OW25429   3.261   0.991   2.612
 8177SOL    HW125430   3.286   1.074   2.661
 8177SOL    HW225431   3.296   0.995   2.519
 8178SOL     OW25432   2.353   5.999   1.269
 8178SOL    HW125433   2.340   6.026   1.173
 8178SOL    HW225434   2.418   6.062   1.313
 8179SOL     OW25435   6.120   0.219   3.506
 8179SOL    HW125436   6.128   0.201   3.604
 8179SOL    HW225437   6.204   0.260   3.472
 8180SOL     OW25438   4.719   4.945   0.699
 8180SOL    HW125439   4.803   4.998   0.712
 8180SOL    HW225440   4.704   4.930   0.601
 8181SOL     OW25441   6.282   0.697   6.275
 8181SOL    HW125442   6.374   0.720   6.307
 8181SOL    HW225443   6.286   0.614   6.219
 8182SOL     OW25444   3.507   3.594   3.237
 8182SOL    HW125445   3.594   3.643   3.246
 8182SOL    HW225446   3.442   3.630   3.304
 8183SOL     OW25447   0.131   0.275   5.660
 8183SOL    HW125448   0.181   0.362   5.663
 8183SOL    HW225449   0.059   0.282   5.591
 8184SOL     OW25450   0.309   6.209   5.050
 8184SOL    HW125451   0.212   6.185   5.046
 8184SOL    HW225452   0.321   6.292   5.105
 8185SOL     OW25453   0.525   6.054   5.077
 8185SOL    HW125454   0.436   6.100   5.071
 8185SOL    HW225455   0.540   6.002   4.992
 8186SOL     OW25456   1.651   5.618   0.536
 8186SOL    HW125457   1.663   5.629   0.634
 8186SOL    HW225458   1.595   5.692   0.500
 8187SOL     OW25459   1.473   6.497   4.861
 8187SOL    HW125460   1.482   6.473   4.764
 8187SOL    HW225461   1.408   6.435   4.905
 8188SOL     OW25462   1.644   3.032   2.475
 8188SOL    HW125463   1.716   3.080   2.523
 8188SOL    HW225464   1.652   2.934   2.491
 8189SOL     OW25465   6.263   5.325   4.117
 8189SOL    HW125466   6.333   5.292   4.181
 8189SOL    HW225467   6.307   5.350   4.030
 8190SOL     OW25468   6.161   3.705   2.976
 8190SOL    HW125469   6.125   3.653   2.899
 8190SOL    HW225470   6.144   3.803   2.961
 8191SOL     OW25471   4.305   5.533   0.992
 8191SOL    HW125472   4.291   5.501   0.898
 8191SOL    HW225473   4.328   5.455   1.050
 8192SOL     OW25474   0.517   6.136   3.271
 8192SOL    HW125475   0.443   6.111   3.208
 8192SOL    HW225476   0.604   6.136   3.222
 8193SOL     OW25477   0.321   4.648   3.983
 8193SOL    HW125478   0.421   4.648   3.979
 8193SOL    HW225479   0.285   4.602   3.902
 8194SOL     OW25480   5.330   0.499   1.641
 8194SOL    HW125481   5.309   0.475   1.736
 8194SOL    HW225482   5.407   0.563   1.640
 8195SOL     OW25483   6.747   6.652   3.642
 8195SOL    HW125484   6.784   6.608   3.724
 8195SOL    HW225485   6.728   6.583   3.572
 8196SOL     OW25486   4.924   0.121   2.510
 8196SOL    HW125487   4.908   0.216   2.538
 8196SOL    HW225488   4.964   0.070   2.586
 8197SOL     OW25489   4.478   1.636   3.507
 8197SOL    HW125490   4.539   1.558   3.522
 8197SOL    HW225491   4.493   1.673   3.415
 8198SOL     OW25492   2.177   5.601   0.763
 8198SOL    HW125493   2.189   5.536   0.838
 8198SOL    HW225494   2.240   5.579   0.689
 8199SOL     OW25495   5.802   2.174   0.519
 8199SOL    HW125496   5.857   2.178   0.602
 8199SOL    HW225497   5.763   2.082   0.510
 8200SOL     OW25498   5.460   4.035   0.640
 8200SOL    HW125499   5.426   4.093   0.566
 8200SOL    HW225500   5.540   3.985   0.608
 8201SOL     OW25501   5.719   0.611   5.241
 8201SOL    HW125502   5.729   0.571   5.151
 8201SOL    HW225503   5.646   0.563   5.291
 8202SOL     OW25504   1.181   5.918   1.879
 8202SOL    HW125505   1.228   5.841   1.923
 8202SOL    HW225506   1.185   5.998   1.939
 8203SOL     OW25507   1.940   3.053   0.571
 8203SOL    HW125508   2.028   3.025   0.533
 8203SOL    HW225509   1.941   3.151   0.588
 8204SOL     OW25510   1.673   3.239   0.752
 8204SOL    HW125511   1.672   3.333   0.718
 8204SOL    HW225512   1.761   3.221   0.797
 8205SOL     OW25513   0.275   3.683   6.216
 8205SOL    HW125514   0.320   3.711   6.301
 8205SOL    HW225515   0.325   3.722   6.139
 8206SOL     OW25516   3.495   1.028   1.520
 8206SOL    HW125517   3.487   1.127   1.528
 8206SOL    HW225518   3.521   1.005   1.426
 8207SOL     OW25519   4.125   3.543   4.266
 8207SOL    HW125520   4.150   3.465   4.209
 8207SOL    HW225521   4.073   3.511   4.346
 8208SOL     OW25522   2.453   0.230   6.852
 8208SOL    HW125523   2.509   0.151   6.877
 8208SOL    HW225524   2.479   0.261   6.760
 8209SOL     OW25525   5.684   2.238   4.301
 8209SOL    HW125526   5.732   2.315   4.342
 8209SOL    HW225527   5.592   2.230   4.341
 8210SOL     OW25528   2.181   2.926   5.896
 8210SOL    HW125529   2.119   2.905   5.820
 8210SOL    HW225530   2.168   3.021   5.924
 8211SOL     OW25531   4.370   4.504   1.342
 8211SOL    HW125532   4.275   4.509   1.371
 8211SOL    HW225533   4.430   4.510   1.422
 8212SOL     OW25534   1.948   2.545   3.001
 8212SOL    HW125535   1.888   2.625   3.002
 8212SOL    HW225536   1.988   2.534   2.910
 8213SOL     OW25537   6.583   4.524   0.410
 8213SOL    HW125538   6.560   4.583   0.333
 8213SOL    HW225539   6.677   4.542   0.439
 8214SOL     OW25540   5.004   3.661   3.126
 8214SOL    HW125541   4.975   3.610   3.044
 8214SOL    HW225542   4.974   3.756   3.118
 8215SOL     OW25543   3.610   5.220   2.265
 8215SOL    HW125544   3.557   5.265   2.194
 8215SOL    HW225545   3.683   5.165   2.223
 8216SOL     OW25546   5.479   3.634   3.474
 8216SOL    HW125547   5.385   3.642   3.506
 8216SOL    HW225548   5.526   3.722   3.485
 8217SOL     OW25549   2.171   5.848   0.383
 8217SOL    HW125550   2.260   5.889   0.401
 8217SOL    HW225551   2.130   5.820   0.470
 8218SOL     OW25552   4.853   1.900   0.068
 8218SOL    HW125553   4.852   1.814   0.119
 8218SOL    HW225554   4.776   1.957   0.098
 8219SOL     OW25555   5.200   2.257   0.195
 8219SOL    HW125556   5.300   2.249   0.191
 8219SOL    HW225557   5.166   2.203   0.272
 8220SOL     OW25558   4.239   3.791   1.575
 8220SOL    HW125559   4.183   3.763   1.652
 8220SOL    HW225560   4.227   3.889   1.559
 8221SOL     OW25561   5.527   4.368   3.185
 8221SOL    HW125562   5.522   4.409   3.094
 8221SOL    HW225563   5.494   4.273   3.181
 8222SOL     OW25564   6.529   0.958   3.252
 8222SOL    HW125565   6.584   1.040   3.240
 8222SOL    HW225566   6.514   0.942   3.350
 8223SOL     OW25567   0.329   5.118   6.725
 8223SOL    HW125568   0.344   5.085   6.632
 8223SOL    HW225569   0.287   5.209   6.722
 8224SOL     OW25570   1.052   4.211   2.438
 8224SOL    HW125571   1.127   4.204   2.504
 8224SOL    HW225572   1.059   4.137   2.372
 8225SOL     OW25573   4.637   1.541   1.136
 8225SOL    HW125574   4.707   1.545   1.064
 8225SOL    HW225575   4.667   1.477   1.207
 8226SOL     OW25576   3.702   0.506   6.833
 8226SOL    HW125577   3.709   0.534   6.737
 8226SOL    HW225578   3.683   0.408   6.839
 8227SOL     OW25579   5.871   4.214   3.155
 8227SOL    HW125580   5.829   4.228   3.245
 8227SOL    HW225581   5.925   4.129   3.157
 8228SOL     OW25582   0.173   1.313   3.934
 8228SOL    HW125583   0.234   1.238   3.908
 8228SOL    HW225584   0.214   1.400   3.907
 8229SOL     OW25585   5.105   5.639   0.512
 8229SOL    HW125586   5.164   5.637   0.431
 8229SOL    HW225587   5.138   5.571   0.578
 8230SOL     OW25588   5.543   7.016   3.447
 8230SOL    HW125589   5.513   0.028   3.536
 8230SOL    HW225590   5.500   0.048   3.375
 8231SOL     OW25591   3.948   5.665   1.362
 8231SOL    HW125592   3.911   5.690   1.451
 8231SOL    HW225593   3.937   5.742   1.299
 8232SOL     OW25594   2.649   1.704   0.073
 8232SOL    HW125595   2.568   1.652   0.101
 8232SOL    HW225596   2.710   1.645   0.020
 8233SOL     OW25597   0.390   5.475   6.234
 8233SOL    HW125598   0.427   5.456   6.143
 8233SOL    HW225599   0.326   5.552   6.228
 8234SOL     OW25600   2.662   3.117   6.995
 8234SOL    HW125601   2.648   3.067   6.910
 8234SOL    HW225602   2.679   3.214   6.974
 8235SOL     OW25603   4.752   2.534   6.408
 8235SOL    HW125604   4.796   2.468   6.347
 8235SOL    HW225605   4.709   2.486   6.484
 8236SOL     OW25606   6.056   2.643   1.359
 8236SOL    HW125607   6.042   2.688   1.271
 8236SOL    HW225608   6.060   2.711   1.432
 8237SOL     OW25609   3.470   6.570   5.451
 8237SOL    HW125610   3.477   6.474   5.479
 8237SOL    HW225611   3.388   6.610   5.492
 8238SOL     OW25612   1.493   0.841   6.624
 8238SOL    HW125613   1.553   0.761   6.618
 8238SOL    HW225614   1.529   0.915   6.568
 8239SOL     OW25615   5.708   1.240   0.251
 8239SOL    HW125616   5.737   1.148   0.225
 8239SOL    HW225617   5.662   1.283   0.173
 8240SOL     OW25618   4.021   3.115   3.197
 8240SOL    HW125619   3.940   3.100   3.254
 8240SOL    HW225620   4.020   3.051   3.121
 8241SOL     OW25621   4.914   6.172   1.491
 8241SOL    HW125622   4.853   6.121   1.430
 8241SOL    HW225623   4.881   6.267   1.498
 8242SOL     OW25624   1.009   4.096   5.570
 8242SOL    HW125625   0.990   4.034   5.494
 8242SOL    HW225626   0.985   4.052   5.656
 8243SOL     OW25627   0.391   3.132   4.881
 8243SOL    HW125628   0.334   3.209   4.851
 8243SOL    HW225629   0.375   3.116   4.979
 8244SOL     OW25630   2.472   5.296   4.789
 8244SOL    HW125631   2.468   5.396   4.792
 8244SOL    HW225632   2.452   5.259   4.880
 8245SOL     OW25633   4.419   3.659   0.639
 8245SOL    HW125634   4.501   3.675   0.695
 8245SOL    HW225635   4.378   3.572   0.666
 8246SOL     OW25636   5.158   3.855   5.188
 8246SOL    HW125637   5.203   3.785   5.242
 8246SOL    HW225638   5.059   3.839   5.187
 8247SOL     OW25639   1.061   6.227   0.284
 8247SOL    HW125640   0.982   6.165   0.284
 8247SOL    HW225641   1.137   6.183   0.332
 8248SOL     OW25642   0.323   4.725   3.192
 8248SOL    HW125643   0.320   4.808   3.248
 8248SOL    HW225644   0.247   4.727   3.127
 8249SOL     OW25645   1.061   5.631   2.917
 8249SOL    HW125646   1.048   5.555   2.980
 8249SOL    HW225647   0.974   5.656   2.875
 8250SOL     OW25648   3.591   3.842   1.994
 8250SOL    HW125649   3.521   3.819   2.062
 8250SOL    HW225650   3.672   3.878   2.040
 8251SOL     OW25651   6.353   1.272   4.730
 8251SOL    HW125652   6.364   1.308   4.637
 8251SOL    HW225653   6.342   1.172   4.726
 8252SOL     OW25654   1.488   3.581   4.333
 8252SOL    HW125655   1.553   3.651   4.363
 8252SOL    HW225656   1.398   3.622   4.320
 8253SOL     OW25657   2.390   3.152   5.612
 8253SOL    HW125658   2.330   3.225   5.580
 8253SOL    HW225659   2.422   3.098   5.534
 8254SOL     OW25660   4.447   5.930   3.248
 8254SOL    HW125661   4.495   6.012   3.277
 8254SOL    HW225662   4.401   5.889   3.327
 8255SOL     OW25663   3.894   4.890   3.520
 8255SOL    HW125664   3.861   4.885   3.614
 8255SOL    HW225665   3.817   4.881   3.456
 8256SOL     OW25666   5.569   2.663   3.988
 8256SOL    HW125667   5.543   2.756   3.962
 8256SOL    HW225668   5.507   2.598   3.945
 8257SOL     OW25669   6.197   4.940   4.160
 8257SOL    HW125670   6.239   4.919   4.248
 8257SOL    HW225671   6.266   4.932   4.088
 8258SOL     OW25672   5.313   1.798   0.073
 8258SOL    HW125673   5.362   1.714   0.054
 8258SOL    HW225674   5.298   1.848   7.009
 8259SOL     OW25675   4.435   1.121   1.161
 8259SOL    HW125676   4.454   1.105   1.064
 8259SOL    HW225677   4.506   1.179   1.199
 8260SOL     OW25678   3.303   5.748   6.680
 8260SOL    HW125679   3.276   5.742   6.776
 8260SOL    HW225680   3.234   5.798   6.629
 8261SOL     OW25681   5.164   1.188   1.704
 8261SOL    HW125682   5.148   1.280   1.669
 8261SOL    HW225683   5.089   1.127   1.677
 8262SOL     OW25684   7.004   2.297   1.227
 8262SOL    HW125685   0.027   2.270   1.312
 8262SOL    HW225686   0.048   2.341   1.167
 8263SOL     OW25687   5.294   1.502   0.968
 8263SOL    HW125688   5.225   1.570   0.992
 8263SOL    HW225689   5.367   1.503   1.036
 8264SOL     OW25690   1.765   4.180   1.888
 8264SOL    HW125691   1.738   4.255   1.950
 8264SOL    HW225692   1.814   4.218   1.810
 8265SOL     OW25693   1.685   0.630   2.703
 8265SOL    HW125694   1.764   0.690   2.689
 8265SOL    HW225695   1.627   0.668   2.775
 8266SOL     OW25696   3.477   0.375   3.098
 8266SOL    HW125697   3.544   0.440   3.135
 8266SOL    HW225698   3.385   0.408   3.117
 8267SOL     OW25699   6.963   3.707   0.607
 8267SOL    HW125700   6.941   3.632   0.544
 8267SOL    HW225701   6.929   3.684   0.699
 8268SOL     OW25702   3.225   5.631   6.967
 8268SOL    HW125703   3.293   5.579   7.019
 8268SOL    HW225704   3.134   5.610   7.002
 8269SOL     OW25705   5.988   2.236   0.747
 8269SOL    HW125706   6.004   2.303   0.674
 8269SOL    HW225707   6.076   2.201   0.779
 8270SOL     OW25708   2.924   6.551   4.185
 8270SOL    HW125709   2.964   6.537   4.094
 8270SOL    HW225710   2.841   6.496   4.193
 8271SOL     OW25711   6.370   2.419   3.173
 8271SOL    HW125712   6.467   2.406   3.192
 8271SOL    HW225713   6.341   2.509   3.206
 8272SOL     OW25714   3.769   1.102   4.295
 8272SOL    HW125715   3.816   1.121   4.208
 8272SOL    HW225716   3.686   1.157   4.301
 8273SOL     OW25717   1.999   6.518   1.975
 8273SOL    HW125718   2.018   6.611   2.009
 8273SOL    HW225719   2.011   6.453   2.050
 8274SOL     OW25720   5.067   4.221   3.579
 8274SOL    HW125721   5.029   4.171   3.657
 8274SOL    HW225722   4.996   4.279   3.539
 8275SOL     OW25723   5.473   2.207   0.119
 8275SOL    HW125724   5.474   2.181   0.022
 8275SOL    HW225725   5.549   2.270   0.137
 8276SOL     OW25726   0.411   2.067   3.024
 8276SOL    HW125727   0.503   2.085   3.058
 8276SOL    HW225728   0.345   2.120   3.077
 8277SOL     OW25729   6.736   1.184   0.005
 8277SOL    HW125730   6.693   1.248   6.964
 8277SOL    HW225731   6.833   1.173   7.004
 8278SOL     OW25732   1.144   2.478   0.697
 8278SOL    HW125733   1.120   2.551   0.633
 8278SOL    HW225734   1.232   2.439   0.671
 8279SOL     OW25735   0.390   6.403   3.665
 8279SOL    HW125736   0.312   6.437   3.614
 8279SOL    HW225737   0.406   6.462   3.745
 8280SOL     OW25738   3.230   2.020   5.740
 8280SOL    HW125739   3.247   1.937   5.794
 8280SOL    HW225740   3.185   2.088   5.798
 8281SOL     OW25741   4.720   5.595   2.619
 8281SOL    HW125742   4.629   5.608   2.580
 8281SOL    HW225743   4.737   5.663   2.690
 8282SOL     OW25744   5.577   2.598   6.256
 8282SOL    HW125745   5.480   2.587   6.277
 8282SOL    HW225746   5.592   2.687   6.213
 8283SOL     OW25747   1.878   2.574   5.964
 8283SOL    HW125748   1.810   2.512   6.003
 8283SOL    HW225749   1.835   2.634   5.897
 8284SOL     OW25750   6.510   4.401   1.737
 8284SOL    HW125751   6.537   4.354   1.821
 8284SOL    HW225752   6.414   4.426   1.741
 8285SOL     OW25753   3.977   3.086   3.869
 8285SOL    HW125754   3.929   3.024   3.932
 8285SOL    HW225755   4.003   3.035   3.787
 8286SOL     OW25756   0.297   2.163   6.624
 8286SOL    HW125757   0.299   2.257   6.590
 8286SOL    HW225758   0.344   2.103   6.560
 8287SOL     OW25759   1.672   6.525   4.292
 8287SOL    HW125760   1.754   6.477   4.325
 8287SOL    HW225761   1.681   6.541   4.194
 8288SOL     OW25762   3.221   1.681   3.364
 8288SOL    HW125763   3.310   1.675   3.319
 8288SOL    HW225764   3.162   1.607   3.330
 8289SOL     OW25765   0.037   5.704   6.634
 8289SOL    HW125766   0.012   5.791   6.593
 8289SOL    HW225767   0.133   5.706   6.662
 8290SOL     OW25768   6.479   2.062   0.925
 8290SOL    HW125769   6.558   2.024   0.876
 8290SOL    HW225770   6.509   2.096   1.014
 8291SOL     OW25771   4.013   0.564   0.500
 8291SOL    HW125772   4.084   0.497   0.523
 8291SOL    HW225773   3.965   0.591   0.583
 8292SOL     OW25774   3.105   0.534   6.442
 8292SOL    HW125775   3.139   0.539   6.348
 8292SOL    HW225776   3.031   0.467   6.448
 8293SOL     OW25777   5.902   5.325   4.718
 8293SOL    HW125778   5.881   5.237   4.675
 8293SOL    HW225779   5.920   5.393   4.647
 8294SOL     OW25780   6.279   3.279   0.036
 8294SOL    HW125781   6.289   3.276   6.958
 8294SOL    HW225782   6.242   3.192   0.068
 8295SOL     OW25783   4.594   3.454   6.787
 8295SOL    HW125784   4.653   3.494   6.858
 8295SOL    HW225785   4.643   3.453   6.700
 8296SOL     OW25786   1.220   4.987   6.081
 8296SOL    HW125787   1.199   5.048   6.005
 8296SOL    HW225788   1.254   5.040   6.158
 8297SOL     OW25789   1.271   2.732   3.828
 8297SOL    HW125790   1.331   2.655   3.850
 8297SOL    HW225791   1.176   2.701   3.826
 8298SOL     OW25792   5.031   1.578   2.092
 8298SOL    HW125793   4.986   1.642   2.029
 8298SOL    HW225794   5.049   1.492   2.043
 8299SOL     OW25795   6.351   2.261   1.216
 8299SOL    HW125796   6.447   2.241   1.234
 8299SOL    HW225797   6.335   2.359   1.225
 8300SOL     OW25798   0.749   5.095   3.074
 8300SOL    HW125799   0.676   5.154   3.039
 8300SOL    HW225800   0.759   5.108   3.172
 8301SOL     OW25801   2.600   2.311   6.649
 8301SOL    HW125802   2.672   2.245   6.672
 8301SOL    HW225803   2.599   2.326   6.551
 8302SOL     OW25804   6.091   5.876   5.501
 8302SOL    HW125805   6.107   5.963   5.453
 8302SOL    HW225806   6.038   5.893   5.584
 8303SOL     OW25807   0.161   0.325   6.237
 8303SOL    HW125808   0.134   0.244   6.288
 8303SOL    HW225809   0.080   0.368   6.197
 8304SOL     OW25810   0.288   3.279   0.607
 8304SOL    HW125811   0.283   3.363   0.661
 8304SOL    HW225812   0.204   3.226   0.620
 8305SOL     OW25813   3.694   5.404   3.132
 8305SOL    HW125814   3.684   5.464   3.211
 8305SOL    HW225815   3.610   5.351   3.119
 8306SOL     OW25816   1.185   2.973   4.417
 8306SOL    HW125817   1.186   3.030   4.499
 8306SOL    HW225818   1.113   3.005   4.354
 8307SOL     OW25819   3.988   5.619   0.788
 8307SOL    HW125820   3.906   5.641   0.736
 8307SOL    HW225821   3.982   5.526   0.823
 8308SOL     OW25822   3.349   0.289   2.765
 8308SOL    HW125823   3.298   0.371   2.791
 8308SOL    HW225824   3.437   0.315   2.726
 8309SOL     OW25825   5.551   6.806   2.320
 8309SOL    HW125826   5.541   6.873   2.393
 8309SOL    HW225827   5.516   6.844   2.234
 8310SOL     OW25828   6.276   4.308   6.910
 8310SOL    HW125829   6.251   4.398   6.947
 8310SOL    HW225830   6.261   4.238   6.979
 8311SOL     OW25831   6.613   0.287   6.537
 8311SOL    HW125832   6.561   0.286   6.622
 8311SOL    HW225833   6.603   0.200   6.489
 8312SOL     OW25834   5.383   6.568   1.416
 8312SOL    HW125835   5.390   6.526   1.506
 8312SOL    HW225836   5.354   6.499   1.349
 8313SOL     OW25837   4.052   1.284   2.422
 8313SOL    HW125838   4.039   1.331   2.508
 8313SOL    HW225839   3.989   1.206   2.416
 8314SOL     OW25840   0.275   6.087   3.162
 8314SOL    HW125841   0.244   6.053   3.251
 8314SOL    HW225842   0.211   6.156   3.129
 8315SOL     OW25843   4.811   4.801   6.456
 8315SOL    HW125844   4.863   4.832   6.377
 8315SOL    HW225845   4.831   4.860   6.534
 8316SOL     OW25846   3.117   5.867   6.520
 8316SOL    HW125847   3.066   5.815   6.451
 8316SOL    HW225848   3.077   5.958   6.529
 8317SOL     OW25849   2.250   4.122   2.024
 8317SOL    HW125850   2.190   4.065   1.968
 8317SOL    HW225851   2.344   4.090   2.014
 8318SOL     OW25852   3.571   1.078   6.043
 8318SOL    HW125853   3.596   1.152   6.106
 8318SOL    HW225854   3.623   0.996   6.066
 8319SOL     OW25855   3.630   0.701   5.221
 8319SOL    HW125856   3.613   0.799   5.232
 8319SOL    HW225857   3.623   0.656   5.311
 8320SOL     OW25858   4.356   4.909   1.336
 8320SOL    HW125859   4.400   4.848   1.402
 8320SOL    HW225860   4.282   4.860   1.290
 8321SOL     OW25861   6.888   0.931   1.185
 8321SOL    HW125862   6.852   0.875   1.259
 8321SOL    HW225863   6.988   0.934   1.191
 8322SOL     OW25864   5.919   6.991   6.874
 8322SOL    HW125865   5.927   0.050   6.932
 8322SOL    HW225866   5.828   6.990   6.831
 8323SOL     OW25867   1.820   1.053   1.680
 8323SOL    HW125868   1.854   1.043   1.774
 8323SOL    HW225869   1.794   0.963   1.645
 8324SOL     OW25870   6.722   1.089   2.533
 8324SOL    HW125871   6.623   1.094   2.541
 8324SOL    HW225872   6.763   1.081   2.624
 8325SOL     OW25873   3.509   4.167   4.494
 8325SOL    HW125874   3.588   4.194   4.548
 8325SOL    HW225875   3.425   4.182   4.548
 8326SOL     OW25876   4.135   2.919   6.513
 8326SOL    HW125877   4.210   2.862   6.548
 8326SOL    HW225878   4.162   2.959   6.426
 8327SOL     OW25879   5.581   2.383   6.509
 8327SOL    HW125880   5.610   2.288   6.518
 8327SOL    HW225881   5.482   2.386   6.490
 8328SOL     OW25882   2.414   2.637   3.997
 8328SOL    HW125883   2.481   2.595   3.936
 8328SOL    HW225884   2.324   2.597   3.982
 8329SOL     OW25885   0.710   2.317   4.451
 8329SOL    HW125886   0.704   2.414   4.474
 8329SOL    HW225887   0.786   2.303   4.387
 8330SOL     OW25888   2.257   6.818   0.700
 8330SOL    HW125889   2.200   6.762   0.760
 8330SOL    HW225890   2.256   6.913   0.732
 8331SOL     OW25891   3.245   6.825   0.980
 8331SOL    HW125892   3.194   6.899   1.023
 8331SOL    HW225893   3.343   6.839   0.997
 8332SOL     OW25894   4.903   6.019   3.594
 8332SOL    HW125895   4.894   6.111   3.556
 8332SOL    HW225896   4.843   5.957   3.543
 8333SOL     OW25897   1.531   4.981   5.713
 8333SOL    HW125898   1.460   4.912   5.726
 8333SOL    HW225899   1.514   5.030   5.628
 8334SOL     OW25900   6.428   0.036   4.240
 8334SOL    HW125901   6.397   0.106   4.304
 8334SOL    HW225902   6.490   0.077   4.173
 8335SOL     OW25903   6.388   6.468   5.447
 8335SOL    HW125904   6.392   6.561   5.412
 8335SOL    HW225905   6.377   6.471   5.547
 8336SOL     OW25906   0.839   1.965   2.434
 8336SOL    HW125907   0.749   1.999   2.461
 8336SOL    HW225908   0.831   1.869   2.405
 8337SOL     OW25909   0.205   6.133   2.042
 8337SOL    HW125910   0.139   6.121   1.968
 8337SOL    HW225911   0.230   6.229   2.049
 8338SOL     OW25912   2.071   4.567   0.872
 8338SOL    HW125913   2.121   4.643   0.831
 8338SOL    HW225914   1.979   4.564   0.834
 8339SOL     OW25915   5.981   0.602   3.085
 8339SOL    HW125916   6.023   0.511   3.087
 8339SOL    HW225917   5.888   0.597   3.121
 8340SOL     OW25918   4.801   3.477   1.215
 8340SOL    HW125919   4.740   3.439   1.285
 8340SOL    HW225920   4.825   3.571   1.239
 8341SOL     OW25921   2.631   0.093   0.865
 8341SOL    HW125922   2.595   0.159   0.931
 8341SOL    HW225923   2.729   0.110   0.850
 8342SOL     OW25924   4.966   6.838   1.185
 8342SOL    HW125925   4.998   6.932   1.201
 8342SOL    HW225926   4.875   6.841   1.144
 8343SOL     OW25927   0.843   5.562   5.579
 8343SOL    HW125928   0.841   5.587   5.483
 8343SOL    HW225929   0.927   5.597   5.621
 8344SOL     OW25930   3.816   0.145   5.200
 8344SOL    HW125931   3.765   0.059   5.205
 8344SOL    HW225932   3.902   0.136   5.251
 8345SOL     OW25933   5.979   1.369   3.128
 8345SOL    HW125934   5.882   1.378   3.109
 8345SOL    HW225935   6.008   1.274   3.111
 8346SOL     OW25936   3.504   5.449   1.480
 8346SOL    HW125937   3.476   5.460   1.576
 8346SOL    HW225938   3.518   5.539   1.439
 8347SOL     OW25939   3.467   5.169   3.968
 8347SOL    HW125940   3.470   5.107   4.046
 8347SOL    HW225941   3.461   5.116   3.883
 8348SOL     OW25942   1.758   0.625   0.614
 8348SOL    HW125943   1.774   0.718   0.648
 8348SOL    HW225944   1.665   0.596   0.638
 8349SOL     OW25945   6.050   5.466   1.608
 8349SOL    HW125946   5.958   5.430   1.591
 8349SOL    HW225947   6.103   5.463   1.523
 8350SOL     OW25948   6.479   0.324   4.874
 8350SOL    HW125949   6.516   0.354   4.963
 8350SOL    HW225950   6.547   0.268   4.827
 8351SOL     OW25951   2.757   6.572   2.037
 8351SOL    HW125952   2.694   6.495   2.021
 8351SOL    HW225953   2.840   6.559   1.983
 8352SOL     OW25954   6.352   6.041   1.795
 8352SOL    HW125955   6.441   6.011   1.831
 8352SOL    HW225956   6.346   6.016   1.698
 8353SOL     OW25957   0.991   3.857   2.021
 8353SOL    HW125958   0.939   3.902   1.948
 8353SOL    HW225959   0.928   3.804   2.079
 8354SOL     OW25960   2.641   0.256   0.604
 8354SOL    HW125961   2.588   0.181   0.645
 8354SOL    HW225962   2.592   0.290   0.523
 8355SOL     OW25963   3.218   0.930   0.542
 8355SOL    HW125964   3.167   1.002   0.495
 8355SOL    HW225965   3.263   0.872   0.474
 8356SOL     OW25966   2.598   5.405   0.519
 8356SOL    HW125967   2.656   5.481   0.489
 8356SOL    HW225968   2.541   5.374   0.442
 8357SOL     OW25969   4.590   6.220   3.220
 8357SOL    HW125970   4.625   6.313   3.229
 8357SOL    HW225971   4.547   6.192   3.305
 8358SOL     OW25972   2.890   2.181   5.026
 8358SOL    HW125973   2.829   2.260   5.032
 8358SOL    HW225974   2.976   2.202   5.072
 8359SOL     OW25975   4.018   4.778   3.908
 8359SOL    HW125976   4.083   4.786   3.833
 8359SOL    HW225977   3.932   4.822   3.882
 8360SOL     OW25978   4.425   0.446   2.883
 8360SOL    HW125979   4.511   0.498   2.880
 8360SOL    HW225980   4.429   0.370   2.818
 8361SOL     OW25981   1.669   0.236   2.835
 8361SOL    HW125982   1.655   0.220   2.737
 8361SOL    HW225983   1.689   0.150   2.881
 8362SOL     OW25984   2.195   3.020   0.449
 8362SOL    HW125985   2.256   2.977   0.383
 8362SOL    HW225986   2.245   3.092   0.497
 8363SOL     OW25987   0.033   3.750   0.976
 8363SOL    HW125988   6.984   3.820   0.976
 8363SOL    HW225989   0.002   3.670   1.028
 8364SOL     OW25990   6.802   4.656   5.065
 8364SOL    HW125991   6.832   4.577   5.013
 8364SOL    HW225992   6.804   4.737   5.007
 8365SOL     OW25993   0.880   3.935   6.052
 8365SOL    HW125994   0.931   4.017   6.024
 8365SOL    HW225995   0.944   3.861   6.071
 8366SOL     OW25996   2.677   6.836   2.733
 8366SOL    HW125997   2.715   6.819   2.642
 8366SOL    HW225998   2.736   6.795   2.802
 8367SOL     OW25999   4.797   5.721   3.859
 8367SOL    HW126000   4.755   5.710   3.950
 8367SOL    HW226001   4.804   5.632   3.815
 8368SOL     OW26002   3.127   5.773   6.065
 8368SOL    HW126003   3.195   5.738   6.001
 8368SOL    HW226004   3.137   5.872   6.074
 8369SOL     OW26005   2.808   1.366   1.462
 8369SOL    HW126006   2.754   1.445   1.431
 8369SOL    HW226007   2.762   1.282   1.435
 8370SOL     OW26008   1.616   1.667   0.415
 8370SOL    HW126009   1.608   1.571   0.391
 8370SOL    HW226010   1.536   1.696   0.467
 8371SOL     OW26011   2.136   2.589   6.988
 8371SOL    HW126012   2.134   2.576   0.065
 8371SOL    HW226013   2.089   2.513   6.944
 8372SOL     OW26014   6.573   0.593   1.222
 8372SOL    HW126015   6.475   0.577   1.212
 8372SOL    HW226016   6.616   0.595   1.132
 8373SOL     OW26017   1.568   6.516   4.596
 8373SOL    HW126018   1.614   6.602   4.616
 8373SOL    HW226019   1.614   6.471   4.520
 8374SOL     OW26020   6.593   0.316   5.980
 8374SOL    HW126021   6.632   0.330   5.889
 8374SOL    HW226022   6.526   0.242   5.976
 8375SOL     OW26023   4.405   0.803   5.913
 8375SOL    HW126024   4.471   0.872   5.884
 8375SOL    HW226025   4.400   0.801   6.013
 8376SOL     OW26026   4.800   0.340   4.502
 8376SOL    HW126027   4.763   0.297   4.585
 8376SOL    HW226028   4.900   0.334   4.504
 8377SOL     OW26029   5.545   5.044   1.265
 8377SOL    HW126030   5.631   5.088   1.291
 8377SOL    HW226031   5.558   4.997   1.178
 8378SOL     OW26032   5.172   3.223   3.826
 8378SOL    HW126033   5.205   3.306   3.783
 8378SOL    HW226034   5.171   3.148   3.759
 8379SOL     OW26035   4.978   2.660   2.214
 8379SOL    HW126036   4.977   2.707   2.125
 8379SOL    HW226037   5.072   2.640   2.240
 8380SOL     OW26038   5.761   1.642   3.647
 8380SOL    HW126039   5.803   1.565   3.695
 8380SOL    HW226040   5.832   1.704   3.614
 8381SOL     OW26041   2.137   5.418   4.362
 8381SOL    HW126042   2.098   5.345   4.418
 8381SOL    HW226043   2.108   5.406   4.267
 8382SOL     OW26044   1.020   4.658   2.683
 8382SOL    HW126045   1.016   4.574   2.629
 8382SOL    HW226046   1.020   4.737   2.622
 8383SOL     OW26047   3.109   1.367   5.598
 8383SOL    HW126048   3.076   1.448   5.647
 8383SOL    HW226049   3.191   1.390   5.547
 8384SOL     OW26050   0.887   6.754   1.953
 8384SOL    HW126051   0.864   6.801   2.039
 8384SOL    HW226052   0.924   6.664   1.974
 8385SOL     OW26053   4.862   2.090   0.944
 8385SOL    HW126054   4.949   2.141   0.941
 8385SOL    HW226055   4.845   2.059   1.037
 8386SOL     OW26056   0.791   4.240   2.538
 8386SOL    HW126057   0.878   4.216   2.494
 8386SOL    HW226058   0.754   4.323   2.496
 8387SOL     OW26059   1.042   2.128   1.219
 8387SOL    HW126060   1.101   2.194   1.265
 8387SOL    HW226061   1.027   2.157   1.124
 8388SOL     OW26062   0.844   6.878   3.081
 8388SOL    HW126063   0.747   6.856   3.072
 8388SOL    HW226064   0.859   6.925   3.168
 8389SOL     OW26065   6.149   2.928   3.506
 8389SOL    HW126066   6.126   2.845   3.558
 8389SOL    HW226067   6.234   2.913   3.455
 8390SOL     OW26068   6.170   1.450   6.347
 8390SOL    HW126069   6.099   1.380   6.338
 8390SOL    HW226070   6.224   1.452   6.263
 8391SOL     OW26071   6.649   6.936   0.977
 8391SOL    HW126072   6.671   0.006   0.948
 8391SOL    HW226073   6.664   6.927   1.076
 8392SOL     OW26074   3.698   3.186   5.605
 8392SOL    HW126075   3.785   3.139   5.591
 8392SOL    HW226076   3.623   3.122   5.593
 8393SOL     OW26077   5.347   0.113   1.194
 8393SOL    HW126078   5.361   0.207   1.161
 8393SOL    HW226079   5.250   0.095   1.202
 8394SOL     OW26080   5.845   2.368   2.192
 8394SOL    HW126081   5.783   2.304   2.238
 8394SOL    HW226082   5.875   2.437   2.257
 8395SOL     OW26083   2.602   1.339   5.577
 8395SOL    HW126084   2.608   1.383   5.667
 8395SOL    HW226085   2.528   1.381   5.524
 8396SOL     OW26086   5.142   5.547   4.605
 8396SOL    HW126087   5.153   5.644   4.587
 8396SOL    HW226088   5.231   5.506   4.624
 8397SOL     OW26089   6.708   6.954   2.909
 8397SOL    HW126090   6.705   6.960   3.009
 8397SOL    HW226091   6.651   6.878   2.878
 8398SOL     OW26092   6.008   1.817   6.171
 8398SOL    HW126093   5.998   1.718   6.177
 8398SOL    HW226094   6.038   1.842   6.079
 8399SOL     OW26095   0.071   4.492   1.744
 8399SOL    HW126096   0.144   4.502   1.812
 8399SOL    HW226097   0.110   4.483   1.653
 8400SOL     OW26098   1.335   1.402   4.637
 8400SOL    HW126099   1.339   1.369   4.731
 8400SOL    HW226100   1.351   1.326   4.574
 8401SOL     OW26101   2.151   0.649   5.586
 8401SOL    HW126102   2.147   0.748   5.575
 8401SOL    HW226103   2.199   0.627   5.671
 8402SOL     OW26104   3.678   0.889   6.445
 8402SOL    HW126105   3.698   0.831   6.365
 8402SOL    HW226106   3.759   0.891   6.504
 8403SOL     OW26107   5.328   4.558   5.049
 8403SOL    HW126108   5.359   4.546   4.955
 8403SOL    HW226109   5.344   4.652   5.077
 8404SOL     OW26110   1.143   1.606   6.782
 8404SOL    HW126111   1.045   1.588   6.775
 8404SOL    HW226112   1.193   1.520   6.773
 8405SOL     OW26113   3.978   6.841   5.277
 8405SOL    HW126114   3.881   6.862   5.263
 8405SOL    HW226115   4.018   6.808   5.192
 8406SOL     OW26116   5.701   0.170   5.870
 8406SOL    HW126117   5.658   0.126   5.949
 8406SOL    HW226118   5.719   0.266   5.891
 8407SOL     OW26119   4.157   0.532   4.387
 8407SOL    HW126120   4.088   0.467   4.355
 8407SOL    HW226121   4.166   0.525   4.487
 8408SOL     OW26122   3.812   1.814   1.357
 8408SOL    HW126123   3.889   1.752   1.372
 8408SOL    HW226124   3.740   1.766   1.305
 8409SOL     OW26125   4.127   2.035   2.239
 8409SOL    HW126126   4.171   2.122   2.217
 8409SOL    HW226127   4.028   2.048   2.245
 8410SOL     OW26128   0.179   1.581   1.870
 8410SOL    HW126129   0.125   1.657   1.905
 8410SOL    HW226130   0.228   1.610   1.787
 8411SOL     OW26131   1.023   6.358   1.136
 8411SOL    HW126132   1.094   6.289   1.150
 8411SOL    HW226133   1.030   6.428   1.207
 8412SOL     OW26134   2.704   2.694   6.901
 8412SOL    HW126135   2.765   2.753   6.954
 8412SOL    HW226136   2.679   2.614   6.956
 8413SOL     OW26137   3.597   5.574   4.657
 8413SOL    HW126138   3.526   5.504   4.655
 8413SOL    HW226139   3.556   5.665   4.647
 8414SOL     OW26140   1.528   0.162   0.996
 8414SOL    HW126141   1.508   0.260   0.987
 8414SOL    HW226142   1.626   0.149   1.012
 8415SOL     OW26143   3.183   1.565   6.041
 8415SOL    HW126144   3.121   1.541   6.115
 8415SOL    HW226145   3.265   1.507   6.046
 8416SOL     OW26146   0.445   2.140   5.057
 8416SOL    HW126147   0.410   2.103   5.143
 8416SOL    HW226148   0.443   2.240   5.061
 8417SOL     OW26149   1.682   3.741   6.112
 8417SOL    HW126150   1.738   3.705   6.037
 8417SOL    HW226151   1.681   3.675   6.187
 8418SOL     OW26152   0.464   5.982   1.993
 8418SOL    HW126153   0.492   5.926   2.071
 8418SOL    HW226154   0.370   6.012   2.007
 8419SOL     OW26155   3.813   1.899   4.457
 8419SOL    HW126156   3.875   1.885   4.380
 8419SOL    HW226157   3.792   1.997   4.466
 8420SOL     OW26158   3.846   0.888   1.940
 8420SOL    HW126159   3.889   0.957   1.998
 8420SOL    HW226160   3.904   0.807   1.935
 8421SOL     OW26161   4.761   6.703   6.552
 8421SOL    HW126162   4.714   6.772   6.498
 8421SOL    HW226163   4.765   6.617   6.501
 8422SOL     OW26164   5.436   2.934   4.013
 8422SOL    HW126165   5.350   2.906   4.057
 8422SOL    HW226166   5.425   3.026   3.974
 8423SOL     OW26167   6.382   5.564   0.217
 8423SOL    HW126168   6.419   5.550   0.309
 8423SOL    HW226169   6.308   5.632   0.221
 8424SOL     OW26170   3.433   0.688   5.011
 8424SOL    HW126171   3.494   0.677   5.090
 8424SOL    HW226172   3.481   0.741   4.940
 8425SOL     OW26173   3.915   3.935   2.241
 8425SOL    HW126174   3.906   3.835   2.241
 8425SOL    HW226175   3.981   3.962   2.311
 8426SOL     OW26176   3.736   3.008   1.905
 8426SOL    HW126177   3.684   2.993   1.821
 8426SOL    HW226178   3.760   3.105   1.912
 8427SOL     OW26179   4.047   3.396   3.110
 8427SOL    HW126180   4.047   3.369   3.206
 8427SOL    HW226181   4.094   3.326   3.056
 8428SOL     OW26182   5.877   0.229   2.426
 8428SOL    HW126183   5.863   0.291   2.503
 8428SOL    HW226184   5.919   0.144   2.459
 8429SOL     OW26185   2.632   5.634   5.397
 8429SOL    HW126186   2.719   5.682   5.400
 8429SOL    HW226187   2.639   5.555   5.336
 8430SOL     OW26188   5.122   6.875   5.378
 8430SOL    HW126189   5.109   6.934   5.298
 8430SOL    HW226190   5.109   6.780   5.352
 8431SOL     OW26191   1.689   3.296   5.899
 8431SOL    HW126192   1.784   3.326   5.893
 8431SOL    HW226193   1.633   3.351   5.837
 8432SOL     OW26194   6.398   5.089   5.861
 8432SOL    HW126195   6.414   5.000   5.905
 8432SOL    HW226196   6.468   5.105   5.792
 8433SOL     OW26197   5.377   2.174   1.143
 8433SOL    HW126198   5.362   2.112   1.066
 8433SOL    HW226199   5.439   2.248   1.115
 8434SOL     OW26200   2.592   6.289   4.840
 8434SOL    HW126201   2.622   6.291   4.745
 8434SOL    HW226202   2.513   6.227   4.848
 8435SOL     OW26203   5.738   1.772   3.377
 8435SOL    HW126204   5.725   1.728   3.466
 8435SOL    HW226205   5.686   1.723   3.307
 8436SOL     OW26206   2.309   5.805   2.393
 8436SOL    HW126207   2.245   5.758   2.332
 8436SOL    HW226208   2.370   5.737   2.436
 8437SOL     OW26209   1.028   5.713   0.967
 8437SOL    HW126210   0.982   5.748   0.885
 8437SOL    HW226211   1.126   5.706   0.949
 8438SOL     OW26212   1.026   4.188   1.625
 8438SOL    HW126213   1.057   4.139   1.707
 8438SOL    HW226214   1.038   4.286   1.638
 8439SOL     OW26215   6.310   4.660   2.908
 8439SOL    HW126216   6.377   4.587   2.891
 8439SOL    HW226217   6.225   4.640   2.860
 8440SOL     OW26218   1.854   1.894   2.588
 8440SOL    HW126219   1.840   1.966   2.656
 8440SOL    HW226220   1.952   1.882   2.572
 8441SOL     OW26221   6.924   2.284   5.852
 8441SOL    HW126222   6.835   2.249   5.881
 8441SOL    HW226223   6.946   2.367   5.903
 8442SOL     OW26224   3.590   2.152   6.730
 8442SOL    HW126225   3.589   2.094   6.812
 8442SOL    HW226226   3.527   2.229   6.742
 8443SOL     OW26227   2.075   4.311   3.001
 8443SOL    HW126228   2.051   4.262   2.917
 8443SOL    HW226229   2.174   4.326   3.003
 8444SOL     OW26230   5.534   5.201   4.811
 8444SOL    HW126231   5.585   5.275   4.855
 8444SOL    HW226232   5.563   5.113   4.850
 8445SOL     OW26233   4.677   6.750   6.817
 8445SOL    HW126234   4.651   6.838   6.855
 8445SOL    HW226235   4.685   6.757   6.717
 8446SOL     OW26236   0.180   5.606   5.125
 8446SOL    HW126237   0.231   5.678   5.079
 8446SOL    HW226238   0.131   5.550   5.057
 8447SOL     OW26239   3.911   1.181   4.079
 8447SOL    HW126240   3.962   1.265   4.096
 8447SOL    HW226241   3.901   1.168   3.980
 8448SOL     OW26242   3.587   5.776   3.080
 8448SOL    HW126243   3.557   5.859   3.033
 8448SOL    HW226244   3.660   5.732   3.028
 8449SOL     OW26245   1.576   2.017   3.742
 8449SOL    HW126246   1.542   2.056   3.656
 8449SOL    HW226247   1.533   2.064   3.819
 8450SOL     OW26248   6.859   0.604   0.375
 8450SOL    HW126249   6.793   0.624   0.302
 8450SOL    HW226250   6.927   0.677   0.379
 8451SOL     OW26251   3.979   2.651   1.416
 8451SOL    HW126252   3.969   2.621   1.511
 8451SOL    HW226253   3.952   2.577   1.354
 8452SOL     OW26254   5.298   1.647   6.265
 8452SOL    HW126255   5.376   1.688   6.218
 8452SOL    HW226256   5.321   1.630   6.360
 8453SOL     OW26257   6.780   0.456   6.733
 8453SOL    HW126258   6.684   0.428   6.739
 8453SOL    HW226259   6.826   0.439   6.820
 8454SOL     OW26260   6.233   5.059   6.704
 8454SOL    HW126261   6.320   5.095   6.669
 8454SOL    HW226262   6.205   5.111   6.784
 8455SOL     OW26263   6.354   0.811   2.831
 8455SOL    HW126264   6.351   0.821   2.732
 8455SOL    HW226265   6.402   0.726   2.855
 8456SOL     OW26266   0.020   0.372   2.532
 8456SOL    HW126267   0.116   0.394   2.550
 8456SOL    HW226268   0.009   0.345   2.436
 8457SOL     OW26269   6.868   0.123   4.997
 8457SOL    HW126270   6.835   0.113   5.091
 8457SOL    HW226271   6.968   0.114   4.996
 8458SOL     OW26272   1.117   6.998   6.843
 8458SOL    HW126273   1.212   7.001   6.877
 8458SOL    HW226274   1.118   6.995   6.743
 8459SOL     OW26275   1.162   6.120   2.962
 8459SOL    HW126276   1.211   6.154   3.042
 8459SOL    HW226277   1.215   6.046   2.920
 8460SOL     OW26278   4.097   3.645   2.977
 8460SOL    HW126279   4.105   3.619   2.880
 8460SOL    HW226280   4.079   3.563   3.031
 8461SOL     OW26281   6.194   3.528   3.507
 8461SOL    HW126282   6.165   3.438   3.474
 8461SOL    HW226283   6.122   3.566   3.565
 8462SOL     OW26284   2.732   2.480   1.722
 8462SOL    HW126285   2.798   2.485   1.647
 8462SOL    HW226286   2.772   2.429   1.798
 8463SOL     OW26287   5.922   0.492   2.141
 8463SOL    HW126288   5.894   0.419   2.079
 8463SOL    HW226289   5.907   0.581   2.098
 8464SOL     OW26290   6.597   1.477   4.621
 8464SOL    HW126291   6.639   1.387   4.631
 8464SOL    HW226292   6.636   1.541   4.687
 8465SOL     OW26293   1.377   1.976   0.470
 8465SOL    HW126294   1.301   2.040   0.456
 8465SOL    HW226295   1.341   1.883   0.479
 8466SOL     OW26296   0.610   7.002   4.275
 8466SOL    HW126297   0.543   6.963   4.338
 8466SOL    HW226298   0.690   6.943   4.271
 8467SOL     OW26299   3.951   5.378   0.936
 8467SOL    HW126300   4.033   5.326   0.958
 8467SOL    HW226301   3.873   5.315   0.928
 8468SOL     OW26302   3.700   2.482   6.821
 8468SOL    HW126303   3.696   2.520   6.729
 8468SOL    HW226304   3.759   2.401   6.821
 8469SOL     OW26305   3.967   2.238   5.939
 8469SOL    HW126306   3.916   2.300   5.878
 8469SOL    HW226307   3.986   2.285   6.025
 8470SOL     OW26308   1.846   3.085   6.859
 8470SOL    HW126309   1.837   3.184   6.853
 8470SOL    HW226310   1.917   3.061   6.925
 8471SOL     OW26311   4.074   1.879   4.001
 8471SOL    HW126312   4.121   1.956   4.044
 8471SOL    HW226313   3.975   1.892   4.009
 8472SOL     OW26314   1.343   6.672   3.008
 8472SOL    HW126315   1.263   6.613   2.997
 8472SOL    HW226316   1.413   6.647   2.941
 8473SOL     OW26317   6.346   5.562   6.521
 8473SOL    HW126318   6.301   5.552   6.610
 8473SOL    HW226319   6.404   5.483   6.504
 8474SOL     OW26320   4.129   5.285   0.563
 8474SOL    HW126321   4.211   5.231   0.546
 8474SOL    HW226322   4.054   5.223   0.587
 8475SOL     OW26323   4.494   2.169   3.159
 8475SOL    HW126324   4.581   2.138   3.197
 8475SOL    HW226325   4.511   2.235   3.085
 8476SOL     OW26326   4.477   0.532   2.376
 8476SOL    HW126327   4.462   0.433   2.369
 8476SOL    HW226328   4.472   0.573   2.285
 8477SOL     OW26329   2.841   0.184   3.041
 8477SOL    HW126330   2.930   0.167   2.998
 8477SOL    HW226331   2.843   0.273   3.088
 8478SOL     OW26332   1.552   0.498   5.791
 8478SOL    HW126333   1.592   0.563   5.856
 8478SOL    HW226334   1.625   0.448   5.744
 8479SOL     OW26335   5.095   0.948   2.686
 8479SOL    HW126336   5.010   0.928   2.637
 8479SOL    HW226337   5.109   0.881   2.758
 8480SOL     OW26338   1.988   1.437   1.512
 8480SOL    HW126339   1.961   1.344   1.487
 8480SOL    HW226340   2.087   1.446   1.506
 8481SOL     OW26341   4.520   0.015   5.773
 8481SOL    HW126342   4.502   6.981   5.692
 8481SOL    HW226343   4.551   0.106   5.745
 8482SOL     OW26344   0.405   0.398   1.536
 8482SOL    HW126345   0.491   0.427   1.577
 8482SOL    HW226346   0.403   0.299   1.526
 8483SOL     OW26347   5.638   6.594   1.630
 8483SOL    HW126348   5.639   6.632   1.722
 8483SOL    HW226349   5.566   6.526   1.623
 8484SOL     OW26350   0.036   4.315   5.188
 8484SOL    HW126351   7.010   4.235   5.222
 8484SOL    HW226352   7.000   4.362   5.121
 8485SOL     OW26353   1.923   3.383   6.078
 8485SOL    HW126354   1.923   3.420   6.171
 8485SOL    HW226355   1.998   3.318   6.068
 8486SOL     OW26356   4.220   0.626   2.951
 8486SOL    HW126357   4.180   0.654   2.863
 8486SOL    HW226358   4.307   0.580   2.934
 8487SOL     OW26359   4.501   1.061   0.911
 8487SOL    HW126360   4.600   1.057   0.898
 8487SOL    HW226361   4.457   0.997   0.849
 8488SOL     OW26362   5.868   3.990   4.905
 8488SOL    HW126363   5.870   4.065   4.838
 8488SOL    HW226364   5.909   4.021   4.990
 8489SOL     OW26365   3.590   6.321   2.783
 8489SOL    HW126366   3.490   6.318   2.777
 8489SOL    HW226367   3.619   6.414   2.803
 8490SOL     OW26368   3.740   5.236   2.517
 8490SOL    HW126369   3.684   5.243   2.434
 8490SOL    HW226370   3.690   5.185   2.587
 8491SOL     OW26371   1.227   1.076   1.914
 8491SOL    HW126372   1.267   1.010   1.850
 8491SOL    HW226373   1.253   1.052   2.007
 8492SOL     OW26374   5.615   4.192   4.359
 8492SOL    HW126375   5.710   4.189   4.326
 8492SOL    HW226376   5.577   4.283   4.345
 8493SOL     OW26377   3.544   2.550   1.543
 8493SOL    HW126378   3.590   2.571   1.630
 8493SOL    HW226379   3.452   2.517   1.562
 8494SOL     OW26380   3.564   5.930   6.707
 8494SOL    HW126381   3.465   5.933   6.692
 8494SOL    HW226382   3.583   5.869   6.785
 8495SOL     OW26383   0.816   2.451   0.066
 8495SOL    HW126384   0.765   2.526   0.023
 8495SOL    HW226385   0.751   2.384   0.103
 8496SOL     OW26386   0.627   2.161   3.313
 8496SOL    HW126387   0.571   2.095   3.362
 8496SOL    HW226388   0.664   2.120   3.230
 8497SOL     OW26389   5.721   4.556   3.223
 8497SOL    HW126390   5.805   4.524   3.266
 8497SOL    HW226391   5.646   4.495   3.247
 8498SOL     OW26392   6.178   0.650   1.680
 8498SOL    HW126393   6.207   0.576   1.618
 8498SOL    HW226394   6.250   0.719   1.684
 8499SOL     OW26395   0.791   3.867   6.638
 8499SOL    HW126396   0.834   3.812   6.566
 8499SOL    HW226397   0.860   3.926   6.680
 8500SOL     OW26398   3.017   0.371   5.743
 8500SOL    HW126399   2.950   0.339   5.675
 8500SOL    HW226400   2.985   0.457   5.782
 8501SOL     OW26401   2.776   4.127   5.647
 8501SOL    HW126402   2.715   4.053   5.675
 8501SOL    HW226403   2.725   4.191   5.589
 8502SOL     OW26404   1.029   6.804   1.694
 8502SOL    HW126405   1.085   6.721   1.686
 8502SOL    HW226406   0.946   6.782   1.746
 8503SOL     OW26407   3.287   5.644   3.622
 8503SOL    HW126408   3.207   5.685   3.578
 8503SOL    HW226409   3.267   5.627   3.719
 8504SOL     OW26410   1.526   5.312   3.176
 8504SOL    HW126411   1.455   5.329   3.245
 8504SOL    HW226412   1.520   5.381   3.104
 8505SOL     OW26413   4.507   2.498   3.942
 8505SOL    HW126414   4.566   2.575   3.920
 8505SOL    HW226415   4.504   2.486   4.041
 8506SOL     OW26416   0.880   6.266   6.835
 8506SOL    HW126417   0.975   6.280   6.863
 8506SOL    HW226418   0.855   6.334   6.767
 8507SOL     OW26419   1.825   0.153   4.930
 8507SOL    HW126420   1.919   0.127   4.951
 8507SOL    HW226421   1.803   0.129   4.836
 8508SOL     OW26422   0.537   3.026   5.313
 8508SOL    HW126423   0.457   2.978   5.351
 8508SOL    HW226424   0.585   3.074   5.386
 8509SOL     OW26425   6.172   1.624   4.628
 8509SOL    HW126426   6.192   1.569   4.547
 8509SOL    HW226427   6.148   1.565   4.705
 8510SOL     OW26428   5.219   7.020   2.325
 8510SOL    HW126429   5.308   0.011   2.281
 8510SOL    HW226430   5.170   0.084   2.327
 8511SOL     OW26431   6.529   5.525   1.843
 8511SOL    HW126432   6.495   5.554   1.932
 8511SOL    HW226433   6.454   5.484   1.791
 8512SOL     OW26434   3.421   3.016   0.757
 8512SOL    HW126435   3.380   3.038   0.669
 8512SOL    HW226436   3.461   3.100   0.797
 8513SOL     OW26437   1.056   3.217   0.669
 8513SOL    HW126438   0.990   3.282   0.707
 8513SOL    HW226439   1.147   3.258   0.671
 8514SOL     OW26440   2.391   2.754   5.185
 8514SOL    HW126441   2.347   2.772   5.097
 8514SOL    HW226442   2.433   2.838   5.220
 8515SOL     OW26443   2.871   0.323   0.460
 8515SOL    HW126444   2.882   0.232   0.419
 8515SOL    HW226445   2.786   0.324   0.513
 8516SOL     OW26446   5.842   3.347   4.320
 8516SOL    HW126447   5.876   3.255   4.302
 8516SOL    HW226448   5.748   3.341   4.354
 8517SOL     OW26449   1.689   1.894   5.930
 8517SOL    HW126450   1.637   1.907   5.845
 8517SOL    HW226451   1.632   1.918   6.008
 8518SOL     OW26452   5.144   4.968   6.725
 8518SOL    HW126453   5.125   4.875   6.756
 8518SOL    HW226454   5.235   4.972   6.685
 8519SOL     OW26455   0.551   3.289   0.602
 8519SOL    HW126456   0.453   3.272   0.607
 8519SOL    HW226457   0.567   3.387   0.590
 8520SOL     OW26458   3.246   3.946   5.734
 8520SOL    HW126459   3.149   3.950   5.755
 8520SOL    HW226460   3.273   3.850   5.720
 8521SOL     OW26461   1.815   6.841   4.931
 8521SOL    HW126462   1.907   6.807   4.911
 8521SOL    HW226463   1.787   6.907   4.861
 8522SOL     OW26464   0.956   6.677   0.078
 8522SOL    HW126465   0.942   6.580   0.094
 8522SOL    HW226466   1.053   6.694   0.058
 8523SOL     OW26467   3.496   1.907   1.021
 8523SOL    HW126468   3.563   1.977   1.044
 8523SOL    HW226469   3.420   1.948   0.971
 8524SOL     OW26470   2.398   5.859   5.302
 8524SOL    HW126471   2.359   5.780   5.349
 8524SOL    HW226472   2.480   5.831   5.252
 8525SOL     OW26473   6.453   3.160   2.343
 8525SOL    HW126474   6.456   3.152   2.243
 8525SOL    HW226475   6.545   3.146   2.380
 8526SOL     OW26476   0.319   4.323   6.752
 8526SOL    HW126477   0.327   4.417   6.786
 8526SOL    HW226478   0.241   4.278   6.795
 8527SOL     OW26479   2.721   0.996   6.245
 8527SOL    HW126480   2.755   0.961   6.333
 8527SOL    HW226481   2.640   0.943   6.218
 8528SOL     OW26482   5.635   0.917   0.995
 8528SOL    HW126483   5.733   0.915   0.974
 8528SOL    HW226484   5.600   0.824   1.003
 8529SOL     OW26485   0.778   6.145   6.598
 8529SOL    HW126486   0.817   6.196   6.675
 8529SOL    HW226487   0.785   6.200   6.515
 8530SOL     OW26488   3.849   3.851   2.530
 8530SOL    HW126489   3.938   3.807   2.538
 8530SOL    HW226490   3.788   3.819   2.603
 8531SOL     OW26491   6.248   5.323   3.472
 8531SOL    HW126492   6.236   5.334   3.571
 8531SOL    HW226493   6.308   5.245   3.455
 8532SOL     OW26494   3.507   5.266   0.024
 8532SOL    HW126495   3.574   5.198   0.051
 8532SOL    HW226496   3.415   5.228   0.029
 8533SOL     OW26497   2.295   6.390   4.683
 8533SOL    HW126498   2.329   6.429   4.597
 8533SOL    HW226499   2.362   6.407   4.756
 8534SOL     OW26500   1.855   2.529   2.667
 8534SOL    HW126501   1.900   2.600   2.611
 8534SOL    HW226502   1.758   2.549   2.674
 8535SOL     OW26503   5.541   0.476   2.316
 8535SOL    HW126504   5.631   0.507   2.284
 8535SOL    HW226505   5.534   0.491   2.415
 8536SOL     OW26506   1.686   0.816   3.716
 8536SOL    HW126507   1.604   0.860   3.753
 8536SOL    HW226508   1.723   0.872   3.642
 8537SOL     OW26509   6.030   1.147   3.413
 8537SOL    HW126510   6.031   1.246   3.429
 8537SOL    HW226511   5.939   1.111   3.433
 8538SOL     OW26512   0.882   2.552   0.303
 8538SOL    HW126513   0.870   2.517   0.211
 8538SOL    HW226514   0.885   2.476   0.368
 8539SOL     OW26515   5.238   3.172   1.936
 8539SOL    HW126516   5.274   3.161   2.028
 8539SOL    HW226517   5.236   3.083   1.890
 8540SOL     OW26518   4.162   0.443   1.544
 8540SOL    HW126519   4.258   0.463   1.527
 8540SOL    HW226520   4.122   0.396   1.465
 8541SOL     OW26521   1.898   2.995   3.607
 8541SOL    HW126522   1.971   3.052   3.570
 8541SOL    HW226523   1.814   3.012   3.557
 8542SOL     OW26524   3.545   4.547   6.963
 8542SOL    HW126525   3.573   4.637   6.929
 8542SOL    HW226526   3.447   4.549   6.983
 8543SOL     OW26527   3.534   1.741   6.829
 8543SOL    HW126528   3.591   1.724   6.910
 8543SOL    HW226529   3.592   1.743   6.748
 8544SOL     OW26530   6.349   1.789   4.780
 8544SOL    HW126531   6.354   1.861   4.711
 8544SOL    HW226532   6.278   1.723   4.755
 8545SOL     OW26533   4.221   6.536   5.221
 8545SOL    HW126534   4.298   6.570   5.275
 8545SOL    HW226535   4.172   6.614   5.181
 8546SOL     OW26536   4.003   2.411   6.680
 8546SOL    HW126537   3.923   2.449   6.634
 8546SOL    HW226538   4.002   2.311   6.672
 8547SOL     OW26539   1.641   4.698   1.861
 8547SOL    HW126540   1.735   4.730   1.877
 8547SOL    HW226541   1.629   4.608   1.902
 8548SOL     OW26542   6.595   2.163   5.649
 8548SOL    HW126543   6.628   2.090   5.589
 8548SOL    HW226544   6.527   2.127   5.712
 8549SOL     OW26545   5.169   3.109   5.175
 8549SOL    HW126546   5.234   3.147   5.109
 8549SOL    HW226547   5.203   3.124   5.268
 8550SOL     OW26548   1.085   4.493   5.603
 8550SOL    HW126549   1.069   4.449   5.514
 8550SOL    HW226550   1.126   4.428   5.666
 8551SOL     OW26551   2.362   4.332   1.053
 8551SOL    HW126552   2.348   4.427   1.081
 8551SOL    HW226553   2.303   4.310   0.976
 8552SOL     OW26554   3.066   6.681   4.643
 8552SOL    HW126555   3.119   6.718   4.566
 8552SOL    HW226556   3.006   6.753   4.679
 8553SOL     OW26557   5.896   5.138   6.972
 8553SOL    HW126558   5.905   5.039   6.966
 8553SOL    HW226559   5.887   5.164   0.046
 8554SOL     OW26560   5.808   3.935   0.063
 8554SOL    HW126561   5.817   3.849   0.013
 8554SOL    HW226562   5.886   3.948   0.123
 8555SOL     OW26563   2.039   6.691   4.556
 8555SOL    HW126564   1.964   6.625   4.548
 8555SOL    HW226565   2.025   6.765   4.489
 8556SOL     OW26566   6.088   6.834   4.189
 8556SOL    HW126567   6.176   6.846   4.142
 8556SOL    HW226568   6.091   6.882   4.277
 8557SOL     OW26569   0.231   1.305   0.654
 8557SOL    HW126570   0.305   1.342   0.597
 8557SOL    HW226571   0.148   1.295   0.599
 8558SOL     OW26572   1.480   4.824   2.324
 8558SOL    HW126573   1.492   4.766   2.404
 8558SOL    HW226574   1.426   4.775   2.255
 8559SOL     OW26575   0.664   1.777   5.481
 8559SOL    HW126576   0.568   1.803   5.481
 8559SOL    HW226577   0.721   1.858   5.492
 8560SOL     OW26578   6.441   2.192   6.579
 8560SOL    HW126579   6.465   2.176   6.483
 8560SOL    HW226580   6.364   2.255   6.584
 8561SOL     OW26581   4.513   6.212   5.896
 8561SOL    HW126582   4.519   6.159   5.811
 8561SOL    HW226583   4.427   6.192   5.942
 8562SOL     OW26584   3.839   0.160   4.471
 8562SOL    HW126585   3.925   0.134   4.516
 8562SOL    HW226586   3.859   0.198   4.381
 8563SOL     OW26587   2.848   2.474   6.597
 8563SOL    HW126588   2.774   2.437   6.654
 8563SOL    HW226589   2.826   2.568   6.571
 8564SOL     OW26590   0.771   6.291   2.783
 8564SOL    HW126591   0.821   6.276   2.868
 8564SOL    HW226592   0.782   6.212   2.723
 8565SOL     OW26593   3.700   0.623   1.248
 8565SOL    HW126594   3.612   0.601   1.207
 8565SOL    HW226595   3.718   0.721   1.238
 8566SOL     OW26596   1.568   3.947   3.712
 8566SOL    HW126597   1.574   3.848   3.723
 8566SOL    HW226598   1.630   3.992   3.776
 8567SOL     OW26599   5.240   5.936   6.196
 8567SOL    HW126600   5.299   5.994   6.139
 8567SOL    HW226601   5.227   5.980   6.285
 8568SOL     OW26602   5.545   0.267   0.121
 8568SOL    HW126603   5.620   0.307   0.068
 8568SOL    HW226604   5.506   0.337   0.181
 8569SOL     OW26605   3.944   1.157   5.412
 8569SOL    HW126606   3.893   1.145   5.497
 8569SOL    HW226607   3.947   1.070   5.363
 8570SOL     OW26608   7.014   3.297   6.249
 8570SOL    HW126609   0.023   3.389   6.224
 8570SOL    HW226610   6.956   3.302   6.330
 8571SOL     OW26611   0.385   4.736   5.280
 8571SOL    HW126612   0.359   4.817   5.332
 8571SOL    HW226613   0.328   4.728   5.198
 8572SOL     OW26614   2.633   5.153   5.638
 8572SOL    HW126615   2.707   5.204   5.683
 8572SOL    HW226616   2.550   5.209   5.636
 8573SOL     OW26617   3.532   5.894   4.342
 8573SOL    HW126618   3.597   5.869   4.414
 8573SOL    HW226619   3.519   5.993   4.342
 8574SOL     OW26620   0.458   4.021   4.232
 8574SOL    HW126621   0.468   3.957   4.156
 8574SOL    HW226622   0.454   4.115   4.197
 8575SOL     OW26623   2.936   3.606   6.377
 8575SOL    HW126624   2.902   3.692   6.417
 8575SOL    HW226625   2.860   3.556   6.335
 8576SOL     OW26626   2.171   0.313   0.498
 8576SOL    HW126627   2.166   0.214   0.509
 8576SOL    HW226628   2.168   0.356   0.588
 8577SOL     OW26629   6.290   5.690   4.296
 8577SOL    HW126630   6.289   5.661   4.200
 8577SOL    HW226631   6.205   5.660   4.340
 8578SOL     OW26632   4.636   0.580   3.040
 8578SOL    HW126633   4.617   0.563   3.137
 8578SOL    HW226634   4.682   0.668   3.030
 8579SOL     OW26635   0.548   5.031   2.455
 8579SOL    HW126636   0.459   5.006   2.416
 8579SOL    HW226637   0.621   4.996   2.396
 8580SOL     OW26638   2.607   4.941   6.017
 8580SOL    HW126639   2.604   4.919   5.920
 8580SOL    HW226640   2.685   5.000   6.036
 8581SOL     OW26641   3.087   3.073   0.328
 8581SOL    HW126642   3.019   3.140   0.297
 8581SOL    HW226643   3.154   3.057   0.256
 8582SOL     OW26644   3.931   4.796   0.438
 8582SOL    HW126645   3.944   4.711   0.387
 8582SOL    HW226646   3.998   4.864   0.408
 8583SOL     OW26647   5.801   6.595   5.104
 8583SOL    HW126648   5.748   6.680   5.103
 8583SOL    HW226649   5.886   6.609   5.154
 8584SOL     OW26650   0.631   5.497   6.723
 8584SOL    HW126651   0.693   5.563   6.681
 8584SOL    HW226652   0.593   5.437   6.652
 8585SOL     OW26653   1.407   1.875   1.462
 8585SOL    HW126654   1.486   1.924   1.425
 8585SOL    HW226655   1.333   1.939   1.481
 8586SOL     OW26656   3.915   4.941   4.300
 8586SOL    HW126657   3.882   4.999   4.225
 8586SOL    HW226658   3.955   4.999   4.371
 8587SOL     OW26659   6.556   1.760   1.397
 8587SOL    HW126660   6.573   1.753   1.299
 8587SOL    HW226661   6.458   1.775   1.413
 8588SOL     OW26662   3.335   2.486   6.338
 8588SOL    HW126663   3.430   2.489   6.308
 8588SOL    HW226664   3.310   2.573   6.379
 8589SOL     OW26665   2.670   1.778   4.645
 8589SOL    HW126666   2.600   1.824   4.590
 8589SOL    HW226667   2.638   1.687   4.670
 8590SOL     OW26668   5.525   5.066   5.297
 8590SOL    HW126669   5.596   5.125   5.259
 8590SOL    HW226670   5.568   4.983   5.334
 8591SOL     OW26671   0.303   2.695   0.715
 8591SOL    HW126672   0.281   2.772   0.655
 8591SOL    HW226673   0.399   2.669   0.702
 8592SOL     OW26674   6.452   5.842   6.869
 8592SOL    HW126675   6.370   5.786   6.879
 8592SOL    HW226676   6.525   5.788   6.827
 8593SOL     OW26677   0.398   5.993   2.933
 8593SOL    HW126678   0.353   6.034   3.013
 8593SOL    HW226679   0.475   5.937   2.964
 8594SOL     OW26680   3.671   3.952   3.285
 8594SOL    HW126681   3.714   3.862   3.270
 8594SOL    HW226682   3.711   3.994   3.366
 8595SOL     OW26683   1.394   3.161   1.789
 8595SOL    HW126684   1.425   3.091   1.853
 8595SOL    HW226685   1.456   3.165   1.711
 8596SOL     OW26686   6.872   4.293   2.390
 8596SOL    HW126687   6.963   4.333   2.377
 8596SOL    HW226688   6.805   4.346   2.337
 8597SOL     OW26689   2.574   1.721   0.418
 8597SOL    HW126690   2.575   1.637   0.364
 8597SOL    HW226691   2.646   1.783   0.385
 8598SOL     OW26692   5.871   3.506   2.077
 8598SOL    HW126693   5.819   3.485   2.160
 8598SOL    HW226694   5.874   3.424   2.019
 8599SOL     OW26695   0.789   3.163   0.966
 8599SOL    HW126696   0.814   3.229   0.895
 8599SOL    HW226697   0.735   3.089   0.925
 8600SOL     OW26698   6.815   2.276   6.185
 8600SOL    HW126699   6.778   2.257   6.276
 8600SOL    HW226700   6.768   2.220   6.117
 8601SOL     OW26701   0.745   0.368   5.220
 8601SOL    HW126702   0.718   0.272   5.222
 8601SOL    HW226703   0.787   0.389   5.132
 8602SOL     OW26704   1.626   6.463   1.760
 8602SOL    HW126705   1.700   6.397   1.764
 8602SOL    HW226706   1.541   6.421   1.793
 8603SOL     OW26707   4.984   3.287   1.310
 8603SOL    HW126708   4.968   3.275   1.408
 8603SOL    HW226709   4.897   3.299   1.263
 8604SOL     OW26710   5.849   2.888   3.084
 8604SOL    HW126711   5.891   2.969   3.043
 8604SOL    HW226712   5.918   2.836   3.134
 8605SOL     OW26713   3.249   5.293   1.593
 8605SOL    HW126714   3.263   5.226   1.665
 8605SOL    HW226715   3.320   5.284   1.524
 8606SOL     OW26716   3.831   5.400   4.748
 8606SOL    HW126717   3.817   5.325   4.684
 8606SOL    HW226718   3.759   5.469   4.735
 8607SOL     OW26719   2.919   6.147   1.022
 8607SOL    HW126720   2.997   6.148   0.960
 8607SOL    HW226721   2.867   6.062   1.008
 8608SOL     OW26722   5.943   6.938   2.421
 8608SOL    HW126723   6.036   6.936   2.458
 8608SOL    HW226724   5.944   6.903   2.327
 8609SOL     OW26725   4.970   0.341   5.968
 8609SOL    HW126726   4.997   0.296   5.882
 8609SOL    HW226727   5.050   0.384   6.009
 8610SOL     OW26728   0.019   6.510   5.802
 8610SOL    HW126729   0.105   6.553   5.828
 8610SOL    HW226730   0.031   6.461   5.716
 8611SOL     OW26731   1.762   1.877   3.148
 8611SOL    HW126732   1.767   1.914   3.240
 8611SOL    HW226733   1.787   1.948   3.082
 8612SOL     OW26734   5.192   3.325   4.530
 8612SOL    HW126735   5.240   3.403   4.570
 8612SOL    HW226736   5.137   3.356   4.452
 8613SOL     OW26737   1.371   0.710   0.451
 8613SOL    HW126738   1.403   0.737   0.360
 8613SOL    HW226739   1.328   0.788   0.496
 8614SOL     OW26740   1.823   1.944   3.404
 8614SOL    HW126741   1.795   1.858   3.446
 8614SOL    HW226742   1.918   1.963   3.428
 8615SOL     OW26743   4.594   1.900   5.758
 8615SOL    HW126744   4.510   1.930   5.713
 8615SOL    HW226745   4.652   1.979   5.777
 8616SOL     OW26746   0.963   2.946   0.267
 8616SOL    HW126747   0.898   2.930   0.192
 8616SOL    HW226748   0.913   2.977   0.348
 8617SOL     OW26749   5.746   2.587   0.749
 8617SOL    HW126750   5.841   2.618   0.754
 8617SOL    HW226751   5.721   2.572   0.653
 8618SOL     OW26752   3.853   1.348   3.395
 8618SOL    HW126753   3.771   1.370   3.343
 8618SOL    HW226754   3.927   1.411   3.370
 8619SOL     OW26755   4.001   6.396   0.660
 8619SOL    HW126756   3.918   6.408   0.606
 8619SOL    HW226757   3.978   6.350   0.746
 8620SOL     OW26758   5.947   5.946   3.630
 8620SOL    HW126759   5.893   6.028   3.612
 8620SOL    HW226760   6.041   5.960   3.600
 8621SOL     OW26761   5.348   0.957   4.382
 8621SOL    HW126762   5.336   1.030   4.316
 8621SOL    HW226763   5.445   0.950   4.407
 8622SOL     OW26764   4.590   5.079   6.431
 8622SOL    HW126765   4.568   5.047   6.339
 8622SOL    HW226766   4.687   5.105   6.435
 8623SOL     OW26767   6.482   2.167   4.099
 8623SOL    HW126768   6.444   2.221   4.174
 8623SOL    HW226769   6.461   2.070   4.114
 8624SOL     OW26770   6.194   3.207   4.098
 8624SOL    HW126771   6.213   3.302   4.074
 8624SOL    HW226772   6.130   3.204   4.174
 8625SOL     OW26773   3.664   1.369   6.719
 8625SOL    HW126774   3.694   1.458   6.683
 8625SOL    HW226775   3.566   1.373   6.739
 8626SOL     OW26776   2.977   3.530   2.588
 8626SOL    HW126777   3.059   3.580   2.558
 8626SOL    HW226778   2.944   3.473   2.513
 8627SOL     OW26779   2.769   0.354   0.161
 8627SOL    HW126780   2.844   0.417   0.179
 8627SOL    HW226781   2.799   0.261   0.178
 8628SOL     OW26782   6.243   1.344   1.251
 8628SOL    HW126783   6.178   1.268   1.256
 8628SOL    HW226784   6.193   1.430   1.257
 8629SOL     OW26785   1.534   5.905   3.393
 8629SOL    HW126786   1.445   5.949   3.400
 8629SOL    HW226787   1.528   5.827   3.331
 8630SOL     OW26788   4.959   5.161   4.242
 8630SOL    HW126789   5.010   5.167   4.328
 8630SOL    HW226790   4.881   5.223   4.246
 8631SOL     OW26791   4.534   6.295   3.914
 8631SOL    HW126792   4.554   6.206   3.955
 8631SOL    HW226793   4.510   6.282   3.817
 8632SOL     OW26794   3.167   0.822   3.173
 8632SOL    HW126795   3.088   0.833   3.233
 8632SOL    HW226796   3.170   0.898   3.108
 8633SOL     OW26797   6.769   6.642   2.688
 8633SOL    HW126798   6.827   6.592   2.753
 8633SOL    HW226799   6.784   6.607   2.596
 8634SOL     OW26800   6.058   6.269   1.813
 8634SOL    HW126801   6.021   6.227   1.896
 8634SOL    HW226802   5.988   6.326   1.770
 8635SOL     OW26803   6.162   3.664   5.594
 8635SOL    HW126804   6.135   3.728   5.521
 8635SOL    HW226805   6.135   3.571   5.568
 8636SOL     OW26806   5.440   4.970   0.709
 8636SOL    HW126807   5.404   4.964   0.802
 8636SOL    HW226808   5.471   4.879   0.680
 8637SOL     OW26809   1.380   0.957   1.689
 8637SOL    HW126810   1.346   0.883   1.630
 8637SOL    HW226811   1.423   1.027   1.633
 8638SOL     OW26812   5.571   4.611   1.363
 8638SOL    HW126813   5.612   4.684   1.309
 8638SOL    HW226814   5.642   4.549   1.395
 8639SOL     OW26815   6.207   2.278   1.937
 8639SOL    HW126816   6.288   2.298   1.882
 8639SOL    HW226817   6.195   2.349   2.006
 8640SOL     OW26818   5.173   6.177   1.582
 8640SOL    HW126819   5.097   6.180   1.518
 8640SOL    HW226820   5.143   6.213   1.671
 8641SOL     OW26821   4.872   4.426   3.469
 8641SOL    HW126822   4.841   4.409   3.562
 8641SOL    HW226823   4.814   4.495   3.426
 8642SOL     OW26824   4.143   1.766   1.679
 8642SOL    HW126825   4.097   1.855   1.674
 8642SOL    HW226826   4.107   1.715   1.758
 8643SOL     OW26827   4.778   0.287   0.294
 8643SOL    HW126828   4.732   0.339   0.222
 8643SOL    HW226829   4.877   0.295   0.283
 8644SOL     OW26830   6.723   3.237   5.006
 8644SOL    HW126831   6.815   3.226   4.966
 8644SOL    HW226832   6.724   3.207   5.101
 8645SOL     OW26833   6.358   3.834   1.710
 8645SOL    HW126834   6.329   3.846   1.616
 8645SOL    HW226835   6.417   3.910   1.737
 8646SOL     OW26836   4.941   5.863   1.085
 8646SOL    HW126837   4.841   5.863   1.088
 8646SOL    HW226838   4.977   5.850   1.177
 8647SOL     OW26839   4.486   4.751   2.073
 8647SOL    HW126840   4.575   4.766   2.115
 8647SOL    HW226841   4.485   4.663   2.026
 8648SOL     OW26842   6.092   1.178   3.988
 8648SOL    HW126843   6.025   1.224   3.928
 8648SOL    HW226844   6.165   1.140   3.932
 8649SOL     OW26845   6.449   4.547   5.615
 8649SOL    HW126846   6.369   4.506   5.659
 8649SOL    HW226847   6.520   4.477   5.603
 8650SOL     OW26848   0.424   5.305   1.438
 8650SOL    HW126849   0.497   5.252   1.481
 8650SOL    HW226850   0.463   5.368   1.371
 8651SOL     OW26851   4.146   3.336   1.016
 8651SOL    HW126852   4.191   3.265   0.963
 8651SOL    HW226853   4.092   3.294   1.089
 8652SOL     OW26854   0.945   3.126   4.273
 8652SOL    HW126855   1.029   3.177   4.255
 8652SOL    HW226856   0.879   3.185   4.318
 8653SOL     OW26857   5.288   2.728   6.342
 8653SOL    HW126858   5.288   2.634   6.310
 8653SOL    HW226859   5.316   2.732   6.438
 8654SOL     OW26860   1.528   5.285   1.572
 8654SOL    HW126861   1.462   5.323   1.508
 8654SOL    HW226862   1.490   5.204   1.615
 8655SOL     OW26863   6.209   6.584   2.166
 8655SOL    HW126864   6.143   6.514   2.194
 8655SOL    HW226865   6.278   6.595   2.238
 8656SOL     OW26866   6.932   1.979   1.544
 8656SOL    HW126867   6.956   1.993   1.641
 8656SOL    HW226868   6.891   1.889   1.533
 8657SOL     OW26869   2.939   4.756   0.900
 8657SOL    HW126870   2.862   4.705   0.938
 8657SOL    HW226871   2.969   4.714   0.815
 8658SOL     OW26872   1.166   5.291   6.243
 8658SOL    HW126873   1.114   5.320   6.323
 8658SOL    HW226874   1.104   5.281   6.165
 8659SOL     OW26875   4.184   6.998   4.029
 8659SOL    HW126876   4.136   0.059   4.058
 8659SOL    HW226877   4.278   7.001   4.062
 8660SOL     OW26878   5.260   4.421   7.005
 8660SOL    HW126879   5.338   4.443   6.947
 8660SOL    HW226880   5.191   4.374   6.952
 8661SOL     OW26881   6.545   3.200   1.816
 8661SOL    HW126882   6.595   3.145   1.749
 8661SOL    HW226883   6.455   3.161   1.832
 8662SOL     OW26884   0.906   0.363   0.070
 8662SOL    HW126885   0.878   0.271   0.041
 8662SOL    HW226886   1.004   0.374   0.056
 8663SOL     OW26887   2.588   5.278   1.004
 8663SOL    HW126888   2.611   5.289   0.907
 8663SOL    HW226889   2.570   5.181   1.023
 8664SOL     OW26890   4.336   4.997   1.658
 8664SOL    HW126891   4.267   5.056   1.615
 8664SOL    HW226892   4.307   4.972   1.750
 8665SOL     OW26893   4.939   5.401   4.633
 8665SOL    HW126894   4.867   5.460   4.668
 8665SOL    HW226895   5.025   5.453   4.628
 8666SOL     OW26896   6.342   4.631   4.027
 8666SOL    HW126897   6.356   4.725   3.996
 8666SOL    HW226898   6.428   4.596   4.065
 8667SOL     OW26899   5.704   2.641   3.401
 8667SOL    HW126900   5.667   2.722   3.357
 8667SOL    HW226901   5.652   2.621   3.484
 8668SOL     OW26902   3.248   0.942   4.723
 8668SOL    HW126903   3.347   0.946   4.739
 8668SOL    HW226904   3.231   0.922   4.626
 8669SOL     OW26905   4.314   6.971   5.951
 8669SOL    HW126906   4.372   7.002   5.876
 8669SOL    HW226907   4.237   0.012   5.961
 8670SOL     OW26908   4.510   4.623   2.695
 8670SOL    HW126909   4.553   4.621   2.785
 8670SOL    HW226910   4.578   4.650   2.627
 8671SOL     OW26911   6.327   6.022   2.241
 8671SOL    HW126912   6.413   6.063   2.270
 8671SOL    HW226913   6.309   5.941   2.297
 8672SOL     OW26914   3.483   5.147   5.380
 8672SOL    HW126915   3.573   5.113   5.409
 8672SOL    HW226916   3.466   5.122   5.285
 8673SOL     OW26917   4.878   2.340   0.193
 8673SOL    HW126918   4.943   2.317   0.121
 8673SOL    HW226919   4.809   2.403   0.156
 8674SOL     OW26920   0.743   0.208   2.820
 8674SOL    HW126921   0.693   0.154   2.888
 8674SOL    HW226922   0.795   0.147   2.761
 8675SOL     OW26923   2.436   2.218   2.717
 8675SOL    HW126924   2.391   2.151   2.657
 8675SOL    HW226925   2.518   2.253   2.672
 8676SOL     OW26926   4.537   0.812   4.350
 8676SOL    HW126927   4.526   0.724   4.397
 8676SOL    HW226928   4.447   0.857   4.343
 8677SOL     OW26929   1.933   3.751   5.656
 8677SOL    HW126930   1.896   3.788   5.571
 8677SOL    HW226931   2.011   3.691   5.636
 8678SOL     OW26932   1.670   1.076   5.801
 8678SOL    HW126933   1.753   1.045   5.755
 8678SOL    HW226934   1.674   1.048   5.897
 8679SOL     OW26935   6.054   1.450   4.341
 8679SOL    HW126936   6.033   1.540   4.302
 8679SOL    HW226937   6.111   1.399   4.277
 8680SOL     OW26938   0.647   3.615   0.689
 8680SOL    HW126939   0.641   3.705   0.646
 8680SOL    HW226940   0.672   3.626   0.785
 8681SOL     OW26941   4.229   3.703   1.286
 8681SOL    HW126942   4.224   3.603   1.277
 8681SOL    HW226943   4.225   3.728   1.382
 8682SOL     OW26944   1.230   5.908   2.651
 8682SOL    HW126945   1.292   5.963   2.594
 8682SOL    HW226946   1.220   5.817   2.611
 8683SOL     OW26947   5.033   2.758   6.246
 8683SOL    HW126948   5.116   2.764   6.302
 8683SOL    HW226949   5.046   2.690   6.174
 8684SOL     OW26950   6.854   2.678   3.828
 8684SOL    HW126951   6.780   2.718   3.882
 8684SOL    HW226952   6.865   2.582   3.853
 8685SOL     OW26953   0.246   1.299   5.530
 8685SOL    HW126954   0.328   1.330   5.483
 8685SOL    HW226955   0.167   1.349   5.496
 8686SOL     OW26956   6.352   1.928   3.682
 8686SOL    HW126957   6.290   1.939   3.760
 8686SOL    HW226958   6.307   1.959   3.599
 8687SOL     OW26959   3.929   0.826   2.808
 8687SOL    HW126960   3.964   0.890   2.876
 8687SOL    HW226961   3.866   0.872   2.746
 8688SOL     OW26962   1.307   0.183   2.053
 8688SOL    HW126963   1.369   0.135   1.991
 8688SOL    HW226964   1.272   0.119   2.122
 8689SOL     OW26965   4.754   4.714   0.952
 8689SOL    HW126966   4.726   4.648   0.882
 8689SOL    HW226967   4.737   4.675   1.042
 8690SOL     OW26968   1.553   0.671   3.004
 8690SOL    HW126969   1.490   0.664   3.081
 8690SOL    HW226970   1.639   0.625   3.027
 8691SOL     OW26971   5.830   1.841   0.342
 8691SOL    HW126972   5.876   1.765   0.297
 8691SOL    HW226973   5.731   1.833   0.328
 8692SOL     OW26974   1.740   1.394   3.683
 8692SOL    HW126975   1.839   1.382   3.692
 8692SOL    HW226976   1.714   1.379   3.587
 8693SOL     OW26977   5.215   2.535   6.879
 8693SOL    HW126978   5.266   2.610   6.920
 8693SOL    HW226979   5.278   2.475   6.828
 8694SOL     OW26980   3.745   6.833   6.869
 8694SOL    HW126981   3.776   6.877   6.785
 8694SOL    HW226982   3.819   6.778   6.907
 8695SOL     OW26983   4.546   4.233   5.220
 8695SOL    HW126984   4.542   4.171   5.298
 8695SOL    HW226985   4.483   4.310   5.235
 8696SOL     OW26986   1.941   5.361   0.768
 8696SOL    HW126987   1.975   5.354   0.675
 8696SOL    HW226988   1.884   5.281   0.789
 8697SOL     OW26989   4.872   5.012   6.645
 8697SOL    HW126990   4.963   5.000   6.684
 8697SOL    HW226991   4.876   5.075   6.568
 8698SOL     OW26992   5.888   5.965   4.621
 8698SOL    HW126993   5.939   6.035   4.571
 8698SOL    HW226994   5.937   5.940   4.704
 8699SOL     OW26995   1.268   1.569   4.974
 8699SOL    HW126996   1.170   1.585   4.961
 8699SOL    HW226997   1.292   1.479   4.937
 8700SOL     OW26998   2.548   2.458   6.058
 8700SOL    HW126999   2.622   2.517   6.091
 8700SOL    HW227000   2.514   2.493   5.971
 8701SOL     OW27001   1.238   1.283   3.193
 8701SOL    HW127002   1.303   1.254   3.263
 8701SOL    HW227003   1.188   1.203   3.159
 8702SOL     OW27004   5.525   5.953   6.740
 8702SOL    HW127005   5.607   5.956   6.796
 8702SOL    HW227006   5.445   5.933   6.797
 8703SOL     OW27007   1.355   5.361   1.397
 8703SOL    HW127008   1.361   5.314   1.309
 8703SOL    HW227009   1.319   5.453   1.383
 8704SOL     OW27010   0.783   4.360   1.966
 8704SOL    HW127011   0.809   4.457   1.964
 8704SOL    HW227012   0.826   4.315   2.043
 8705SOL     OW27013   5.001   6.689   4.482
 8705SOL    HW127014   5.094   6.709   4.449
 8705SOL    HW227015   4.935   6.707   4.410
 8706SOL     OW27016   4.982   1.681   5.870
 8706SOL    HW127017   4.998   1.704   5.774
 8706SOL    HW227018   5.034   1.599   5.894
 8707SOL     OW27019   4.689   2.183   5.735
 8707SOL    HW127020   4.771   2.165   5.682
 8707SOL    HW227021   4.614   2.206   5.673
 8708SOL     OW27022   3.872   1.927   0.853
 8708SOL    HW127023   3.909   1.835   0.845
 8708SOL    HW227024   3.941   1.988   0.893
 8709SOL     OW27025   5.933   3.387   0.489
 8709SOL    HW127026   5.936   3.452   0.565
 8709SOL    HW227027   5.914   3.436   0.404
 8710SOL     OW27028   5.904   3.029   4.010
 8710SOL    HW127029   5.825   3.048   3.952
 8710SOL    HW227030   5.988   3.044   3.957
 8711SOL     OW27031   0.730   1.318   4.519
 8711SOL    HW127032   0.659   1.374   4.475
 8711SOL    HW227033   0.774   1.371   4.591
 8712SOL     OW27034   3.859   0.769   6.893
 8712SOL    HW127035   3.820   0.686   6.854
 8712SOL    HW227036   3.938   0.745   6.950
 8713SOL     OW27037   6.142   4.749   2.631
 8713SOL    HW127038   6.089   4.780   2.552
 8713SOL    HW227039   6.082   4.740   2.710
 8714SOL     OW27040   1.600   1.333   4.368
 8714SOL    HW127041   1.519   1.392   4.367
 8714SOL    HW227042   1.670   1.374   4.426
 8715SOL     OW27043   6.024   1.019   2.635
 8715SOL    HW127044   5.973   1.090   2.684
 8715SOL    HW227045   6.082   1.062   2.566
 8716SOL     OW27046   0.452   0.931   1.776
 8716SOL    HW127047   0.499   1.019   1.773
 8716SOL    HW227048   0.474   0.884   1.862
 8717SOL     OW27049   4.093   3.318   0.509
 8717SOL    HW127050   4.155   3.281   0.440
 8717SOL    HW227051   4.076   3.415   0.490
 8718SOL     OW27052   0.308   2.476   5.997
 8718SOL    HW127053   0.292   2.567   5.958
 8718SOL    HW227054   0.319   2.409   5.923
 8719SOL     OW27055   6.157   0.820   5.678
 8719SOL    HW127056   6.226   0.748   5.677
 8719SOL    HW227057   6.150   0.862   5.587
 8720SOL     OW27058   4.898   3.311   5.777
 8720SOL    HW127059   4.976   3.294   5.717
 8720SOL    HW227060   4.831   3.368   5.730
 8721SOL     OW27061   6.892   0.725   5.168
 8721SOL    HW127062   6.869   0.637   5.127
 8721SOL    HW227063   6.845   0.734   5.255
 8722SOL     OW27064   2.934   2.948   1.222
 8722SOL    HW127065   2.924   2.849   1.235
 8722SOL    HW227066   2.905   2.972   1.129
 8723SOL     OW27067   0.243   5.461   0.357
 8723SOL    HW127068   0.244   5.395   0.432
 8723SOL    HW227069   0.155   5.456   0.310
 8724SOL     OW27070   5.456   6.306   6.403
 8724SOL    HW127071   5.525   6.236   6.422
 8724SOL    HW227072   5.473   6.346   6.313
 8725SOL     OW27073   2.029   5.846   1.447
 8725SOL    HW127074   2.046   5.937   1.409
 8725SOL    HW227075   2.115   5.794   1.447
 8726SOL     OW27076   6.652   0.519   1.492
 8726SOL    HW127077   6.735   0.540   1.543
 8726SOL    HW227078   6.659   0.558   1.400
 8727SOL     OW27079   6.329   6.831   0.687
 8727SOL    HW127080   6.268   6.815   0.765
 8727SOL    HW227081   6.284   6.800   0.603
 8728SOL     OW27082   2.172   6.303   5.490
 8728SOL    HW127083   2.129   6.216   5.465
 8728SOL    HW227084   2.186   6.358   5.408
 8729SOL     OW27085   4.961   5.978   4.877
 8729SOL    HW127086   4.954   5.888   4.834
 8729SOL    HW227087   4.987   6.046   4.809
 8730SOL     OW27088   6.858   5.966   0.574
 8730SOL    HW127089   6.951   5.938   0.549
 8730SOL    HW227090   6.828   6.040   0.513
 8731SOL     OW27091   0.717   1.556   2.452
 8731SOL    HW127092   0.751   1.600   2.535
 8731SOL    HW227093   0.739   1.613   2.373
 8732SOL     OW27094   6.405   5.596   2.087
 8732SOL    HW127095   6.357   5.682   2.066
 8732SOL    HW227096   6.339   5.521   2.090
 8733SOL     OW27097   0.053   0.025   0.824
 8733SOL    HW127098   0.052   0.079   0.909
 8733SOL    HW227099   0.145   7.008   0.812
 8734SOL     OW27100   0.014   5.761   0.507
 8734SOL    HW127101   6.962   5.695   0.519
 8734SOL    HW227102   0.092   5.716   0.462
 8735SOL     OW27103   0.142   2.830   6.425
 8735SOL    HW127104   0.078   2.894   6.383
 8735SOL    HW227105   0.220   2.816   6.364
 8736SOL     OW27106   0.091   4.526   5.516
 8736SOL    HW127107   0.149   4.445   5.513
 8736SOL    HW227108   0.143   4.604   5.552
 8737SOL     OW27109   3.996   6.362   6.700
 8737SOL    HW127110   3.925   6.354   6.630
 8737SOL    HW227111   4.086   6.368   6.657
 8738SOL     OW27112   0.785   3.825   5.382
 8738SOL    HW127113   0.754   3.804   5.475
 8738SOL    HW227114   0.769   3.746   5.323
 8739SOL     OW27115   0.967   3.647   5.758
 8739SOL    HW127116   1.010   3.558   5.769
 8739SOL    HW227117   0.872   3.635   5.728
 8740SOL     OW27118   1.415   6.624   1.128
 8740SOL    HW127119   1.479   6.699   1.111
 8740SOL    HW227120   1.442   6.544   1.075
 8741SOL     OW27121   1.636   3.724   2.257
 8741SOL    HW127122   1.572   3.708   2.332
 8741SOL    HW227123   1.594   3.783   2.188
 8742SOL     OW27124   4.861   5.935   2.248
 8742SOL    HW127125   4.842   5.846   2.290
 8742SOL    HW227126   4.888   5.921   2.153
 8743SOL     OW27127   2.393   4.892   2.834
 8743SOL    HW127128   2.390   4.835   2.916
 8743SOL    HW227129   2.453   4.851   2.766
 8744SOL     OW27130   3.168   3.255   5.528
 8744SOL    HW127131   3.133   3.335   5.577
 8744SOL    HW227132   3.265   3.244   5.548
 8745SOL     OW27133   6.313   1.494   0.124
 8745SOL    HW127134   6.387   1.546   0.082
 8745SOL    HW227135   6.261   1.446   0.053
 8746SOL     OW27136   5.496   3.678   5.051
 8746SOL    HW127137   5.532   3.712   5.137
 8746SOL    HW227138   5.525   3.738   4.976
 8747SOL     OW27139   0.932   2.313   4.289
 8747SOL    HW127140   0.919   2.402   4.244
 8747SOL    HW227141   0.945   2.243   4.220
 8748SOL     OW27142   2.918   6.911   0.360
 8748SOL    HW127143   2.937   6.817   0.334
 8748SOL    HW227144   2.830   6.916   0.407
 8749SOL     OW27145   4.153   2.024   3.493
 8749SOL    HW127146   4.214   1.991   3.421
 8749SOL    HW227147   4.194   2.004   3.582
 8750SOL     OW27148   1.866   0.895   5.540
 8750SOL    HW127149   1.784   0.838   5.543
 8750SOL    HW227150   1.913   0.889   5.628
 8751SOL     OW27151   1.974   6.814   3.118
 8751SOL    HW127152   1.957   6.717   3.134
 8751SOL    HW227153   1.946   6.838   3.025
 8752SOL     OW27154   2.540   1.459   5.840
 8752SOL    HW127155   2.495   1.547   5.821
 8752SOL    HW227156   2.631   1.476   5.878
 8753SOL     OW27157   5.826   1.547   5.163
 8753SOL    HW127158   5.841   1.503   5.075
 8753SOL    HW227159   5.754   1.616   5.153
 8754SOL     OW27160   1.991   1.259   5.473
 8754SOL    HW127161   2.051   1.294   5.401
 8754SOL    HW227162   1.912   1.213   5.432
 8755SOL     OW27163   2.399   2.198   0.680
 8755SOL    HW127164   2.404   2.109   0.725
 8755SOL    HW227165   2.334   2.256   0.728
 8756SOL     OW27166   1.903   4.172   4.437
 8756SOL    HW127167   1.960   4.140   4.513
 8756SOL    HW227168   1.944   4.254   4.397
 8757SOL     OW27169   3.738   5.947   4.164
 8757SOL    HW127170   3.680   5.993   4.096
 8757SOL    HW227171   3.682   5.920   4.243
 8758SOL     OW27172   5.251   6.500   2.159
 8758SOL    HW127173   5.156   6.497   2.190
 8758SOL    HW227174   5.305   6.556   2.222
 8759SOL     OW27175   5.311   0.934   5.994
 8759SOL    HW127176   5.365   0.850   6.000
 8759SOL    HW227177   5.283   0.949   5.899
 8760SOL     OW27178   2.033   3.226   3.624
 8760SOL    HW127179   1.971   3.295   3.662
 8760SOL    HW227180   2.076   3.175   3.699
 8761SOL     OW27181   5.775   6.087   1.691
 8761SOL    HW127182   5.709   6.024   1.651
 8761SOL    HW227183   5.769   6.175   1.645
 8762SOL     OW27184   0.859   4.445   0.519
 8762SOL    HW127185   0.856   4.541   0.491
 8762SOL    HW227186   0.938   4.401   0.478
 8763SOL     OW27187   0.189   6.007   6.305
 8763SOL    HW127188   0.090   6.005   6.313
 8763SOL    HW227189   0.229   5.927   6.349
 8764SOL     OW27190   3.464   2.111   5.960
 8764SOL    HW127191   3.378   2.092   5.912
 8764SOL    HW227192   3.489   2.031   6.015
 8765SOL     OW27193   6.979   0.395   4.896
 8765SOL    HW127194   6.961   0.297   4.889
 8765SOL    HW227195   0.054   0.411   4.914
 8766SOL     OW27196   1.967   4.695   2.313
 8766SOL    HW127197   2.054   4.647   2.296
 8766SOL    HW227198   1.892   4.630   2.306
 8767SOL     OW27199   5.233   1.374   6.205
 8767SOL    HW127200   5.260   1.470   6.209
 8767SOL    HW227201   5.182   1.350   6.288
 8768SOL     OW27202   0.923   3.841   6.964
 8768SOL    HW127203   0.941   3.906   6.890
 8768SOL    HW227204   0.971   3.870   0.025
 8769SOL     OW27205   1.946   1.208   5.973
 8769SOL    HW127206   1.897   1.244   6.052
 8769SOL    HW227207   1.922   1.260   5.892
 8770SOL     OW27208   5.507   1.271   3.258
 8770SOL    HW127209   5.431   1.325   3.295
 8770SOL    HW227210   5.590   1.290   3.310
 8771SOL     OW27211   2.741   2.692   5.735
 8771SOL    HW127212   2.691   2.682   5.649
 8771SOL    HW227213   2.744   2.604   5.783
 8772SOL     OW27214   6.278   6.608   6.655
 8772SOL    HW127215   6.256   6.675   6.727
 8772SOL    HW227216   6.201   6.600   6.593
 8773SOL     OW27217   2.911   1.984   3.092
 8773SOL    HW127218   3.000   2.008   3.053
 8773SOL    HW227219   2.864   1.921   3.031
 8774SOL     OW27220   1.479   0.556   0.188
 8774SOL    HW127221   1.492   0.478   0.127
 8774SOL    HW227222   1.422   0.530   0.266
 8775SOL     OW27223   6.302   6.353   4.318
 8775SOL    HW127224   6.326   6.280   4.382
 8775SOL    HW227225   6.263   6.314   4.235
 8776SOL     OW27226   3.156   3.888   5.213
 8776SOL    HW127227   3.184   3.956   5.146
 8776SOL    HW227228   3.065   3.910   5.248
 8777SOL     OW27229   6.059   5.746   2.664
 8777SOL    HW127230   5.959   5.742   2.659
 8777SOL    HW227231   6.098   5.669   2.615
 8778SOL     OW27232   1.487   2.860   3.064
 8778SOL    HW127233   1.497   2.764   3.092
 8778SOL    HW227234   1.574   2.908   3.076
 8779SOL     OW27235   1.608   4.559   1.100
 8779SOL    HW127236   1.523   4.588   1.056
 8779SOL    HW227237   1.641   4.475   1.057
 8780SOL     OW27238   2.043   5.440   4.672
 8780SOL    HW127239   2.123   5.474   4.624
 8780SOL    HW227240   1.964   5.497   4.648
 8781SOL     OW27241   1.028   2.153   2.479
 8781SOL    HW127242   1.037   2.182   2.575
 8781SOL    HW227243   0.948   2.094   2.470
 8782SOL     OW27244   5.071   1.426   3.830
 8782SOL    HW127245   5.124   1.492   3.883
 8782SOL    HW227246   5.040   1.469   3.745
 8783SOL     OW27247   6.363   2.967   5.698
 8783SOL    HW127248   6.462   2.957   5.710
 8783SOL    HW227249   6.335   3.059   5.725
 8784SOL     OW27250   5.651   4.278   5.980
 8784SOL    HW127251   5.705   4.341   6.035
 8784SOL    HW227252   5.628   4.197   6.035
 8785SOL     OW27253   5.237   4.184   5.684
 8785SOL    HW127254   5.223   4.085   5.686
 8785SOL    HW227255   5.269   4.216   5.774
 8786SOL     OW27256   1.693   6.490   0.309
 8786SOL    HW127257   1.738   6.540   0.236
 8786SOL    HW227258   1.749   6.492   0.391
 8787SOL     OW27259   1.072   2.750   6.954
 8787SOL    HW127260   1.102   2.705   0.016
 8787SOL    HW227261   1.150   2.763   6.893
 8788SOL     OW27262   1.386   1.855   5.276
 8788SOL    HW127263   1.431   1.796   5.209
 8788SOL    HW227264   1.399   1.951   5.250
 8789SOL     OW27265   0.631   1.020   0.230
 8789SOL    HW127266   0.713   1.068   0.199
 8789SOL    HW227267   0.647   0.921   0.227
 8790SOL     OW27268   4.062   1.751   6.559
 8790SOL    HW127269   4.014   1.718   6.477
 8790SOL    HW227270   4.059   1.851   6.561
 8791SOL     OW27271   4.826   6.398   5.333
 8791SOL    HW127272   4.894   6.430   5.398
 8791SOL    HW227273   4.859   6.314   5.289
 8792SOL     OW27274   5.402   6.677   2.610
 8792SOL    HW127275   5.473   6.745   2.592
 8792SOL    HW227276   5.439   6.586   2.590
 8793SOL     OW27277   1.446   4.694   3.502
 8793SOL    HW127278   1.521   4.733   3.555
 8793SOL    HW227279   1.440   4.595   3.520
 8794SOL     OW27280   2.701   5.757   3.024
 8794SOL    HW127281   2.626   5.728   2.965
 8794SOL    HW227282   2.788   5.734   2.980
 8795SOL     OW27283   2.573   5.973   4.769
 8795SOL    HW127284   2.491   5.964   4.826
 8795SOL    HW227285   2.603   6.068   4.769
 8796SOL     OW27286   5.203   2.146   5.311
 8796SOL    HW127287   5.162   2.237   5.312
 8796SOL    HW227288   5.230   2.122   5.218
 8797SOL     OW27289   0.693   5.900   6.667
 8797SOL    HW127290   0.665   5.994   6.646
 8797SOL    HW227291   0.793   5.894   6.670
 8798SOL     OW27292   3.393   3.297   5.274
 8798SOL    HW127293   3.432   3.346   5.196
 8798SOL    HW227294   3.319   3.238   5.243
 8799SOL     OW27295   3.013   0.593   2.608
 8799SOL    HW127296   3.043   0.577   2.702
 8799SOL    HW227297   3.092   0.585   2.547
 8800SOL     OW27298   4.098   4.537   0.520
 8800SOL    HW127299   3.998   4.538   0.509
 8800SOL    HW227300   4.126   4.618   0.573
 8801SOL     OW27301   3.022   6.521   5.940
 8801SOL    HW127302   2.983   6.429   5.950
 8801SOL    HW227303   3.117   6.521   5.971
 8802SOL     OW27304   2.526   6.141   1.732
 8802SOL    HW127305   2.552   6.235   1.753
 8802SOL    HW227306   2.507   6.133   1.634
 8803SOL     OW27307   3.895   6.012   1.809
 8803SOL    HW127308   3.804   6.046   1.832
 8803SOL    HW227309   3.942   6.079   1.751
 8804SOL     OW27310   2.840   1.032   1.725
 8804SOL    HW127311   2.918   1.084   1.691
 8804SOL    HW227312   2.760   1.051   1.668
 8805SOL     OW27313   0.462   0.629   3.210
 8805SOL    HW127314   0.555   0.618   3.244
 8805SOL    HW227315   0.437   0.550   3.155
 8806SOL     OW27316   1.759   5.107   0.478
 8806SOL    HW127317   1.843   5.112   0.533
 8806SOL    HW227318   1.741   5.012   0.454
 8807SOL     OW27319   2.429   5.574   6.599
 8807SOL    HW127320   2.509   5.634   6.599
 8807SOL    HW227321   2.387   5.574   6.690
 8808SOL     OW27322   5.632   1.905   0.957
 8808SOL    HW127323   5.554   1.967   0.942
 8808SOL    HW227324   5.717   1.958   0.958
 8809SOL     OW27325   5.908   4.545   0.233
 8809SOL    HW127326   5.879   4.484   0.306
 8809SOL    HW227327   5.933   4.634   0.272
 8810SOL     OW27328   5.189   1.686   4.006
 8810SOL    HW127329   5.281   1.656   4.033
 8810SOL    HW227330   5.124   1.663   4.079
 8811SOL     OW27331   1.408   1.219   3.396
 8811SOL    HW127332   1.451   1.130   3.380
 8811SOL    HW227333   1.475   1.292   3.380
 8812SOL     OW27334   2.491   1.224   0.382
 8812SOL    HW127335   2.396   1.192   0.377
 8812SOL    HW227336   2.539   1.176   0.454
 8813SOL     OW27337   1.261   5.615   1.324
 8813SOL    HW127338   1.192   5.584   1.258
 8813SOL    HW227339   1.338   5.654   1.275
 8814SOL     OW27340   5.813   6.742   5.922
 8814SOL    HW127341   5.835   6.715   5.828
 8814SOL    HW227342   5.715   6.758   5.931
 8815SOL     OW27343   6.034   5.634   3.053
 8815SOL    HW127344   5.942   5.608   3.027
 8815SOL    HW227345   6.040   5.642   3.153
 8816SOL     OW27346   0.547   5.195   1.826
 8816SOL    HW127347   0.609   5.133   1.874
 8816SOL    HW227348   0.526   5.273   1.885
 8817SOL     OW27349   2.152   3.844   5.257
 8817SOL    HW127350   2.216   3.918   5.238
 8817SOL    HW227351   2.094   3.829   5.178
 8818SOL     OW27352   6.857   4.173   4.949
 8818SOL    HW127353   6.880   4.076   4.940
 8818SOL    HW227354   6.758   4.185   4.942
 8819SOL     OW27355   6.821   0.198   4.161
 8819SOL    HW127356   6.823   0.275   4.225
 8819SOL    HW227357   6.899   0.205   4.098
 8820SOL     OW27358   0.657   2.447   3.258
 8820SOL    HW127359   0.642   2.348   3.266
 8820SOL    HW227360   0.592   2.485   3.192
 8821SOL     OW27361   1.823   6.931   6.557
 8821SOL    HW127362   1.820   6.841   6.600
 8821SOL    HW227363   1.893   6.930   6.485
 8822SOL     OW27364   1.007   2.621   3.836
 8822SOL    HW127365   0.959   2.632   3.923
 8822SOL    HW227366   1.011   2.524   3.813
 8823SOL     OW27367   2.191   5.267   1.761
 8823SOL    HW127368   2.134   5.184   1.763
 8823SOL    HW227369   2.188   5.307   1.669
 8824SOL     OW27370   4.255   4.357   0.856
 8824SOL    HW127371   4.187   4.324   0.791
 8824SOL    HW227372   4.288   4.282   0.913
 8825SOL     OW27373   2.466   2.471   0.632
 8825SOL    HW127374   2.414   2.386   0.636
 8825SOL    HW227375   2.460   2.518   0.719
 8826SOL     OW27376   5.827   0.357   0.803
 8826SOL    HW127377   5.910   0.302   0.793
 8826SOL    HW227378   5.823   0.395   0.895
 8827SOL     OW27379   6.636   1.748   3.225
 8827SOL    HW127380   6.622   1.762   3.323
 8827SOL    HW227381   6.627   1.651   3.203
 8828SOL     OW27382   1.523   6.432   3.529
 8828SOL    HW127383   1.568   6.343   3.535
 8828SOL    HW227384   1.453   6.438   3.601
 8829SOL     OW27385   1.636   0.888   1.403
 8829SOL    HW127386   1.600   0.969   1.449
 8829SOL    HW227387   1.703   0.844   1.462
 8830SOL     OW27388   1.333   1.264   0.380
 8830SOL    HW127389   1.433   1.266   0.389
 8830SOL    HW227390   1.305   1.319   0.302
 8831SOL     OW27391   6.874   0.931   1.747
 8831SOL    HW127392   6.899   0.915   1.651
 8831SOL    HW227393   6.791   0.986   1.751
 8832SOL     OW27394   6.210   1.101   2.370
 8832SOL    HW127395   6.154   1.021   2.349
 8832SOL    HW227396   6.295   1.071   2.413
 8833SOL     OW27397   1.290   5.347   2.488
 8833SOL    HW127398   1.278   5.372   2.391
 8833SOL    HW227399   1.200   5.343   2.532
 8834SOL     OW27400   6.038   4.322   3.943
 8834SOL    HW127401   6.093   4.400   3.912
 8834SOL    HW227402   6.091   4.268   4.008
 8835SOL     OW27403   0.656   0.858   6.885
 8835SOL    HW127404   0.700   0.795   6.820
 8835SOL    HW227405   0.723   0.886   6.954
 8836SOL     OW27406   4.753   1.902   2.085
 8836SOL    HW127407   4.662   1.863   2.072
 8836SOL    HW227408   4.794   1.864   2.168
 8837SOL     OW27409   0.068   2.224   1.964
 8837SOL    HW127410   0.032   2.279   2.040
 8837SOL    HW227411   0.163   2.249   1.947
 8838SOL     OW27412   1.575   6.143   4.142
 8838SOL    HW127413   1.545   6.095   4.060
 8838SOL    HW227414   1.667   6.181   4.127
 8839SOL     OW27415   5.172   6.130   4.453
 8839SOL    HW127416   5.143   6.213   4.407
 8839SOL    HW227417   5.188   6.058   4.386
 8840SOL     OW27418   4.006   0.512   2.247
 8840SOL    HW127419   3.952   0.470   2.174
 8840SOL    HW227420   4.046   0.598   2.214
 8841SOL     OW27421   2.850   0.443   4.179
 8841SOL    HW127422   2.935   0.447   4.230
 8841SOL    HW227423   2.777   0.407   4.237
 8842SOL     OW27424   1.320   2.643   1.988
 8842SOL    HW127425   1.312   2.633   1.889
 8842SOL    HW227426   1.403   2.596   2.020
 8843SOL     OW27427   0.163   3.018   4.397
 8843SOL    HW127428   0.138   3.034   4.301
 8843SOL    HW227429   0.254   3.055   4.414
 8844SOL     OW27430   6.025   1.613   6.532
 8844SOL    HW127431   5.949   1.556   6.564
 8844SOL    HW227432   6.080   1.561   6.467
 8845SOL     OW27433   5.149   2.951   0.112
 8845SOL    HW127434   5.079   2.896   0.066
 8845SOL    HW227435   5.209   2.892   0.166
 8846SOL     OW27436   3.200   4.827   3.550
 8846SOL    HW127437   3.189   4.856   3.645
 8846SOL    HW227438   3.133   4.756   3.529
 8847SOL     OW27439   0.868   1.202   2.939
 8847SOL    HW127440   0.924   1.256   2.877
 8847SOL    HW227441   0.799   1.260   2.983
 8848SOL     OW27442   0.881   0.982   3.383
 8848SOL    HW127443   0.939   1.060   3.405
 8848SOL    HW227444   0.863   0.929   3.466
 8849SOL     OW27445   2.958   6.817   1.553
 8849SOL    HW127446   2.895   6.784   1.483
 8849SOL    HW227447   2.983   6.912   1.533
 8850SOL     OW27448   3.089   2.738   6.800
 8850SOL    HW127449   3.037   2.750   6.715
 8850SOL    HW227450   3.138   2.651   6.797
 8851SOL     OW27451   1.837   3.635   1.893
 8851SOL    HW127452   1.841   3.582   1.978
 8851SOL    HW227453   1.851   3.732   1.915
 8852SOL     OW27454   0.348   1.840   4.670
 8852SOL    HW127455   0.416   1.875   4.735
 8852SOL    HW227456   0.373   1.868   4.577
 8853SOL     OW27457   4.455   0.482   1.595
 8853SOL    HW127458   4.471   0.546   1.520
 8853SOL    HW227459   4.461   0.531   1.682
 8854SOL     OW27460   0.025   2.712   4.960
 8854SOL    HW127461   0.005   2.634   5.019
 8854SOL    HW227462   0.115   2.749   4.982
 8855SOL     OW27463   5.093   4.613   1.463
 8855SOL    HW127464   5.171   4.565   1.503
 8855SOL    HW227465   5.102   4.614   1.363
 8856SOL     OW27466   6.098   0.731   6.045
 8856SOL    HW127467   6.156   0.691   5.974
 8856SOL    HW227468   6.145   0.724   6.134
 8857SOL     OW27469   6.664   1.785   6.756
 8857SOL    HW127470   6.681   1.852   6.828
 8857SOL    HW227471   6.745   1.779   6.697
 8858SOL     OW27472   6.514   5.640   4.817
 8858SOL    HW127473   6.604   5.684   4.817
 8858SOL    HW227474   6.460   5.672   4.739
 8859SOL     OW27475   0.867   5.727   2.674
 8859SOL    HW127476   0.876   5.822   2.706
 8859SOL    HW227477   0.954   5.696   2.637
 8860SOL     OW27478   6.569   2.644   2.108
 8860SOL    HW127479   6.550   2.612   2.201
 8860SOL    HW227480   6.657   2.608   2.078
 8861SOL     OW27481   3.285   2.649   1.765
 8861SOL    HW127482   3.254   2.715   1.697
 8861SOL    HW227483   3.302   2.696   1.851
 8862SOL     OW27484   4.283   4.732   4.839
 8862SOL    HW127485   4.305   4.664   4.909
 8862SOL    HW227486   4.333   4.710   4.755
 8863SOL     OW27487   1.406   4.180   1.986
 8863SOL    HW127488   1.411   4.208   2.082
 8863SOL    HW227489   1.401   4.262   1.928
 8864SOL     OW27490   6.420   1.605   5.097
 8864SOL    HW127491   6.351   1.677   5.097
 8864SOL    HW227492   6.501   1.637   5.047
 8865SOL     OW27493   3.269   1.373   0.631
 8865SOL    HW127494   3.212   1.292   0.648
 8865SOL    HW227495   3.246   1.411   0.542
 8866SOL     OW27496   6.099   0.151   1.935
 8866SOL    HW127497   6.184   0.102   1.914
 8866SOL    HW227498   6.097   0.172   2.033
 8867SOL     OW27499   6.070   2.845   2.625
 8867SOL    HW127500   5.973   2.821   2.626
 8867SOL    HW227501   6.081   2.935   2.583
 8868SOL     OW27502   6.885   3.307   3.609
 8868SOL    HW127503   6.979   3.275   3.599
 8868SOL    HW227504   6.885   3.399   3.647
 8869SOL     OW27505   4.892   0.050   3.471
 8869SOL    HW127506   4.988   0.055   3.500
 8869SOL    HW227507   4.834   0.090   3.543
 8870SOL     OW27508   0.892   0.773   1.826
 8870SOL    HW127509   0.968   0.762   1.890
 8870SOL    HW227510   0.842   0.857   1.849
 8871SOL     OW27511   0.016   6.984   1.194
 8871SOL    HW127512   0.018   0.049   1.144
 8871SOL    HW227513   0.085   6.923   1.158
 8872SOL     OW27514   0.066   4.635   3.440
 8872SOL    HW127515   0.146   4.682   3.477
 8872SOL    HW227516   0.090   4.540   3.420
 8873SOL     OW27517   2.028   1.460   3.214
 8873SOL    HW127518   1.971   1.382   3.239
 8873SOL    HW227519   2.051   1.513   3.295
 8874SOL     OW27520   2.958   6.012   0.615
 8874SOL    HW127521   2.985   5.924   0.576
 8874SOL    HW227522   3.024   6.082   0.587
 8875SOL     OW27523   6.048   3.197   4.517
 8875SOL    HW127524   6.014   3.233   4.429
 8875SOL    HW227525   6.045   3.097   4.516
 8876SOL     OW27526   4.333   0.907   0.759
 8876SOL    HW127527   4.249   0.957   0.778
 8876SOL    HW227528   4.312   0.811   0.745
 8877SOL     OW27529   0.650   4.871   0.791
 8877SOL    HW127530   0.741   4.912   0.799
 8877SOL    HW227531   0.582   4.943   0.778
 8878SOL     OW27532   5.095   3.503   1.829
 8878SOL    HW127533   5.181   3.502   1.881
 8878SOL    HW227534   5.067   3.409   1.809
 8879SOL     OW27535   6.638   4.123   3.815
 8879SOL    HW127536   6.540   4.104   3.809
 8879SOL    HW227537   6.674   4.143   3.724
 8880SOL     OW27538   4.111   2.264   3.150
 8880SOL    HW127539   4.015   2.275   3.177
 8880SOL    HW227540   4.170   2.304   3.220
 8881SOL     OW27541   3.429   5.029   2.465
 8881SOL    HW127542   3.365   5.091   2.420
 8881SOL    HW227543   3.380   4.974   2.533
 8882SOL     OW27544   3.879   0.992   0.502
 8882SOL    HW127545   3.882   0.993   0.602
 8882SOL    HW227546   3.890   1.085   0.468
 8883SOL     OW27547   0.265   6.430   2.696
 8883SOL    HW127548   0.313   6.367   2.757
 8883SOL    HW227549   0.188   6.471   2.744
 8884SOL     OW27550   4.360   2.776   5.779
 8884SOL    HW127551   4.393   2.774   5.873
 8884SOL    HW227552   4.338   2.870   5.753
 8885SOL     OW27553   5.649   5.136   0.782
 8885SOL    HW127554   5.636   5.217   0.840
 8885SOL    HW227555   5.559   5.100   0.755
 8886SOL     OW27556   5.134   6.613   6.943
 8886SOL    HW127557   5.191   6.686   6.981
 8886SOL    HW227558   5.044   6.615   6.987
 8887SOL     OW27559   3.604   0.342   1.623
 8887SOL    HW127560   3.549   0.367   1.544
 8887SOL    HW227561   3.683   0.403   1.630
 8888SOL     OW27562   3.552   2.103   2.261
 8888SOL    HW127563   3.640   2.139   2.230
 8888SOL    HW227564   3.539   2.011   2.226
 8889SOL     OW27565   1.350   4.787   0.024
 8889SOL    HW127566   1.406   4.837   6.980
 8889SOL    HW227567   1.375   4.816   0.116
 8890SOL     OW27568   1.439   6.007   0.189
 8890SOL    HW127569   1.476   6.099   0.204
 8890SOL    HW227570   1.369   6.011   0.119
 8891SOL     OW27571   6.260   3.464   5.095
 8891SOL    HW127572   6.331   3.454   5.026
 8891SOL    HW227573   6.237   3.374   5.132
 8892SOL     OW27574   2.434   5.118   4.588
 8892SOL    HW127575   2.474   5.171   4.664
 8892SOL    HW227576   2.347   5.078   4.617
 8893SOL     OW27577   0.570   4.612   5.415
 8893SOL    HW127578   0.488   4.651   5.373
 8893SOL    HW227579   0.549   4.521   5.452
 8894SOL     OW27580   5.089   2.490   1.715
 8894SOL    HW127581   5.156   2.435   1.767
 8894SOL    HW227582   5.096   2.467   1.618
 8895SOL     OW27583   6.415   3.742   1.029
 8895SOL    HW127584   6.435   3.789   0.944
 8895SOL    HW227585   6.385   3.648   1.009
 8896SOL     OW27586   0.993   1.223   3.454
 8896SOL    HW127587   0.973   1.226   3.552
 8896SOL    HW227588   1.029   1.311   3.424
 8897SOL     OW27589   1.564   5.515   4.440
 8897SOL    HW127590   1.513   5.564   4.510
 8897SOL    HW227591   1.609   5.435   4.481
 8898SOL     OW27592   5.308   4.399   2.334
 8898SOL    HW127593   5.241   4.454   2.284
 8898SOL    HW227594   5.316   4.434   2.427
 8899SOL     OW27595   1.770   3.997   2.197
 8899SOL    HW127596   1.868   3.976   2.197
 8899SOL    HW227597   1.727   3.956   2.117
 8900SOL     OW27598   4.064   1.668   4.373
 8900SOL    HW127599   4.088   1.756   4.332
 8900SOL    HW227600   3.964   1.659   4.374
 8901SOL     OW27601   1.491   5.255   5.149
 8901SOL    HW127602   1.539   5.284   5.067
 8901SOL    HW227603   1.394   5.242   5.128
 8902SOL     OW27604   0.626   4.944   6.589
 8902SOL    HW127605   0.621   5.005   6.668
 8902SOL    HW227606   0.538   4.944   6.541
 8903SOL     OW27607   0.822   0.539   4.986
 8903SOL    HW127608   0.858   0.522   4.894
 8903SOL    HW227609   0.841   0.634   5.012
 8904SOL     OW27610   0.283   1.178   3.045
 8904SOL    HW127611   0.258   1.111   3.115
 8904SOL    HW227612   0.288   1.269   3.087
 8905SOL     OW27613   1.759   4.242   1.323
 8905SOL    HW127614   1.765   4.142   1.324
 8905SOL    HW227615   1.838   4.280   1.371
 8906SOL     OW27616   6.297   0.519   6.980
 8906SOL    HW127617   6.355   0.599   6.964
 8906SOL    HW227618   6.291   0.501   0.056
 8907SOL     OW27619   2.921   3.202   5.100
 8907SOL    HW127620   2.826   3.177   5.121
 8907SOL    HW227621   2.982   3.155   5.163
 8908SOL     OW27622   1.629   5.079   5.925
 8908SOL    HW127623   1.588   5.053   5.838
 8908SOL    HW227624   1.667   5.172   5.918
 8909SOL     OW27625   2.326   5.901   1.855
 8909SOL    HW127626   2.369   5.936   1.771
 8909SOL    HW227627   2.396   5.863   1.915
 8910SOL     OW27628   1.256   1.113   3.731
 8910SOL    HW127629   1.350   1.139   3.711
 8910SOL    HW227630   1.240   1.020   3.699
 8911SOL     OW27631   5.301   2.917   4.738
 8911SOL    HW127632   5.359   2.917   4.657
 8911SOL    HW227633   5.256   2.829   4.747
 8912SOL     OW27634   3.341   3.062   3.698
 8912SOL    HW127635   3.391   3.138   3.657
 8912SOL    HW227636   3.338   3.073   3.797
 8913SOL     OW27637   5.190   5.458   1.255
 8913SOL    HW127638   5.195   5.451   1.355
 8913SOL    HW227639   5.141   5.380   1.218
 8914SOL     OW27640   4.649   5.862   5.441
 8914SOL    HW127641   4.654   5.931   5.514
 8914SOL    HW227642   4.721   5.794   5.454
 8915SOL     OW27643   2.354   1.046   3.853
 8915SOL    HW127644   2.373   1.046   3.951
 8915SOL    HW227645   2.438   1.061   3.802
 8916SOL     OW27646   5.849   1.021   2.383
 8916SOL    HW127647   5.825   0.934   2.340
 8916SOL    HW227648   5.847   1.010   2.483
 8917SOL     OW27649   5.559   1.996   0.515
 8917SOL    HW127650   5.604   2.001   0.426
 8917SOL    HW227651   5.460   1.999   0.503
 8918SOL     OW27652   1.244   3.585   2.337
 8918SOL    HW127653   1.156   3.614   2.375
 8918SOL    HW227654   1.229   3.513   2.269
 8919SOL     OW27655   6.546   2.589   2.400
 8919SOL    HW127656   6.478   2.659   2.425
 8919SOL    HW227657   6.601   2.566   2.481
 8920SOL     OW27658   1.100   1.750   0.723
 8920SOL    HW127659   1.061   1.680   0.664
 8920SOL    HW227660   1.037   1.827   0.730
 8921SOL     OW27661   1.141   3.023   1.616
 8921SOL    HW127662   1.203   3.088   1.660
 8921SOL    HW227663   1.117   3.056   1.525
 8922SOL     OW27664   2.780   4.914   3.148
 8922SOL    HW127665   2.699   4.973   3.148
 8922SOL    HW227666   2.806   4.894   3.243
 8923SOL     OW27667   2.555   1.306   3.638
 8923SOL    HW127668   2.612   1.375   3.683
 8923SOL    HW227669   2.465   1.346   3.617
 8924SOL     OW27670   6.271   5.105   4.690
 8924SOL    HW127671   6.232   5.172   4.752
 8924SOL    HW227672   6.209   5.090   4.612
 8925SOL     OW27673   0.711   6.921   3.820
 8925SOL    HW127674   0.762   6.969   3.891
 8925SOL    HW227675   0.615   6.913   3.847
 8926SOL     OW27676   6.082   1.765   0.072
 8926SOL    HW127677   6.057   1.861   0.087
 8926SOL    HW227678   6.170   1.747   0.114
 8927SOL     OW27679   1.324   1.325   6.418
 8927SOL    HW127680   1.248   1.305   6.356
 8927SOL    HW227681   1.382   1.396   6.378
 8928SOL     OW27682   1.691   0.049   5.619
 8928SOL    HW127683   1.686   0.092   5.529
 8928SOL    HW227684   1.785   0.024   5.639
 8929SOL     OW27685   0.016   1.877   3.432
 8929SOL    HW127686   0.005   1.967   3.389
 8929SOL    HW227687   0.033   1.808   3.362
 8930SOL     OW27688   2.186   5.077   3.356
 8930SOL    HW127689   2.112   5.014   3.332
 8930SOL    HW227690   2.149   5.168   3.372
 8931SOL     OW27691   4.315   3.374   0.042
 8931SOL    HW127692   4.392   3.434   0.063
 8931SOL    HW227693   4.233   3.429   0.026
 8932SOL     OW27694   0.696   4.052   3.185
 8932SOL    HW127695   0.706   4.115   3.109
 8932SOL    HW227696   0.769   3.984   3.182
 8933SOL     OW27697   4.729   2.018   6.471
 8933SOL    HW127698   4.684   1.945   6.522
 8933SOL    HW227699   4.706   2.009   6.374
 8934SOL     OW27700   2.602   6.039   3.098
 8934SOL    HW127701   2.507   6.046   3.126
 8934SOL    HW227702   2.622   5.945   3.072
 8935SOL     OW27703   6.934   5.224   6.997
 8935SOL    HW127704   7.002   5.298   7.003
 8935SOL    HW227705   6.850   5.254   0.019
 8936SOL     OW27706   3.943   2.906   0.928
 8936SOL    HW127707   3.910   2.948   1.013
 8936SOL    HW227708   4.036   2.872   0.942
 8937SOL     OW27709   0.831   0.718   6.268
 8937SOL    HW127710   0.813   0.771   6.350
 8937SOL    HW227711   0.813   0.774   6.187
 8938SOL     OW27712   4.655   6.163   1.830
 8938SOL    HW127713   4.607   6.075   1.838
 8938SOL    HW227714   4.669   6.184   1.733
 8939SOL     OW27715   5.655   2.189   4.716
 8939SOL    HW127716   5.606   2.103   4.702
 8939SOL    HW227717   5.593   2.255   4.761
 8940SOL     OW27718   5.826   6.992   2.695
 8940SOL    HW127719   5.915   0.013   2.706
 8940SOL    HW227720   5.819   6.951   2.604
 8941SOL     OW27721   3.894   1.396   6.922
 8941SOL    HW127722   3.809   1.352   6.894
 8941SOL    HW227723   3.907   1.480   6.869
 8942SOL     OW27724   1.174   2.094   5.214
 8942SOL    HW127725   1.268   2.124   5.201
 8942SOL    HW227726   1.140   2.050   5.131
 8943SOL     OW27727   5.449   3.467   0.841
 8943SOL    HW127728   5.429   3.408   0.763
 8943SOL    HW227729   5.403   3.555   0.829
 8944SOL     OW27730   4.268   5.989   1.354
 8944SOL    HW127731   4.308   6.041   1.279
 8944SOL    HW227732   4.227   5.905   1.318
 8945SOL     OW27733   2.118   0.963   4.156
 8945SOL    HW127734   2.089   1.059   4.159
 8945SOL    HW227735   2.148   0.941   4.063
 8946SOL     OW27736   4.106   0.645   4.654
 8946SOL    HW127737   4.035   0.716   4.646
 8946SOL    HW227738   4.132   0.634   4.749
 8947SOL     OW27739   3.947   4.150   5.192
 8947SOL    HW127740   4.021   4.212   5.220
 8947SOL    HW227741   3.860   4.184   5.226
 8948SOL     OW27742   5.667   5.063   3.321
 8948SOL    HW127743   5.579   5.086   3.279
 8948SOL    HW227744   5.672   5.103   3.412
 8949SOL     OW27745   1.521   5.354   5.843
 8949SOL    HW127746   1.470   5.292   5.903
 8949SOL    HW227747   1.606   5.381   5.888
 8950SOL     OW27748   4.871   2.777   4.655
 8950SOL    HW127749   4.860   2.818   4.565
 8950SOL    HW227750   4.781   2.752   4.692
 8951SOL     OW27751   2.763   2.377   5.681
 8951SOL    HW127752   2.713   2.311   5.737
 8951SOL    HW227753   2.854   2.340   5.660
 8952SOL     OW27754   6.418   6.683   3.587
 8952SOL    HW127755   6.492   6.727   3.537
 8952SOL    HW227756   6.385   6.743   3.660
 8953SOL     OW27757   1.744   5.327   6.015
 8953SOL    HW127758   1.838   5.354   5.996
 8953SOL    HW227759   1.725   5.337   6.112
 8954SOL     OW27760   2.366   6.075   5.964
 8954SOL    HW127761   2.344   5.998   6.025
 8954SOL    HW227762   2.393   6.154   6.018
 8955SOL     OW27763   6.794   3.622   4.500
 8955SOL    HW127764   6.812   3.534   4.457
 8955SOL    HW227765   6.754   3.685   4.433
 8956SOL     OW27766   1.119   0.594   4.554
 8956SOL    HW127767   1.170   0.563   4.634
 8956SOL    HW227768   1.049   0.527   4.531
 8957SOL     OW27769   2.904   6.171   1.679
 8957SOL    HW127770   2.945   6.081   1.692
 8957SOL    HW227771   2.904   6.221   1.765
 8958SOL     OW27772   2.697   0.271   4.331
 8958SOL    HW127773   2.600   0.251   4.335
 8958SOL    HW227774   2.747   0.193   4.293
 8959SOL     OW27775   3.827   5.613   0.191
 8959SOL    HW127776   3.738   5.630   0.233
 8959SOL    HW227777   3.886   5.566   0.256
 8960SOL     OW27778   4.215   6.017   0.859
 8960SOL    HW127779   4.147   6.082   0.826
 8960SOL    HW227780   4.169   5.937   0.896
 8961SOL     OW27781   0.880   3.040   3.988
 8961SOL    HW127782   0.902   3.071   4.080
 8961SOL    HW227783   0.949   2.973   3.958
 8962SOL     OW27784   4.826   0.702   3.703
 8962SOL    HW127785   4.804   0.755   3.785
 8962SOL    HW227786   4.870   0.762   3.635
 8963SOL     OW27787   0.756   1.026   3.665
 8963SOL    HW127788   0.695   1.103   3.686
 8963SOL    HW227789   0.847   1.045   3.701
 8964SOL     OW27790   6.896   3.488   2.979
 8964SOL    HW127791   6.923   3.584   2.978
 8964SOL    HW227792   6.823   3.473   2.913
 8965SOL     OW27793   1.759   5.314   1.449
 8965SOL    HW127794   1.804   5.373   1.515
 8965SOL    HW227795   1.667   5.291   1.482
 8966SOL     OW27796   3.864   1.859   5.118
 8966SOL    HW127797   3.908   1.948   5.109
 8966SOL    HW227798   3.800   1.846   5.041
 8967SOL     OW27799   5.367   6.239   0.995
 8967SOL    HW127800   5.295   6.219   0.928
 8967SOL    HW227801   5.452   6.260   0.947
 8968SOL     OW27802   5.187   4.141   3.335
 8968SOL    HW127803   5.286   4.136   3.348
 8968SOL    HW227804   5.143   4.167   3.421
 8969SOL     OW27805   6.526   0.370   4.529
 8969SOL    HW127806   6.624   0.388   4.529
 8969SOL    HW227807   6.477   0.456   4.545
 8970SOL     OW27808   2.914   2.241   1.409
 8970SOL    HW127809   2.953   2.263   1.498
 8970SOL    HW227810   2.814   2.240   1.415
 8971SOL     OW27811   3.944   6.126   2.777
 8971SOL    HW127812   4.022   6.114   2.717
 8971SOL    HW227813   3.862   6.141   2.722
 8972SOL     OW27814   4.914   0.425   4.978
 8972SOL    HW127815   4.916   0.352   4.909
 8972SOL    HW227816   4.999   0.422   5.031
 8973SOL     OW27817   2.248   5.248   6.004
 8973SOL    HW127818   2.167   5.264   5.948
 8973SOL    HW227819   2.252   5.152   6.031
 8974SOL     OW27820   0.643   2.826   3.872
 8974SOL    HW127821   0.695   2.769   3.936
 8974SOL    HW227822   0.706   2.889   3.825
 8975SOL     OW27823   3.780   0.844   6.049
 8975SOL    HW127824   3.710   0.787   6.092
 8975SOL    HW227825   3.826   0.898   6.119
 8976SOL     OW27826   1.475   5.424   4.186
 8976SOL    HW127827   1.499   5.471   4.270
 8976SOL    HW227828   1.494   5.326   4.195
 8977SOL     OW27829   5.555   1.346   6.767
 8977SOL    HW127830   5.577   1.253   6.736
 8977SOL    HW227831   5.500   1.392   6.698
 8978SOL     OW27832   5.827   5.057   1.279
 8978SOL    HW127833   5.835   5.083   1.183
 8978SOL    HW227834   5.855   4.962   1.291
 8979SOL     OW27835   1.152   4.459   5.178
 8979SOL    HW127836   1.133   4.418   5.089
 8979SOL    HW227837   1.163   4.386   5.246
 8980SOL     OW27838   3.990   3.229   4.485
 8980SOL    HW127839   4.029   3.197   4.398
 8980SOL    HW227840   3.967   3.150   4.542
 8981SOL     OW27841   2.650   1.743   5.405
 8981SOL    HW127842   2.707   1.696   5.337
 8981SOL    HW227843   2.576   1.792   5.359
 8982SOL     OW27844   3.620   4.436   0.667
 8982SOL    HW127845   3.523   4.413   0.680
 8982SOL    HW227846   3.658   4.379   0.594
 8983SOL     OW27847   4.629   4.449   0.931
 8983SOL    HW127848   4.569   4.481   0.858
 8983SOL    HW227849   4.575   4.402   1.001
 8984SOL     OW27850   1.341   6.428   3.310
 8984SOL    HW127851   1.389   6.407   3.394
 8984SOL    HW227852   1.300   6.519   3.316
 8985SOL     OW27853   3.210   3.556   6.054
 8985SOL    HW127854   3.121   3.582   6.017
 8985SOL    HW227855   3.272   3.534   5.978
 8986SOL     OW27856   3.034   6.459   2.259
 8986SOL    HW127857   3.090   6.510   2.194
 8986SOL    HW227858   3.085   6.381   2.293
 8987SOL     OW27859   5.286   6.674   2.342
 8987SOL    HW127860   5.203   6.727   2.321
 8987SOL    HW227861   5.353   6.733   2.387
 8988SOL     OW27862   0.674   4.639   4.813
 8988SOL    HW127863   0.660   4.717   4.874
 8988SOL    HW227864   0.675   4.670   4.718
 8989SOL     OW27865   2.385   2.349   6.828
 8989SOL    HW127866   2.360   2.262   6.785
 8989SOL    HW227867   2.466   2.386   6.784
 8990SOL     OW27868   6.877   5.125   3.455
 8990SOL    HW127869   6.783   5.093   3.442
 8990SOL    HW227870   6.895   5.136   3.553
 8991SOL     OW27871   1.478   2.087   5.149
 8991SOL    HW127872   1.574   2.074   5.122
 8991SOL    HW227873   1.418   2.049   5.079
 8992SOL     OW27874   6.798   2.403   1.355
 8992SOL    HW127875   6.793   2.327   1.420
 8992SOL    HW227876   6.875   2.390   1.293
 8993SOL     OW27877   3.810   2.517   0.752
 8993SOL    HW127878   3.806   2.582   0.827
 8993SOL    HW227879   3.729   2.528   0.694
 8994SOL     OW27880   1.717   5.586   2.529
 8994SOL    HW127881   1.735   5.489   2.545
 8994SOL    HW227882   1.758   5.640   2.602
 8995SOL     OW27883   0.430   0.104   1.484
 8995SOL    HW127884   0.471   0.080   1.572
 8995SOL    HW227885   0.390   0.022   1.443
 8996SOL     OW27886   3.988   6.354   5.651
 8996SOL    HW127887   4.031   6.416   5.585
 8996SOL    HW227888   3.902   6.393   5.683
 8997SOL     OW27889   6.291   0.410   4.721
 8997SOL    HW127890   6.319   0.503   4.698
 8997SOL    HW227891   6.364   0.365   4.772
 8998SOL     OW27892   6.818   4.095   4.304
 8998SOL    HW127893   6.865   4.137   4.227
 8998SOL    HW227894   6.883   4.044   4.359
 8999SOL     OW27895   4.212   6.475   6.030
 8999SOL    HW127896   4.299   6.430   6.052
 8999SOL    HW227897   4.229   6.548   5.964
 9000SOL     OW27898   1.087   3.788   1.257
 9000SOL    HW127899   1.096   3.720   1.330
 9000SOL    HW227900   1.112   3.878   1.292
 9001SOL     OW27901   1.313   5.659   0.965
 9001SOL    HW127902   1.356   5.585   0.913
 9001SOL    HW227903   1.384   5.709   1.016
 9002SOL     OW27904   0.290   4.880   6.200
 9002SOL    HW127905   0.367   4.821   6.176
 9002SOL    HW227906   0.307   4.973   6.166
 9003SOL     OW27907   5.535   6.963   0.537
 9003SOL    HW127908   5.612   6.968   0.473
 9003SOL    HW227909   5.495   6.872   0.533
 9004SOL     OW27910   5.960   4.813   1.362
 9004SOL    HW127911   5.953   4.859   1.450
 9004SOL    HW227912   6.035   4.747   1.364
 9005SOL     OW27913   5.280   0.822   5.496
 9005SOL    HW127914   5.301   0.825   5.398
 9005SOL    HW227915   5.332   0.748   5.539
 9006SOL     OW27916   4.278   5.609   0.474
 9006SOL    HW127917   4.351   5.675   0.492
 9006SOL    HW227918   4.317   5.517   0.468
 9007SOL     OW27919   1.439   0.940   3.095
 9007SOL    HW127920   1.376   0.871   3.058
 9007SOL    HW227921   1.512   0.957   3.029
 9008SOL     OW27922   0.346   5.438   2.162
 9008SOL    HW127923   0.445   5.425   2.159
 9008SOL    HW227924   0.324   5.518   2.219
 9009SOL     OW27925   3.305   6.625   2.089
 9009SOL    HW127926   3.360   6.679   2.025
 9009SOL    HW227927   3.220   6.597   2.045
 9010SOL     OW27928   1.416   5.703   4.656
 9010SOL    HW127929   1.443   5.618   4.701
 9010SOL    HW227930   1.406   5.775   4.725
 9011SOL     OW27931   2.026   2.143   2.409
 9011SOL    HW127932   2.087   2.118   2.485
 9011SOL    HW227933   1.951   2.198   2.445
 9012SOL     OW27934   2.680   5.989   6.956
 9012SOL    HW127935   2.638   6.080   6.962
 9012SOL    HW227936   2.772   5.998   6.916
 9013SOL     OW27937   1.780   0.118   4.513
 9013SOL    HW127938   1.853   0.078   4.569
 9013SOL    HW227939   1.742   0.047   4.453
 9014SOL     OW27940   5.547   3.285   3.764
 9014SOL    HW127941   5.508   3.221   3.698
 9014SOL    HW227942   5.526   3.254   3.857
 9015SOL     OW27943   4.416   0.230   6.299
 9015SOL    HW127944   4.350   0.264   6.232
 9015SOL    HW227945   4.392   0.263   6.390
 9016SOL     OW27946   4.653   5.192   5.713
 9016SOL    HW127947   4.680   5.162   5.622
 9016SOL    HW227948   4.729   5.241   5.756
 9017SOL     OW27949   3.716   6.928   5.256
 9017SOL    HW127950   3.678   6.987   5.327
 9017SOL    HW227951   3.647   6.863   5.226
 9018SOL     OW27952   3.453   4.783   0.347
 9018SOL    HW127953   3.406   4.842   0.413
 9018SOL    HW227954   3.499   4.709   0.396
 9019SOL     OW27955   0.754   3.490   3.444
 9019SOL    HW127956   0.758   3.479   3.543
 9019SOL    HW227957   0.727   3.584   3.421
 9020SOL     OW27958   5.311   4.746   3.410
 9020SOL    HW127959   5.405   4.766   3.382
 9020SOL    HW227960   5.312   4.698   3.498
 9021SOL     OW27961   0.613   1.258   3.719
 9021SOL    HW127962   0.640   1.322   3.791
 9021SOL    HW227963   0.598   1.308   3.634
 9022SOL     OW27964   3.917   3.768   6.401
 9022SOL    HW127965   3.970   3.802   6.324
 9022SOL    HW227966   3.977   3.720   6.465
 9023SOL     OW27967   6.812   4.665   0.483
 9023SOL    HW127968   6.888   4.634   0.541
 9023SOL    HW227969   6.766   4.743   0.526
 9024SOL     OW27970   2.138   5.441   6.292
 9024SOL    HW127971   2.196   5.511   6.251
 9024SOL    HW227972   2.152   5.439   6.391
 9025SOL     OW27973   0.775   5.943   1.360
 9025SOL    HW127974   0.856   5.888   1.343
 9025SOL    HW227975   0.716   5.942   1.279
 9026SOL     OW27976   5.423   1.384   0.512
 9026SOL    HW127977   5.381   1.378   0.603
 9026SOL    HW227978   5.497   1.451   0.514
 9027SOL     OW27979   0.756   3.901   3.671
 9027SOL    HW127980   0.657   3.887   3.675
 9027SOL    HW227981   0.782   3.930   3.578
 9028SOL     OW27982   3.177   4.824   6.437
 9028SOL    HW127983   3.256   4.764   6.421
 9028SOL    HW227984   3.194   4.913   6.396
 9029SOL     OW27985   4.648   6.762   4.433
 9029SOL    HW127986   4.651   6.800   4.340
 9029SOL    HW227987   4.553   6.738   4.456
 9030SOL     OW27988   3.199   2.053   2.331
 9030SOL    HW127989   3.212   1.964   2.287
 9030SOL    HW227990   3.213   2.126   2.265
 9031SOL     OW27991   4.906   6.888   5.021
 9031SOL    HW127992   4.889   6.791   5.006
 9031SOL    HW227993   4.824   6.929   5.062
 9032SOL     OW27994   5.203   2.394   1.179
 9032SOL    HW127995   5.250   2.306   1.180
 9032SOL    HW227996   5.261   2.463   1.137
 9033SOL     OW27997   1.070   6.584   2.798
 9033SOL    HW127998   1.114   6.528   2.868
 9033SOL    HW227999   1.123   6.581   2.714
 9034SOL     OW28000   4.862   6.988   4.476
 9034SOL    HW128001   4.785   6.924   4.481
 9034SOL    HW228002   4.828   0.059   4.482
 9035SOL     OW28003   3.078   5.400   6.104
 9035SOL    HW128004   3.176   5.411   6.088
 9035SOL    HW228005   3.055   5.303   6.104
 9036SOL     OW28006   1.007   4.679   5.184
 9036SOL    HW128007   1.070   4.602   5.169
 9036SOL    HW228008   0.943   4.655   5.257
 9037SOL     OW28009   0.141   0.716   2.138
 9037SOL    HW128010   0.074   0.741   2.068
 9037SOL    HW228011   0.210   0.655   2.099
 9038SOL     OW28012   4.187   3.772   5.679
 9038SOL    HW128013   4.146   3.682   5.664
 9038SOL    HW228014   4.119   3.843   5.664
 9039SOL     OW28015   4.466   6.318   6.644
 9039SOL    HW128016   4.454   6.395   6.706
 9039SOL    HW228017   4.563   6.296   6.636
 9040SOL     OW28018   1.810   2.391   1.644
 9040SOL    HW128019   1.888   2.367   1.587
 9040SOL    HW228020   1.839   2.395   1.740
 9041SOL     OW28021   5.763   2.119   2.929
 9041SOL    HW128022   5.751   2.020   2.928
 9041SOL    HW228023   5.696   2.161   2.990
 9042SOL     OW28024   5.019   5.547   0.011
 9042SOL    HW128025   5.086   5.619   0.031
 9042SOL    HW228026   5.061   5.458   0.024
 9043SOL     OW28027   2.661   2.485   1.445
 9043SOL    HW128028   2.572   2.531   1.442
 9043SOL    HW228029   2.652   2.398   1.492
 9044SOL     OW28030   1.024   0.603   0.488
 9044SOL    HW128031   1.080   0.674   0.531
 9044SOL    HW228032   0.937   0.642   0.459
 9045SOL     OW28033   4.124   0.405   3.891
 9045SOL    HW128034   4.134   0.503   3.909
 9045SOL    HW228035   4.178   0.380   3.811
 9046SOL     OW28036   3.461   2.849   2.251
 9046SOL    HW128037   3.535   2.915   2.241
 9046SOL    HW228038   3.457   2.790   2.170
 9047SOL     OW28039   1.109   4.622   5.914
 9047SOL    HW128040   1.018   4.581   5.925
 9047SOL    HW228041   1.164   4.564   5.854
 9048SOL     OW28042   0.158   1.783   5.644
 9048SOL    HW128043   0.087   1.715   5.629
 9048SOL    HW228044   0.119   1.861   5.695
 9049SOL     OW28045   2.242   6.534   5.280
 9049SOL    HW128046   2.177   6.605   5.311
 9049SOL    HW228047   2.332   6.554   5.318
 9050SOL     OW28048   0.615   4.633   0.318
 9050SOL    HW128049   0.540   4.576   0.286
 9050SOL    HW228050   0.603   4.655   0.415
 9051SOL     OW28051   2.103   0.948   1.846
 9051SOL    HW128052   2.109   1.022   1.913
 9051SOL    HW228053   2.065   0.867   1.889
 9052SOL     OW28054   1.916   3.819   6.400
 9052SOL    HW128055   1.844   3.877   6.440
 9052SOL    HW228056   1.939   3.746   6.465
 9053SOL     OW28057   1.116   0.914   6.713
 9053SOL    HW128058   1.096   0.850   6.639
 9053SOL    HW228059   1.188   0.877   6.771
 9054SOL     OW28060   1.477   5.479   2.911
 9054SOL    HW128061   1.415   5.469   2.833
 9054SOL    HW228062   1.571   5.485   2.878
 9055SOL     OW28063   0.542   2.678   5.786
 9055SOL    HW128064   0.580   2.590   5.815
 9055SOL    HW228065   0.533   2.680   5.686
 9056SOL     OW28066   5.867   2.009   3.928
 9056SOL    HW128067   5.837   2.012   4.024
 9056SOL    HW228068   5.796   2.048   3.870
 9057SOL     OW28069   4.726   2.333   3.832
 9057SOL    HW128070   4.638   2.377   3.851
 9057SOL    HW228071   4.764   2.297   3.917
 9058SOL     OW28072   2.312   0.056   5.738
 9058SOL    HW128073   2.366   0.039   5.655
 9058SOL    HW228074   2.277   6.991   5.773
 9059SOL     OW28075   1.092   2.372   3.389
 9059SOL    HW128076   1.075   2.284   3.345
 9059SOL    HW228077   1.009   2.427   3.387
 9060SOL     OW28078   4.893   3.085   5.157
 9060SOL    HW128079   4.899   3.106   5.059
 9060SOL    HW228080   4.979   3.111   5.201
 9061SOL     OW28081   1.698   4.925   3.069
 9061SOL    HW128082   1.681   4.828   3.052
 9061SOL    HW228083   1.766   4.935   3.141
 9062SOL     OW28084   1.822   6.273   1.724
 9062SOL    HW128085   1.806   6.220   1.807
 9062SOL    HW228086   1.915   6.257   1.691
 9063SOL     OW28087   2.989   1.685   2.399
 9063SOL    HW128088   2.894   1.684   2.370
 9063SOL    HW228089   2.997   1.646   2.490
 9064SOL     OW28090   5.089   4.157   6.949
 9064SOL    HW128091   5.026   4.081   6.936
 9064SOL    HW228092   5.077   4.196   0.018
 9065SOL     OW28093   3.013   0.837   1.524
 9065SOL    HW128094   3.085   0.901   1.496
 9065SOL    HW228095   2.930   0.857   1.473
 9066SOL     OW28096   5.447   6.914   6.854
 9066SOL    HW128097   5.358   6.958   6.840
 9066SOL    HW228098   5.446   6.862   6.939
 9067SOL     OW28099   1.266   0.358   1.368
 9067SOL    HW128100   1.205   0.308   1.307
 9067SOL    HW228101   1.215   0.428   1.418
 9068SOL     OW28102   1.624   6.012   6.644
 9068SOL    HW128103   1.677   5.936   6.681
 9068SOL    HW228104   1.648   6.026   6.548
 9069SOL     OW28105   1.342   2.525   6.249
 9069SOL    HW128106   1.399   2.455   6.205
 9069SOL    HW228107   1.400   2.603   6.275
 9070SOL     OW28108   1.533   4.620   3.832
 9070SOL    HW128109   1.472   4.561   3.778
 9070SOL    HW228110   1.628   4.596   3.812
 9071SOL     OW28111   5.011   6.030   6.901
 9071SOL    HW128112   4.948   5.959   6.934
 9071SOL    HW228113   5.010   6.031   6.801
 9072SOL     OW28114   4.719   4.527   0.450
 9072SOL    HW128115   4.755   4.572   0.532
 9072SOL    HW228116   4.707   4.429   0.468
 9073SOL     OW28117   2.468   0.588   1.185
 9073SOL    HW128118   2.409   0.618   1.260
 9073SOL    HW228119   2.472   0.488   1.184
 9074SOL     OW28120   0.359   0.543   1.924
 9074SOL    HW128121   0.431   0.476   1.906
 9074SOL    HW228122   0.295   0.545   1.846
 9075SOL     OW28123   6.896   0.210   1.643
 9075SOL    HW128124   6.804   0.184   1.672
 9075SOL    HW228125   6.915   0.172   1.553
 9076SOL     OW28126   1.080   1.948   4.996
 9076SOL    HW128127   1.166   1.942   4.946
 9076SOL    HW228128   1.006   1.911   4.940
 9077SOL     OW28129   5.655   6.679   1.874
 9077SOL    HW128130   5.631   6.628   1.957
 9077SOL    HW228131   5.690   6.769   1.899
 9078SOL     OW28132   4.641   2.986   5.772
 9078SOL    HW128133   4.549   3.017   5.748
 9078SOL    HW228134   4.666   3.024   5.861
 9079SOL     OW28135   3.238   0.425   5.526
 9079SOL    HW128136   3.185   0.504   5.497
 9079SOL    HW228137   3.198   0.385   5.608
 9080SOL     OW28138   4.605   1.269   6.818
 9080SOL    HW128139   4.687   1.325   6.835
 9080SOL    HW228140   4.625   1.174   6.839
 9081SOL     OW28141   5.534   6.793   3.299
 9081SOL    HW128142   5.440   6.762   3.314
 9081SOL    HW228143   5.550   6.877   3.350
 9082SOL     OW28144   2.555   0.512   2.171
 9082SOL    HW128145   2.475   0.570   2.183
 9082SOL    HW228146   2.547   0.432   2.231
 9083SOL     OW28147   4.405   4.694   3.836
 9083SOL    HW128148   4.490   4.746   3.845
 9083SOL    HW228149   4.369   4.671   3.926
 9084SOL     OW28150   4.013   3.491   2.739
 9084SOL    HW128151   3.920   3.463   2.715
 9084SOL    HW228152   4.067   3.410   2.760
 9085SOL     OW28153   0.966   2.872   0.894
 9085SOL    HW128154   0.986   2.824   0.809
 9085SOL    HW228155   0.871   2.904   0.893
 9086SOL     OW28156   6.741   3.533   6.838
 9086SOL    HW128157   6.826   3.490   6.808
 9086SOL    HW228158   6.721   3.612   6.780
 9087SOL     OW28159   5.155   3.263   2.310
 9087SOL    HW128160   5.214   3.242   2.232
 9087SOL    HW228161   5.059   3.253   2.283
 9088SOL     OW28162   5.570   5.462   1.488
 9088SOL    HW128163   5.513   5.382   1.509
 9088SOL    HW228164   5.551   5.534   1.555
 9089SOL     OW28165   4.280   0.876   5.470
 9089SOL    HW128166   4.318   0.957   5.515
 9089SOL    HW228167   4.191   0.853   5.511
 9090SOL     OW28168   6.043   1.681   3.432
 9090SOL    HW128169   6.073   1.720   3.345
 9090SOL    HW228170   6.018   1.755   3.494
 9091SOL     OW28171   3.950   2.736   5.852
 9091SOL    HW128172   4.024   2.723   5.918
 9091SOL    HW228173   3.964   2.677   5.773
 9092SOL     OW28174   6.884   3.237   5.976
 9092SOL    HW128175   6.973   3.198   5.950
 9092SOL    HW228176   6.885   3.261   6.073
 9093SOL     OW28177   1.873   6.364   4.970
 9093SOL    HW128178   1.966   6.399   4.957
 9093SOL    HW228179   1.855   6.293   4.903
 9094SOL     OW28180   1.775   3.539   0.732
 9094SOL    HW128181   1.686   3.584   0.737
 9094SOL    HW228182   1.833   3.586   0.666
 9095SOL     OW28183   0.199   6.785   6.450
 9095SOL    HW128184   0.271   6.815   6.513
 9095SOL    HW228185   0.236   6.782   6.357
 9096SOL     OW28186   5.979   5.254   3.616
 9096SOL    HW128187   6.050   5.275   3.683
 9096SOL    HW228188   5.973   5.155   3.604
 9097SOL     OW28189   1.281   2.958   6.327
 9097SOL    HW128190   1.215   2.907   6.273
 9097SOL    HW228191   1.234   3.006   6.401
 9098SOL     OW28192   2.105   4.668   4.149
 9098SOL    HW128193   2.167   4.724   4.204
 9098SOL    HW228194   2.098   4.708   4.057
 9099SOL     OW28195   2.376   1.589   0.121
 9099SOL    HW128196   2.383   1.587   0.221
 9099SOL    HW228197   2.376   1.495   0.086
 9100SOL     OW28198   1.539   4.876   4.260
 9100SOL    HW128199   1.635   4.851   4.243
 9100SOL    HW228200   1.508   4.834   4.345
 9101SOL     OW28201   0.368   1.909   0.709
 9101SOL    HW128202   0.322   1.916   0.620
 9101SOL    HW228203   0.440   1.979   0.714
 9102SOL     OW28204   3.806   1.097   3.198
 9102SOL    HW128205   3.824   1.145   3.284
 9102SOL    HW228206   3.757   1.012   3.217
 9103SOL     OW28207   6.307   0.573   1.233
 9103SOL    HW128208   6.348   0.538   1.318
 9103SOL    HW228209   6.279   0.497   1.175
 9104SOL     OW28210   6.262   1.991   6.301
 9104SOL    HW128211   6.173   1.949   6.321
 9104SOL    HW228212   6.256   2.089   6.320
 9105SOL     OW28213   3.043   0.777   6.932
 9105SOL    HW128214   2.955   0.729   6.936
 9105SOL    HW228215   3.079   0.775   6.839
 9106SOL     OW28216   2.355   3.088   6.382
 9106SOL    HW128217   2.386   3.174   6.340
 9106SOL    HW228218   2.309   3.033   6.313
 9107SOL     OW28219   3.448   0.772   0.978
 9107SOL    HW128220   3.400   0.828   1.046
 9107SOL    HW228221   3.435   0.812   0.887
 9108SOL     OW28222   6.631   5.817   6.112
 9108SOL    HW128223   6.658   5.910   6.086
 9108SOL    HW228224   6.558   5.822   6.181
 9109SOL     OW28225   5.423   4.107   3.128
 9109SOL    HW128226   5.440   4.060   3.040
 9109SOL    HW228227   5.343   4.166   3.119
 9110SOL     OW28228   1.198   6.699   2.424
 9110SOL    HW128229   1.192   6.758   2.504
 9110SOL    HW228230   1.186   6.755   2.341
 9111SOL     OW28231   4.091   2.647   5.621
 9111SOL    HW128232   4.171   2.693   5.659
 9111SOL    HW228233   4.079   2.673   5.525
 9112SOL     OW28234   0.646   4.961   2.011
 9112SOL    HW128235   0.711   4.970   2.086
 9112SOL    HW228236   0.553   4.967   2.046
 9113SOL     OW28237   5.910   0.203   4.492
 9113SOL    HW128238   5.886   0.156   4.408
 9113SOL    HW228239   5.830   0.212   4.551
 9114SOL     OW28240   1.176   0.959   6.334
 9114SOL    HW128241   1.180   0.889   6.406
 9114SOL    HW228242   1.149   0.915   6.248
 9115SOL     OW28243   5.329   3.482   4.990
 9115SOL    HW128244   5.378   3.564   5.019
 9115SOL    HW228245   5.236   3.484   5.027
 9116SOL     OW28246   1.096   5.892   3.616
 9116SOL    HW128247   1.183   5.870   3.661
 9116SOL    HW228248   1.034   5.814   3.624
 9117SOL     OW28249   2.137   6.946   0.101
 9117SOL    HW128250   2.094   6.951   0.191
 9117SOL    HW228251   2.181   0.011   0.080
 9118SOL     OW28252   6.565   4.966   1.405
 9118SOL    HW128253   6.466   4.980   1.400
 9118SOL    HW228254   6.602   5.021   1.480
 9119SOL     OW28255   3.546   1.019   1.254
 9119SOL    HW128256   3.538   1.115   1.230
 9119SOL    HW228257   3.633   0.983   1.218
 9120SOL     OW28258   6.599   4.020   4.654
 9120SOL    HW128259   6.631   4.100   4.603
 9120SOL    HW228260   6.530   3.972   4.600
 9121SOL     OW28261   4.050   0.807   4.376
 9121SOL    HW128262   4.132   0.860   4.393
 9121SOL    HW228263   4.074   0.711   4.366
 9122SOL     OW28264   0.064   1.931   2.199
 9122SOL    HW128265   0.043   2.024   2.231
 9122SOL    HW228266   0.025   1.865   2.262
 9123SOL     OW28267   0.733   6.631   4.343
 9123SOL    HW128268   0.684   6.566   4.286
 9123SOL    HW228269   0.793   6.582   4.406
 9124SOL     OW28270   4.094   5.807   0.597
 9124SOL    HW128271   4.066   5.734   0.659
 9124SOL    HW228272   4.185   5.787   0.561
 9125SOL     OW28273   5.312   6.909   1.488
 9125SOL    HW128274   5.365   6.963   1.552
 9125SOL    HW228275   5.220   6.892   1.526
 9126SOL     OW28276   4.013   5.034   0.693
 9126SOL    HW128277   4.091   5.053   0.752
 9126SOL    HW228278   3.970   4.948   0.721
 9127SOL     OW28279   6.652   4.097   5.213
 9127SOL    HW128280   6.645   3.998   5.222
 9127SOL    HW228281   6.641   4.123   5.117
 9128SOL     OW28282   5.518   4.078   6.161
 9128SOL    HW128283   5.505   3.988   6.202
 9128SOL    HW228284   5.515   4.148   6.233
 9129SOL     OW28285   6.937   3.168   0.923
 9129SOL    HW128286   6.855   3.141   0.871
 9129SOL    HW228287   6.982   3.086   0.958
 9130SOL     OW28288   3.315   3.198   5.844
 9130SOL    HW128289   3.365   3.151   5.771
 9130SOL    HW228290   3.336   3.296   5.840
 9131SOL     OW28291   6.102   3.109   0.756
 9131SOL    HW128292   6.143   3.077   0.671
 9131SOL    HW228293   6.032   3.044   0.786
 9132SOL     OW28294   1.229   3.960   3.612
 9132SOL    HW128295   1.258   4.055   3.609
 9132SOL    HW228296   1.262   3.918   3.696
 9133SOL     OW28297   5.113   0.248   0.963
 9133SOL    HW128298   5.018   0.236   0.933
 9133SOL    HW228299   5.160   0.160   0.959
 9134SOL     OW28300   4.765   4.543   6.560
 9134SOL    HW128301   4.755   4.628   6.509
 9134SOL    HW228302   4.679   4.493   6.559
 9135SOL     OW28303   6.595   5.305   2.581
 9135SOL    HW128304   6.604   5.261   2.491
 9135SOL    HW228305   6.506   5.351   2.587
 9136SOL     OW28306   0.982   4.993   6.608
 9136SOL    HW128307   1.075   5.027   6.621
 9136SOL    HW228308   0.940   4.975   6.697
 9137SOL     OW28309   5.650   5.496   6.227
 9137SOL    HW128310   5.615   5.409   6.264
 9137SOL    HW228311   5.667   5.559   6.303
 9138SOL     OW28312   1.649   4.524   6.624
 9138SOL    HW128313   1.728   4.582   6.605
 9138SOL    HW228314   1.574   4.579   6.661
 9139SOL     OW28315   0.050   0.182   1.052
 9139SOL    HW128316   0.030   0.266   1.000
 9139SOL    HW228317   0.146   0.182   1.079
 9140SOL     OW28318   1.544   4.201   2.560
 9140SOL    HW128319   1.479   4.276   2.545
 9140SOL    HW228320   1.494   4.115   2.569
 9141SOL     OW28321   0.421   6.063   4.640
 9141SOL    HW128322   0.489   6.115   4.588
 9141SOL    HW228323   0.337   6.057   4.586
 9142SOL     OW28324   1.433   4.884   3.824
 9142SOL    HW128325   1.506   4.953   3.825
 9142SOL    HW228326   1.474   4.793   3.833
 9143SOL     OW28327   5.640   3.654   2.563
 9143SOL    HW128328   5.701   3.591   2.514
 9143SOL    HW228329   5.554   3.608   2.583
 9144SOL     OW28330   2.668   4.127   5.311
 9144SOL    HW128331   2.581   4.177   5.311
 9144SOL    HW228332   2.743   4.193   5.307
 9145SOL     OW28333   2.778   6.498   6.264
 9145SOL    HW128334   2.803   6.411   6.222
 9145SOL    HW228335   2.810   6.499   6.359
 9146SOL     OW28336   5.889   1.870   4.400
 9146SOL    HW128337   5.860   1.935   4.328
 9146SOL    HW228338   5.809   1.818   4.431
 9147SOL     OW28339   4.420   0.554   6.158
 9147SOL    HW128340   4.518   0.532   6.156
 9147SOL    HW228341   4.402   0.618   6.233
 9148SOL     OW28342   4.023   5.555   2.436
 9148SOL    HW128343   3.946   5.605   2.477
 9148SOL    HW228344   3.988   5.484   2.376
 9149SOL     OW28345   0.289   4.276   1.411
 9149SOL    HW128346   0.307   4.310   1.503
 9149SOL    HW228347   0.376   4.259   1.365
 9150SOL     OW28348   3.103   3.919   0.016
 9150SOL    HW128349   3.171   3.854   0.052
 9150SOL    HW228350   3.030   3.868   6.993
 9151SOL     OW28351   2.084   3.346   3.988
 9151SOL    HW128352   2.023   3.375   3.914
 9151SOL    HW228353   2.129   3.260   3.963
 9152SOL     OW28354   1.791   5.080   1.847
 9152SOL    HW128355   1.759   5.149   1.912
 9152SOL    HW228356   1.715   5.019   1.823
 9153SOL     OW28357   0.471   3.716   0.244
 9153SOL    HW128358   0.527   3.636   0.265
 9153SOL    HW228359   0.530   3.794   0.224
 9154SOL     OW28360   4.544   5.606   3.075
 9154SOL    HW128361   4.596   5.691   3.076
 9154SOL    HW228362   4.558   5.559   2.988
 9155SOL     OW28363   1.049   6.340   2.581
 9155SOL    HW128364   1.000   6.254   2.576
 9155SOL    HW228365   1.120   6.342   2.511
 9156SOL     OW28366   6.900   4.177   5.595
 9156SOL    HW128367   6.900   4.276   5.582
 9156SOL    HW228368   6.905   4.131   5.506
 9157SOL     OW28369   1.808   4.558   4.991
 9157SOL    HW128370   1.840   4.464   4.994
 9157SOL    HW228371   1.791   4.585   4.896
 9158SOL     OW28372   0.182   2.624   4.375
 9158SOL    HW128373   0.165   2.688   4.449
 9158SOL    HW228374   0.262   2.653   4.323
 9159SOL     OW28375   1.854   0.716   3.923
 9159SOL    HW128376   1.767   0.693   3.879
 9159SOL    HW228377   1.875   0.812   3.908
 9160SOL     OW28378   0.472   3.677   6.021
 9160SOL    HW128379   0.458   3.599   5.962
 9160SOL    HW228380   0.568   3.706   6.016
 9161SOL     OW28381   5.729   3.268   2.505
 9161SOL    HW128382   5.637   3.264   2.466
 9161SOL    HW228383   5.786   3.198   2.461
 9162SOL     OW28384   4.501   2.062   2.267
 9162SOL    HW128385   4.577   2.009   2.229
 9162SOL    HW228386   4.510   2.158   2.238
 9163SOL     OW28387   2.012   3.482   3.408
 9163SOL    HW128388   1.995   3.385   3.391
 9163SOL    HW228389   2.050   3.493   3.501
 9164SOL     OW28390   3.367   6.928   0.691
 9164SOL    HW128391   3.440   6.987   0.655
 9164SOL    HW228392   3.323   6.974   0.768
 9165SOL     OW28393   5.970   0.741   6.941
 9165SOL    HW128394   6.052   0.690   6.918
 9165SOL    HW228395   5.897   0.720   6.876
 9166SOL     OW28396   4.324   6.097   1.598
 9166SOL    HW128397   4.282   6.047   1.523
 9166SOL    HW228398   4.415   6.128   1.571
 9167SOL     OW28399   1.152   2.154   4.779
 9167SOL    HW128400   1.121   2.169   4.685
 9167SOL    HW228401   1.076   2.169   4.842
 9168SOL     OW28402   6.204   5.917   4.643
 9168SOL    HW128403   6.262   5.835   4.643
 9168SOL    HW228404   6.127   5.903   4.706
 9169SOL     OW28405   6.157   5.724   0.260
 9169SOL    HW128406   6.109   5.798   0.307
 9169SOL    HW228407   6.096   5.683   0.192
 9170SOL     OW28408   1.946   0.865   5.809
 9170SOL    HW128409   2.003   0.947   5.799
 9170SOL    HW228410   2.000   0.792   5.851
 9171SOL     OW28411   4.378   5.479   0.116
 9171SOL    HW128412   4.398   5.386   0.087
 9171SOL    HW228413   4.357   5.536   0.036
 9172SOL     OW28414   5.382   1.199   6.063
 9172SOL    HW128415   5.320   1.244   6.127
 9172SOL    HW228416   5.350   1.106   6.045
 9173SOL     OW28417   5.802   4.504   5.601
 9173SOL    HW128418   5.877   4.563   5.630
 9173SOL    HW228419   5.813   4.414   5.642
 9174SOL     OW28420   5.789   4.516   6.838
 9174SOL    HW128421   5.778   4.600   6.891
 9174SOL    HW228422   5.886   4.503   6.817
 9175SOL     OW28423   2.147   1.182   1.633
 9175SOL    HW128424   2.108   1.095   1.663
 9175SOL    HW228425   2.115   1.256   1.692
 9176SOL     OW28426   1.699   0.392   2.546
 9176SOL    HW128427   1.652   0.410   2.459
 9176SOL    HW228428   1.680   0.467   2.609
 9177SOL     OW28429   0.697   5.901   3.587
 9177SOL    HW128430   0.753   5.908   3.505
 9177SOL    HW228431   0.663   5.992   3.613
 9178SOL     OW28432   1.297   3.352   0.673
 9178SOL    HW128433   1.388   3.365   0.632
 9178SOL    HW228434   1.307   3.315   0.765
 9179SOL     OW28435   3.894   5.034   2.936
 9179SOL    HW128436   3.993   5.047   2.946
 9179SOL    HW228437   3.875   4.982   2.853
 9180SOL     OW28438   0.298   0.945   5.105
 9180SOL    HW128439   0.250   0.859   5.119
 9180SOL    HW228440   0.361   0.937   5.028
 9181SOL     OW28441   2.810   2.349   3.383
 9181SOL    HW128442   2.784   2.378   3.291
 9181SOL    HW228443   2.893   2.294   3.378
 9182SOL     OW28444   6.649   1.711   2.892
 9182SOL    HW128445   6.653   1.709   2.992
 9182SOL    HW228446   6.556   1.690   2.862
 9183SOL     OW28447   2.728   1.907   5.928
 9183SOL    HW128448   2.711   1.864   6.017
 9183SOL    HW228449   2.731   1.836   5.857
 9184SOL     OW28450   2.799   4.868   1.296
 9184SOL    HW128451   2.823   4.956   1.338
 9184SOL    HW228452   2.879   4.808   1.295
 9185SOL     OW28453   0.948   0.955   5.345
 9185SOL    HW128454   0.860   0.910   5.361
 9185SOL    HW228455   1.020   0.887   5.336
 9186SOL     OW28456   5.934   0.014   5.912
 9186SOL    HW128457   5.944   0.055   6.003
 9186SOL    HW228458   5.840   0.028   5.880
 9187SOL     OW28459   5.434   3.163   1.127
 9187SOL    HW128460   5.373   3.242   1.122
 9187SOL    HW228461   5.402   3.100   1.198
 9188SOL     OW28462   1.105   0.678   2.545
 9188SOL    HW128463   1.042   0.731   2.488
 9188SOL    HW228464   1.073   0.680   2.640
 9189SOL     OW28465   2.747   0.819   6.458
 9189SOL    HW128466   2.841   0.786   6.471
 9189SOL    HW228467   2.716   0.863   6.542
 9190SOL     OW28468   4.178   0.835   5.767
 9190SOL    HW128469   4.237   0.793   5.836
 9190SOL    HW228470   4.104   0.884   5.812
 9191SOL     OW28471   5.674   0.312   1.364
 9191SOL    HW128472   5.583   0.324   1.405
 9191SOL    HW228473   5.676   0.356   1.274
 9192SOL     OW28474   4.899   4.505   4.091
 9192SOL    HW128475   4.973   4.523   4.156
 9192SOL    HW228476   4.820   4.469   4.140
 9193SOL     OW28477   3.960   3.016   2.643
 9193SOL    HW128478   3.867   2.986   2.661
 9193SOL    HW228479   3.976   3.020   2.545
 9194SOL     OW28480   3.033   5.193   3.072
 9194SOL    HW128481   2.949   5.161   3.028
 9194SOL    HW228482   3.052   5.138   3.152
 9195SOL     OW28483   0.791   3.253   3.705
 9195SOL    HW128484   0.790   3.168   3.758
 9195SOL    HW228485   0.771   3.233   3.609
 9196SOL     OW28486   5.441   5.772   3.259
 9196SOL    HW128487   5.454   5.871   3.254
 9196SOL    HW228488   5.387   5.742   3.180
 9197SOL     OW28489   4.473   2.465   7.016
 9197SOL    HW128490   4.412   2.544   7.022
 9197SOL    HW228491   4.499   2.450   6.921
 9198SOL     OW28492   6.443   3.179   5.198
 9198SOL    HW128493   6.348   3.209   5.203
 9198SOL    HW228494   6.457   3.126   5.115
 9199SOL     OW28495   1.030   3.689   6.505
 9199SOL    HW128496   0.986   3.676   6.416
 9199SOL    HW228497   0.992   3.625   6.572
 9200SOL     OW28498   4.845   6.263   2.008
 9200SOL    HW128499   4.801   6.225   1.927
 9200SOL    HW228500   4.797   6.232   2.090
 9201SOL     OW28501   7.016   3.134   2.271
 9201SOL    HW128502   6.993   3.054   2.326
 9201SOL    HW228503   0.052   3.106   2.194
 9202SOL     OW28504   1.973   6.164   3.711
 9202SOL    HW128505   1.991   6.227   3.786
 9202SOL    HW228506   1.942   6.215   3.631
 9203SOL     OW28507   5.351   1.985   0.952
 9203SOL    HW128508   5.252   1.987   0.939
 9203SOL    HW228509   5.395   2.040   0.881
 9204SOL     OW28510   4.954   4.619   2.265
 9204SOL    HW128511   5.022   4.665   2.322
 9204SOL    HW228512   4.998   4.543   2.216
 9205SOL     OW28513   4.274   2.419   1.204
 9205SOL    HW128514   4.280   2.514   1.173
 9205SOL    HW228515   4.193   2.376   1.165
 9206SOL     OW28516   0.022   6.344   5.283
 9206SOL    HW128517   0.083   6.403   5.229
 9206SOL    HW228518   6.963   6.322   5.229
 9207SOL     OW28519   5.460   6.785   0.059
 9207SOL    HW128520   5.492   6.863   0.114
 9207SOL    HW228521   5.431   6.712   0.120
 9208SOL     OW28522   5.352   4.531   1.503
 9208SOL    HW128523   5.393   4.539   1.594
 9208SOL    HW228524   5.419   4.560   1.435
 9209SOL     OW28525   5.036   0.228   4.522
 9209SOL    HW128526   5.118   0.278   4.496
 9209SOL    HW228527   5.061   0.141   4.564
 9210SOL     OW28528   1.006   0.024   0.090
 9210SOL    HW128529   1.050   7.018   0.004
 9210SOL    HW228530   0.912   0.051   0.072
 9211SOL     OW28531   5.121   1.937   6.221
 9211SOL    HW128532   5.088   1.973   6.309
 9211SOL    HW228533   5.076   1.850   6.202
 9212SOL     OW28534   5.941   3.644   6.305
 9212SOL    HW128535   5.937   3.558   6.356
 9212SOL    HW228536   6.035   3.677   6.304
 9213SOL     OW28537   6.962   5.502   2.712
 9213SOL    HW128538   6.970   5.402   2.718
 9213SOL    HW228539   6.893   5.534   2.778
 9214SOL     OW28540   2.206   1.241   5.912
 9214SOL    HW128541   2.111   1.217   5.935
 9214SOL    HW228542   2.248   1.285   5.991
 9215SOL     OW28543   0.118   4.077   3.485
 9215SOL    HW128544   0.123   4.166   3.531
 9215SOL    HW228545   0.165   4.083   3.397
 9216SOL     OW28546   2.243   6.609   3.983
 9216SOL    HW128547   2.145   6.629   3.985
 9216SOL    HW228548   2.259   6.528   3.927
 9217SOL     OW28549   3.146   2.446   0.136
 9217SOL    HW128550   3.130   2.543   0.119
 9217SOL    HW228551   3.106   2.421   0.224
 9218SOL     OW28552   4.280   6.058   5.545
 9218SOL    HW128553   4.281   5.962   5.575
 9218SOL    HW228554   4.197   6.102   5.580
 9219SOL     OW28555   3.753   3.176   6.416
 9219SOL    HW128556   3.692   3.246   6.454
 9219SOL    HW228557   3.776   3.199   6.322
 9220SOL     OW28558   0.969   0.047   3.691
 9220SOL    HW128559   0.884   0.014   3.732
 9220SOL    HW228560   1.043   0.041   3.758
 9221SOL     OW28561   2.463   1.734   2.253
 9221SOL    HW128562   2.402   1.654   2.252
 9221SOL    HW228563   2.502   1.747   2.163
 9222SOL     OW28564   1.882   5.680   3.537
 9222SOL    HW128565   1.857   5.583   3.544
 9222SOL    HW228566   1.913   5.712   3.627
 9223SOL     OW28567   6.165   2.356   4.764
 9223SOL    HW128568   6.168   2.456   4.770
 9223SOL    HW228569   6.143   2.318   4.854
 9224SOL     OW28570   1.746   5.524   2.826
 9224SOL    HW128571   1.766   5.426   2.826
 9224SOL    HW228572   1.818   5.573   2.876
 9225SOL     OW28573   0.392   5.359   5.719
 9225SOL    HW128574   0.459   5.305   5.669
 9225SOL    HW228575   0.305   5.309   5.722
 9226SOL     OW28576   0.947   7.005   4.832
 9226SOL    HW128577   0.913   0.077   4.832
 9226SOL    HW228578   0.949   6.970   4.739
 9227SOL     OW28579   3.799   3.244   0.432
 9227SOL    HW128580   3.897   3.231   0.421
 9227SOL    HW228581   3.778   3.264   0.527
 9228SOL     OW28582   3.845   3.344   4.970
 9228SOL    HW128583   3.797   3.267   4.928
 9228SOL    HW228584   3.858   3.326   5.068
 9229SOL     OW28585   0.208   5.306   0.968
 9229SOL    HW128586   0.281   5.238   0.962
 9229SOL    HW228587   0.176   5.312   1.063
 9230SOL     OW28588   3.393   0.244   6.320
 9230SOL    HW128589   3.393   0.165   6.381
 9230SOL    HW228590   3.386   0.328   6.374
 9231SOL     OW28591   5.954   6.691   1.294
 9231SOL    HW128592   5.964   6.591   1.302
 9231SOL    HW228593   5.863   6.718   1.324
 9232SOL     OW28594   1.021   5.023   2.187
 9232SOL    HW128595   1.051   4.999   2.095
 9232SOL    HW228596   1.101   5.036   2.246
 9233SOL     OW28597   1.369   0.350   5.898
 9233SOL    HW128598   1.392   0.278   5.834
 9233SOL    HW228599   1.429   0.429   5.884
 9234SOL     OW28600   3.101   4.131   6.424
 9234SOL    HW128601   3.155   4.212   6.445
 9234SOL    HW228602   3.153   4.049   6.448
 9235SOL     OW28603   2.334   2.374   3.415
 9235SOL    HW128604   2.254   2.386   3.356
 9235SOL    HW228605   2.416   2.363   3.358
 9236SOL     OW28606   1.873   4.180   6.514
 9236SOL    HW128607   1.938   4.121   6.467
 9236SOL    HW228608   1.888   4.275   6.486
 9237SOL     OW28609   6.771   5.317   3.838
 9237SOL    HW128610   6.851   5.372   3.862
 9237SOL    HW228611   6.724   5.287   3.920
 9238SOL     OW28612   1.475   2.253   5.396
 9238SOL    HW128613   1.475   2.186   5.321
 9238SOL    HW228614   1.567   2.263   5.433
 9239SOL     OW28615   1.772   5.964   6.383
 9239SOL    HW128616   1.832   6.016   6.322
 9239SOL    HW228617   1.823   5.887   6.422
 9240SOL     OW28618   3.888   1.459   4.929
 9240SOL    HW128619   3.859   1.503   5.014
 9240SOL    HW228620   3.838   1.500   4.852
 9241SOL     OW28621   5.798   6.309   6.966
 9241SOL    HW128622   5.793   6.222   6.916
 9241SOL    HW228623   5.881   6.359   6.938
 9242SOL     OW28624   2.507   2.903   6.861
 9242SOL    HW128625   2.416   2.868   6.881
 9242SOL    HW228626   2.572   2.826   6.858
 9243SOL     OW28627   2.349   0.540   0.310
 9243SOL    HW128628   2.419   0.482   0.353
 9243SOL    HW228629   2.288   0.483   0.256
 9244SOL     OW28630   2.643   6.509   0.192
 9244SOL    HW128631   2.622   6.507   0.094
 9244SOL    HW228632   2.706   6.433   0.214
 9245SOL     OW28633   0.773   4.460   2.752
 9245SOL    HW128634   0.780   4.389   2.681
 9245SOL    HW228635   0.678   4.464   2.784
 9246SOL     OW28636   5.281   0.313   0.027
 9246SOL    HW128637   5.361   0.343   0.079
 9246SOL    HW228638   5.228   0.248   0.082
 9247SOL     OW28639   3.282   6.769   2.760
 9247SOL    HW128640   3.322   6.777   2.669
 9247SOL    HW228641   3.343   6.811   2.827
 9248SOL     OW28642   3.192   0.396   6.771
 9248SOL    HW128643   3.158   0.302   6.762
 9248SOL    HW228644   3.271   0.397   6.833
 9249SOL     OW28645   3.913   0.983   0.785
 9249SOL    HW128646   3.896   0.909   0.850
 9249SOL    HW228647   3.928   1.069   0.835
 9250SOL     OW28648   0.558   3.637   2.351
 9250SOL    HW128649   0.638   3.696   2.362
 9250SOL    HW228650   0.525   3.642   2.257
 9251SOL     OW28651   4.024   2.080   1.059
 9251SOL    HW128652   3.974   2.086   1.145
 9251SOL    HW228653   4.104   2.021   1.070
 9252SOL     OW28654   5.333   1.660   4.586
 9252SOL    HW128655   5.411   1.677   4.647
 9252SOL    HW228656   5.366   1.612   4.504
 9253SOL     OW28657   2.452   4.781   3.606
 9253SOL    HW128658   2.431   4.847   3.534
 9253SOL    HW228659   2.537   4.734   3.586
 9254SOL     OW28660   6.884   6.248   2.228
 9254SOL    HW128661   6.946   6.324   2.211
 9254SOL    HW228662   6.934   6.173   2.272
 9255SOL     OW28663   6.730   3.567   0.991
 9255SOL    HW128664   6.698   3.661   0.975
 9255SOL    HW228665   6.820   3.570   1.035
 9256SOL     OW28666   2.444   6.460   1.212
 9256SOL    HW128667   2.384   6.518   1.157
 9256SOL    HW228668   2.482   6.387   1.154
 9257SOL     OW28669   6.371   6.113   4.877
 9257SOL    HW128670   6.373   6.050   4.955
 9257SOL    HW228671   6.298   6.085   4.814
 9258SOL     OW28672   5.359   4.291   2.800
 9258SOL    HW128673   5.313   4.273   2.887
 9258SOL    HW228674   5.334   4.220   2.734
 9259SOL     OW28675   0.879   2.719   6.658
 9259SOL    HW128676   0.812   2.685   6.592
 9259SOL    HW228677   0.833   2.736   6.746
 9260SOL     OW28678   5.000   4.419   4.861
 9260SOL    HW128679   4.946   4.385   4.939
 9260SOL    HW228680   5.063   4.348   4.831
 9261SOL     OW28681   1.754   3.400   1.291
 9261SOL    HW128682   1.776   3.367   1.199
 9261SOL    HW228683   1.828   3.457   1.325
 9262SOL     OW28684   0.794   6.324   5.988
 9262SOL    HW128685   0.803   6.386   5.910
 9262SOL    HW228686   0.870   6.340   6.051
 9263SOL     OW28687   2.551   4.532   2.866
 9263SOL    HW128688   2.614   4.606   2.892
 9263SOL    HW228689   2.571   4.503   2.772
 9264SOL     OW28690   5.145   3.333   5.647
 9264SOL    HW128691   5.180   3.419   5.684
 9264SOL    HW228692   5.217   3.286   5.596
 9265SOL     OW28693   4.882   0.001   2.267
 9265SOL    HW128694   4.899   0.032   2.361
 9265SOL    HW228695   4.793   0.035   2.236
 9266SOL     OW28696   0.362   4.610   1.510
 9266SOL    HW128697   0.449   4.563   1.494
 9266SOL    HW228698   0.287   4.551   1.481
 9267SOL     OW28699   0.137   1.166   3.581
 9267SOL    HW128700   0.138   1.263   3.608
 9267SOL    HW228701   0.077   1.155   3.502
 9268SOL     OW28702   0.577   0.925   1.176
 9268SOL    HW128703   0.534   1.005   1.218
 9268SOL    HW228704   0.591   0.854   1.245
 9269SOL     OW28705   3.224   6.552   0.902
 9269SOL    HW128706   3.269   6.468   0.930
 9269SOL    HW228707   3.233   6.621   0.975
 9270SOL     OW28708   2.352   1.274   5.116
 9270SOL    HW128709   2.449   1.274   5.091
 9270SOL    HW228710   2.303   1.206   5.061
 9271SOL     OW28711   1.722   4.741   5.637
 9271SOL    HW128712   1.701   4.836   5.657
 9271SOL    HW228713   1.764   4.698   5.717
 9272SOL     OW28714   6.762   6.687   5.606
 9272SOL    HW128715   6.720   6.601   5.635
 9272SOL    HW228716   6.815   6.726   5.681
 9273SOL     OW28717   6.476   3.685   3.653
 9273SOL    HW128718   6.495   3.587   3.662
 9273SOL    HW228719   6.554   3.738   3.687
 9274SOL     OW28720   6.926   3.241   0.323
 9274SOL    HW128721   6.981   3.164   0.291
 9274SOL    HW228722   6.833   3.233   0.287
 9275SOL     OW28723   4.477   1.788   0.282
 9275SOL    HW128724   4.479   1.713   0.348
 9275SOL    HW228725   4.518   1.758   0.196
 9276SOL     OW28726   1.675   4.121   0.228
 9276SOL    HW128727   1.752   4.128   0.165
 9276SOL    HW228728   1.695   4.051   0.297
 9277SOL     OW28729   3.157   5.847   2.573
 9277SOL    HW128730   3.194   5.939   2.559
 9277SOL    HW228731   3.078   5.850   2.634
 9278SOL     OW28732   1.187   6.929   5.573
 9278SOL    HW128733   1.249   6.928   5.651
 9278SOL    HW228734   1.095   6.953   5.604
 9279SOL     OW28735   3.419   6.114   1.853
 9279SOL    HW128736   3.377   6.109   1.763
 9279SOL    HW228737   3.508   6.159   1.846
 9280SOL     OW28738   1.501   4.821   1.303
 9280SOL    HW128739   1.568   4.890   1.332
 9280SOL    HW228740   1.542   4.730   1.312
 9281SOL     OW28741   1.197   5.500   0.688
 9281SOL    HW128742   1.213   5.469   0.782
 9281SOL    HW228743   1.234   5.593   0.677
 9282SOL     OW28744   1.779   0.392   4.423
 9282SOL    HW128745   1.770   0.310   4.479
 9282SOL    HW228746   1.873   0.398   4.387
 9283SOL     OW28747   5.169   5.239   6.769
 9283SOL    HW128748   5.230   5.288   6.707
 9283SOL    HW228749   5.177   5.140   6.753
 9284SOL     OW28750   4.389   6.169   1.200
 9284SOL    HW128751   4.463   6.159   1.133
 9284SOL    HW228752   4.412   6.241   1.265
 9285SOL     OW28753   0.272   5.937   3.394
 9285SOL    HW128754   0.231   5.977   3.476
 9285SOL    HW228755   0.305   5.845   3.415
 9286SOL     OW28756   5.439   6.099   1.371
 9286SOL    HW128757   5.375   6.176   1.374
 9286SOL    HW228758   5.419   6.041   1.292
 9287SOL     OW28759   4.341   4.172   0.331
 9287SOL    HW128760   4.363   4.168   0.429
 9287SOL    HW228761   4.260   4.229   0.318
 9288SOL     OW28762   3.989   1.369   2.965
 9288SOL    HW128763   4.033   1.325   3.043
 9288SOL    HW228764   4.017   1.323   2.881
 9289SOL     OW28765   4.545   5.977   2.492
 9289SOL    HW128766   4.530   5.900   2.555
 9289SOL    HW228767   4.508   5.953   2.402
 9290SOL     OW28768   4.914   1.186   3.859
 9290SOL    HW128769   5.008   1.154   3.848
 9290SOL    HW228770   4.914   1.283   3.880
 9291SOL     OW28771   0.622   4.423   5.710
 9291SOL    HW128772   0.704   4.373   5.740
 9291SOL    HW228773   0.613   4.507   5.763
 9292SOL     OW28774   1.752   2.166   0.017
 9292SOL    HW128775   1.657   2.138   0.008
 9292SOL    HW228776   1.795   2.117   0.092
 9293SOL     OW28777   4.514   0.827   5.306
 9293SOL    HW128778   4.443   0.840   5.376
 9293SOL    HW228779   4.601   0.805   5.351
 9294SOL     OW28780   5.153   6.502   5.593
 9294SOL    HW128781   5.192   6.410   5.587
 9294SOL    HW228782   5.083   6.503   5.664
 9295SOL     OW28783   6.342   0.217   2.975
 9295SOL    HW128784   6.286   0.142   2.940
 9295SOL    HW228785   6.427   0.223   2.922
 9296SOL     OW28786   1.931   3.545   5.289
 9296SOL    HW128787   1.902   3.613   5.222
 9296SOL    HW228788   2.007   3.491   5.253
 9297SOL     OW28789   6.589   5.407   2.140
 9297SOL    HW128790   6.669   5.406   2.080
 9297SOL    HW228791   6.529   5.483   2.115
 9298SOL     OW28792   0.171   4.795   6.450
 9298SOL    HW128793   0.096   4.731   6.466
 9298SOL    HW228794   0.167   4.827   6.355
 9299SOL     OW28795   3.023   2.205   3.998
 9299SOL    HW128796   2.981   2.255   3.922
 9299SOL    HW228797   3.116   2.180   3.974
 9300SOL     OW28798   2.859   5.723   6.075
 9300SOL    HW128799   2.819   5.715   5.984
 9300SOL    HW228800   2.957   5.740   6.068
 9301SOL     OW28801   0.263   3.327   4.319
 9301SOL    HW128802   0.202   3.330   4.397
 9301SOL    HW228803   0.354   3.297   4.348
 9302SOL     OW28804   3.025   5.391   3.775
 9302SOL    HW128805   2.965   5.385   3.854
 9302SOL    HW228806   3.110   5.437   3.800
 9303SOL     OW28807   2.594   4.667   6.905
 9303SOL    HW128808   2.496   4.652   6.916
 9303SOL    HW228809   2.643   4.580   6.918
 9304SOL     OW28810   5.952   5.798   5.839
 9304SOL    HW128811   5.899   5.782   5.923
 9304SOL    HW228812   5.912   5.874   5.789
 9305SOL     OW28813   1.906   1.545   1.152
 9305SOL    HW128814   1.918   1.452   1.186
 9305SOL    HW228815   1.928   1.610   1.224
 9306SOL     OW28816   6.937   6.302   4.075
 9306SOL    HW128817   6.910   6.364   4.001
 9306SOL    HW228818   7.019   6.337   4.120
 9307SOL     OW28819   2.193   3.768   0.948
 9307SOL    HW128820   2.120   3.703   0.969
 9307SOL    HW228821   2.216   3.820   1.030
 9308SOL     OW28822   2.463   3.495   1.149
 9308SOL    HW128823   2.449   3.511   1.051
 9308SOL    HW228824   2.496   3.579   1.192
 9309SOL     OW28825   4.208   5.526   5.830
 9309SOL    HW128826   4.285   5.542   5.893
 9309SOL    HW228827   4.218   5.436   5.788
 9310SOL     OW28828   0.020   6.566   6.331
 9310SOL    HW128829   0.041   6.625   6.254
 9310SOL    HW228830   0.103   6.550   6.384
 9311SOL     OW28831   5.616   4.451   0.340
 9311SOL    HW128832   5.599   4.449   0.439
 9311SOL    HW228833   5.688   4.385   0.317
 9312SOL     OW28834   5.688   3.308   4.065
 9312SOL    HW128835   5.591   3.285   4.069
 9312SOL    HW228836   5.736   3.262   4.139
 9313SOL     OW28837   0.197   0.529   1.697
 9313SOL    HW128838   0.276   0.501   1.643
 9313SOL    HW228839   0.149   0.603   1.650
 9314SOL     OW28840   5.058   4.955   1.166
 9314SOL    HW128841   5.027   4.950   1.071
 9314SOL    HW228842   4.986   4.923   1.227
 9315SOL     OW28843   5.937   5.519   5.649
 9315SOL    HW128844   5.944   5.602   5.703
 9315SOL    HW228845   6.007   5.518   5.578
 9316SOL     OW28846   5.129   6.024   0.658
 9316SOL    HW128847   5.219   5.985   0.638
 9316SOL    HW228848   5.134   6.080   0.741
 9317SOL     OW28849   2.863   6.546   3.263
 9317SOL    HW128850   2.932   6.611   3.232
 9317SOL    HW228851   2.806   6.587   3.334
 9318SOL     OW28852   3.222   0.146   3.454
 9318SOL    HW128853   3.235   0.056   3.412
 9318SOL    HW228854   3.280   0.154   3.534
 9319SOL     OW28855   3.763   2.357   0.355
 9319SOL    HW128856   3.672   2.350   0.395
 9319SOL    HW228857   3.773   2.446   0.311
 9320SOL     OW28858   6.568   6.761   0.108
 9320SOL    HW128859   6.641   6.765   0.177
 9320SOL    HW228860   6.569   6.845   0.054
 9321SOL     OW28861   1.003   2.134   4.086
 9321SOL    HW128862   1.007   2.173   3.993
 9321SOL    HW228863   1.095   2.132   4.125
 9322SOL     OW28864   5.470   3.004   0.422
 9322SOL    HW128865   5.381   2.958   0.416
 9322SOL    HW228866   5.465   3.091   0.372
 9323SOL     OW28867   0.875   2.430   5.129
 9323SOL    HW128868   0.848   2.468   5.218
 9323SOL    HW228869   0.836   2.339   5.119
 9324SOL     OW28870   0.451   4.415   1.174
 9324SOL    HW128871   0.490   4.334   1.218
 9324SOL    HW228872   0.351   4.410   1.176
 9325SOL     OW28873   1.238   4.455   3.095
 9325SOL    HW128874   1.272   4.367   3.062
 9325SOL    HW228875   1.315   4.513   3.120
 9326SOL     OW28876   4.829   4.922   1.323
 9326SOL    HW128877   4.759   4.851   1.331
 9326SOL    HW228878   4.788   5.004   1.282
 9327SOL     OW28879   2.259   1.702   3.270
 9327SOL    HW128880   2.269   1.668   3.177
 9327SOL    HW228881   2.272   1.802   3.271
 9328SOL     OW28882   1.254   6.674   3.265
 9328SOL    HW128883   1.276   6.679   3.168
 9328SOL    HW228884   1.166   6.718   3.282
 9329SOL     OW28885   1.575   5.016   6.189
 9329SOL    HW128886   1.601   5.065   6.106
 9329SOL    HW228887   1.480   5.037   6.211
 9330SOL     OW28888   0.615   6.428   0.812
 9330SOL    HW128889   0.574   6.356   0.867
 9330SOL    HW228890   0.543   6.474   0.758
 9331SOL     OW28891   1.753   4.873   4.833
 9331SOL    HW128892   1.716   4.891   4.924
 9331SOL    HW228893   1.850   4.848   4.840
 9332SOL     OW28894   6.070   5.138   0.304
 9332SOL    HW128895   5.990   5.147   0.244
 9332SOL    HW228896   6.068   5.209   0.374
 9333SOL     OW28897   1.767   5.171   0.771
 9333SOL    HW128898   1.756   5.115   0.689
 9333SOL    HW228899   1.688   5.158   0.831
 9334SOL     OW28900   6.988   5.343   0.480
 9334SOL    HW128901   0.050   5.312   0.523
 9334SOL    HW228902   6.941   5.408   0.541
 9335SOL     OW28903   0.307   3.741   0.925
 9335SOL    HW128904   0.209   3.758   0.916
 9335SOL    HW228905   0.329   3.717   1.019
 9336SOL     OW28906   4.135   5.721   5.381
 9336SOL    HW128907   4.172   5.684   5.466
 9336SOL    HW228908   4.185   5.805   5.357
 9337SOL     OW28909   3.492   1.621   4.400
 9337SOL    HW128910   3.499   1.664   4.490
 9337SOL    HW228911   3.396   1.609   4.376
 9338SOL     OW28912   4.749   6.914   1.038
 9338SOL    HW128913   4.674   6.863   0.995
 9338SOL    HW228914   4.816   6.941   0.969
 9339SOL     OW28915   6.928   3.463   5.078
 9339SOL    HW128916   6.830   3.454   5.063
 9339SOL    HW228917   6.973   3.491   4.993
 9340SOL     OW28918   2.335   4.849   2.237
 9340SOL    HW128919   2.314   4.853   2.139
 9340SOL    HW228920   2.251   4.858   2.289
 9341SOL     OW28921   6.046   5.565   0.658
 9341SOL    HW128922   6.128   5.583   0.713
 9341SOL    HW228923   6.074   5.534   0.567
 9342SOL     OW28924   2.657   0.417   4.891
 9342SOL    HW128925   2.741   0.440   4.941
 9342SOL    HW228926   2.580   0.467   4.931
 9343SOL     OW28927   5.387   3.658   1.498
 9343SOL    HW128928   5.316   3.684   1.563
 9343SOL    HW228929   5.471   3.708   1.518
 9344SOL     OW28930   5.810   0.280   4.801
 9344SOL    HW128931   5.796   0.208   4.870
 9344SOL    HW228932   5.743   0.269   4.728
 9345SOL     OW28933   6.990   4.390   6.410
 9345SOL    HW128934   6.948   4.479   6.423
 9345SOL    HW228935   6.994   4.341   6.497
 9346SOL     OW28936   4.999   0.315   2.010
 9346SOL    HW128937   5.021   0.224   2.042
 9346SOL    HW228938   4.910   0.342   2.045
 9347SOL     OW28939   4.825   6.850   1.918
 9347SOL    HW128940   4.730   6.851   1.950
 9347SOL    HW228941   4.852   6.942   1.890
 9348SOL     OW28942   2.077   5.455   1.933
 9348SOL    HW128943   2.082   5.541   1.883
 9348SOL    HW228944   2.126   5.384   1.881
 9349SOL     OW28945   6.190   5.469   1.336
 9349SOL    HW128946   6.282   5.470   1.375
 9349SOL    HW228947   6.184   5.538   1.264
 9350SOL     OW28948   6.518   0.392   6.797
 9350SOL    HW128949   6.420   0.410   6.789
 9350SOL    HW228950   6.537   0.344   6.883
 9351SOL     OW28951   4.980   3.914   6.189
 9351SOL    HW128952   4.939   3.967   6.264
 9351SOL    HW228953   4.910   3.856   6.147
 9352SOL     OW28954   2.594   2.117   0.258
 9352SOL    HW128955   2.581   2.156   0.349
 9352SOL    HW228956   2.506   2.110   0.211
 9353SOL     OW28957   0.949   3.133   2.097
 9353SOL    HW128958   0.961   3.189   2.014
 9353SOL    HW228959   1.006   3.052   2.090
 9354SOL     OW28960   5.550   2.236   2.531
 9354SOL    HW128961   5.502   2.294   2.465
 9354SOL    HW228962   5.645   2.223   2.500
 9355SOL     OW28963   6.779   1.525   2.376
 9355SOL    HW128964   6.693   1.548   2.421
 9355SOL    HW228965   6.801   1.429   2.393
 9356SOL     OW28966   4.672   2.444   2.333
 9356SOL    HW128967   4.697   2.526   2.282
 9356SOL    HW228968   4.644   2.470   2.426
 9357SOL     OW28969   2.705   4.872   6.497
 9357SOL    HW128970   2.788   4.828   6.531
 9357SOL    HW228971   2.637   4.803   6.473
 9358SOL     OW28972   5.131   3.915   2.130
 9358SOL    HW128973   5.123   3.879   2.037
 9358SOL    HW228974   5.041   3.912   2.175
 9359SOL     OW28975   4.697   5.370   6.211
 9359SOL    HW128976   4.630   5.303   6.245
 9359SOL    HW228977   4.694   5.451   6.269
 9360SOL     OW28978   1.296   1.215   5.113
 9360SOL    HW128979   1.331   1.156   5.041
 9360SOL    HW228980   1.197   1.207   5.118
 9361SOL     OW28981   1.819   1.175   2.395
 9361SOL    HW128982   1.779   1.219   2.314
 9361SOL    HW228983   1.904   1.221   2.420
 9362SOL     OW28984   1.730   1.234   2.986
 9362SOL    HW128985   1.722   1.331   2.964
 9362SOL    HW228986   1.703   1.179   2.906
 9363SOL     OW28987   1.310   6.346   1.852
 9363SOL    HW128988   1.246   6.345   1.929
 9363SOL    HW228989   1.288   6.424   1.792
 9364SOL     OW28990   5.293   4.310   1.020
 9364SOL    HW128991   5.240   4.283   1.100
 9364SOL    HW228992   5.367   4.371   1.047
 9365SOL     OW28993   2.003   1.352   3.631
 9365SOL    HW128994   2.060   1.270   3.626
 9365SOL    HW228995   2.042   1.424   3.574
 9366SOL     OW28996   2.931   1.656   2.097
 9366SOL    HW128997   2.869   1.676   2.173
 9366SOL    HW228998   2.884   1.670   2.010
 9367SOL     OW28999   5.710   6.740   3.655
 9367SOL    HW129000   5.736   6.836   3.661
 9367SOL    HW229001   5.612   6.731   3.672
 9368SOL     OW29002   5.165   2.943   0.579
 9368SOL    HW129003   5.157   2.850   0.542
 9368SOL    HW229004   5.109   2.952   0.661
 9369SOL     OW29005   0.275   1.620   5.252
 9369SOL    HW129006   0.345   1.645   5.186
 9369SOL    HW229007   0.240   1.528   5.230
 9370SOL     OW29008   5.285   5.904   2.548
 9370SOL    HW129009   5.189   5.877   2.554
 9370SOL    HW229010   5.315   5.900   2.453
 9371SOL     OW29011   1.759   6.756   0.644
 9371SOL    HW129012   1.767   6.764   0.744
 9371SOL    HW229013   1.662   6.754   0.619
 9372SOL     OW29014   5.503   5.513   0.183
 9372SOL    HW129015   5.600   5.522   0.158
 9372SOL    HW229016   5.451   5.479   0.105
 9373SOL     OW29017   5.216   2.833   4.105
 9373SOL    HW129018   5.207   2.739   4.074
 9373SOL    HW229019   5.124   2.871   4.120
 9374SOL     OW29020   4.998   4.208   6.692
 9374SOL    HW129021   5.059   4.194   6.615
 9374SOL    HW229022   5.037   4.168   6.774
 9375SOL     OW29023   6.442   0.634   4.547
 9375SOL    HW129024   6.480   0.707   4.604
 9375SOL    HW229025   6.397   0.674   4.467
 9376SOL     OW29026   2.365   3.198   1.708
 9376SOL    HW129027   2.447   3.161   1.665
 9376SOL    HW229028   2.387   3.287   1.749
 9377SOL     OW29029   6.260   4.778   3.639
 9377SOL    HW129030   6.164   4.749   3.650
 9377SOL    HW229031   6.262   4.864   3.589
 9378SOL     OW29032   3.982   6.228   0.872
 9378SOL    HW129033   3.955   6.138   0.906
 9378SOL    HW229034   3.943   6.298   0.932
 9379SOL     OW29035   5.303   5.327   5.418
 9379SOL    HW129036   5.256   5.262   5.478
 9379SOL    HW229037   5.321   5.283   5.330
 9380SOL     OW29038   6.218   5.728   5.826
 9380SOL    HW129039   6.120   5.748   5.821
 9380SOL    HW229040   6.239   5.652   5.764
 9381SOL     OW29041   1.287   0.512   6.959
 9381SOL    HW129042   1.361   0.542   7.019
 9381SOL    HW229043   1.285   0.570   6.878
 9382SOL     OW29044   5.488   1.556   3.049
 9382SOL    HW129045   5.490   1.491   2.973
 9382SOL    HW229046   5.420   1.627   3.031
 9383SOL     OW29047   6.597   5.010   6.315
 9383SOL    HW129048   6.628   5.099   6.347
 9383SOL    HW229049   6.510   5.020   6.267
 9384SOL     OW29050   4.019   6.756   3.144
 9384SOL    HW129051   4.018   6.771   3.045
 9384SOL    HW229052   4.038   6.660   3.163
 9385SOL     OW29053   3.845   0.643   4.032
 9385SOL    HW129054   3.939   0.676   4.029
 9385SOL    HW229055   3.838   0.555   3.986
 9386SOL     OW29056   4.081   0.158   5.275
 9386SOL    HW129057   4.104   0.108   5.191
 9386SOL    HW229058   4.155   0.148   5.341
 9387SOL     OW29059   4.843   5.671   0.577
 9387SOL    HW129060   4.789   5.645   0.497
 9387SOL    HW229061   4.940   5.662   0.556
 9388SOL     OW29062   6.626   0.274   1.899
 9388SOL    HW129063   6.719   0.308   1.913
 9388SOL    HW229064   6.622   0.224   1.813
 9389SOL     OW29065   2.941   0.906   0.679
 9389SOL    HW129066   3.025   0.883   0.630
 9389SOL    HW229067   2.863   0.866   0.633
 9390SOL     OW29068   3.597   5.101   1.196
 9390SOL    HW129069   3.553   5.131   1.280
 9390SOL    HW229070   3.617   5.003   1.202
 9391SOL     OW29071   6.235   1.342   4.150
 9391SOL    HW129072   6.194   1.272   4.092
 9391SOL    HW229073   6.235   1.430   4.103
 9392SOL     OW29074   0.974   6.419   4.419
 9392SOL    HW129075   1.039   6.457   4.485
 9392SOL    HW229076   0.940   6.331   4.453
 9393SOL     OW29077   3.951   1.782   5.571
 9393SOL    HW129078   3.911   1.706   5.623
 9393SOL    HW229079   3.886   1.812   5.501
 9394SOL     OW29080   6.291   1.995   1.897
 9394SOL    HW129081   6.239   2.081   1.898
 9394SOL    HW229082   6.287   1.953   1.988
 9395SOL     OW29083   2.070   2.975   6.488
 9395SOL    HW129084   1.974   2.955   6.510
 9395SOL    HW229085   2.081   2.979   6.389
 9396SOL     OW29086   0.180   1.034   6.342
 9396SOL    HW129087   0.242   1.108   6.318
 9396SOL    HW229088   0.184   0.963   6.272
 9397SOL     OW29089   2.036   2.028   0.398
 9397SOL    HW129090   2.121   2.042   0.449
 9397SOL    HW229091   1.999   1.937   0.419
 9398SOL     OW29092   2.242   1.721   1.705
 9398SOL    HW129093   2.301   1.643   1.685
 9398SOL    HW229094   2.195   1.707   1.792
 9399SOL     OW29095   0.273   0.425   5.979
 9399SOL    HW129096   0.242   0.387   6.066
 9399SOL    HW229097   0.355   0.480   5.994
 9400SOL     OW29098   3.691   1.765   3.550
 9400SOL    HW129099   3.594   1.748   3.564
 9400SOL    HW229100   3.743   1.683   3.577
 9401SOL     OW29101   4.626   6.736   3.886
 9401SOL    HW129102   4.677   6.818   3.860
 9401SOL    HW229103   4.687   6.674   3.936
 9402SOL     OW29104   2.748   5.496   6.466
 9402SOL    HW129105   2.775   5.581   6.510
 9402SOL    HW229106   2.821   5.464   6.406
 9403SOL     OW29107   5.691   0.071   4.400
 9403SOL    HW129108   5.664   6.999   4.379
 9403SOL    HW229109   5.722   0.116   4.316
 9404SOL     OW29110   1.429   3.939   5.874
 9404SOL    HW129111   1.414   4.029   5.833
 9404SOL    HW229112   1.521   3.908   5.851
 9405SOL     OW29113   0.788   0.604   1.373
 9405SOL    HW129114   0.689   0.613   1.366
 9405SOL    HW229115   0.810   0.530   1.438
 9406SOL     OW29116   6.757   1.087   5.369
 9406SOL    HW129117   6.724   1.022   5.301
 9406SOL    HW229118   6.679   1.122   5.422
 9407SOL     OW29119   3.707   5.559   2.902
 9407SOL    HW129120   3.772   5.519   2.837
 9407SOL    HW229121   3.696   5.498   2.980
 9408SOL     OW29122   3.820   1.900   6.786
 9408SOL    HW129123   3.797   1.979   6.842
 9408SOL    HW229124   3.866   1.931   6.703
 9409SOL     OW29125   6.070   3.823   3.500
 9409SOL    HW129126   6.002   3.757   3.468
 9409SOL    HW229127   6.087   3.891   3.428
 9410SOL     OW29128   4.420   6.806   1.533
 9410SOL    HW129129   4.338   6.754   1.553
 9410SOL    HW229130   4.484   6.749   1.481
 9411SOL     OW29131   4.800   5.630   1.900
 9411SOL    HW129132   4.785   5.588   1.990
 9411SOL    HW229133   4.712   5.654   1.859
 9412SOL     OW29134   6.327   2.689   3.233
 9412SOL    HW129135   6.335   2.715   3.137
 9412SOL    HW229136   6.376   2.755   3.290
 9413SOL     OW29137   3.812   5.160   3.307
 9413SOL    HW129138   3.810   5.245   3.254
 9413SOL    HW229139   3.732   5.105   3.284
 9414SOL     OW29140   2.294   0.142   2.409
 9414SOL    HW129141   2.262   0.054   2.373
 9414SOL    HW229142   2.344   0.127   2.494
 9415SOL     OW29143   1.713   0.927   2.453
 9415SOL    HW129144   1.784   0.881   2.505
 9415SOL    HW229145   1.744   1.020   2.430
 9416SOL     OW29146   1.582   2.781   1.858
 9416SOL    HW129147   1.592   2.697   1.911
 9416SOL    HW229148   1.574   2.860   1.919
 9417SOL     OW29149   1.456   0.204   4.741
 9417SOL    HW129150   1.478   0.179   4.835
 9417SOL    HW229151   1.487   0.297   4.723
 9418SOL     OW29152   4.596   3.991   1.050
 9418SOL    HW129153   4.623   3.895   1.042
 9418SOL    HW229154   4.540   4.003   1.132
 9419SOL     OW29155   2.776   5.282   3.901
 9419SOL    HW129156   2.805   5.187   3.907
 9419SOL    HW229157   2.712   5.293   3.825
 9420SOL     OW29158   1.832   0.176   4.118
 9420SOL    HW129159   1.786   0.235   4.051
 9420SOL    HW229160   1.863   0.232   4.195
 9421SOL     OW29161   1.776   5.148   4.776
 9421SOL    HW129162   1.777   5.050   4.757
 9421SOL    HW229163   1.868   5.185   4.763
 9422SOL     OW29164   4.211   1.153   3.105
 9422SOL    HW129165   4.237   1.062   3.137
 9422SOL    HW229166   4.242   1.222   3.171
 9423SOL     OW29167   4.328   0.368   4.754
 9423SOL    HW129168   4.296   0.445   4.811
 9423SOL    HW229169   4.401   0.320   4.802
 9424SOL     OW29170   3.662   6.026   3.726
 9424SOL    HW129171   3.673   5.934   3.688
 9424SOL    HW229172   3.588   6.026   3.793
 9425SOL     OW29173   0.648   5.375   2.982
 9425SOL    HW129174   0.635   5.416   3.073
 9425SOL    HW229175   0.695   5.441   2.923
 9426SOL     OW29176   3.769   5.738   0.660
 9426SOL    HW129177   3.790   5.800   0.585
 9426SOL    HW229178   3.720   5.788   0.732
 9427SOL     OW29179   3.261   4.883   4.144
 9427SOL    HW129180   3.167   4.895   4.114
 9427SOL    HW229181   3.291   4.790   4.121
 9428SOL     OW29182   4.922   6.309   2.489
 9428SOL    HW129183   4.839   6.274   2.532
 9428SOL    HW229184   4.900   6.391   2.436
 9429SOL     OW29185   0.744   3.696   2.876
 9429SOL    HW129186   0.782   3.604   2.885
 9429SOL    HW229187   0.706   3.707   2.784
 9430SOL     OW29188   6.009   0.058   1.552
 9430SOL    HW129189   5.980   0.145   1.513
 9430SOL    HW229190   5.931   0.017   1.600
 9431SOL     OW29191   6.590   4.266   6.997
 9431SOL    HW129192   6.644   4.346   0.003
 9431SOL    HW229193   6.494   4.292   6.986
 9432SOL     OW29194   6.606   6.917   4.403
 9432SOL    HW129195   6.565   6.913   4.494
 9432SOL    HW229196   6.536   6.942   4.336
 9433SOL     OW29197   2.416   5.657   3.999
 9433SOL    HW129198   2.381   5.663   3.906
 9433SOL    HW229199   2.448   5.564   4.016
 9434SOL     OW29200   5.554   4.402   3.469
 9434SOL    HW129201   5.457   4.379   3.462
 9434SOL    HW229202   5.607   4.339   3.412
 9435SOL     OW29203   2.327   2.190   5.104
 9435SOL    HW129204   2.418   2.192   5.063
 9435SOL    HW229205   2.285   2.281   5.096
 9436SOL     OW29206   3.163   1.645   5.512
 9436SOL    HW129207   3.153   1.733   5.466
 9436SOL    HW229208   3.250   1.643   5.560
 9437SOL     OW29209   0.167   5.866   4.532
 9437SOL    HW129210   0.071   5.864   4.559
 9437SOL    HW229211   0.208   5.777   4.551
 9438SOL     OW29212   0.687   6.531   2.154
 9438SOL    HW129213   0.741   6.514   2.072
 9438SOL    HW229214   0.747   6.531   2.234
 9439SOL     OW29215   1.546   3.698   0.779
 9439SOL    HW129216   1.529   3.797   0.783
 9439SOL    HW229217   1.569   3.665   0.871
 9440SOL     OW29218   3.501   5.364   4.401
 9440SOL    HW129219   3.470   5.350   4.496
 9440SOL    HW229220   3.518   5.462   4.386
 9441SOL     OW29221   1.654   5.793   5.242
 9441SOL    HW129222   1.615   5.701   5.234
 9441SOL    HW229223   1.613   5.853   5.173
 9442SOL     OW29224   0.992   3.472   1.014
 9442SOL    HW129225   1.044   3.392   0.984
 9442SOL    HW229226   0.993   3.477   1.114
 9443SOL     OW29227   1.374   2.850   1.526
 9443SOL    HW129228   1.289   2.886   1.565
 9443SOL    HW229229   1.408   2.913   1.456
 9444SOL     OW29230   1.343   4.509   5.788
 9444SOL    HW129231   1.400   4.453   5.729
 9444SOL    HW229232   1.369   4.496   5.883
 9445SOL     OW29233   6.299   2.857   1.517
 9445SOL    HW129234   6.222   2.832   1.575
 9445SOL    HW229235   6.266   2.912   1.440
 9446SOL     OW29236   5.529   4.111   7.020
 9446SOL    HW129237   5.575   4.092   0.085
 9446SOL    HW229238   5.433   4.134   0.015
 9447SOL     OW29239   5.934   1.595   1.979
 9447SOL    HW129240   5.843   1.560   2.003
 9447SOL    HW229241   5.938   1.693   1.996
 9448SOL     OW29242   6.361   5.908   0.260
 9448SOL    HW129243   6.433   5.858   0.212
 9448SOL    HW229244   6.287   5.845   0.284
 9449SOL     OW29245   5.817   5.330   5.416
 9449SOL    HW129246   5.804   5.270   5.495
 9449SOL    HW229247   5.910   5.367   5.416
 9450SOL     OW29248   2.470   6.297   4.077
 9450SOL    HW129249   2.401   6.229   4.101
 9450SOL    HW229250   2.445   6.342   3.991
 9451SOL     OW29251   4.063   3.541   5.685
 9451SOL    HW129252   4.143   3.498   5.727
 9451SOL    HW229253   4.031   3.485   5.609
 9452SOL     OW29254   3.189   3.785   0.668
 9452SOL    HW129255   3.174   3.854   0.739
 9452SOL    HW229256   3.287   3.768   0.658
 9453SOL     OW29257   3.212   5.644   1.310
 9453SOL    HW129258   3.156   5.609   1.385
 9453SOL    HW229259   3.201   5.586   1.230
 9454SOL     OW29260   2.093   2.235   5.844
 9454SOL    HW129261   2.160   2.249   5.771
 9454SOL    HW229262   2.060   2.140   5.841
 9455SOL     OW29263   1.967   2.101   2.758
 9455SOL    HW129264   2.023   2.181   2.737
 9455SOL    HW229265   2.027   2.027   2.790
 9456SOL     OW29266   1.242   3.078   0.511
 9456SOL    HW129267   1.190   3.013   0.456
 9456SOL    HW229268   1.183   3.119   0.580
 9457SOL     OW29269   6.581   3.440   0.026
 9457SOL    HW129270   6.485   3.414   0.017
 9457SOL    HW229271   6.621   3.456   6.958
 9458SOL     OW29272   1.140   6.215   4.314
 9458SOL    HW129273   1.111   6.141   4.254
 9458SOL    HW229274   1.071   6.288   4.313
 9459SOL     OW29275   4.759   5.975   1.331
 9459SOL    HW129276   4.670   5.930   1.324
 9459SOL    HW229277   4.828   5.908   1.358
 9460SOL     OW29278   1.144   3.455   5.784
 9460SOL    HW129279   1.186   3.481   5.870
 9460SOL    HW229280   1.186   3.371   5.750
 9461SOL     OW29281   1.761   0.135   3.098
 9461SOL    HW129282   1.857   0.157   3.118
 9461SOL    HW229283   1.703   0.210   3.130
 9462SOL     OW29284   0.410   3.138   3.175
 9462SOL    HW129285   0.328   3.188   3.145
 9462SOL    HW229286   0.475   3.201   3.216
 9463SOL     OW29287   5.941   2.022   6.861
 9463SOL    HW129288   5.974   1.937   6.820
 9463SOL    HW229289   5.955   2.097   6.796
 9464SOL     OW29290   4.285   6.590   5.646
 9464SOL    HW129291   4.198   6.575   5.598
 9464SOL    HW229292   4.336   6.504   5.652
 9465SOL     OW29293   5.236   6.436   4.243
 9465SOL    HW129294   5.165   6.421   4.312
 9465SOL    HW229295   5.325   6.442   4.288
 9466SOL     OW29296   3.660   1.726   0.070
 9466SOL    HW129297   3.755   1.751   0.090
 9466SOL    HW229298   3.640   1.636   0.107
 9467SOL     OW29299   1.667   3.221   2.259
 9467SOL    HW129300   1.763   3.196   2.246
 9467SOL    HW229301   1.630   3.171   2.337
 9468SOL     OW29302   0.679   2.221   6.037
 9468SOL    HW129303   0.736   2.139   6.036
 9468SOL    HW229304   0.583   2.195   6.023
 9469SOL     OW29305   6.845   4.209   2.839
 9469SOL    HW129306   6.873   4.121   2.801
 9469SOL    HW229307   6.816   4.196   2.934
 9470SOL     OW29308   6.691   3.837   1.391
 9470SOL    HW129309   6.784   3.865   1.367
 9470SOL    HW229310   6.636   3.919   1.410
 9471SOL     OW29311   0.355   2.315   6.253
 9471SOL    HW129312   0.307   2.369   6.183
 9471SOL    HW229313   0.339   2.355   6.343
 9472SOL     OW29314   6.784   2.091   5.218
 9472SOL    HW129315   6.738   2.036   5.149
 9472SOL    HW229316   6.809   2.033   5.296
 9473SOL     OW29317   2.931   5.776   5.210
 9473SOL    HW129318   2.982   5.738   5.133
 9473SOL    HW229319   2.859   5.836   5.174
 9474SOL     OW29320   3.312   5.313   3.639
 9474SOL    HW129321   3.343   5.399   3.678
 9474SOL    HW229322   3.263   5.260   3.708
 9475SOL     OW29323   1.876   3.355   1.642
 9475SOL    HW129324   1.943   3.346   1.715
 9475SOL    HW229325   1.923   3.354   1.553
 9476SOL     OW29326   2.669   3.666   5.443
 9476SOL    HW129327   2.627   3.730   5.379
 9476SOL    HW229328   2.742   3.616   5.396
 9477SOL     OW29329   0.758   2.417   0.521
 9477SOL    HW129330   0.661   2.434   0.505
 9477SOL    HW229331   0.788   2.463   0.605
 9478SOL     OW29332   5.506   4.062   5.759
 9478SOL    HW129333   5.488   4.134   5.826
 9478SOL    HW229334   5.548   4.102   5.678
 9479SOL     OW29335   5.708   5.403   4.924
 9479SOL    HW129336   5.717   5.424   5.021
 9479SOL    HW229337   5.799   5.390   4.884
 9480SOL     OW29338   6.141   4.026   6.425
 9480SOL    HW129339   6.078   4.098   6.396
 9480SOL    HW229340   6.231   4.066   6.443
 9481SOL     OW29341   6.721   2.797   2.793
 9481SOL    HW129342   6.657   2.728   2.824
 9481SOL    HW229343   6.681   2.848   2.716
 9482SOL     OW29344   4.423   0.264   2.381
 9482SOL    HW129345   4.352   0.194   2.375
 9482SOL    HW229346   4.479   0.248   2.463
 9483SOL     OW29347   1.388   1.519   1.055
 9483SOL    HW129348   1.304   1.570   1.032
 9483SOL    HW229349   1.467   1.578   1.043
 9484SOL     OW29350   5.963   0.363   3.328
 9484SOL    HW129351   5.924   0.440   3.378
 9484SOL    HW229352   6.022   0.310   3.389
 9485SOL     OW29353   1.053   6.890   2.194
 9485SOL    HW129354   1.026   6.984   2.213
 9485SOL    HW229355   0.993   6.828   2.245
 9486SOL     OW29356   2.477   6.673   1.957
 9486SOL    HW129357   2.410   6.741   1.985
 9486SOL    HW229358   2.550   6.667   2.026
 9487SOL     OW29359   3.220   3.512   4.098
 9487SOL    HW129360   3.216   3.482   4.194
 9487SOL    HW229361   3.139   3.479   4.050
 9488SOL     OW29362   1.344   1.348   1.773
 9488SOL    HW129363   1.304   1.282   1.836
 9488SOL    HW229364   1.408   1.407   1.822
 9489SOL     OW29365   2.714   4.244   0.686
 9489SOL    HW129366   2.789   4.266   0.749
 9489SOL    HW229367   2.732   4.156   0.642
 9490SOL     OW29368   5.030   1.425   6.931
 9490SOL    HW129369   4.937   1.452   6.906
 9490SOL    HW229370   5.047   1.331   6.901
 9491SOL     OW29371   6.326   5.361   6.061
 9491SOL    HW129372   6.252   5.317   6.011
 9491SOL    HW229373   6.413   5.343   6.016
 9492SOL     OW29374   2.363   4.563   1.567
 9492SOL    HW129375   2.453   4.581   1.527
 9492SOL    HW229376   2.370   4.485   1.630
 9493SOL     OW29377   5.529   6.424   2.589
 9493SOL    HW129378   5.619   6.406   2.628
 9493SOL    HW229379   5.484   6.338   2.568
 9494SOL     OW29380   3.481   3.205   6.094
 9494SOL    HW129381   3.420   3.233   6.020
 9494SOL    HW229382   3.449   3.118   6.133
 9495SOL     OW29383   5.342   2.500   4.242
 9495SOL    HW129384   5.406   2.508   4.319
 9495SOL    HW229385   5.334   2.588   4.196
 9496SOL     OW29386   6.348   4.133   0.400
 9496SOL    HW129387   6.257   4.169   0.419
 9496SOL    HW229388   6.343   4.068   0.324
 9497SOL     OW29389   1.005   5.827   5.881
 9497SOL    HW129390   1.004   5.804   5.784
 9497SOL    HW229391   0.919   5.872   5.905
 9498SOL     OW29392   4.028   0.077   6.766
 9498SOL    HW129393   4.116   0.049   6.726
 9498SOL    HW229394   4.016   0.175   6.752
 9499SOL     OW29395   4.464   3.943   5.685
 9499SOL    HW129396   4.540   3.999   5.719
 9499SOL    HW229397   4.378   3.992   5.696
 9500SOL     OW29398   5.196   5.479   1.521
 9500SOL    HW129399   5.130   5.522   1.582
 9500SOL    HW229400   5.214   5.385   1.552
 9501SOL     OW29401   3.231   2.054   4.936
 9501SOL    HW129402   3.168   1.980   4.960
 9501SOL    HW229403   3.209   2.135   4.990
 9502SOL     OW29404   3.445   3.373   5.541
 9502SOL    HW129405   3.518   3.319   5.583
 9502SOL    HW229406   3.428   3.340   5.448
 9503SOL     OW29407   1.294   6.574   1.696
 9503SOL    HW129408   1.334   6.601   1.608
 9503SOL    HW229409   1.330   6.633   1.768
 9504SOL     OW29410   0.670   3.221   0.217
 9504SOL    HW129411   0.641   3.126   0.225
 9504SOL    HW229412   0.757   3.234   0.265
 9505SOL     OW29413   5.129   3.022   2.944
 9505SOL    HW129414   5.156   2.954   2.875
 9505SOL    HW229415   5.094   3.104   2.898
 9506SOL     OW29416   0.130   1.863   1.122
 9506SOL    HW129417   0.102   1.767   1.131
 9506SOL    HW229418   0.051   1.922   1.137
 9507SOL     OW29419   1.415   2.174   4.757
 9507SOL    HW129420   1.316   2.178   4.772
 9507SOL    HW229421   1.460   2.245   4.811
 9508SOL     OW29422   4.758   1.372   6.379
 9508SOL    HW129423   4.798   1.452   6.423
 9508SOL    HW229424   4.778   1.291   6.433
 9509SOL     OW29425   3.123   0.145   6.254
 9509SOL    HW129426   3.087   0.157   6.161
 9509SOL    HW229427   3.221   0.165   6.255
 9510SOL     OW29428   6.531   4.232   2.925
 9510SOL    HW129429   6.439   4.201   2.949
 9510SOL    HW229430   6.563   4.182   2.844
 9511SOL     OW29431   2.384   1.125   1.302
 9511SOL    HW129432   2.372   1.067   1.382
 9511SOL    HW229433   2.459   1.189   1.317
 9512SOL     OW29434   1.053   3.611   5.315
 9512SOL    HW129435   1.051   3.652   5.223
 9512SOL    HW229436   0.960   3.596   5.347
 9513SOL     OW29437   2.364   4.340   4.526
 9513SOL    HW129438   2.383   4.293   4.440
 9513SOL    HW229439   2.326   4.274   4.592
 9514SOL     OW29440   3.037   3.080   6.417
 9514SOL    HW129441   3.093   3.020   6.360
 9514SOL    HW229442   3.052   3.175   6.390
 9515SOL     OW29443   2.057   5.261   5.814
 9515SOL    HW129444   1.993   5.325   5.772
 9515SOL    HW229445   2.061   5.177   5.759
 9516SOL     OW29446   5.271   4.317   5.183
 9516SOL    HW129447   5.299   4.393   5.125
 9516SOL    HW229448   5.241   4.241   5.126
 9517SOL     OW29449   1.012   5.353   2.358
 9517SOL    HW129450   0.945   5.427   2.360
 9517SOL    HW229451   1.061   5.355   2.270
 9518SOL     OW29452   0.640   3.075   5.574
 9518SOL    HW129453   0.728   3.054   5.532
 9518SOL    HW229454   0.642   3.046   5.670
 9519SOL     OW29455   3.172   3.042   3.079
 9519SOL    HW129456   3.265   3.010   3.101
 9519SOL    HW229457   3.159   3.135   3.113
 9520SOL     OW29458   5.622   0.971   6.660
 9520SOL    HW129459   5.652   0.991   6.566
 9520SOL    HW229460   5.525   0.995   6.669
 9521SOL     OW29461   3.751   1.198   1.418
 9521SOL    HW129462   3.788   1.195   1.325
 9521SOL    HW229463   3.664   1.248   1.417
 9522SOL     OW29464   3.678   6.581   1.420
 9522SOL    HW129465   3.728   6.495   1.407
 9522SOL    HW229466   3.742   6.654   1.444
 9523SOL     OW29467   2.638   5.116   4.213
 9523SOL    HW129468   2.568   5.187   4.217
 9523SOL    HW229469   2.656   5.081   4.305
 9524SOL     OW29470   2.092   4.342   0.323
 9524SOL    HW129471   2.057   4.248   0.331
 9524SOL    HW229472   2.059   4.382   0.238
 9525SOL     OW29473   2.115   3.476   6.361
 9525SOL    HW129474   2.116   3.380   6.388
 9525SOL    HW229475   2.160   3.487   6.273
 9526SOL     OW29476   5.585   5.537   6.703
 9526SOL    HW129477   5.653   5.464   6.709
 9526SOL    HW229478   5.605   5.594   6.624
 9527SOL     OW29479   4.032   6.836   4.642
 9527SOL    HW129480   4.127   6.806   4.650
 9527SOL    HW229481   4.026   6.934   4.659
 9528SOL     OW29482   4.939   2.652   0.685
 9528SOL    HW129483   5.038   2.651   0.672
 9528SOL    HW229484   4.894   2.655   0.596
 9529SOL     OW29485   5.385   1.135   1.868
 9529SOL    HW129486   5.425   1.045   1.853
 9529SOL    HW229487   5.300   1.142   1.816
 9530SOL     OW29488   1.275   6.005   3.397
 9530SOL    HW129489   1.226   5.919   3.381
 9530SOL    HW229490   1.215   6.069   3.445
 9531SOL     OW29491   3.316   5.228   2.079
 9531SOL    HW129492   3.288   5.318   2.046
 9531SOL    HW229493   3.384   5.189   2.017
 9532SOL     OW29494   6.858   4.938   3.778
 9532SOL    HW129495   6.905   4.851   3.758
 9532SOL    HW229496   6.919   5.014   3.757
 9533SOL     OW29497   1.412   3.839   3.238
 9533SOL    HW129498   1.482   3.822   3.307
 9533SOL    HW229499   1.322   3.818   3.276
 9534SOL     OW29500   4.451   5.697   4.290
 9534SOL    HW129501   4.428   5.744   4.205
 9534SOL    HW229502   4.548   5.711   4.311
 9535SOL     OW29503   6.947   1.333   4.667
 9535SOL    HW129504   0.023   1.321   4.656
 9535SOL    HW229505   6.924   1.338   4.764
 9536SOL     OW29506   3.456   4.047   5.569
 9536SOL    HW129507   3.515   3.967   5.567
 9536SOL    HW229508   3.383   4.033   5.636
 9537SOL     OW29509   6.754   1.046   3.872
 9537SOL    HW129510   6.725   1.134   3.910
 9537SOL    HW229511   6.853   1.046   3.860
 9538SOL     OW29512   5.396   0.371   4.577
 9538SOL    HW129513   5.357   0.285   4.545
 9538SOL    HW229514   5.360   0.446   4.521
 9539SOL     OW29515   3.802   4.067   3.059
 9539SOL    HW129516   3.789   4.045   3.156
 9539SOL    HW229517   3.889   4.031   3.028
 9540SOL     OW29518   4.123   4.743   3.467
 9540SOL    HW129519   4.143   4.753   3.369
 9540SOL    HW229520   4.031   4.777   3.486
 9541SOL     OW29521   1.615   5.935   5.494
 9541SOL    HW129522   1.587   5.865   5.427
 9541SOL    HW229523   1.614   6.025   5.451
 9542SOL     OW29524   6.252   4.219   3.118
 9542SOL    HW129525   6.236   4.306   3.071
 9542SOL    HW229526   6.209   4.145   3.066
 9543SOL     OW29527   2.457   0.664   6.017
 9543SOL    HW129528   2.416   0.695   5.931
 9543SOL    HW229529   2.503   0.740   6.061
 9544SOL     OW29530   6.328   3.654   4.580
 9544SOL    HW129531   6.229   3.652   4.594
 9544SOL    HW229532   6.354   3.581   4.516
 9545SOL     OW29533   6.655   4.492   2.266
 9545SOL    HW129534   6.562   4.457   2.259
 9545SOL    HW229535   6.675   4.548   2.186
 9546SOL     OW29536   2.838   2.675   1.311
 9546SOL    HW129537   2.785   2.599   1.347
 9546SOL    HW229538   2.932   2.669   1.345
 9547SOL     OW29539   4.728   0.227   3.649
 9547SOL    HW129540   4.716   0.326   3.643
 9547SOL    HW229541   4.659   0.189   3.711
 9548SOL     OW29542   0.832   5.072   6.160
 9548SOL    HW129543   0.816   5.109   6.252
 9548SOL    HW229544   0.891   5.134   6.109
 9549SOL     OW29545   3.964   1.575   1.507
 9549SOL    HW129546   4.047   1.619   1.541
 9549SOL    HW229547   3.989   1.506   1.438
 9550SOL     OW29548   5.914   2.969   1.802
 9550SOL    HW129549   5.932   3.017   1.888
 9550SOL    HW229550   5.970   2.886   1.798
 9551SOL     OW29551   5.900   2.930   6.240
 9551SOL    HW129552   5.980   2.986   6.260
 9551SOL    HW229553   5.921   2.868   6.164
 9552SOL     OW29554   3.116   1.842   0.588
 9552SOL    HW129555   3.138   1.937   0.613
 9552SOL    HW229556   3.031   1.815   0.635
 9553SOL     OW29557   5.912   1.390   7.001
 9553SOL    HW129558   5.948   1.353   0.065
 9553SOL    HW229559   5.812   1.389   7.003
 9554SOL     OW29560   2.982   0.902   4.290
 9554SOL    HW129561   2.934   0.975   4.338
 9554SOL    HW229562   2.939   0.887   4.200
 9555SOL     OW29563   0.656   6.569   3.475
 9555SOL    HW129564   0.640   6.662   3.441
 9555SOL    HW229565   0.627   6.564   3.570
 9556SOL     OW29566   2.483   4.721   6.466
 9556SOL    HW129567   2.485   4.621   6.460
 9556SOL    HW229568   2.403   4.756   6.419
 9557SOL     OW29569   5.918   0.933   0.856
 9557SOL    HW129570   5.914   0.921   0.756
 9557SOL    HW229571   5.946   0.846   0.898
 9558SOL     OW29572   5.063   6.327   6.200
 9558SOL    HW129573   5.018   6.408   6.161
 9558SOL    HW229574   5.153   6.315   6.157
 9559SOL     OW29575   2.307   5.169   7.004
 9559SOL    HW129576   2.298   5.078   0.021
 9559SOL    HW229577   2.351   5.163   6.914
 9560SOL     OW29578   2.859   0.321   2.745
 9560SOL    HW129579   2.808   0.249   2.792
 9560SOL    HW229580   2.798   0.371   2.683
 9561SOL     OW29581   0.453   0.390   0.173
 9561SOL    HW129582   0.439   0.337   0.090
 9561SOL    HW229583   0.550   0.394   0.195
 9562SOL     OW29584   2.271   5.817   3.162
 9562SOL    HW129585   2.315   5.829   3.251
 9562SOL    HW229586   2.262   5.906   3.118
 9563SOL     OW29587   1.216   5.790   6.233
 9563SOL    HW129588   1.222   5.884   6.201
 9563SOL    HW229589   1.185   5.731   6.159
 9564SOL     OW29590   1.825   1.128   0.944
 9564SOL    HW129591   1.730   1.148   0.920
 9564SOL    HW229592   1.884   1.145   0.865
 9565SOL     OW29593   2.608   1.575   4.283
 9565SOL    HW129594   2.530   1.593   4.343
 9565SOL    HW229595   2.690   1.617   4.322
 9566SOL     OW29596   2.924   0.137   0.245
 9566SOL    HW129597   2.931   0.046   0.285
 9566SOL    HW229598   3.015   0.171   0.222
 9567SOL     OW29599   6.928   3.988   1.061
 9567SOL    HW129600   7.007   4.001   1.000
 9567SOL    HW229601   6.898   4.077   1.094
 9568SOL     OW29602   4.363   1.714   6.587
 9568SOL    HW129603   4.389   1.621   6.613
 9568SOL    HW229604   4.264   1.724   6.594
 9569SOL     OW29605   5.677   0.337   2.021
 9569SOL    HW129606   5.579   0.345   2.001
 9569SOL    HW229607   5.722   0.287   1.947
 9570SOL     OW29608   0.468   3.557   1.797
 9570SOL    HW129609   0.376   3.594   1.787
 9570SOL    HW229610   0.475   3.471   1.745
 9571SOL     OW29611   1.654   1.206   0.115
 9571SOL    HW129612   1.653   1.160   0.026
 9571SOL    HW229613   1.619   1.143   0.184
 9572SOL     OW29614   2.294   4.769   4.563
 9572SOL    HW129615   2.216   4.726   4.609
 9572SOL    HW229616   2.377   4.718   4.583
 9573SOL     OW29617   6.336   0.273   4.349
 9573SOL    HW129618   6.304   0.331   4.273
 9573SOL    HW229619   6.420   0.312   4.386
 9574SOL     OW29620   4.178   3.015   0.639
 9574SOL    HW129621   4.201   2.918   0.640
 9574SOL    HW229622   4.198   3.053   0.549
 9575SOL     OW29623   5.402   0.119   1.927
 9575SOL    HW129624   5.390   0.217   1.947
 9575SOL    HW229625   5.423   0.107   1.830
 9576SOL     OW29626   0.919   0.949   6.979
 9576SOL    HW129627   0.894   1.008   0.034
 9576SOL    HW229628   0.946   1.004   6.901
 9577SOL     OW29629   6.123   5.349   2.915
 9577SOL    HW129630   6.062   5.395   2.979
 9577SOL    HW229631   6.072   5.324   2.833
 9578SOL     OW29632   1.804   3.520   2.138
 9578SOL    HW129633   1.776   3.424   2.144
 9578SOL    HW229634   1.729   3.579   2.166
 9579SOL     OW29635   5.769   5.710   2.340
 9579SOL    HW129636   5.677   5.749   2.335
 9579SOL    HW229637   5.834   5.776   2.304
 9580SOL     OW29638   4.637   4.279   3.250
 9580SOL    HW129639   4.691   4.218   3.308
 9580SOL    HW229640   4.556   4.231   3.217
 9581SOL     OW29641   5.537   2.129   6.876
 9581SOL    HW129642   5.611   2.194   6.863
 9581SOL    HW229643   5.508   2.093   6.788
 9582SOL     OW29644   5.389   6.561   4.793
 9582SOL    HW129645   5.466   6.559   4.857
 9582SOL    HW229646   5.333   6.478   4.805
 9583SOL     OW29647   3.684   4.978   1.777
 9583SOL    HW129648   3.653   4.905   1.838
 9583SOL    HW229649   3.781   4.966   1.757
 9584SOL     OW29650   2.762   5.033   3.989
 9584SOL    HW129651   2.732   5.055   4.082
 9584SOL    HW229652   2.683   5.005   3.934
 9585SOL     OW29653   4.558   6.372   0.823
 9585SOL    HW129654   4.516   6.290   0.862
 9585SOL    HW229655   4.490   6.424   0.773
 9586SOL     OW29656   3.443   5.648   2.821
 9586SOL    HW129657   3.530   5.608   2.849
 9586SOL    HW229658   3.442   5.745   2.842
 9587SOL     OW29659   3.678   5.888   1.008
 9587SOL    HW129660   3.663   5.904   0.910
 9587SOL    HW229661   3.647   5.967   1.060
 9588SOL     OW29662   6.382   5.448   6.984
 9588SOL    HW129663   6.466   5.450   6.928
 9588SOL    HW229664   6.405   5.471   0.057
 9589SOL     OW29665   1.789   2.440   6.339
 9589SOL    HW129666   1.846   2.496   6.398
 9589SOL    HW229667   1.697   2.433   6.379
 9590SOL     OW29668   6.489   0.359   0.832
 9590SOL    HW129669   6.556   0.304   0.883
 9590SOL    HW229670   6.438   0.301   0.770
 9591SOL     OW29671   5.195   0.997   0.688
 9591SOL    HW129672   5.123   0.959   0.630
 9591SOL    HW229673   5.196   1.096   0.680
 9592SOL     OW29674   2.174   6.422   5.745
 9592SOL    HW129675   2.263   6.431   5.791
 9592SOL    HW229676   2.189   6.398   5.649
 9593SOL     OW29677   1.968   2.479   3.984
 9593SOL    HW129678   1.951   2.578   3.986
 9593SOL    HW229679   1.883   2.430   4.003
 9594SOL     OW29680   0.037   6.259   3.384
 9594SOL    HW129681   0.019   6.162   3.371
 9594SOL    HW229682   0.107   6.289   3.319
 9595SOL     OW29683   0.304   3.374   3.390
 9595SOL    HW129684   0.352   3.429   3.458
 9595SOL    HW229685   0.368   3.311   3.347
 9596SOL     OW29686   1.183   6.905   0.499
 9596SOL    HW129687   1.086   6.924   0.509
 9596SOL    HW229688   1.233   6.949   0.574
 9597SOL     OW29689   1.139   3.451   1.681
 9597SOL    HW129690   1.055   3.413   1.640
 9597SOL    HW229691   1.122   3.474   1.777
 9598SOL     OW29692   2.229   4.264   4.282
 9598SOL    HW129693   2.179   4.202   4.221
 9598SOL    HW229694   2.280   4.330   4.227
 9599SOL     OW29695   4.345   6.739   4.302
 9599SOL    HW129696   4.315   6.745   4.398
 9599SOL    HW229697   4.326   6.647   4.268
 9600SOL     OW29698   3.571   1.434   1.420
 9600SOL    HW129699   3.499   1.418   1.488
 9600SOL    HW229700   3.644   1.488   1.462
 9601SOL     OW29701   1.066   3.537   0.660
 9601SOL    HW129702   1.158   3.524   0.624
 9601SOL    HW229703   1.072   3.577   0.752
 9602SOL     OW29704   4.157   4.922   5.443
 9602SOL    HW129705   4.178   4.871   5.359
 9602SOL    HW229706   4.231   4.909   5.509
 9603SOL     OW29707   5.068   6.832   5.770
 9603SOL    HW129708   5.125   6.873   5.700
 9603SOL    HW229709   5.049   6.899   5.842
 9604SOL     OW29710   4.973   6.997   0.892
 9604SOL    HW129711   4.951   6.991   0.795
 9604SOL    HW229712   5.070   7.021   0.903
 9605SOL     OW29713   5.552   5.311   1.903
 9605SOL    HW129714   5.502   5.270   1.979
 9605SOL    HW229715   5.490   5.321   1.825
 9606SOL     OW29716   1.532   1.061   0.297
 9606SOL    HW129717   1.555   0.975   0.252
 9606SOL    HW229718   1.433   1.064   0.314
 9607SOL     OW29719   1.810   2.059   6.226
 9607SOL    HW129720   1.774   2.058   6.132
 9607SOL    HW229721   1.886   2.124   6.231
 9608SOL     OW29722   5.998   2.869   4.511
 9608SOL    HW129723   6.042   2.791   4.467
 9608SOL    HW229724   6.016   2.865   4.610
 9609SOL     OW29725   4.627   2.936   6.865
 9609SOL    HW129726   4.536   2.933   6.905
 9609SOL    HW229727   4.651   3.031   6.843
 9610SOL     OW29728   0.841   4.891   2.914
 9610SOL    HW129729   0.828   4.932   2.823
 9610SOL    HW229730   0.800   4.951   2.983
 9611SOL     OW29731   2.405   0.902   0.631
 9611SOL    HW129732   2.372   0.826   0.573
 9611SOL    HW229733   2.458   0.866   0.707
 9612SOL     OW29734   0.193   1.767   3.952
 9612SOL    HW129735   0.245   1.792   4.034
 9612SOL    HW229736   0.104   1.731   3.979
 9613SOL     OW29737   5.937   5.018   3.248
 9613SOL    HW129738   5.840   5.027   3.229
 9613SOL    HW229739   5.977   5.108   3.264
 9614SOL     OW29740   4.693   2.592   3.426
 9614SOL    HW129741   4.614   2.540   3.394
 9614SOL    HW229742   4.731   2.644   3.349
 9615SOL     OW29743   1.686   4.624   1.351
 9615SOL    HW129744   1.636   4.570   1.420
 9615SOL    HW229745   1.665   4.588   1.260
 9616SOL     OW29746   3.821   3.523   6.629
 9616SOL    HW129747   3.751   3.456   6.605
 9616SOL    HW229748   3.911   3.487   6.605
 9617SOL     OW29749   1.972   2.922   2.929
 9617SOL    HW129750   1.977   2.910   2.830
 9617SOL    HW229751   2.060   2.955   2.963
 9618SOL     OW29752   2.222   1.730   0.981
 9618SOL    HW129753   2.164   1.792   1.035
 9618SOL    HW229754   2.220   1.639   1.022
 9619SOL     OW29755   2.555   0.546   6.560
 9619SOL    HW129756   2.651   0.535   6.585
 9619SOL    HW229757   2.512   0.614   6.619
 9620SOL     OW29758   5.534   1.314   5.366
 9620SOL    HW129759   5.439   1.308   5.395
 9620SOL    HW229760   5.539   1.354   5.274
 9621SOL     OW29761   1.652   3.474   3.052
 9621SOL    HW129762   1.635   3.571   3.065
 9621SOL    HW229763   1.740   3.461   3.007
 9622SOL     OW29764   5.326   0.119   0.616
 9622SOL    HW129765   5.341   0.109   0.715
 9622SOL    HW229766   5.372   0.044   0.568
 9623SOL     OW29767   2.327   4.072   6.557
 9623SOL    HW129768   2.297   4.143   6.621
 9623SOL    HW229769   2.296   4.096   6.465
 9624SOL     OW29770   6.139   2.822   4.057
 9624SOL    HW129771   6.107   2.879   3.981
 9624SOL    HW229772   6.180   2.881   4.127
 9625SOL     OW29773   5.664   5.725   1.115
 9625SOL    HW129774   5.699   5.790   1.047
 9625SOL    HW229775   5.693   5.754   1.206
 9626SOL     OW29776   3.665   6.576   0.270
 9626SOL    HW129777   3.664   6.535   0.361
 9626SOL    HW229778   3.698   6.508   0.204
 9627SOL     OW29779   1.418   0.044   6.878
 9627SOL    HW129780   1.491   0.044   6.810
 9627SOL    HW229781   1.418   0.131   6.927
 9628SOL     OW29782   2.879   6.686   2.287
 9628SOL    HW129783   2.926   6.598   2.288
 9628SOL    HW229784   2.791   6.677   2.240
 9629SOL     OW29785   2.255   0.306   1.171
 9629SOL    HW129786   2.352   0.281   1.175
 9629SOL    HW229787   2.199   0.225   1.189
 9630SOL     OW29788   6.673   1.900   6.358
 9630SOL    HW129789   6.618   1.839   6.414
 9630SOL    HW229790   6.734   1.846   6.299
 9631SOL     OW29791   6.628   6.192   0.117
 9631SOL    HW129792   6.670   6.223   0.202
 9631SOL    HW229793   6.633   6.092   0.112
 9632SOL     OW29794   0.595   5.427   2.075
 9632SOL    HW129795   0.631   5.519   2.090
 9632SOL    HW229796   0.670   5.361   2.075
 9633SOL     OW29797   6.956   4.861   5.863
 9633SOL    HW129798   6.924   4.919   5.937
 9633SOL    HW229799   0.027   4.887   5.838
 9634SOL     OW29800   1.170   5.986   6.075
 9634SOL    HW129801   1.193   6.081   6.055
 9634SOL    HW229802   1.094   5.957   6.016
 9635SOL     OW29803   0.197   5.952   5.527
 9635SOL    HW129804   0.193   6.044   5.567
 9635SOL    HW229805   0.258   5.952   5.448
 9636SOL     OW29806   4.265   1.049   0.194
 9636SOL    HW129807   4.232   0.963   0.232
 9636SOL    HW229808   4.190   1.096   0.148
 9637SOL     OW29809   1.869   1.124   6.657
 9637SOL    HW129810   1.863   1.192   6.584
 9637SOL    HW229811   1.782   1.122   6.707
 9638SOL     OW29812   6.638   2.103   6.742
 9638SOL    HW129813   6.546   2.120   6.707
 9638SOL    HW229814   6.705   2.143   6.680
 9639SOL     OW29815   4.009   0.962   2.158
 9639SOL    HW129816   3.924   0.936   2.204
 9639SOL    HW229817   4.018   1.061   2.158
 9640SOL     OW29818   1.463   2.084   2.482
 9640SOL    HW129819   1.399   2.095   2.406
 9640SOL    HW229820   1.556   2.082   2.448
 9641SOL     OW29821   5.771   5.712   6.879
 9641SOL    HW129822   5.687   5.672   6.842
 9641SOL    HW229823   5.747   5.777   6.951
 9642SOL     OW29824   3.770   0.559   3.643
 9642SOL    HW129825   3.807   0.652   3.640
 9642SOL    HW229826   3.696   0.554   3.709
 9643SOL     OW29827   4.280   4.740   2.765
 9643SOL    HW129828   4.357   4.686   2.729
 9643SOL    HW229829   4.314   4.802   2.836
 9644SOL     OW29830   3.018   1.815   0.202
 9644SOL    HW129831   3.110   1.853   0.200
 9644SOL    HW229832   2.956   1.880   0.247
 9645SOL     OW29833   2.668   5.595   4.904
 9645SOL    HW129834   2.618   5.549   4.830
 9645SOL    HW229835   2.764   5.570   4.899
 9646SOL     OW29836   3.729   5.198   4.301
 9646SOL    HW129837   3.654   5.166   4.359
 9646SOL    HW229838   3.706   5.289   4.264
 9647SOL     OW29839   6.575   2.790   6.006
 9647SOL    HW129840   6.588   2.696   5.973
 9647SOL    HW229841   6.579   2.853   5.928
 9648SOL     OW29842   4.195   3.813   0.759
 9648SOL    HW129843   4.267   3.779   0.699
 9648SOL    HW229844   4.222   3.800   0.855
 9649SOL     OW29845   2.429   5.327   1.886
 9649SOL    HW129846   2.344   5.291   1.850
 9649SOL    HW229847   2.414   5.361   1.979
 9650SOL     OW29848   0.631   7.021   0.884
 9650SOL    HW129849   0.597   6.952   0.820
 9650SOL    HW229850   0.709   6.984   0.934
 9651SOL     OW29851   0.537   1.476   6.427
 9651SOL    HW129852   0.508   1.433   6.342
 9651SOL    HW229853   0.481   1.441   6.503
 9652SOL     OW29854   0.862   4.895   1.836
 9652SOL    HW129855   0.786   4.908   1.900
 9652SOL    HW229856   0.827   4.900   1.742
 9653SOL     OW29857   6.448   6.566   4.263
 9653SOL    HW129858   6.408   6.481   4.299
 9653SOL    HW229859   6.422   6.642   4.322
 9654SOL     OW29860   2.178   3.092   2.964
 9654SOL    HW129861   2.212   3.127   3.051
 9654SOL    HW229862   2.152   3.169   2.905
 9655SOL     OW29863   6.302   1.549   6.642
 9655SOL    HW129864   6.233   1.535   6.570
 9655SOL    HW229865   6.322   1.647   6.649
 9656SOL     OW29866   2.790   1.555   2.901
 9656SOL    HW129867   2.791   1.505   2.988
 9656SOL    HW229868   2.743   1.642   2.914
 9657SOL     OW29869   0.119   6.939   4.777
 9657SOL    HW129870   0.212   6.923   4.810
 9657SOL    HW229871   0.088   6.859   4.727
 9658SOL     OW29872   5.512   2.137   3.076
 9658SOL    HW129873   5.550   2.063   3.130
 9658SOL    HW229874   5.419   2.114   3.048
 9659SOL     OW29875   1.227   5.123   6.617
 9659SOL    HW129876   1.228   5.110   6.716
 9659SOL    HW229877   1.280   5.205   6.593
 9660SOL     OW29878   1.150   5.485   0.382
 9660SOL    HW129879   1.051   5.472   0.376
 9660SOL    HW229880   1.175   5.505   0.477
 9661SOL     OW29881   4.266   0.059   0.714
 9661SOL    HW129882   4.264   7.003   0.777
 9661SOL    HW229883   4.218   0.136   0.756
 9662SOL     OW29884   5.298   1.455   4.242
 9662SOL    HW129885   5.214   1.508   4.252
 9662SOL    HW229886   5.374   1.506   4.282
 9663SOL     OW29887   2.199   6.205   3.383
 9663SOL    HW129888   2.198   6.156   3.471
 9663SOL    HW229889   2.114   6.185   3.333
 9664SOL     OW29890   2.327   5.841   1.484
 9664SOL    HW129891   2.417   5.797   1.496
 9664SOL    HW229892   2.326   5.891   1.398
 9665SOL     OW29893   5.005   4.148   4.010
 9665SOL    HW129894   5.056   4.207   3.947
 9665SOL    HW229895   4.958   4.077   3.958
 9666SOL     OW29896   5.407   4.975   4.695
 9666SOL    HW129897   5.399   5.052   4.759
 9666SOL    HW229898   5.320   4.962   4.648
 9667SOL     OW29899   3.089   3.120   3.605
 9667SOL    HW129900   3.163   3.075   3.652
 9667SOL    HW229901   3.089   3.093   3.508
 9668SOL     OW29902   0.668   1.015   5.423
 9668SOL    HW129903   0.581   1.040   5.381
 9668SOL    HW229904   0.654   0.989   5.518
 9669SOL     OW29905   1.130   6.365   6.752
 9669SOL    HW129906   1.122   6.273   6.714
 9669SOL    HW229907   1.221   6.377   6.790
 9670SOL     OW29908   5.504   4.687   6.414
 9670SOL    HW129909   5.522   4.606   6.470
 9670SOL    HW229910   5.520   4.665   6.318
 9671SOL     OW29911   0.127   0.572   0.021
 9671SOL    HW129912   0.029   0.585   0.033
 9671SOL    HW229913   0.172   0.565   0.110
 9672SOL     OW29914   1.296   6.254   5.230
 9672SOL    HW129915   1.304   6.354   5.222
 9672SOL    HW229916   1.200   6.228   5.225
 9673SOL     OW29917   2.308   2.924   6.176
 9673SOL    HW129918   2.262   2.838   6.158
 9673SOL    HW229919   2.302   2.983   6.095
 9674SOL     OW29920   2.673   6.840   2.138
 9674SOL    HW129921   2.656   6.783   2.219
 9674SOL    HW229922   2.742   6.796   2.081
 9675SOL     OW29923   0.075   2.427   2.648
 9675SOL    HW129924   0.019   2.374   2.584
 9675SOL    HW229925   0.121   2.500   2.599
 9676SOL     OW29926   0.353   2.456   4.630
 9676SOL    HW129927   0.259   2.482   4.609
 9676SOL    HW229928   0.413   2.534   4.617
 9677SOL     OW29929   1.504   3.290   5.543
 9677SOL    HW129930   1.486   3.334   5.455
 9677SOL    HW229931   1.573   3.343   5.593
 9678SOL     OW29932   3.200   3.312   3.241
 9678SOL    HW129933   3.289   3.317   3.286
 9678SOL    HW229934   3.152   3.399   3.253
 9679SOL     OW29935   0.632   3.719   1.154
 9679SOL    HW129936   0.708   3.784   1.155
 9679SOL    HW229937   0.554   3.758   1.203
 9680SOL     OW29938   4.835   5.215   3.009
 9680SOL    HW129939   4.916   5.165   3.040
 9680SOL    HW229940   4.820   5.295   3.067
 9681SOL     OW29941   1.064   0.671   4.267
 9681SOL    HW129942   1.103   0.658   4.358
 9681SOL    HW229943   1.128   0.725   4.211
 9682SOL     OW29944   0.542   4.889   3.403
 9682SOL    HW129945   0.464   4.899   3.341
 9682SOL    HW229946   0.558   4.792   3.422
 9683SOL     OW29947   5.063   6.641   6.123
 9683SOL    HW129948   5.119   6.600   6.195
 9683SOL    HW229949   5.122   6.688   6.058
 9684SOL     OW29950   0.917   4.560   3.409
 9684SOL    HW129951   0.969   4.645   3.418
 9684SOL    HW229952   0.971   4.493   3.357
 9685SOL     OW29953   1.829   1.724   6.680
 9685SOL    HW129954   1.809   1.821   6.687
 9685SOL    HW229955   1.928   1.709   6.689
 9686SOL     OW29956   5.299   2.272   1.561
 9686SOL    HW129957   5.249   2.349   1.520
 9686SOL    HW229958   5.288   2.274   1.661
 9687SOL     OW29959   3.965   1.421   4.557
 9687SOL    HW129960   4.022   1.491   4.513
 9687SOL    HW229961   3.878   1.462   4.586
 9688SOL     OW29962   6.235   1.953   3.918
 9688SOL    HW129963   6.278   1.943   4.008
 9688SOL    HW229964   6.161   1.886   3.909
 9689SOL     OW29965   2.201   5.321   5.526
 9689SOL    HW129966   2.280   5.325   5.587
 9689SOL    HW229967   2.227   5.279   5.439
 9690SOL     OW29968   5.769   3.795   0.328
 9690SOL    HW129969   5.844   3.860   0.315
 9690SOL    HW229970   5.778   3.750   0.417
 9691SOL     OW29971   1.438   4.184   0.348
 9691SOL    HW129972   1.454   4.281   0.369
 9691SOL    HW229973   1.514   4.149   0.293
 9692SOL     OW29974   3.398   5.820   0.600
 9692SOL    HW129975   3.347   5.808   0.686
 9692SOL    HW229976   3.424   5.730   0.564
 9693SOL     OW29977   6.027   5.950   1.585
 9693SOL    HW129978   6.008   6.032   1.639
 9693SOL    HW229979   6.034   5.871   1.646
 9694SOL     OW29980   1.194   1.962   0.907
 9694SOL    HW129981   1.175   1.867   0.883
 9694SOL    HW229982   1.226   2.012   0.827
 9695SOL     OW29983   6.927   4.339   0.477
 9695SOL    HW129984   6.940   4.334   0.378
 9695SOL    HW229985   6.964   4.425   0.512
 9696SOL     OW29986   3.628   4.650   0.508
 9696SOL    HW129987   3.621   4.597   0.592
 9696SOL    HW229988   3.656   4.744   0.530
 9697SOL     OW29989   0.762   6.081   5.875
 9697SOL    HW129990   0.784   6.166   5.922
 9697SOL    HW229991   0.672   6.089   5.832
 9698SOL     OW29992   4.537   1.503   5.265
 9698SOL    HW129993   4.551   1.588   5.315
 9698SOL    HW229994   4.622   1.477   5.218
 9699SOL     OW29995   1.648   1.965   6.476
 9699SOL    HW129996   1.744   1.947   6.458
 9699SOL    HW229997   1.623   2.054   6.437
 9700SOL     OW29998   3.905   3.934   3.457
 9700SOL    HW129999   3.881   3.854   3.512
 9700SOL    HW230000   3.991   3.917   3.410
 9701SOL     OW30001   4.567   4.472   4.664
 9701SOL    HW130002   4.565   4.397   4.730
 9701SOL    HW230003   4.661   4.491   4.636
 9702SOL     OW30004   5.447   0.365   0.521
 9702SOL    HW130005   5.406   0.275   0.539
 9702SOL    HW230006   5.450   0.418   0.606
 9703SOL     OW30007   2.625   5.834   3.970
 9703SOL    HW130008   2.707   5.783   3.994
 9703SOL    HW230009   2.544   5.776   3.984
 9704SOL     OW30010   2.293   1.467   3.874
 9704SOL    HW130011   2.356   1.544   3.878
 9704SOL    HW230012   2.296   1.417   3.961
 9705SOL     OW30013   3.674   4.201   1.008
 9705SOL    HW130014   3.773   4.208   0.992
 9705SOL    HW230015   3.627   4.194   0.921
 9706SOL     OW30016   6.699   2.599   3.603
 9706SOL    HW130017   6.736   2.636   3.688
 9706SOL    HW230018   6.621   2.539   3.624
 9707SOL     OW30019   2.594   4.804   2.590
 9707SOL    HW130020   2.595   4.704   2.585
 9707SOL    HW230021   2.581   4.842   2.499
 9708SOL     OW30022   1.714   2.005   2.374
 9708SOL    HW130023   1.782   2.004   2.300
 9708SOL    HW230024   1.754   1.966   2.457
 9709SOL     OW30025   1.554   5.678   3.245
 9709SOL    HW130026   1.484   5.626   3.196
 9709SOL    HW230027   1.613   5.615   3.295
 9710SOL     OW30028   0.808   0.659   3.912
 9710SOL    HW130029   0.729   0.713   3.881
 9710SOL    HW230030   0.809   0.657   4.012
 9711SOL     OW30031   1.410   3.017   6.642
 9711SOL    HW130032   1.502   3.048   6.620
 9711SOL    HW230033   1.349   3.037   6.566
 9712SOL     OW30034   4.851   3.839   4.569
 9712SOL    HW130035   4.862   3.741   4.585
 9712SOL    HW230036   4.916   3.889   4.626
 9713SOL     OW30037   6.798   4.900   2.873
 9713SOL    HW130038   6.728   4.939   2.814
 9713SOL    HW230039   6.832   4.971   2.936
 9714SOL     OW30040   2.150   2.313   2.721
 9714SOL    HW130041   2.246   2.298   2.698
 9714SOL    HW230042   2.135   2.410   2.741
 9715SOL     OW30043   6.171   5.241   5.874
 9715SOL    HW130044   6.159   5.288   5.786
 9715SOL    HW230045   6.247   5.177   5.867
 9716SOL     OW30046   3.701   1.283   6.192
 9716SOL    HW130047   3.797   1.288   6.164
 9716SOL    HW230048   3.693   1.309   6.288
 9717SOL     OW30049   5.720   5.666   3.269
 9717SOL    HW130050   5.750   5.752   3.229
 9717SOL    HW230051   5.633   5.679   3.317
 9718SOL     OW30052   4.664   3.116   1.586
 9718SOL    HW130053   4.608   3.117   1.669
 9718SOL    HW230054   4.662   3.024   1.547
 9719SOL     OW30055   0.397   0.861   0.475
 9719SOL    HW130056   0.378   0.859   0.376
 9719SOL    HW230057   0.427   0.953   0.501
 9720SOL     OW30058   0.908   0.221   0.664
 9720SOL    HW130059   0.957   0.295   0.710
 9720SOL    HW230060   0.926   0.135   0.712
 9721SOL     OW30061   0.056   2.957   3.361
 9721SOL    HW130062   0.026   3.045   3.325
 9721SOL    HW230063   0.006   2.936   3.446
 9722SOL     OW30064   0.147   0.183   4.717
 9722SOL    HW130065   0.117   0.095   4.756
 9722SOL    HW230066   0.110   0.193   4.625
 9723SOL     OW30067   6.969   0.641   3.761
 9723SOL    HW130068   0.041   0.672   3.775
 9723SOL    HW230069   6.928   0.618   3.850
 9724SOL     OW30070   3.967   2.524   1.664
 9724SOL    HW130071   3.997   2.436   1.626
 9724SOL    HW230072   3.876   2.514   1.704
 9725SOL     OW30073   4.330   3.493   5.811
 9725SOL    HW130074   4.368   3.486   5.719
 9725SOL    HW230075   4.404   3.511   5.876
 9726SOL     OW30076   5.632   6.008   4.456
 9726SOL    HW130077   5.698   5.961   4.514
 9726SOL    HW230078   5.601   6.091   4.501
 9727SOL     OW30079   1.796   0.246   0.009
 9727SOL    HW130080   1.796   0.279   6.937
 9727SOL    HW230081   1.763   0.151   0.011
 9728SOL     OW30082   3.563   6.313   6.461
 9728SOL    HW130083   3.507   6.251   6.406
 9728SOL    HW230084   3.520   6.326   6.551
 9729SOL     OW30085   3.070   5.257   1.896
 9729SOL    HW130086   3.071   5.356   1.907
 9729SOL    HW230087   3.066   5.213   1.986
 9730SOL     OW30088   5.745   3.419   3.152
 9730SOL    HW130089   5.702   3.436   3.241
 9730SOL    HW230090   5.832   3.469   3.147
 9731SOL     OW30091   5.427   5.204   1.485
 9731SOL    HW130092   5.330   5.193   1.463
 9731SOL    HW230093   5.482   5.158   1.416
 9732SOL     OW30094   5.022   6.181   4.715
 9732SOL    HW130095   4.929   6.213   4.699
 9732SOL    HW230096   5.076   6.191   4.631
 9733SOL     OW30097   5.259   4.891   5.839
 9733SOL    HW130098   5.232   4.807   5.884
 9733SOL    HW230099   5.297   4.870   5.749
 9734SOL     OW30100   6.264   1.805   5.786
 9734SOL    HW130101   6.173   1.814   5.745
 9734SOL    HW230102   6.257   1.821   5.885
 9735SOL     OW30103   3.440   4.705   0.846
 9735SOL    HW130104   3.499   4.629   0.871
 9735SOL    HW230105   3.429   4.766   0.925
 9736SOL     OW30106   3.160   1.866   1.982
 9736SOL    HW130107   3.090   1.858   2.052
 9736SOL    HW230108   3.217   1.946   2.000
 9737SOL     OW30109   4.089   2.241   4.523
 9737SOL    HW130110   4.188   2.229   4.510
 9737SOL    HW230111   4.064   2.213   4.615
 9738SOL     OW30112   2.405   1.285   2.062
 9738SOL    HW130113   2.438   1.326   1.977
 9738SOL    HW230114   2.476   1.224   2.099
 9739SOL     OW30115   5.834   4.289   1.618
 9739SOL    HW130116   5.783   4.204   1.614
 9739SOL    HW230117   5.771   4.365   1.633
 9740SOL     OW30118   6.274   3.111   2.542
 9740SOL    HW130119   6.204   3.181   2.557
 9740SOL    HW230120   6.322   3.130   2.456
 9741SOL     OW30121   3.887   1.521   2.315
 9741SOL    HW130122   3.859   1.523   2.411
 9741SOL    HW230123   3.825   1.461   2.264
 9742SOL     OW30124   4.320   1.542   3.766
 9742SOL    HW130125   4.372   1.464   3.801
 9742SOL    HW230126   4.358   1.572   3.679
 9743SOL     OW30127   1.385   1.369   5.331
 9743SOL    HW130128   1.397   1.304   5.256
 9743SOL    HW230129   1.346   1.455   5.296
 9744SOL     OW30130   2.459   0.424   1.614
 9744SOL    HW130131   2.459   0.479   1.698
 9744SOL    HW230132   2.420   0.478   1.539
 9745SOL     OW30133   0.399   0.531   4.772
 9745SOL    HW130134   0.413   0.615   4.720
 9745SOL    HW230135   0.462   0.529   4.850
 9746SOL     OW30136   6.543   0.653   4.095
 9746SOL    HW130137   6.639   0.648   4.120
 9746SOL    HW230138   6.508   0.745   4.114
 9747SOL     OW30139   0.559   0.169   6.410
 9747SOL    HW130140   0.507   0.124   6.337
 9747SOL    HW230141   0.584   0.101   6.479
 9748SOL     OW30142   0.890   4.083   4.532
 9748SOL    HW130143   0.829   4.137   4.591
 9748SOL    HW230144   0.897   4.127   4.443
 9749SOL     OW30145   0.555   4.822   4.222
 9749SOL    HW130146   0.466   4.867   4.219
 9749SOL    HW230147   0.546   4.734   4.268
 9750SOL     OW30148   3.039   5.423   2.504
 9750SOL    HW130149   2.939   5.432   2.508
 9750SOL    HW230150   3.064   5.335   2.464
 9751SOL     OW30151   1.651   2.480   0.825
 9751SOL    HW130152   1.709   2.400   0.809
 9751SOL    HW230153   1.567   2.452   0.871
 9752SOL     OW30154   4.310   0.517   5.760
 9752SOL    HW130155   4.297   0.537   5.663
 9752SOL    HW230156   4.337   0.600   5.808
 9753SOL     OW30157   0.136   6.588   0.115
 9753SOL    HW130158   0.051   6.540   0.139
 9753SOL    HW230159   0.214   6.538   0.152
 9754SOL     OW30160   0.195   2.932   6.031
 9754SOL    HW130161   0.206   2.983   6.117
 9754SOL    HW230162   0.142   2.988   5.967
 9755SOL     OW30163   3.532   5.695   5.391
 9755SOL    HW130164   3.505   5.598   5.387
 9755SOL    HW230165   3.630   5.702   5.372
 9756SOL     OW30166   5.068   2.775   5.844
 9756SOL    HW130167   5.019   2.848   5.796
 9756SOL    HW230168   5.126   2.814   5.915
 9757SOL     OW30169   6.571   0.850   3.793
 9757SOL    HW130170   6.627   0.920   3.838
 9757SOL    HW230171   6.523   0.797   3.862
 9758SOL     OW30172   3.646   0.557   0.328
 9758SOL    HW130173   3.659   0.629   0.396
 9758SOL    HW230174   3.730   0.503   0.321
 9759SOL     OW30175   3.124   5.899   1.577
 9759SOL    HW130176   3.065   5.886   1.657
 9759SOL    HW230177   3.068   5.895   1.494
 9760SOL     OW30178   5.650   4.730   5.931
 9760SOL    HW130179   5.616   4.667   5.861
 9760SOL    HW230180   5.722   4.787   5.892
 9761SOL     OW30181   5.257   5.459   2.618
 9761SOL    HW130182   5.282   5.516   2.696
 9761SOL    HW230183   5.179   5.499   2.571
 9762SOL     OW30184   3.282   0.592   2.802
 9762SOL    HW130185   3.312   0.664   2.865
 9762SOL    HW230186   3.203   0.545   2.840
 9763SOL     OW30187   1.858   2.049   2.144
 9763SOL    HW130188   1.821   2.105   2.070
 9763SOL    HW230189   1.958   2.059   2.147
 9764SOL     OW30190   0.883   2.726   2.955
 9764SOL    HW130191   0.912   2.638   2.992
 9764SOL    HW230192   0.824   2.773   3.020
 9765SOL     OW30193   0.381   0.404   5.730
 9765SOL    HW130194   0.479   0.399   5.752
 9765SOL    HW230195   0.328   0.413   5.814
 9766SOL     OW30196   2.250   0.576   2.929
 9766SOL    HW130197   2.276   0.598   2.835
 9766SOL    HW230198   2.331   0.582   2.988
 9767SOL     OW30199   5.045   0.508   5.487
 9767SOL    HW130200   4.947   0.507   5.465
 9767SOL    HW230201   5.076   0.414   5.503
 9768SOL     OW30202   4.517   2.491   4.211
 9768SOL    HW130203   4.439   2.438   4.242
 9768SOL    HW230204   4.556   2.540   4.289
 9769SOL     OW30205   0.655   2.229   0.958
 9769SOL    HW130206   0.635   2.141   1.000
 9769SOL    HW230207   0.604   2.301   1.005
 9770SOL     OW30208   0.644   2.962   5.835
 9770SOL    HW130209   0.640   2.866   5.804
 9770SOL    HW230210   0.581   2.975   5.911
 9771SOL     OW30211   2.670   5.676   3.417
 9771SOL    HW130212   2.752   5.619   3.405
 9771SOL    HW230213   2.691   5.770   3.388
 9772SOL     OW30214   6.028   6.844   0.474
 9772SOL    HW130215   6.045   6.870   0.378
 9772SOL    HW230216   6.030   6.926   0.531
 9773SOL     OW30217   4.821   5.345   4.090
 9773SOL    HW130218   4.743   5.286   4.112
 9773SOL    HW230219   4.879   5.299   4.021
 9774SOL     OW30220   6.826   5.150   4.432
 9774SOL    HW130221   6.884   5.128   4.353
 9774SOL    HW230222   6.872   5.124   4.516
 9775SOL     OW30223   2.890   1.989   4.833
 9775SOL    HW130224   2.903   2.065   4.897
 9775SOL    HW230225   2.817   2.012   4.769
 9776SOL     OW30226   0.142   4.742   4.149
 9776SOL    HW130227   0.203   4.726   4.072
 9776SOL    HW230228   0.068   4.675   4.148
 9777SOL     OW30229   4.950   5.884   6.248
 9777SOL    HW130230   5.043   5.907   6.219
 9777SOL    HW230231   4.913   5.813   6.188
 9778SOL     OW30232   3.793   0.543   4.658
 9778SOL    HW130233   3.802   0.489   4.574
 9778SOL    HW230234   3.844   0.629   4.646
 9779SOL     OW30235   3.176   2.009   6.673
 9779SOL    HW130236   3.088   1.971   6.645
 9779SOL    HW230237   3.173   2.109   6.670
 9780SOL     OW30238   2.620   4.221   0.996
 9780SOL    HW130239   2.539   4.275   1.014
 9780SOL    HW230240   2.671   4.207   1.081
 9781SOL     OW30241   1.292   6.650   4.460
 9781SOL    HW130242   1.317   6.707   4.538
 9781SOL    HW230243   1.287   6.554   4.488
 9782SOL     OW30244   5.925   0.142   0.513
 9782SOL    HW130245   5.855   0.209   0.490
 9782SOL    HW230246   6.001   0.187   0.560
 9783SOL     OW30247   6.166   0.155   3.186
 9783SOL    HW130248   6.223   0.183   3.109
 9783SOL    HW230249   6.215   0.171   3.272
 9784SOL     OW30250   5.637   0.238   4.618
 9784SOL    HW130251   5.636   0.169   4.546
 9784SOL    HW230252   5.563   0.303   4.604
 9785SOL     OW30253   1.058   2.762   1.597
 9785SOL    HW130254   0.999   2.749   1.517
 9785SOL    HW230255   1.082   2.859   1.605
 9786SOL     OW30256   2.560   6.875   4.385
 9786SOL    HW130257   2.562   6.839   4.479
 9786SOL    HW230258   2.477   6.929   4.372
 9787SOL     OW30259   5.804   4.427   1.338
 9787SOL    HW130260   5.775   4.331   1.342
 9787SOL    HW230261   5.894   4.433   1.294
 9788SOL     OW30262   6.824   0.688   5.824
 9788SOL    HW130263   6.790   0.675   5.731
 9788SOL    HW230264   6.892   0.617   5.845
 9789SOL     OW30265   1.616   4.858   4.610
 9789SOL    HW130266   1.675   4.871   4.531
 9789SOL    HW230267   1.671   4.857   4.693
 9790SOL     OW30268   6.835   1.429   3.747
 9790SOL    HW130269   6.781   1.379   3.814
 9790SOL    HW230270   6.924   1.451   3.786
 9791SOL     OW30271   1.164   2.747   1.230
 9791SOL    HW130272   1.207   2.753   1.320
 9791SOL    HW230273   1.229   2.774   1.160
 9792SOL     OW30274   3.409   5.614   1.984
 9792SOL    HW130275   3.470   5.588   2.059
 9792SOL    HW230276   3.406   5.714   1.976
 9793SOL     OW30277   5.342   6.193   2.315
 9793SOL    HW130278   5.366   6.156   2.405
 9793SOL    HW230279   5.244   6.212   2.312
 9794SOL     OW30280   3.281   3.200   6.535
 9794SOL    HW130281   3.195   3.250   6.522
 9794SOL    HW230282   3.308   3.204   6.632
 9795SOL     OW30283   1.940   5.261   3.186
 9795SOL    HW130284   1.955   5.265   3.285
 9795SOL    HW230285   2.023   5.289   3.139
 9796SOL     OW30286   3.763   5.124   0.036
 9796SOL    HW130287   3.817   5.041   0.053
 9796SOL    HW230288   3.825   5.199   0.014
 9797SOL     OW30289   5.721   3.298   5.308
 9797SOL    HW130290   5.633   3.254   5.328
 9797SOL    HW230291   5.794   3.230   5.317
 9798SOL     OW30292   2.583   1.741   2.004
 9798SOL    HW130293   2.656   1.803   1.977
 9798SOL    HW230294   2.563   1.677   1.929
 9799SOL     OW30295   3.705   3.737   2.737
 9799SOL    HW130296   3.726   3.653   2.788
 9799SOL    HW230297   3.674   3.807   2.801
 9800SOL     OW30298   4.057   5.466   0.342
 9800SOL    HW130299   4.063   5.417   0.429
 9800SOL    HW230300   4.143   5.513   0.325
 9801SOL     OW30301   5.292   4.988   1.327
 9801SOL    HW130302   5.222   4.983   1.256
 9801SOL    HW230303   5.379   5.013   1.286
 9802SOL     OW30304   0.880   5.810   1.873
 9802SOL    HW130305   0.811   5.882   1.873
 9802SOL    HW230306   0.908   5.790   1.780
 9803SOL     OW30307   5.056   6.993   6.368
 9803SOL    HW130308   5.089   0.065   6.358
 9803SOL    HW230309   4.991   6.973   6.295
 9804SOL     OW30310   4.766   5.149   4.645
 9804SOL    HW130311   4.836   5.221   4.642
 9804SOL    HW230312   4.748   5.116   4.553
 9805SOL     OW30313   3.631   3.825   0.882
 9805SOL    HW130314   3.695   3.757   0.847
 9805SOL    HW230315   3.680   3.891   0.939
 9806SOL     OW30316   6.949   1.756   2.368
 9806SOL    HW130317   7.011   1.759   2.447
 9806SOL    HW230318   6.899   1.670   2.369
 9807SOL     OW30319   2.076   3.159   1.286
 9807SOL    HW130320   2.054   3.084   1.224
 9807SOL    HW230321   2.065   3.128   1.381
 9808SOL     OW30322   2.147   1.720   4.050
 9808SOL    HW130323   2.106   1.795   4.102
 9808SOL    HW230324   2.211   1.757   3.982
 9809SOL     OW30325   0.632   0.771   4.333
 9809SOL    HW130326   0.534   0.784   4.320
 9809SOL    HW230327   0.680   0.857   4.317
 9810SOL     OW30328   4.267   1.512   2.708
 9810SOL    HW130329   4.221   1.575   2.770
 9810SOL    HW230330   4.250   1.540   2.613
 9811SOL     OW30331   0.962   0.398   2.828
 9811SOL    HW130332   1.027   0.365   2.759
 9811SOL    HW230333   0.881   0.340   2.827
 9812SOL     OW30334   5.832   3.370   5.788
 9812SOL    HW130335   5.930   3.372   5.811
 9812SOL    HW230336   5.818   3.422   5.703
 9813SOL     OW30337   6.583   4.261   0.307
 9813SOL    HW130338   6.567   4.358   0.325
 9813SOL    HW230339   6.502   4.209   0.334
 9814SOL     OW30340   6.587   0.789   5.915
 9814SOL    HW130341   6.555   0.829   6.002
 9814SOL    HW230342   6.679   0.753   5.927
 9815SOL     OW30343   6.875   4.709   2.089
 9815SOL    HW130344   6.896   4.797   2.046
 9815SOL    HW230345   6.817   4.655   2.028
 9816SOL     OW30346   6.279   1.598   5.625
 9816SOL    HW130347   6.196   1.544   5.614
 9816SOL    HW230348   6.257   1.683   5.674
 9817SOL     OW30349   2.620   1.092   0.568
 9817SOL    HW130350   2.713   1.058   0.579
 9817SOL    HW230351   2.556   1.015   0.569
 9818SOL     OW30352   0.678   7.016   2.359
 9818SOL    HW130353   0.646   0.079   2.401
 9818SOL    HW230354   0.685   0.006   2.260
 9819SOL     OW30355   6.071   1.718   4.278
 9819SOL    HW130356   6.167   1.745   4.288
 9819SOL    HW230357   6.017   1.759   4.352
 9820SOL     OW30358   3.984   1.051   6.511
 9820SOL    HW130359   4.039   1.134   6.528
 9820SOL    HW230360   3.928   1.032   6.591
 9821SOL     OW30361   4.788   3.570   7.011
 9821SOL    HW130362   4.806   3.592   6.915
 9821SOL    HW230363   4.800   3.652   0.045
 9822SOL     OW30364   3.206   5.211   4.100
 9822SOL    HW130365   3.281   5.179   4.041
 9822SOL    HW230366   3.125   5.155   4.085
 9823SOL     OW30367   4.618   6.699   3.125
 9823SOL    HW130368   4.647   6.772   3.063
 9823SOL    HW230369   4.695   6.672   3.184
 9824SOL     OW30370   1.086   5.648   5.636
 9824SOL    HW130371   1.177   5.616   5.611
 9824SOL    HW230372   1.053   5.712   5.567
 9825SOL     OW30373   1.163   6.225   4.776
 9825SOL    HW130374   1.093   6.293   4.797
 9825SOL    HW230375   1.125   6.156   4.715
 9826SOL     OW30376   1.988   5.768   6.408
 9826SOL    HW130377   2.058   5.839   6.413
 9826SOL    HW230378   2.000   5.703   6.482
 9827SOL     OW30379   1.958   4.343   1.455
 9827SOL    HW130380   1.979   4.393   1.539
 9827SOL    HW230381   2.020   4.372   1.382
 9828SOL     OW30382   4.515   2.161   4.382
 9828SOL    HW130383   4.492   2.230   4.313
 9828SOL    HW230384   4.518   2.203   4.472
 9829SOL     OW30385   5.503   4.955   5.969
 9829SOL    HW130386   5.418   4.918   5.933
 9829SOL    HW230387   5.577   4.889   5.954
 9830SOL     OW30388   6.492   1.241   3.428
 9830SOL    HW130389   6.401   1.200   3.437
 9830SOL    HW230390   6.550   1.209   3.502
 9831SOL     OW30391   0.386   5.054   2.017
 9831SOL    HW130392   0.324   5.126   2.049
 9831SOL    HW230393   0.413   5.073   1.923
 9832SOL     OW30394   4.881   6.366   4.997
 9832SOL    HW130395   4.920   6.333   5.083
 9832SOL    HW230396   4.865   6.289   4.936
 9833SOL     OW30397   4.088   3.553   4.746
 9833SOL    HW130398   4.054   3.543   4.652
 9833SOL    HW230399   4.086   3.464   4.791
 9834SOL     OW30400   3.154   6.063   5.956
 9834SOL    HW130401   3.056   6.053   5.939
 9834SOL    HW230402   3.205   6.025   5.880
 9835SOL     OW30403   3.748   3.261   3.837
 9835SOL    HW130404   3.710   3.344   3.876
 9835SOL    HW230405   3.819   3.224   3.897
 9836SOL     OW30406   6.232   3.227   5.611
 9836SOL    HW130407   6.190   3.295   5.551
 9836SOL    HW230408   6.329   3.250   5.624
 9837SOL     OW30409   6.712   0.680   3.619
 9837SOL    HW130410   6.802   0.677   3.662
 9837SOL    HW230411   6.657   0.752   3.661
 9838SOL     OW30412   0.376   5.787   1.003
 9838SOL    HW130413   0.371   5.708   1.064
 9838SOL    HW230414   0.304   5.852   1.028
 9839SOL     OW30415   3.986   6.651   3.486
 9839SOL    HW130416   3.906   6.605   3.525
 9839SOL    HW230417   3.987   6.747   3.514
 9840SOL     OW30418   6.226   2.025   6.691
 9840SOL    HW130419   6.213   2.066   6.782
 9840SOL    HW230420   6.266   2.093   6.630
 9841SOL     OW30421   0.129   5.888   2.174
 9841SOL    HW130422   0.177   5.968   2.138
 9841SOL    HW230423   0.173   5.857   2.258
 9842SOL     OW30424   3.889   0.378   0.320
 9842SOL    HW130425   3.953   0.442   0.362
 9842SOL    HW230426   3.924   0.285   0.328
 9843SOL     OW30427   0.551   0.140   0.424
 9843SOL    HW130428   0.566   0.239   0.421
 9843SOL    HW230429   0.596   0.101   0.504
 9844SOL     OW30430   4.950   0.784   5.184
 9844SOL    HW130431   4.867   0.811   5.136
 9844SOL    HW230432   5.023   0.850   5.166
 9845SOL     OW30433   0.858   3.497   1.794
 9845SOL    HW130434   0.935   3.532   1.847
 9845SOL    HW230435   0.856   3.397   1.800
 9846SOL     OW30436   5.570   2.104   2.194
 9846SOL    HW130437   5.658   2.106   2.243
 9846SOL    HW230438   5.524   2.017   2.212
 9847SOL     OW30439   3.730   4.208   6.714
 9847SOL    HW130440   3.784   4.175   6.637
 9847SOL    HW230441   3.700   4.302   6.695
 9848SOL     OW30442   2.518   4.049   5.561
 9848SOL    HW130443   2.455   4.120   5.531
 9848SOL    HW230444   2.543   3.992   5.483
 9849SOL     OW30445   1.516   2.238   2.989
 9849SOL    HW130446   1.603   2.277   3.019
 9849SOL    HW230447   1.494   2.159   3.046
 9850SOL     OW30448   1.454   0.039   4.488
 9850SOL    HW130449   1.525   7.018   4.432
 9850SOL    HW230450   1.492   0.118   4.536
 9851SOL     OW30451   3.521   5.119   3.516
 9851SOL    HW130452   3.617   5.139   3.537
 9851SOL    HW230453   3.464   5.197   3.544
 9852SOL     OW30454   2.620   6.788   0.264
 9852SOL    HW130455   2.652   6.866   0.211
 9852SOL    HW230456   2.637   6.704   0.213
 9853SOL     OW30457   0.397   4.232   3.814
 9853SOL    HW130458   0.392   4.268   3.721
 9853SOL    HW230459   0.306   4.205   3.845
 9854SOL     OW30460   6.282   3.651   6.562
 9854SOL    HW130461   6.280   3.551   6.573
 9854SOL    HW230462   6.377   3.682   6.559
 9855SOL     OW30463   1.075   5.881   0.508
 9855SOL    HW130464   0.980   5.890   0.477
 9855SOL    HW230465   1.114   5.973   0.518
 9856SOL     OW30466   5.127   3.894   3.623
 9856SOL    HW130467   5.205   3.910   3.562
 9856SOL    HW230468   5.161   3.860   3.711
 9857SOL     OW30469   5.397   0.330   6.072
 9857SOL    HW130470   5.490   0.361   6.088
 9857SOL    HW230471   5.374   0.257   6.136
 9858SOL     OW30472   6.926   5.216   2.372
 9858SOL    HW130473   7.018   5.185   2.399
 9858SOL    HW230474   6.901   5.297   2.424
 9859SOL     OW30475   0.756   5.029   2.256
 9859SOL    HW130476   0.855   5.018   2.251
 9859SOL    HW230477   0.733   5.126   2.259
 9860SOL     OW30478   1.628   3.295   3.729
 9860SOL    HW130479   1.598   3.220   3.788
 9860SOL    HW230480   1.548   3.348   3.699
 9861SOL     OW30481   3.491   2.112   4.114
 9861SOL    HW130482   3.518   2.015   4.116
 9861SOL    HW230483   3.478   2.144   4.207
 9862SOL     OW30484   1.868   2.868   6.638
 9862SOL    HW130485   1.878   2.955   6.686
 9862SOL    HW230486   1.903   2.794   6.696
 9863SOL     OW30487   4.115   6.418   1.814
 9863SOL    HW130488   4.208   6.424   1.852
 9863SOL    HW230489   4.050   6.397   1.887
 9864SOL     OW30490   2.987   6.294   5.216
 9864SOL    HW130491   2.896   6.335   5.222
 9864SOL    HW230492   3.043   6.346   5.153
 9865SOL     OW30493   2.378   6.259   6.179
 9865SOL    HW130494   2.289   6.246   6.222
 9865SOL    HW230495   2.404   6.355   6.185
 9866SOL     OW30496   6.859   5.237   6.196
 9866SOL    HW130497   6.941   5.220   6.250
 9866SOL    HW230498   6.784   5.264   6.256
 9867SOL     OW30499   4.702   1.227   2.642
 9867SOL    HW130500   4.744   1.146   2.683
 9867SOL    HW230501   4.703   1.302   2.709
 9868SOL     OW30502   2.351   4.349   2.906
 9868SOL    HW130503   2.353   4.287   2.985
 9868SOL    HW230504   2.443   4.386   2.891
 9869SOL     OW30505   5.953   2.466   2.978
 9869SOL    HW130506   5.929   2.410   2.898
 9869SOL    HW230507   6.002   2.548   2.947
 9870SOL     OW30508   1.794   2.781   3.060
 9870SOL    HW130509   1.858   2.836   3.007
 9870SOL    HW230510   1.825   2.779   3.156
 9871SOL     OW30511   5.898   5.888   2.997
 9871SOL    HW130512   5.853   5.887   2.908
 9871SOL    HW230513   5.963   5.813   3.002
 9872SOL     OW30514   1.218   6.569   5.510
 9872SOL    HW130515   1.254   6.651   5.466
 9872SOL    HW230516   1.236   6.489   5.453
 9873SOL     OW30517   0.213   0.479   4.968
 9873SOL    HW130518   0.259   0.549   4.913
 9873SOL    HW230519   0.201   0.513   5.061
 9874SOL     OW30520   0.114   2.163   3.620
 9874SOL    HW130521   0.014   2.151   3.623
 9874SOL    HW230522   0.137   2.226   3.545
 9875SOL     OW30523   6.237   5.989   0.682
 9875SOL    HW130524   6.262   6.017   0.589
 9875SOL    HW230525   6.288   6.044   0.748
 9876SOL     OW30526   0.312   0.121   3.586
 9876SOL    HW130527   0.328   0.218   3.601
 9876SOL    HW230528   0.398   0.078   3.555
 9877SOL     OW30529   1.550   5.945   5.030
 9877SOL    HW130530   1.550   5.976   4.935
 9877SOL    HW230531   1.579   6.020   5.089
 9878SOL     OW30532   4.480   3.179   0.060
 9878SOL    HW130533   4.504   3.151   0.153
 9878SOL    HW230534   4.409   3.249   0.063
 9879SOL     OW30535   5.388   5.821   4.718
 9879SOL    HW130536   5.346   5.786   4.801
 9879SOL    HW230537   5.427   5.911   4.736
 9880SOL     OW30538   3.242   1.224   0.921
 9880SOL    HW130539   3.196   1.212   0.833
 9880SOL    HW230540   3.321   1.164   0.926
 9881SOL     OW30541   6.498   6.783   3.315
 9881SOL    HW130542   6.404   6.797   3.347
 9881SOL    HW230543   6.503   6.696   3.265
 9882SOL     OW30544   3.435   3.320   4.528
 9882SOL    HW130545   3.396   3.282   4.612
 9882SOL    HW230546   3.465   3.414   4.545
 9883SOL     OW30547   1.793   5.973   2.596
 9883SOL    HW130548   1.829   5.887   2.562
 9883SOL    HW230549   1.791   5.973   2.696
 9884SOL     OW30550   3.331   2.679   5.277
 9884SOL    HW130551   3.401   2.644   5.339
 9884SOL    HW230552   3.279   2.602   5.239
 9885SOL     OW30553   5.256   2.390   4.960
 9885SOL    HW130554   5.227   2.469   5.015
 9885SOL    HW230555   5.187   2.371   4.891
 9886SOL     OW30556   2.955   6.248   1.289
 9886SOL    HW130557   2.926   6.221   1.197
 9886SOL    HW230558   3.051   6.274   1.288
 9887SOL     OW30559   4.364   0.996   6.929
 9887SOL    HW130560   4.334   1.035   7.016
 9887SOL    HW230561   4.335   0.900   6.925
 9888SOL     OW30562   6.416   6.667   4.004
 9888SOL    HW130563   6.424   6.648   4.102
 9888SOL    HW230564   6.366   6.593   3.959
 9889SOL     OW30565   6.269   5.864   2.026
 9889SOL    HW130566   6.278   5.913   2.113
 9889SOL    HW230567   6.289   5.926   1.950
 9890SOL     OW30568   1.812   3.152   3.034
 9890SOL    HW130569   1.799   3.109   3.124
 9890SOL    HW230570   1.872   3.094   2.978
 9891SOL     OW30571   4.232   6.657   1.720
 9891SOL    HW130572   4.301   6.691   1.784
 9891SOL    HW230573   4.181   6.583   1.762
 9892SOL     OW30574   2.005   6.171   3.196
 9892SOL    HW130575   2.022   6.231   3.118
 9892SOL    HW230576   1.908   6.168   3.216
 9893SOL     OW30577   5.674   4.245   5.089
 9893SOL    HW130578   5.640   4.293   5.170
 9893SOL    HW230579   5.765   4.278   5.067
 9894SOL     OW30580   4.286   3.850   5.927
 9894SOL    HW130581   4.260   3.945   5.911
 9894SOL    HW230582   4.259   3.794   5.848
 9895SOL     OW30583   5.278   1.949   5.744
 9895SOL    HW130584   5.197   1.898   5.715
 9895SOL    HW230585   5.347   1.885   5.779
 9896SOL     OW30586   4.020   4.006   0.698
 9896SOL    HW130587   4.087   3.934   0.714
 9896SOL    HW230588   4.040   4.052   0.611
 9897SOL     OW30589   1.114   1.435   2.452
 9897SOL    HW130590   1.102   1.534   2.440
 9897SOL    HW230591   1.025   1.393   2.471
 9898SOL     OW30592   0.539   5.401   0.327
 9898SOL    HW130593   0.441   5.414   0.309
 9898SOL    HW230594   0.573   5.326   0.270
 9899SOL     OW30595   4.060   5.570   1.749
 9899SOL    HW130596   3.991   5.604   1.814
 9899SOL    HW230597   4.025   5.489   1.703
 9900SOL     OW30598   2.042   5.011   3.737
 9900SOL    HW130599   2.127   5.059   3.715
 9900SOL    HW230600   1.999   4.979   3.653
 9901SOL     OW30601   3.034   1.590   5.804
 9901SOL    HW130602   3.006   1.684   5.784
 9901SOL    HW230603   3.076   1.586   5.894
 9902SOL     OW30604   4.077   4.074   0.439
 9902SOL    HW130605   4.164   4.036   0.406
 9902SOL    HW230606   4.034   4.126   0.366
 9903SOL     OW30607   2.762   1.093   1.324
 9903SOL    HW130608   2.735   1.015   1.380
 9903SOL    HW230609   2.747   1.071   1.227
 9904SOL     OW30610   6.804   6.222   1.967
 9904SOL    HW130611   6.714   6.255   1.938
 9904SOL    HW230612   6.819   6.248   2.063
 9905SOL     OW30613   2.487   6.866   6.438
 9905SOL    HW130614   2.480   6.902   6.531
 9905SOL    HW230615   2.507   6.941   6.375
 9906SOL     OW30616   3.423   4.138   5.884
 9906SOL    HW130617   3.440   4.096   5.973
 9906SOL    HW230618   3.339   4.099   5.845
 9907SOL     OW30619   0.837   6.534   2.665
 9907SOL    HW130620   0.806   6.447   2.704
 9907SOL    HW230621   0.928   6.556   2.701
 9908SOL     OW30622   6.609   2.826   4.604
 9908SOL    HW130623   6.654   2.901   4.654
 9908SOL    HW230624   6.561   2.864   4.525
 9909SOL     OW30625   2.331   6.078   3.126
 9909SOL    HW130626   2.293   6.133   3.201
 9909SOL    HW230627   2.327   6.130   3.041
 9910SOL     OW30628   0.563   5.570   0.815
 9910SOL    HW130629   0.466   5.594   0.826
 9910SOL    HW230630   0.581   5.546   0.719
 9911SOL     OW30631   3.830   4.858   2.721
 9911SOL    HW130632   3.737   4.854   2.758
 9911SOL    HW230633   3.826   4.870   2.622
 9912SOL     OW30634   5.860   6.739   0.210
 9912SOL    HW130635   5.955   6.763   0.233
 9912SOL    HW230636   5.844   6.756   0.113
 9913SOL     OW30637   5.296   2.043   2.957
 9913SOL    HW130638   5.198   2.059   2.970
 9913SOL    HW230639   5.314   2.027   2.860
 9914SOL     OW30640   2.055   5.123   4.192
 9914SOL    HW130641   2.016   5.050   4.137
 9914SOL    HW230642   1.998   5.139   4.272
 9915SOL     OW30643   6.276   4.858   4.412
 9915SOL    HW130644   6.226   4.773   4.431
 9915SOL    HW230645   6.341   4.876   4.485
 9916SOL     OW30646   1.979   3.303   0.662
 9916SOL    HW130647   1.913   3.375   0.679
 9916SOL    HW230648   2.069   3.344   0.646
 9917SOL     OW30649   1.819   3.318   4.480
 9917SOL    HW130650   1.859   3.358   4.398
 9917SOL    HW230651   1.785   3.390   4.540
 9918SOL     OW30652   2.088   1.626   4.744
 9918SOL    HW130653   1.991   1.611   4.727
 9918SOL    HW230654   2.105   1.628   4.842
 9919SOL     OW30655   1.043   5.480   1.238
 9919SOL    HW130656   0.996   5.437   1.161
 9919SOL    HW230657   1.054   5.413   1.311
 9920SOL     OW30658   3.238   0.521   3.174
 9920SOL    HW130659   3.306   0.528   3.247
 9920SOL    HW230660   3.219   0.612   3.136
 9921SOL     OW30661   4.887   0.875   2.518
 9921SOL    HW130662   4.862   0.780   2.499
 9921SOL    HW230663   4.805   0.931   2.523
 9922SOL     OW30664   5.654   2.756   2.111
 9922SOL    HW130665   5.703   2.758   2.199
 9922SOL    HW230666   5.712   2.713   2.042
 9923SOL     OW30667   6.596   0.024   6.481
 9923SOL    HW130668   6.582   6.963   6.427
 9923SOL    HW230669   6.571   0.005   6.576
 9924SOL     OW30670   5.336   0.869   3.725
 9924SOL    HW130671   5.353   0.861   3.627
 9924SOL    HW230672   5.274   0.945   3.743
 9925SOL     OW30673   3.953   2.148   5.044
 9925SOL    HW130674   3.995   2.231   5.082
 9925SOL    HW230675   3.959   2.150   4.944
 9926SOL     OW30676   2.432   1.159   5.749
 9926SOL    HW130677   2.338   1.163   5.783
 9926SOL    HW230678   2.460   1.250   5.717
 9927SOL     OW30679   1.233   3.666   3.630
 9927SOL    HW130680   1.261   3.571   3.645
 9927SOL    HW230681   1.299   3.711   3.570
 9928SOL     OW30682   6.683   2.538   1.823
 9928SOL    HW130683   6.651   2.626   1.787
 9928SOL    HW230684   6.732   2.489   1.752
 9929SOL     OW30685   0.987   4.958   5.074
 9929SOL    HW130686   0.971   4.884   5.139
 9929SOL    HW230687   1.050   4.927   5.003
 9930SOL     OW30688   6.892   5.083   6.530
 9930SOL    HW130689   6.957   5.104   6.457
 9930SOL    HW230690   6.939   5.034   6.604
 9931SOL     OW30691   2.086   4.373   0.031
 9931SOL    HW130692   2.158   4.306   0.049
 9931SOL    HW230693   2.010   4.328   7.007
 9932SOL     OW30694   2.040   2.320   1.503
 9932SOL    HW130695   2.072   2.275   1.420
 9932SOL    HW230696   2.097   2.292   1.580
 9933SOL     OW30697   1.023   1.457   3.258
 9933SOL    HW130698   1.090   1.386   3.235
 9933SOL    HW230699   1.045   1.541   3.208
 9934SOL     OW30700   5.161   0.784   6.216
 9934SOL    HW130701   5.198   0.845   6.147
 9934SOL    HW230702   5.174   0.824   6.307
 9935SOL     OW30703   2.869   3.252   0.290
 9935SOL    HW130704   2.819   3.166   0.281
 9935SOL    HW230705   2.807   3.328   0.274
 9936SOL     OW30706   4.977   6.366   6.686
 9936SOL    HW130707   5.030   6.403   6.762
 9936SOL    HW230708   5.011   6.404   6.600
 9937SOL     OW30709   1.560   6.761   4.375
 9937SOL    HW130710   1.583   6.684   4.315
 9937SOL    HW230711   1.468   6.748   4.412
 9938SOL     OW30712   0.040   1.879   3.003
 9938SOL    HW130713   0.139   1.875   3.014
 9938SOL    HW230714   7.018   1.833   3.081
 9939SOL     OW30715   2.903   3.855   1.383
 9939SOL    HW130716   2.990   3.845   1.432
 9939SOL    HW230717   2.843   3.779   1.409
 9940SOL     OW30718   0.139   0.706   2.816
 9940SOL    HW130719   0.229   0.747   2.806
 9940SOL    HW230720   0.092   0.707   2.727
 9941SOL     OW30721   6.223   3.395   0.520
 9941SOL    HW130722   6.126   3.389   0.498
 9941SOL    HW230723   6.272   3.435   0.443
 9942SOL     OW30724   5.904   5.449   2.528
 9942SOL    HW130725   5.887   5.509   2.606
 9942SOL    HW230726   5.871   5.492   2.445
 9943SOL     OW30727   1.116   4.891   5.346
 9943SOL    HW130728   1.045   4.850   5.403
 9943SOL    HW230729   1.138   4.830   5.269
 9944SOL     OW30730   2.826   5.975   6.638
 9944SOL    HW130731   2.808   6.062   6.592
 9944SOL    HW230732   2.866   5.992   6.728
 9945SOL     OW30733   6.402   3.242   5.914
 9945SOL    HW130734   6.310   3.207   5.927
 9945SOL    HW230735   6.399   3.342   5.908
 9946SOL     OW30736   6.026   2.064   1.656
 9946SOL    HW130737   6.097   2.134   1.642
 9946SOL    HW230738   6.068   1.979   1.686
 9947SOL     OW30739   0.433   0.386   3.072
 9947SOL    HW130740   0.509   0.374   3.008
 9947SOL    HW230741   0.347   0.358   3.028
 9948SOL     OW30742   5.609   0.849   5.265
 9948SOL    HW130743   5.516   0.812   5.262
 9948SOL    HW230744   5.674   0.778   5.236
 9949SOL     OW30745   6.547   3.036   2.657
 9949SOL    HW130746   6.455   3.039   2.617
 9949SOL    HW230747   6.614   3.069   2.590
 9950SOL     OW30748   4.868   5.190   6.439
 9950SOL    HW130749   4.918   5.272   6.468
 9950SOL    HW230750   4.870   5.185   6.339
 9951SOL     OW30751   0.210   2.182   2.763
 9951SOL    HW130752   0.156   2.181   2.848
 9951SOL    HW230753   0.160   2.234   2.694
 9952SOL     OW30754   1.721   4.860   1.462
 9952SOL    HW130755   1.810   4.896   1.435
 9952SOL    HW230756   1.706   4.772   1.418
 9953SOL     OW30757   5.767   4.786   4.844
 9953SOL    HW130758   5.761   4.886   4.841
 9953SOL    HW230759   5.763   4.756   4.939
 9954SOL     OW30760   4.630   1.660   1.639
 9954SOL    HW130761   4.638   1.736   1.575
 9954SOL    HW230762   4.674   1.684   1.725
 9955SOL     OW30763   6.383   5.160   1.219
 9955SOL    HW130764   6.454   5.114   1.166
 9955SOL    HW230765   6.318   5.203   1.157
 9956SOL     OW30766   1.572   3.800   3.438
 9956SOL    HW130767   1.602   3.726   3.499
 9956SOL    HW230768   1.614   3.886   3.467
 9957SOL     OW30769   5.741   6.816   6.998
 9957SOL    HW130770   5.661   6.870   0.004
 9957SOL    HW230771   5.804   6.875   6.948
 9958SOL     OW30772   6.459   5.800   5.695
 9958SOL    HW130773   6.488   5.891   5.664
 9958SOL    HW230774   6.364   5.804   5.726
 9959SOL     OW30775   5.772   5.303   6.733
 9959SOL    HW130776   5.728   5.221   6.697
 9959SOL    HW230777   5.830   5.279   6.811
 9960SOL     OW30778   0.153   6.998   6.105
 9960SOL    HW130779   0.110   0.002   6.191
 9960SOL    HW230780   0.115   0.030   6.030
 9961SOL     OW30781   3.676   6.890   0.252
 9961SOL    HW130782   3.634   6.802   0.231
 9961SOL    HW230783   3.728   6.883   0.337
 9962SOL     OW30784   3.449   0.388   1.406
 9962SOL    HW130785   3.485   0.471   1.364
 9962SOL    HW230786   3.349   0.389   1.399
 9963SOL     OW30787   1.287   0.376   6.594
 9963SOL    HW130788   1.197   0.347   6.628
 9963SOL    HW230789   1.354   0.369   6.667
 9964SOL     OW30790   4.427   5.461   5.489
 9964SOL    HW130791   4.366   5.445   5.568
 9964SOL    HW230792   4.372   5.471   5.406
 9965SOL     OW30793   1.914   5.131   4.442
 9965SOL    HW130794   1.999   5.098   4.484
 9965SOL    HW230795   1.862   5.053   4.408
 9966SOL     OW30796   2.694   5.372   1.916
 9966SOL    HW130797   2.750   5.292   1.896
 9966SOL    HW230798   2.601   5.357   1.883
 9967SOL     OW30799   0.396   0.607   2.456
 9967SOL    HW130800   0.328   0.651   2.397
 9967SOL    HW230801   0.359   0.521   2.490
 9968SOL     OW30802   4.969   6.274   0.593
 9968SOL    HW130803   4.930   6.194   0.640
 9968SOL    HW230804   4.971   6.256   0.494
 9969SOL     OW30805   0.461   6.245   2.801
 9969SOL    HW130806   0.534   6.291   2.852
 9969SOL    HW230807   0.434   6.162   2.850
 9970SOL     OW30808   6.614   3.454   1.425
 9970SOL    HW130809   6.551   3.524   1.391
 9970SOL    HW230810   6.638   3.391   1.351
 9971SOL     OW30811   6.522   5.358   5.630
 9971SOL    HW130812   6.522   5.445   5.580
 9971SOL    HW230813   6.586   5.364   5.707
 9972SOL     OW30814   2.692   4.384   5.521
 9972SOL    HW130815   2.698   4.482   5.539
 9972SOL    HW230816   2.768   4.356   5.462
 9973SOL     OW30817   2.760   2.396   3.111
 9973SOL    HW130818   2.812   2.473   3.074
 9973SOL    HW230819   2.791   2.311   3.069
 9974SOL     OW30820   0.767   3.122   3.185
 9974SOL    HW130821   0.687   3.068   3.157
 9974SOL    HW230822   0.844   3.100   3.125
 9975SOL     OW30823   1.193   4.056   0.329
 9975SOL    HW130824   1.276   4.109   0.317
 9975SOL    HW230825   1.202   3.997   0.410
 9976SOL     OW30826   4.216   6.048   5.193
 9976SOL    HW130827   4.229   6.052   5.292
 9976SOL    HW230828   4.150   6.117   5.164
 9977SOL     OW30829   4.240   0.130   5.498
 9977SOL    HW130830   4.211   0.038   5.523
 9977SOL    HW230831   4.280   0.175   5.578
 9978SOL     OW30832   6.339   2.799   0.444
 9978SOL    HW130833   6.430   2.791   0.403
 9978SOL    HW230834   6.319   2.895   0.463
 9979SOL     OW30835   3.869   3.969   3.844
 9979SOL    HW130836   3.947   3.908   3.834
 9979SOL    HW230837   3.804   3.932   3.910
 9980SOL     OW30838   0.382   0.080   0.155
 9980SOL    HW130839   0.466   0.085   0.208
 9980SOL    HW230840   0.397   0.122   0.065
 9981SOL     OW30841   5.863   1.638   0.824
 9981SOL    HW130842   5.916   1.567   0.870
 9981SOL    HW230843   5.766   1.627   0.847
 9982SOL     OW30844   2.561   2.208   4.942
 9982SOL    HW130845   2.573   2.246   4.850
 9982SOL    HW230846   2.563   2.108   4.936
 9983SOL     OW30847   6.866   2.894   2.386
 9983SOL    HW130848   6.885   2.826   2.457
 9983SOL    HW230849   6.856   2.847   2.298
 9984SOL     OW30850   0.819   4.640   0.883
 9984SOL    HW130851   0.747   4.707   0.865
 9984SOL    HW230852   0.799   4.593   0.969
 9985SOL     OW30853   4.947   4.073   6.408
 9985SOL    HW130854   5.038   4.108   6.433
 9985SOL    HW230855   4.886   4.150   6.389
 9986SOL     OW30856   5.390   4.587   6.755
 9986SOL    HW130857   5.476   4.545   6.727
 9986SOL    HW230858   5.326   4.587   6.678
 9987SOL     OW30859   4.450   2.559   0.987
 9987SOL    HW130860   4.453   2.619   1.067
 9987SOL    HW230861   4.525   2.582   0.925
 9988SOL     OW30862   5.956   6.382   3.546
 9988SOL    HW130863   5.961   6.481   3.530
 9988SOL    HW230864   5.865   6.358   3.579
 9989SOL     OW30865   5.574   5.886   1.562
 9989SOL    HW130866   5.518   5.954   1.515
 9989SOL    HW230867   5.518   5.806   1.585
 9990SOL     OW30868   0.244   5.954   2.705
 9990SOL    HW130869   0.307   5.956   2.783
 9990SOL    HW230870   0.196   5.867   2.703
 9991SOL     OW30871   1.681   3.726   1.668
 9991SOL    HW130872   1.759   3.772   1.625
 9991SOL    HW230873   1.713   3.665   1.740
 9992SOL     OW30874   2.257   4.917   0.059
 9992SOL    HW130875   2.169   4.885   0.024
 9992SOL    HW230876   2.301   4.844   0.111
 9993SOL     OW30877   3.555   6.836   4.853
 9993SOL    HW130878   3.652   6.816   4.837
 9993SOL    HW230879   3.522   6.782   4.930
 9994SOL     OW30880   5.696   5.031   4.960
 9994SOL    HW130881   5.785   5.077   4.960
 9994SOL    HW230882   5.654   5.040   5.050
 9995SOL     OW30883   4.351   1.328   6.498
 9995SOL    HW130884   4.378   1.386   6.575
 9995SOL    HW230885   4.307   1.246   6.532
 9996SOL     OW30886   2.396   4.617   0.740
 9996SOL    HW130887   2.371   4.600   0.835
 9996SOL    HW230888   2.491   4.590   0.724
 9997SOL     OW30889   6.482   0.572   2.942
 9997SOL    HW130890   6.402   0.516   2.922
 9997SOL    HW230891   6.479   0.604   3.037
 9998SOL     OW30892   5.109   3.511   2.573
 9998SOL    HW130893   5.053   3.435   2.539
 9998SOL    HW230894   5.056   3.595   2.569
 9999SOL     OW30895   0.792   6.834   5.125
 9999SOL    HW130896   0.891   6.847   5.119
 9999SOL    HW230897   0.761   6.783   5.045
10000SOL     OW30898   4.491   2.950   0.934
10000SOL    HW130899   4.401   2.922   0.968
10000SOL    HW230900   4.492   2.942   0.834
10001SOL     OW30901   4.117   6.774   1.513
10001SOL    HW130902   4.166   6.859   1.491
10001SOL    HW230903   4.155   6.735   1.597
10002SOL     OW30904   1.803   6.507   2.484
10002SOL    HW130905   1.877   6.546   2.539
10002SOL    HW230906   1.809   6.543   2.391
10003SOL     OW30907   1.106   0.736   2.208
10003SOL    HW130908   1.122   0.827   2.245
10003SOL    HW230909   1.020   0.700   2.243
10004SOL     OW30910   6.782   3.061   3.691
10004SOL    HW130911   6.868   3.012   3.706
10004SOL    HW230912   6.800   3.145   3.641
10005SOL     OW30913   2.510   5.665   2.868
10005SOL    HW130914   2.584   5.622   2.817
10005SOL    HW230915   2.486   5.752   2.824
10006SOL     OW30916   5.636   2.105   5.997
10006SOL    HW130917   5.566   2.038   6.022
10006SOL    HW230918   5.656   2.164   6.075
10007SOL     OW30919   1.570   5.218   3.986
10007SOL    HW130920   1.600   5.238   4.079
10007SOL    HW230921   1.478   5.178   3.988
10008SOL     OW30922   4.316   0.584   5.468
10008SOL    HW130923   4.312   0.523   5.389
10008SOL    HW230924   4.305   0.679   5.439
10009SOL     OW30925   1.101   4.976   1.943
10009SOL    HW130926   1.185   4.929   1.915
10009SOL    HW230927   1.024   4.939   1.891
10010SOL     OW30928   1.928   4.309   1.107
10010SOL    HW130929   1.970   4.398   1.125
10010SOL    HW230930   1.862   4.288   1.179
10011SOL     OW30931   3.143   3.882   0.308
10011SOL    HW130932   3.100   3.919   0.226
10011SOL    HW230933   3.234   3.923   0.319
10012SOL     OW30934   5.551   1.952   3.712
10012SOL    HW130935   5.534   1.860   3.748
10012SOL    HW230936   5.503   1.964   3.626
10013SOL     OW30937   0.710   6.039   5.277
10013SOL    HW130938   0.806   6.036   5.250
10013SOL    HW230939   0.652   6.042   5.196
10014SOL     OW30940   1.313   0.780   3.461
10014SOL    HW130941   1.404   0.793   3.422
10014SOL    HW230942   1.245   0.829   3.406
10015SOL     OW30943   4.552   0.020   6.653
10015SOL    HW130944   4.472   6.984   6.638
10015SOL    HW230945   4.522   0.113   6.674
10016SOL     OW30946   3.088   1.172   4.640
10016SOL    HW130947   3.136   1.090   4.673
10016SOL    HW230948   3.040   1.216   4.716
10017SOL     OW30949   3.082   1.596   2.905
10017SOL    HW130950   2.982   1.586   2.899
10017SOL    HW230951   3.107   1.690   2.882
10018SOL     OW30952   6.918   4.807   5.300
10018SOL    HW130953   6.887   4.751   5.223
10018SOL    HW230954   7.010   4.842   5.282
10019SOL     OW30955   6.489   2.010   2.841
10019SOL    HW130956   6.558   1.967   2.783
10019SOL    HW230957   6.531   2.082   2.896
10020SOL     OW30958   6.367   0.840   2.534
10020SOL    HW130959   6.435   0.797   2.475
10020SOL    HW230960   6.276   0.806   2.511
10021SOL     OW30961   1.206   3.676   1.499
10021SOL    HW130962   1.303   3.697   1.506
10021SOL    HW230963   1.185   3.596   1.555
10022SOL     OW30964   1.538   6.557   6.141
10022SOL    HW130965   1.516   6.465   6.175
10022SOL    HW230966   1.517   6.562   6.044
10023SOL     OW30967   0.941   1.662   5.575
10023SOL    HW130968   0.853   1.709   5.578
10023SOL    HW230969   1.012   1.725   5.545
10024SOL     OW30970   2.304   4.319   3.684
10024SOL    HW130971   2.390   4.368   3.672
10024SOL    HW230972   2.266   4.294   3.594
10025SOL     OW30973   0.830   2.580   1.351
10025SOL    HW130974   0.841   2.670   1.392
10025SOL    HW230975   0.914   2.527   1.361
10026SOL     OW30976   6.230   0.915   5.044
10026SOL    HW130977   6.141   0.962   5.049
10026SOL    HW230978   6.300   0.972   5.086
10027SOL     OW30979   3.695   0.873   5.545
10027SOL    HW130980   3.660   0.893   5.453
10027SOL    HW230981   3.652   0.790   5.580
10028SOL     OW30982   3.978   6.746   2.194
10028SOL    HW130983   3.927   6.755   2.279
10028SOL    HW230984   4.027   6.659   2.193
10029SOL     OW30985   6.618   5.061   3.840
10029SOL    HW130986   6.653   5.110   3.919
10029SOL    HW230987   6.694   5.024   3.786
10030SOL     OW30988   2.696   6.861   4.147
10030SOL    HW130989   2.662   6.847   4.240
10030SOL    HW230990   2.796   6.859   4.147
10031SOL     OW30991   2.259   6.323   3.674
10031SOL    HW130992   2.264   6.224   3.659
10031SOL    HW230993   2.181   6.344   3.733
10032SOL     OW30994   3.028   5.962   3.947
10032SOL    HW130995   3.039   5.950   3.849
10032SOL    HW230996   2.971   5.888   3.984
10033SOL     OW30997   2.672   1.346   5.209
10033SOL    HW130998   2.681   1.421   5.143
10033SOL    HW230999   2.626   1.379   5.291
10034SOL     OW31000   2.166   1.138   2.025
10034SOL    HW131001   2.231   1.208   2.054
10034SOL    HW231002   2.155   1.071   2.099
10035SOL     OW31003   0.063   3.268   2.504
10035SOL    HW131004   0.058   3.367   2.501
10035SOL    HW231005   0.026   3.230   2.420
10036SOL     OW31006   0.383   0.843   6.923
10036SOL    HW131007   0.483   0.841   6.926
10036SOL    HW231008   0.350   0.775   6.858
10037SOL     OW31009   6.180   0.312   6.082
10037SOL    HW131010   6.260   0.286   6.136
10037SOL    HW231011   6.113   0.356   6.142
10038SOL     OW31012   5.384   6.417   6.631
10038SOL    HW131013   5.329   6.500   6.627
10038SOL    HW231014   5.396   6.380   6.539
10039SOL     OW31015   6.815   5.470   2.010
10039SOL    HW131016   6.827   5.566   2.036
10039SOL    HW231017   6.898   5.419   2.030
10040SOL     OW31018   2.524   0.081   0.372
10040SOL    HW131019   2.563   0.031   0.449
10040SOL    HW231020   2.424   0.076   0.376
10041SOL     OW31021   5.462   4.807   4.970
10041SOL    HW131022   5.546   4.825   5.023
10041SOL    HW231023   5.486   4.762   4.885
10042SOL     OW31024   6.481   0.478   5.411
10042SOL    HW131025   6.390   0.439   5.404
10042SOL    HW231026   6.475   0.578   5.414
10043SOL     OW31027   0.607   0.585   2.623
10043SOL    HW131028   0.680   0.542   2.571
10043SOL    HW231029   0.532   0.610   2.561
10044SOL     OW31030   2.725   2.108   6.829
10044SOL    HW131031   2.632   2.095   6.862
10044SOL    HW231032   2.786   2.128   6.906
10045SOL     OW31033   4.085   6.634   3.939
10045SOL    HW131034   4.175   6.669   3.913
10045SOL    HW231035   4.091   6.586   4.026
10046SOL     OW31036   0.059   2.187   1.477
10046SOL    HW131037   0.153   2.154   1.466
10046SOL    HW231038   7.022   2.112   1.506
10047SOL     OW31039   1.531   2.673   3.274
10047SOL    HW131040   1.492   2.764   3.291
10047SOL    HW231041   1.459   2.609   3.248
10048SOL     OW31042   3.698   2.601   1.772
10048SOL    HW131043   3.667   2.656   1.849
10048SOL    HW231044   3.688   2.504   1.795
10049SOL     OW31045   1.920   5.894   4.502
10049SOL    HW131046   1.855   5.830   4.461
10049SOL    HW231047   1.917   5.885   4.602
10050SOL     OW31048   5.798   1.604   4.656
10050SOL    HW131049   5.878   1.664   4.659
10050SOL    HW231050   5.821   1.519   4.609
10051SOL     OW31051   6.496   2.374   0.574
10051SOL    HW131052   6.569   2.377   0.641
10051SOL    HW231053   6.493   2.283   0.532
10052SOL     OW31054   1.852   5.128   1.053
10052SOL    HW131055   1.910   5.048   1.036
10052SOL    HW231056   1.756   5.103   1.037
10053SOL     OW31057   2.954   6.296   3.344
10053SOL    HW131058   2.876   6.233   3.338
10053SOL    HW231059   2.925   6.387   3.316
10054SOL     OW31060   4.603   5.596   3.585
10054SOL    HW131061   4.520   5.604   3.639
10054SOL    HW231062   4.665   5.530   3.627
10055SOL     OW31063   6.056   2.821   6.600
10055SOL    HW131064   6.155   2.823   6.584
10055SOL    HW231065   6.023   2.914   6.615
10056SOL     OW31066   5.504   4.174   2.462
10056SOL    HW131067   5.457   4.135   2.383
10056SOL    HW231068   5.437   4.199   2.532
10057SOL     OW31069   2.425   2.750   3.429
10057SOL    HW131070   2.521   2.769   3.452
10057SOL    HW231071   2.397   2.665   3.474
10058SOL     OW31072   0.604   4.738   3.961
10058SOL    HW131073   0.686   4.787   3.932
10058SOL    HW231074   0.601   4.732   4.061
10059SOL     OW31075   5.114   0.405   1.532
10059SOL    HW131076   5.097   0.421   1.435
10059SOL    HW231077   5.201   0.447   1.558
10060SOL     OW31078   2.405   2.289   2.047
10060SOL    HW131079   2.489   2.318   2.094
10060SOL    HW231080   2.382   2.356   1.976
10061SOL     OW31081   6.311   1.863   5.037
10061SOL    HW131082   6.322   1.830   4.943
10061SOL    HW231083   6.224   1.912   5.045
10062SOL     OW31084   5.611   6.020   2.960
10062SOL    HW131085   5.579   6.113   2.980
10062SOL    HW231086   5.669   6.022   2.878
10063SOL     OW31087   0.380   2.911   2.262
10063SOL    HW131088   0.429   2.824   2.258
10063SOL    HW231089   0.445   2.986   2.257
10064SOL     OW31090   4.862   5.677   5.452
10064SOL    HW131091   4.793   5.606   5.467
10064SOL    HW231092   4.925   5.679   5.529
10065SOL     OW31093   0.668   6.716   2.598
10065SOL    HW131094   0.715   6.804   2.607
10065SOL    HW231095   0.729   6.642   2.625
10066SOL     OW31096   0.319   0.327   3.332
10066SOL    HW131097   0.219   0.332   3.333
10066SOL    HW231098   0.352   0.339   3.238
10067SOL     OW31099   4.909   6.739   3.664
10067SOL    HW131100   4.867   6.802   3.729
10067SOL    HW231101   5.006   6.759   3.655
10068SOL     OW31102   5.142   3.920   5.582
10068SOL    HW131103   5.123   3.983   5.507
10068SOL    HW231104   5.076   3.846   5.581
10069SOL     OW31105   5.213   1.068   4.176
10069SOL    HW131106   5.207   0.978   4.134
10069SOL    HW231107   5.130   1.086   4.228
10070SOL     OW31108   1.304   6.900   4.646
10070SOL    HW131109   1.356   6.875   4.728
10070SOL    HW231110   1.362   6.956   4.586
10071SOL     OW31111   5.057   5.009   5.144
10071SOL    HW131112   5.094   4.924   5.181
10071SOL    HW231113   4.994   4.988   5.069
10072SOL     OW31114   1.261   6.601   4.162
10072SOL    HW131115   1.225   6.602   4.255
10072SOL    HW231116   1.326   6.526   4.152
10073SOL     OW31117   6.676   6.010   6.472
10073SOL    HW131118   6.750   6.063   6.513
10073SOL    HW231119   6.625   6.066   6.408
10074SOL     OW31120   2.485   0.037   5.532
10074SOL    HW131121   2.518   6.973   5.492
10074SOL    HW231122   2.448   0.095   5.460
10075SOL     OW31123   1.383   2.444   3.942
10075SOL    HW131124   1.324   2.483   4.013
10075SOL    HW231125   1.415   2.354   3.970
10076SOL     OW31126   5.876   0.205   3.949
10076SOL    HW131127   5.866   0.301   3.922
10076SOL    HW231128   5.814   0.148   3.896
10077SOL     OW31129   2.555   1.431   6.688
10077SOL    HW131130   2.574   1.527   6.666
10077SOL    HW231131   2.570   1.417   6.786
10078SOL     OW31132   5.436   6.067   5.504
10078SOL    HW131133   5.411   5.971   5.488
10078SOL    HW231134   5.514   6.090   5.445
10079SOL     OW31135   0.107   2.544   6.286
10079SOL    HW131136   0.028   2.602   6.306
10079SOL    HW231137   0.075   2.457   6.249
10080SOL     OW31138   1.007   2.562   5.793
10080SOL    HW131139   1.027   2.464   5.805
10080SOL    HW231140   0.909   2.577   5.801
10081SOL     OW31141   0.456   1.281   0.175
10081SOL    HW131142   0.510   1.365   0.170
10081SOL    HW231143   0.515   1.202   0.155
10082SOL     OW31144   0.033   0.318   0.529
10082SOL    HW131145   0.064   0.347   0.619
10082SOL    HW231146   0.109   0.274   0.480
10083SOL     OW31147   5.501   1.556   4.415
10083SOL    HW131148   5.570   1.485   4.425
10083SOL    HW231149   5.545   1.645   4.406
10084SOL     OW31150   2.412   0.919   0.084
10084SOL    HW131151   2.459   0.832   0.091
10084SOL    HW231152   2.478   0.994   0.087
10085SOL     OW31153   0.710   5.275   2.680
10085SOL    HW131154   0.743   5.369   2.691
10085SOL    HW231155   0.661   5.266   2.593
10086SOL     OW31156   6.832   3.501   2.004
10086SOL    HW131157   6.741   3.476   1.970
10086SOL    HW231158   6.901   3.441   1.962
10087SOL     OW31159   1.643   6.951   3.683
10087SOL    HW131160   1.649   0.026   3.660
10087SOL    HW231161   1.574   6.908   3.625
10088SOL     OW31162   6.563   0.626   5.115
10088SOL    HW131163   6.481   0.569   5.106
10088SOL    HW231164   6.642   0.569   5.137
10089SOL     OW31165   2.457   2.634   2.176
10089SOL    HW131166   2.480   2.693   2.253
10089SOL    HW231167   2.504   2.547   2.184
10090SOL     OW31168   6.654   5.193   2.307
10090SOL    HW131169   6.625   5.278   2.262
10090SOL    HW231170   6.753   5.184   2.301
10091SOL     OW31171   0.467   2.113   4.025
10091SOL    HW131172   0.474   2.153   4.116
10091SOL    HW231173   0.375   2.124   3.989
10092SOL     OW31174   1.584   2.719   5.148
10092SOL    HW131175   1.545   2.720   5.240
10092SOL    HW231176   1.513   2.743   5.081
10093SOL     OW31177   0.321   5.931   6.070
10093SOL    HW131178   0.274   5.943   6.158
10093SOL    HW231179   0.272   5.982   5.999
10094SOL     OW31180   1.773   1.118   1.974
10094SOL    HW131181   1.772   1.122   1.874
10094SOL    HW231182   1.684   1.090   2.008
10095SOL     OW31183   0.373   2.015   5.297
10095SOL    HW131184   0.302   2.085   5.309
10095SOL    HW231185   0.402   1.981   5.387
10096SOL     OW31186   0.148   5.738   2.389
10096SOL    HW131187   0.131   5.758   2.486
10096SOL    HW231188   0.100   5.655   2.363
10097SOL     OW31189   1.082   2.294   5.842
10097SOL    HW131190   1.179   2.309   5.856
10097SOL    HW231191   1.037   2.274   5.929
10098SOL     OW31192   3.639   5.121   6.490
10098SOL    HW131193   3.725   5.123   6.440
10098SOL    HW231194   3.574   5.184   6.448
10099SOL     OW31195   6.842   4.886   4.907
10099SOL    HW131196   6.927   4.847   4.872
10099SOL    HW231197   6.853   4.985   4.916
10100SOL     OW31198   5.161   0.924   5.757
10100SOL    HW131199   5.067   0.901   5.781
10100SOL    HW231200   5.183   0.887   5.666
10101SOL     OW31201   6.949   4.425   2.646
10101SOL    HW131202   6.891   4.362   2.697
10101SOL    HW231203   6.893   4.475   2.579
10102SOL     OW31204   3.821   0.171   4.140
10102SOL    HW131205   3.733   0.177   4.092
10102SOL    HW231206   3.896   0.177   4.074
10103SOL     OW31207   0.938   1.979   0.730
10103SOL    HW131208   0.942   2.079   0.734
10103SOL    HW231209   0.893   1.951   0.646
10104SOL     OW31210   1.833   6.053   5.854
10104SOL    HW131211   1.912   6.081   5.908
10104SOL    HW231212   1.758   6.118   5.868
10105SOL     OW31213   3.469   0.606   0.105
10105SOL    HW131214   3.512   0.695   0.088
10105SOL    HW231215   3.520   0.558   0.176
10106SOL     OW31216   4.741   5.318   1.699
10106SOL    HW131217   4.761   5.392   1.634
10106SOL    HW231218   4.718   5.235   1.649
10107SOL     OW31219   5.861   1.101   5.816
10107SOL    HW131220   5.766   1.074   5.829
10107SOL    HW231221   5.920   1.043   5.872
10108SOL     OW31222   5.823   6.118   6.685
10108SOL    HW131223   5.809   6.070   6.599
10108SOL    HW231224   5.800   6.215   6.673
10109SOL     OW31225   4.287   6.094   3.588
10109SOL    HW131226   4.256   6.011   3.542
10109SOL    HW231227   4.380   6.115   3.559
10110SOL     OW31228   3.339   1.402   5.322
10110SOL    HW131229   3.394   1.445   5.251
10110SOL    HW231230   3.399   1.365   5.394
10111SOL     OW31231   0.212   2.735   2.567
10111SOL    HW131232   0.181   2.753   2.661
10111SOL    HW231233   0.143   2.767   2.503
10112SOL     OW31234   4.094   3.445   5.944
10112SOL    HW131235   4.191   3.462   5.929
10112SOL    HW231236   4.040   3.510   5.891
10113SOL     OW31237   4.410   6.722   0.400
10113SOL    HW131238   4.488   6.692   0.454
10113SOL    HW231239   4.391   6.818   0.418
10114SOL     OW31240   4.374   1.583   1.703
10114SOL    HW131241   4.467   1.605   1.673
10114SOL    HW231242   4.309   1.643   1.655
10115SOL     OW31243   1.232   1.732   4.176
10115SOL    HW131244   1.133   1.745   4.178
10115SOL    HW231245   1.276   1.815   4.212
10116SOL     OW31246   0.691   0.365   0.563
10116SOL    HW131247   0.761   0.298   0.588
10116SOL    HW231248   0.612   0.353   0.622
10117SOL     OW31249   4.658   0.689   5.814
10117SOL    HW131250   4.560   0.670   5.821
10117SOL    HW231251   4.671   0.775   5.765
10118SOL     OW31252   5.927   5.009   2.181
10118SOL    HW131253   5.956   5.098   2.218
10118SOL    HW231254   5.845   5.022   2.125
10119SOL     OW31255   2.105   0.431   6.045
10119SOL    HW131256   2.030   0.412   6.109
10119SOL    HW231257   2.129   0.347   5.997
10120SOL     OW31258   5.820   3.307   3.470
10120SOL    HW131259   5.753   3.362   3.519
10120SOL    HW231260   5.779   3.273   3.385
10121SOL     OW31261   5.763   5.158   3.825
10121SOL    HW131262   5.783   5.086   3.892
10121SOL    HW231263   5.841   5.219   3.816
10122SOL     OW31264   5.193   3.242   6.880
10122SOL    HW131265   5.180   3.304   6.957
10122SOL    HW231266   5.106   3.226   6.834
10123SOL     OW31267   0.056   6.507   0.378
10123SOL    HW131268   0.097   6.594   0.404
10123SOL    HW231269   0.127   6.447   0.339
10124SOL     OW31270   3.016   4.140   1.134
10124SOL    HW131271   2.941   4.080   1.160
10124SOL    HW231272   2.979   4.226   1.099
10125SOL     OW31273   2.209   0.633   0.774
10125SOL    HW131274   2.227   0.665   0.681
10125SOL    HW231275   2.295   0.627   0.824
10126SOL     OW31276   5.451   4.725   0.015
10126SOL    HW131277   5.479   4.648   6.980
10126SOL    HW231278   5.499   4.808   7.008
10127SOL     OW31279   3.762   5.017   5.128
10127SOL    HW131280   3.666   5.002   5.103
10127SOL    HW231281   3.796   5.096   5.077
10128SOL     OW31282   0.190   1.963   1.732
10128SOL    HW131283   0.217   1.882   1.680
10128SOL    HW231284   0.115   1.940   1.794
10129SOL     OW31285   5.242   2.518   3.402
10129SOL    HW131286   5.316   2.583   3.420
10129SOL    HW231287   5.248   2.486   3.308
10130SOL     OW31288   6.133   6.175   1.149
10130SOL    HW131289   6.135   6.078   1.123
10130SOL    HW231290   6.064   6.223   1.096
10131SOL     OW31291   0.228   0.248   0.331
10131SOL    HW131292   0.280   0.194   0.264
10131SOL    HW231293   0.290   0.307   0.381
10132SOL     OW31294   2.543   0.005   2.554
10132SOL    HW131295   2.609   6.971   2.603
10132SOL    HW231296   2.495   0.065   2.619
10133SOL     OW31297   5.976   4.768   2.425
10133SOL    HW131298   5.912   4.700   2.390
10133SOL    HW231299   5.998   4.834   2.353
10134SOL     OW31300   0.402   1.489   2.014
10134SOL    HW131301   0.487   1.538   2.031
10134SOL    HW231302   0.363   1.520   1.927
10135SOL     OW31303   3.125   6.064   3.364
10135SOL    HW131304   3.034   6.060   3.406
10135SOL    HW231305   3.146   6.159   3.340
10136SOL     OW31306   6.561   6.563   2.072
10136SOL    HW131307   6.634   6.616   2.115
10136SOL    HW231308   6.504   6.624   2.017
10137SOL     OW31309   5.529   5.081   4.261
10137SOL    HW131310   5.594   5.023   4.211
10137SOL    HW231311   5.560   5.091   4.355
10138SOL     OW31312   5.329   2.404   6.387
10138SOL    HW131313   5.242   2.410   6.435
10138SOL    HW231314   5.314   2.417   6.289
10139SOL     OW31315   3.668   2.880   3.380
10139SOL    HW131316   3.571   2.893   3.397
10139SOL    HW231317   3.683   2.859   3.283
10140SOL     OW31318   1.053   5.565   4.385
10140SOL    HW131319   1.084   5.660   4.375
10140SOL    HW231320   1.020   5.531   4.297
10141SOL     OW31321   2.264   0.571   3.872
10141SOL    HW131322   2.324   0.558   3.951
10141SOL    HW231323   2.300   0.645   3.815
10142SOL     OW31324   4.946   5.911   4.258
10142SOL    HW131325   4.950   5.912   4.358
10142SOL    HW231326   4.961   5.818   4.225
10143SOL     OW31327   4.708   5.887   1.695
10143SOL    HW131328   4.656   5.943   1.631
10143SOL    HW231329   4.704   5.791   1.666
10144SOL     OW31330   2.725   4.679   3.002
10144SOL    HW131331   2.799   4.663   2.937
10144SOL    HW231332   2.742   4.763   3.052
10145SOL     OW31333   2.946   6.921   5.990
10145SOL    HW131334   2.903   7.011   5.997
10145SOL    HW231335   2.901   6.857   6.053
10146SOL     OW31336   5.050   4.935   4.094
10146SOL    HW131337   5.028   5.013   4.153
10146SOL    HW231338   4.967   4.903   4.049
10147SOL     OW31339   4.725   5.725   4.353
10147SOL    HW131340   4.807   5.706   4.406
10147SOL    HW231341   4.727   5.819   4.321
10148SOL     OW31342   6.238   4.942   0.414
10148SOL    HW131343   6.260   4.948   0.512
10148SOL    HW231344   6.162   5.003   0.393
10149SOL     OW31345   4.331   3.431   0.710
10149SOL    HW131346   4.373   3.357   0.763
10149SOL    HW231347   4.323   3.403   0.614
10150SOL     OW31348   5.329   3.997   0.873
10150SOL    HW131349   5.374   3.990   0.784
10150SOL    HW231350   5.364   4.077   0.921
10151SOL     OW31351   1.142   5.988   5.599
10151SOL    HW131352   1.111   5.895   5.578
10151SOL    HW231353   1.065   6.042   5.633
10152SOL     OW31354   6.989   5.683   4.048
10152SOL    HW131355   6.939   5.695   3.963
10152SOL    HW231356   0.002   5.590   4.053
10153SOL     OW31357   5.129   5.797   3.962
10153SOL    HW131358   5.077   5.726   3.916
10153SOL    HW231359   5.102   5.887   3.926
10154SOL     OW31360   6.677   5.687   5.858
10154SOL    HW131361   6.601   5.726   5.806
10154SOL    HW231362   6.684   5.732   5.947
10155SOL     OW31363   3.623   1.550   6.092
10155SOL    HW131364   3.687   1.486   6.136
10155SOL    HW231365   3.538   1.502   6.072
10156SOL     OW31366   5.718   0.142   2.198
10156SOL    HW131367   5.694   0.211   2.130
10156SOL    HW231368   5.762   0.187   2.277
10157SOL     OW31369   4.760   0.825   4.723
10157SOL    HW131370   4.694   0.767   4.675
10157SOL    HW231371   4.711   0.889   4.782
10158SOL     OW31372   4.612   3.511   5.933
10158SOL    HW131373   4.700   3.475   5.964
10158SOL    HW231374   4.626   3.569   5.853
10159SOL     OW31375   1.784   1.284   6.182
10159SOL    HW131376   1.750   1.191   6.170
10159SOL    HW231377   1.709   1.349   6.173
10160SOL     OW31378   0.771   6.014   3.178
10160SOL    HW131379   0.729   5.936   3.130
10160SOL    HW231380   0.828   5.980   3.252
10161SOL     OW31381   1.975   5.943   5.655
10161SOL    HW131382   1.902   5.974   5.716
10161SOL    HW231383   2.059   5.995   5.675
10162SOL     OW31384   3.380   2.624   6.667
10162SOL    HW131385   3.447   2.575   6.611
10162SOL    HW231386   3.321   2.679   6.607
10163SOL     OW31387   0.171   2.763   5.669
10163SOL    HW131388   0.119   2.685   5.635
10163SOL    HW231389   0.222   2.737   5.751
10164SOL     OW31390   1.446   2.454   5.212
10164SOL    HW131391   1.458   2.393   5.290
10164SOL    HW231392   1.469   2.548   5.239
10165SOL     OW31393   0.214   2.209   3.199
10165SOL    HW131394   0.167   2.241   3.117
10165SOL    HW231395   0.154   2.147   3.250
10166SOL     OW31396   0.550   1.257   2.141
10166SOL    HW131397   0.626   1.280   2.080
10166SOL    HW231398   0.484   1.332   2.142
10167SOL     OW31399   4.804   0.562   0.880
10167SOL    HW131400   4.822   0.547   0.783
10167SOL    HW231401   4.762   0.480   0.919
10168SOL     OW31402   6.565   4.581   4.727
10168SOL    HW131403   6.564   4.663   4.784
10168SOL    HW231404   6.659   4.550   4.714
10169SOL     OW31405   6.527   4.299   4.293
10169SOL    HW131406   6.592   4.260   4.358
10169SOL    HW231407   6.462   4.357   4.341
10170SOL     OW31408   1.317   3.831   4.762
10170SOL    HW131409   1.293   3.927   4.748
10170SOL    HW231410   1.351   3.818   4.855
10171SOL     OW31411   6.038   3.102   5.923
10171SOL    HW131412   6.031   3.166   5.999
10171SOL    HW231413   6.065   3.152   5.840
10172SOL     OW31414   4.585   1.118   4.242
10172SOL    HW131415   4.559   1.022   4.242
10172SOL    HW231416   4.674   1.129   4.199
10173SOL     OW31417   2.322   2.274   2.977
10173SOL    HW131418   2.318   2.374   2.972
10173SOL    HW231419   2.356   2.237   2.891
10174SOL     OW31420   5.897   4.133   0.758
10174SOL    HW131421   5.917   4.221   0.802
10174SOL    HW231422   5.980   4.078   0.754
10175SOL     OW31423   6.238   2.505   6.169
10175SOL    HW131424   6.143   2.524   6.145
10175SOL    HW231425   6.258   2.539   6.261
10176SOL     OW31426   2.263   3.713   0.250
10176SOL    HW131427   2.300   3.805   0.265
10176SOL    HW231428   2.289   3.654   0.327
10177SOL     OW31429   1.964   0.186   5.808
10177SOL    HW131430   2.060   0.213   5.800
10177SOL    HW231431   1.938   0.131   5.729
10178SOL     OW31432   5.381   2.927   5.754
10178SOL    HW131433   5.316   2.932   5.678
10178SOL    HW231434   5.350   2.986   5.828
10179SOL     OW31435   0.064   3.545   6.158
10179SOL    HW131436   7.008   3.592   6.199
10179SOL    HW231437   0.149   3.585   6.193
10180SOL     OW31438   2.452   6.445   5.870
10180SOL    HW131439   2.551   6.442   5.852
10180SOL    HW231440   2.435   6.435   5.967
10181SOL     OW31441   5.770   3.488   1.659
10181SOL    HW131442   5.797   3.566   1.714
10181SOL    HW231443   5.852   3.438   1.630
10182SOL     OW31444   4.295   1.451   0.360
10182SOL    HW131445   4.298   1.431   0.262
10182SOL    HW231446   4.388   1.453   0.396
10183SOL     OW31447   1.512   1.393   6.819
10183SOL    HW131448   1.486   1.462   6.887
10183SOL    HW231449   1.566   1.437   6.747
10184SOL     OW31450   4.849   0.331   6.790
10184SOL    HW131451   4.880   0.386   6.712
10184SOL    HW231452   4.840   0.235   6.762
10185SOL     OW31453   4.784   1.155   0.012
10185SOL    HW131454   4.728   1.076   7.009
10185SOL    HW231455   4.881   1.131   0.006
10186SOL     OW31456   4.566   2.051   2.793
10186SOL    HW131457   4.553   2.145   2.825
10186SOL    HW231458   4.532   2.043   2.699
10187SOL     OW31459   0.500   1.972   2.052
10187SOL    HW131460   0.493   2.055   2.108
10187SOL    HW231461   0.432   1.906   2.083
10188SOL     OW31462   3.898   4.765   0.719
10188SOL    HW131463   3.940   4.784   0.630
10188SOL    HW231464   3.878   4.667   0.726
10189SOL     OW31465   1.497   6.611   5.873
10189SOL    HW131466   1.521   6.706   5.856
10189SOL    HW231467   1.409   6.590   5.830
10190SOL     OW31468   4.731   2.510   0.063
10190SOL    HW131469   4.738   2.607   0.041
10190SOL    HW231470   4.643   2.474   0.033
10191SOL     OW31471   6.864   4.617   6.504
10191SOL    HW131472   6.831   4.706   6.472
10191SOL    HW231473   6.796   4.576   6.564
10192SOL     OW31474   4.001   1.598   0.429
10192SOL    HW131475   3.902   1.607   0.427
10192SOL    HW231476   4.027   1.513   0.384
10193SOL     OW31477   4.136   4.290   0.614
10193SOL    HW131478   4.104   4.222   0.547
10193SOL    HW231479   4.126   4.382   0.576
10194SOL     OW31480   5.021   2.771   5.324
10194SOL    HW131481   5.063   2.691   5.365
10194SOL    HW231482   5.079   2.804   5.249
10195SOL     OW31483   6.044   4.153   1.726
10195SOL    HW131484   5.970   4.215   1.702
10195SOL    HW231485   6.100   4.135   1.646
10196SOL     OW31486   0.457   1.419   4.653
10196SOL    HW131487   0.441   1.324   4.682
10196SOL    HW231488   0.445   1.480   4.731
10197SOL     OW31489   5.803   0.699   6.740
10197SOL    HW131490   5.791   0.601   6.725
10197SOL    HW231491   5.813   0.745   6.651
10198SOL     OW31492   4.534   6.952   3.383
10198SOL    HW131493   4.494   6.923   3.470
10198SOL    HW231494   4.479   6.916   3.308
10199SOL     OW31495   0.651   2.238   5.352
10199SOL    HW131496   0.665   2.200   5.261
10199SOL    HW231497   0.737   2.237   5.403
10200SOL     OW31498   5.245   1.662   1.786
10200SOL    HW131499   5.288   1.740   1.832
10200SOL    HW231500   5.150   1.685   1.765
10201SOL     OW31501   1.232   3.815   0.509
10201SOL    HW131502   1.180   3.798   0.593
10201SOL    HW231503   1.201   3.752   0.438
10202SOL     OW31504   5.243   0.700   4.287
10202SOL    HW131505   5.299   0.619   4.301
10202SOL    HW231506   5.295   0.781   4.315
10203SOL     OW31507   6.797   2.633   4.586
10203SOL    HW131508   6.737   2.704   4.623
10203SOL    HW231509   6.743   2.568   4.532
10204SOL     OW31510   5.540   4.972   6.409
10204SOL    HW131511   5.548   4.876   6.434
10204SOL    HW231512   5.595   4.991   6.328
10205SOL     OW31513   0.564   1.073   6.411
10205SOL    HW131514   0.555   1.085   6.510
10205SOL    HW231515   0.653   1.107   6.381
10206SOL     OW31516   1.936   1.207   4.964
10206SOL    HW131517   1.934   1.111   4.993
10206SOL    HW231518   1.959   1.265   5.042
10207SOL     OW31519   2.355   2.473   5.556
10207SOL    HW131520   2.368   2.374   5.552
10207SOL    HW231521   2.259   2.494   5.575
10208SOL     OW31522   6.872   6.250   5.483
10208SOL    HW131523   6.932   6.270   5.406
10208SOL    HW231524   6.922   6.199   5.553
10209SOL     OW31525   0.362   6.548   6.030
10209SOL    HW131526   0.375   6.451   6.008
10209SOL    HW231527   0.428   6.602   5.978
10210SOL     OW31528   3.472   0.262   1.875
10210SOL    HW131529   3.517   0.299   1.794
10210SOL    HW231530   3.541   0.229   1.940
10211SOL     OW31531   5.118   5.598   5.886
10211SOL    HW131532   5.187   5.532   5.915
10211SOL    HW231533   5.092   5.580   5.791
10212SOL     OW31534   0.919   0.511   6.520
10212SOL    HW131535   0.884   0.450   6.448
10212SOL    HW231536   0.956   0.456   6.595
10213SOL     OW31537   6.665   2.373   0.810
10213SOL    HW131538   6.735   2.313   0.848
10213SOL    HW231539   6.635   2.437   0.881
10214SOL     OW31540   1.506   2.670   0.033
10214SOL    HW131541   1.550   2.683   6.967
10214SOL    HW231542   1.484   2.573   0.045
10215SOL     OW31543   2.928   3.864   2.509
10215SOL    HW131544   2.828   3.872   2.506
10215SOL    HW231545   2.960   3.822   2.424
10216SOL     OW31546   0.702   6.057   1.910
10216SOL    HW131547   0.692   6.083   1.814
10216SOL    HW231548   0.611   6.045   1.951
10217SOL     OW31549   3.898   1.589   5.193
10217SOL    HW131550   3.828   1.658   5.203
10217SOL    HW231551   3.989   1.631   5.202
10218SOL     OW31552   0.947   3.306   2.631
10218SOL    HW131553   0.864   3.252   2.619
10218SOL    HW231554   0.998   3.310   2.546
10219SOL     OW31555   0.102   5.794   2.957
10219SOL    HW131556   0.037   5.736   2.908
10219SOL    HW231557   0.074   5.890   2.949
10220SOL     OW31558   3.365   3.431   0.131
10220SOL    HW131559   3.426   3.412   0.208
10220SOL    HW231560   3.270   3.421   0.160
10221SOL     OW31561   0.823   5.427   3.630
10221SOL    HW131562   0.904   5.368   3.638
10221SOL    HW231563   0.779   5.436   3.719
10222SOL     OW31564   3.470   3.685   3.835
10222SOL    HW131565   3.373   3.675   3.812
10222SOL    HW231566   3.480   3.748   3.912
10223SOL     OW31567   2.297   6.596   1.013
10223SOL    HW131568   2.322   6.687   0.981
10223SOL    HW231569   2.318   6.529   0.941
10224SOL     OW31570   6.596   3.581   3.078
10224SOL    HW131571   6.648   3.589   2.993
10224SOL    HW231572   6.649   3.619   3.154
10225SOL     OW31573   1.834   3.635   5.896
10225SOL    HW131574   1.871   3.679   5.814
10225SOL    HW231575   1.878   3.547   5.909
10226SOL     OW31576   5.049   4.234   0.165
10226SOL    HW131577   5.017   4.324   0.195
10226SOL    HW231578   5.039   4.169   0.240
10227SOL     OW31579   5.639   3.671   1.197
10227SOL    HW131580   5.664   3.665   1.101
10227SOL    HW231581   5.719   3.649   1.254
10228SOL     OW31582   4.916   0.439   0.653
10228SOL    HW131583   4.826   0.416   0.617
10228SOL    HW231584   4.978   0.362   0.640
10229SOL     OW31585   0.496   2.644   5.070
10229SOL    HW131586   0.515   2.672   4.975
10229SOL    HW231587   0.568   2.679   5.130
10230SOL     OW31588   6.372   6.196   1.260
10230SOL    HW131589   6.376   6.198   1.360
10230SOL    HW231590   6.277   6.183   1.231
10231SOL     OW31591   0.102   4.582   2.827
10231SOL    HW131592   0.126   4.521   2.902
10231SOL    HW231593   0.021   4.546   2.779
10232SOL     OW31594   4.846   4.389   2.896
10232SOL    HW131595   4.863   4.350   2.987
10232SOL    HW231596   4.804   4.479   2.907
10233SOL     OW31597   2.420   4.236   5.310
10233SOL    HW131598   2.332   4.247   5.356
10233SOL    HW231599   2.413   4.167   5.239
10234SOL     OW31600   0.741   0.968   1.938
10234SOL    HW131601   0.785   1.052   1.970
10234SOL    HW231602   0.652   0.957   1.983
10235SOL     OW31603   1.135   1.080   3.051
10235SOL    HW131604   1.175   1.015   2.987
10235SOL    HW231605   1.046   1.111   3.016
10236SOL     OW31606   1.328   0.110   2.627
10236SOL    HW131607   1.427   0.120   2.630
10236SOL    HW231608   1.286   0.176   2.690
10237SOL     OW31609   0.097   3.388   4.533
10237SOL    HW131610   0.116   3.343   4.620
10237SOL    HW231611   0.087   3.486   4.548
10238SOL     OW31612   2.803   6.781   1.312
10238SOL    HW131613   2.707   6.751   1.311
10238SOL    HW231614   2.821   6.835   1.230
10239SOL     OW31615   0.760   2.023   4.823
10239SOL    HW131616   0.801   2.109   4.793
10239SOL    HW231617   0.660   2.027   4.812
10240SOL     OW31618   2.096   6.129   0.775
10240SOL    HW131619   2.116   6.100   0.681
10240SOL    HW231620   2.005   6.097   0.801
10241SOL     OW31621   4.584   3.794   1.424
10241SOL    HW131622   4.626   3.882   1.445
10241SOL    HW231623   4.596   3.775   1.326
10242SOL     OW31624   0.016   2.855   0.548
10242SOL    HW131625   6.986   2.939   0.532
10242SOL    HW231626   7.009   2.814   0.634
10243SOL     OW31627   2.957   6.140   2.393
10243SOL    HW131628   2.996   6.053   2.363
10243SOL    HW231629   2.955   6.204   2.317
10244SOL     OW31630   2.854   5.156   1.779
10244SOL    HW131631   2.846   5.059   1.757
10244SOL    HW231632   2.932   5.170   1.840
10245SOL     OW31633   5.428   4.538   1.129
10245SOL    HW131634   5.332   4.553   1.153
10245SOL    HW231635   5.486   4.568   1.205
10246SOL     OW31636   3.556   3.223   4.097
10246SOL    HW131637   3.605   3.288   4.039
10246SOL    HW231638   3.586   3.234   4.192
10247SOL     OW31639   0.808   2.831   4.576
10247SOL    HW131640   0.886   2.818   4.515
10247SOL    HW231641   0.837   2.883   4.656
10248SOL     OW31642   0.480   1.161   5.300
10248SOL    HW131643   0.384   1.131   5.307
10248SOL    HW231644   0.495   1.239   5.360
10249SOL     OW31645   2.358   4.938   6.110
10249SOL    HW131646   2.307   4.903   6.032
10249SOL    HW231647   2.456   4.935   6.090
10250SOL     OW31648   3.112   2.228   0.821
10250SOL    HW131649   3.135   2.231   0.919
10250SOL    HW231650   3.018   2.197   0.810
10251SOL     OW31651   1.475   0.790   4.391
10251SOL    HW131652   1.568   0.825   4.381
10251SOL    HW231653   1.478   0.694   4.419
10252SOL     OW31654   4.475   4.710   5.814
10252SOL    HW131655   4.479   4.710   5.714
10252SOL    HW231656   4.400   4.767   5.845
10253SOL     OW31657   3.843   6.357   6.462
10253SOL    HW131658   3.745   6.334   6.459
10253SOL    HW231659   3.897   6.274   6.445
10254SOL     OW31660   6.981   1.558   5.676
10254SOL    HW131661   6.984   1.488   5.748
10254SOL    HW231662   6.949   1.517   5.591
10255SOL     OW31663   3.890   4.385   1.659
10255SOL    HW131664   3.970   4.342   1.618
10255SOL    HW231665   3.836   4.316   1.708
10256SOL     OW31666   3.737   1.527   4.694
10256SOL    HW131667   3.688   1.447   4.659
10256SOL    HW231668   3.682   1.609   4.679
10257SOL     OW31669   3.898   5.740   3.054
10257SOL    HW131670   3.982   5.752   3.000
10257SOL    HW231671   3.855   5.653   3.030
10258SOL     OW31672   2.506   1.601   2.657
10258SOL    HW131673   2.468   1.528   2.600
10258SOL    HW231674   2.469   1.594   2.749
10259SOL     OW31675   1.573   3.853   4.323
10259SOL    HW131676   1.479   3.860   4.291
10259SOL    HW231677   1.591   3.923   4.392
10260SOL     OW31678   0.182   0.048   3.106
10260SOL    HW131679   0.085   0.072   3.101
10260SOL    HW231680   0.223   0.055   3.015
10261SOL     OW31681   0.219   4.378   0.743
10261SOL    HW131682   0.287   4.354   0.812
10261SOL    HW231683   0.130   4.343   0.772
10262SOL     OW31684   3.953   0.764   6.482
10262SOL    HW131685   3.990   0.857   6.484
10262SOL    HW231686   4.024   0.701   6.450
10263SOL     OW31687   5.633   0.688   2.876
10263SOL    HW131688   5.586   0.663   2.961
10263SOL    HW231689   5.641   0.788   2.871
10264SOL     OW31690   6.758   0.269   6.202
10264SOL    HW131691   6.782   0.173   6.186
10264SOL    HW231692   6.670   0.289   6.159
10265SOL     OW31693   1.903   1.768   2.079
10265SOL    HW131694   1.845   1.692   2.109
10265SOL    HW231695   1.846   1.842   2.044
10266SOL     OW31696   2.742   3.403   1.724
10266SOL    HW131697   2.714   3.355   1.641
10266SOL    HW231698   2.690   3.488   1.732
10267SOL     OW31699   6.631   0.367   0.422
10267SOL    HW131700   6.623   0.342   0.518
10267SOL    HW231701   6.721   0.341   0.388
10268SOL     OW31702   3.391   5.689   2.529
10268SOL    HW131703   3.410   5.639   2.613
10268SOL    HW231704   3.307   5.743   2.540
10269SOL     OW31705   1.944   1.705   0.692
10269SOL    HW131706   2.042   1.711   0.712
10269SOL    HW231707   1.916   1.609   0.691
10270SOL     OW31708   2.718   0.269   3.547
10270SOL    HW131709   2.680   0.346   3.497
10270SOL    HW231710   2.665   0.252   3.629
10271SOL     OW31711   2.156   1.129   6.776
10271SOL    HW131712   2.166   1.035   6.808
10271SOL    HW231713   2.061   1.143   6.746
10272SOL     OW31714   6.109   6.896   4.474
10272SOL    HW131715   6.029   6.880   4.531
10272SOL    HW231716   6.125   6.995   4.466
10273SOL     OW31717   2.014   5.461   3.852
10273SOL    HW131718   2.076   5.517   3.798
10273SOL    HW231719   1.950   5.414   3.792
10274SOL     OW31720   0.857   4.116   5.010
10274SOL    HW131721   0.862   4.017   4.995
10274SOL    HW231722   0.784   4.136   5.075
10275SOL     OW31723   6.580   1.374   2.160
10275SOL    HW131724   6.530   1.428   2.092
10275SOL    HW231725   6.578   1.278   2.134
10276SOL     OW31726   2.589   5.819   5.023
10276SOL    HW131727   2.657   5.872   5.074
10276SOL    HW231728   2.633   5.738   4.984
10277SOL     OW31729   1.327   5.815   3.741
10277SOL    HW131730   1.371   5.742   3.690
10277SOL    HW231731   1.388   5.847   3.813
10278SOL     OW31732   6.437   0.108   4.607
10278SOL    HW131733   6.342   0.110   4.577
10278SOL    HW231734   6.473   0.202   4.610
10279SOL     OW31735   1.121   5.252   3.852
10279SOL    HW131736   1.160   5.224   3.940
10279SOL    HW231737   1.098   5.349   3.856
10280SOL     OW31738   6.501   4.872   0.358
10280SOL    HW131739   6.402   4.882   0.369
10280SOL    HW231740   6.520   4.800   0.292
10281SOL     OW31741   6.542   0.923   3.522
10281SOL    HW131742   6.640   0.922   3.503
10281SOL    HW231743   6.527   0.914   3.620
10282SOL     OW31744   5.157   2.871   3.402
10282SOL    HW131745   5.119   2.938   3.466
10282SOL    HW231746   5.158   2.910   3.309
10283SOL     OW31747   0.592   2.656   1.235
10283SOL    HW131748   0.686   2.626   1.248
10283SOL    HW231749   0.589   2.756   1.232
10284SOL     OW31750   0.274   4.461   4.183
10284SOL    HW131751   0.189   4.486   4.231
10284SOL    HW231752   0.284   4.518   4.102
10285SOL     OW31753   6.972   6.299   6.272
10285SOL    HW131754   6.994   6.394   6.294
10285SOL    HW231755   6.955   6.249   6.357
10286SOL     OW31756   2.552   1.502   3.193
10286SOL    HW131757   2.514   1.575   3.135
10286SOL    HW231758   2.532   1.523   3.288
10287SOL     OW31759   1.303   5.479   2.712
10287SOL    HW131760   1.230   5.422   2.750
10287SOL    HW231761   1.338   5.438   2.628
10288SOL     OW31762   3.620   6.004   4.622
10288SOL    HW131763   3.690   6.019   4.552
10288SOL    HW231764   3.661   5.957   4.700
10289SOL     OW31765   4.078   6.280   0.099
10289SOL    HW131766   4.125   6.364   0.125
10289SOL    HW231767   4.139   6.202   0.113
10290SOL     OW31768   3.043   3.321   2.130
10290SOL    HW131769   2.971   3.345   2.066
10290SOL    HW231770   3.096   3.244   2.094
10291SOL     OW31771   2.337   2.057   2.527
10291SOL    HW131772   2.347   2.125   2.455
10291SOL    HW231773   2.392   1.976   2.505
10292SOL     OW31774   0.151   6.725   6.146
10292SOL    HW131775   0.234   6.683   6.109
10292SOL    HW231776   0.162   6.824   6.146
10293SOL     OW31777   1.329   3.829   5.063
10293SOL    HW131778   1.345   3.769   5.141
10293SOL    HW231779   1.350   3.923   5.089
10294SOL     OW31780   2.999   0.303   2.387
10294SOL    HW131781   2.927   0.370   2.399
10294SOL    HW231782   3.054   0.328   2.307
10295SOL     OW31783   1.301   1.474   0.128
10295SOL    HW131784   1.297   1.536   0.205
10295SOL    HW231785   1.364   1.509   0.059
10296SOL     OW31786   6.455   1.986   5.804
10296SOL    HW131787   6.398   1.924   5.751
10296SOL    HW231788   6.490   1.939   5.885
10297SOL     OW31789   4.016   1.216   0.883
10297SOL    HW131790   3.969   1.279   0.821
10297SOL    HW231791   4.114   1.235   0.881
10298SOL     OW31792   0.493   2.295   2.184
10298SOL    HW131793   0.443   2.334   2.261
10298SOL    HW231794   0.579   2.254   2.217
10299SOL     OW31795   4.585   0.184   2.605
10299SOL    HW131796   4.643   0.265   2.617
10299SOL    HW231797   4.503   0.193   2.662
10300SOL     OW31798   1.430   3.174   0.861
10300SOL    HW131799   1.417   3.078   0.836
10300SOL    HW231800   1.520   3.204   0.829
10301SOL     OW31801   4.021   0.728   0.100
10301SOL    HW131802   4.040   0.746   0.197
10301SOL    HW231803   3.940   0.670   0.093
10302SOL     OW31804   3.134   6.400   4.943
10302SOL    HW131805   3.052   6.350   4.914
10302SOL    HW231806   3.119   6.498   4.931
10303SOL     OW31807   0.230   4.892   4.345
10303SOL    HW131808   0.186   4.840   4.272
10303SOL    HW231809   0.247   4.832   4.423
10304SOL     OW31810   5.686   6.455   0.667
10304SOL    HW131811   5.725   6.536   0.622
10304SOL    HW231812   5.587   6.455   0.657
10305SOL     OW31813   2.944   3.859   5.600
10305SOL    HW131814   2.880   3.782   5.595
10305SOL    HW231815   2.910   3.927   5.664
10306SOL     OW31816   3.823   0.621   0.711
10306SOL    HW131817   3.830   0.543   0.772
10306SOL    HW231818   3.856   0.703   0.757
10307SOL     OW31819   1.816   0.286   5.228
10307SOL    HW131820   1.913   0.278   5.250
10307SOL    HW231821   1.797   0.243   5.140
10308SOL     OW31822   3.057   4.708   1.711
10308SOL    HW131823   3.147   4.720   1.753
10308SOL    HW231824   3.009   4.634   1.757
10309SOL     OW31825   0.304   0.814   5.678
10309SOL    HW131826   0.241   0.738   5.696
10309SOL    HW231827   0.257   0.901   5.694
10310SOL     OW31828   3.001   4.012   5.833
10310SOL    HW131829   2.933   4.084   5.847
10310SOL    HW231830   3.034   3.979   5.921
10311SOL     OW31831   5.256   5.667   0.033
10311SOL    HW131832   5.309   5.588   0.003
10311SOL    HW231833   5.283   5.747   7.003
10312SOL     OW31834   3.478   6.570   2.494
10312SOL    HW131835   3.554   6.543   2.434
10312SOL    HW231836   3.514   6.595   2.584
10313SOL     OW31837   5.016   0.072   2.790
10313SOL    HW131838   5.114   0.070   2.767
10313SOL    HW231839   4.990   7.006   2.831
10314SOL     OW31840   0.600   0.176   1.083
10314SOL    HW131841   0.569   0.104   1.146
10314SOL    HW231842   0.608   0.137   0.991
10315SOL     OW31843   5.539   5.391   3.291
10315SOL    HW131844   5.633   5.358   3.279
10315SOL    HW231845   5.537   5.457   3.367
10316SOL     OW31846   0.328   1.331   6.929
10316SOL    HW131847   0.325   1.237   6.962
10316SOL    HW231848   0.400   1.381   6.976
10317SOL     OW31849   3.400   5.848   5.190
10317SOL    HW131850   3.461   5.925   5.170
10317SOL    HW231851   3.447   5.782   5.249
10318SOL     OW31852   6.490   0.453   0.204
10318SOL    HW131853   6.530   0.428   0.292
10318SOL    HW231854   6.390   0.453   0.212
10319SOL     OW31855   0.655   4.239   3.862
10319SOL    HW131856   0.560   4.218   3.841
10319SOL    HW231857   0.681   4.326   3.821
10320SOL     OW31858   6.921   6.855   3.138
10320SOL    HW131859   6.982   6.837   3.061
10320SOL    HW231860   6.966   6.825   3.223
10321SOL     OW31861   6.091   3.039   2.276
10321SOL    HW131862   6.176   2.989   2.260
10321SOL    HW231863   6.055   3.016   2.366
10322SOL     OW31864   4.623   4.536   5.006
10322SOL    HW131865   4.656   4.447   4.975
10322SOL    HW231866   4.526   4.531   5.027
10323SOL     OW31867   1.154   4.020   5.987
10323SOL    HW131868   1.220   3.960   6.031
10323SOL    HW231869   1.168   4.114   6.019
10324SOL     OW31870   3.321   3.131   2.668
10324SOL    HW131871   3.227   3.165   2.676
10324SOL    HW231872   3.327   3.065   2.594
10325SOL     OW31873   6.005   5.821   4.295
10325SOL    HW131874   5.907   5.804   4.287
10325SOL    HW231875   6.043   5.767   4.370
10326SOL     OW31876   5.300   3.335   6.631
10326SOL    HW131877   5.271   3.289   6.716
10326SOL    HW231878   5.374   3.283   6.589
10327SOL     OW31879   2.745   5.392   6.976
10327SOL    HW131880   2.764   5.355   6.885
10327SOL    HW231881   2.777   5.486   6.982
10328SOL     OW31882   5.317   2.224   2.104
10328SOL    HW131883   5.259   2.236   2.185
10328SOL    HW231884   5.409   2.198   2.133
10329SOL     OW31885   3.508   1.859   2.161
10329SOL    HW131886   3.441   1.789   2.187
10329SOL    HW231887   3.599   1.819   2.159
10330SOL     OW31888   5.556   0.619   1.926
10330SOL    HW131889   5.639   0.563   1.937
10330SOL    HW231890   5.511   0.629   2.015
10331SOL     OW31891   5.780   6.221   5.866
10331SOL    HW131892   5.733   6.186   5.947
10331SOL    HW231893   5.832   6.302   5.890
10332SOL     OW31894   1.246   1.706   6.251
10332SOL    HW131895   1.264   1.746   6.161
10332SOL    HW231896   1.301   1.753   6.320
10333SOL     OW31897   1.288   3.344   4.620
10333SOL    HW131898   1.313   3.313   4.712
10333SOL    HW231899   1.370   3.354   4.564
10334SOL     OW31900   3.272   1.567   4.232
10334SOL    HW131901   3.345   1.572   4.164
10334SOL    HW231902   3.230   1.657   4.243
10335SOL     OW31903   1.548   2.375   4.933
10335SOL    HW131904   1.485   2.427   4.991
10335SOL    HW231905   1.618   2.437   4.896
10336SOL     OW31906   5.746   6.775   2.976
10336SOL    HW131907   5.774   6.853   3.032
10336SOL    HW231908   5.750   6.800   2.880
10337SOL     OW31909   6.644   5.419   6.840
10337SOL    HW131910   6.633   5.401   6.937
10337SOL    HW231911   6.725   5.371   6.806
10338SOL     OW31912   1.213   6.548   1.297
10338SOL    HW131913   1.258   6.483   1.358
10338SOL    HW231914   1.280   6.586   1.233
10339SOL     OW31915   5.745   2.429   5.984
10339SOL    HW131916   5.724   2.365   5.910
10339SOL    HW231917   5.703   2.518   5.963
10340SOL     OW31918   2.135   4.027   6.054
10340SOL    HW131919   2.134   4.018   5.955
10340SOL    HW231920   2.226   4.057   6.083
10341SOL     OW31921   2.530   4.459   3.675
10341SOL    HW131922   2.593   4.491   3.605
10341SOL    HW231923   2.559   4.494   3.764
10342SOL     OW31924   0.859   0.765   3.576
10342SOL    HW131925   0.803   0.832   3.624
10342SOL    HW231926   0.810   0.678   3.569
10343SOL     OW31927   3.742   5.357   1.814
10343SOL    HW131928   3.820   5.294   1.810
10343SOL    HW231929   3.773   5.445   1.850
10344SOL     OW31930   4.864   6.817   0.189
10344SOL    HW131931   4.886   6.785   0.282
10344SOL    HW231932   4.775   6.863   0.190
10345SOL     OW31933   1.956   3.941   4.248
10345SOL    HW131934   1.890   3.973   4.315
10345SOL    HW231935   2.000   4.020   4.205
10346SOL     OW31936   0.175   6.169   0.073
10346SOL    HW131937   0.150   6.216   7.010
10346SOL    HW231938   0.273   6.146   0.070
10347SOL     OW31939   5.501   1.906   4.925
10347SOL    HW131940   5.547   1.981   4.973
10347SOL    HW231941   5.444   1.942   4.852
10348SOL     OW31942   6.715   5.246   1.184
10348SOL    HW131943   6.683   5.328   1.231
10348SOL    HW231944   6.794   5.209   1.233
10349SOL     OW31945   0.719   6.696   6.130
10349SOL    HW131946   0.656   6.727   6.058
10349SOL    HW231947   0.791   6.765   6.143
10350SOL     OW31948   3.287   0.882   6.467
10350SOL    HW131949   3.219   0.880   6.393
10350SOL    HW231950   3.348   0.959   6.453
10351SOL     OW31951   4.017   5.277   6.413
10351SOL    HW131952   3.973   5.243   6.497
10351SOL    HW231953   4.073   5.357   6.435
10352SOL     OW31954   3.700   3.846   6.574
10352SOL    HW131955   3.649   3.917   6.525
10352SOL    HW231956   3.749   3.789   6.508
10353SOL     OW31957   0.274   2.814   4.991
10353SOL    HW131958   0.303   2.904   5.022
10353SOL    HW231959   0.349   2.748   5.004
10354SOL     OW31960   5.460   1.780   1.154
10354SOL    HW131961   5.465   1.687   1.115
10354SOL    HW231962   5.482   1.847   1.083
10355SOL     OW31963   1.380   4.844   3.248
10355SOL    HW131964   1.320   4.918   3.280
10355SOL    HW231965   1.387   4.774   3.318
10356SOL     OW31966   0.359   2.177   4.605
10356SOL    HW131967   0.266   2.171   4.569
10356SOL    HW231968   0.376   2.270   4.637
10357SOL     OW31969   3.443   2.826   6.882
10357SOL    HW131970   3.513   2.879   6.834
10357SOL    HW231971   3.410   2.753   6.823
10358SOL     OW31972   6.910   1.281   2.401
10358SOL    HW131973   6.847   1.234   2.463
10358SOL    HW231974   6.979   1.216   2.369
10359SOL     OW31975   0.752   1.266   1.069
10359SOL    HW131976   0.747   1.222   1.159
10359SOL    HW231977   0.744   1.196   0.997
10360SOL     OW31978   0.425   4.881   2.800
10360SOL    HW131979   0.449   4.970   2.838
10360SOL    HW231980   0.337   4.887   2.754
10361SOL     OW31981   1.979   4.864   0.976
10361SOL    HW131982   2.070   4.865   0.935
10361SOL    HW231983   1.986   4.835   1.071
10362SOL     OW31984   1.608   4.561   5.472
10362SOL    HW131985   1.655   4.634   5.522
10362SOL    HW231986   1.537   4.601   5.413
10363SOL     OW31987   5.770   7.000   3.603
10363SOL    HW131988   5.691   7.008   3.542
10363SOL    HW231989   5.853   7.019   3.551
10364SOL     OW31990   1.831   3.874   0.963
10364SOL    HW131991   1.847   3.856   0.866
10364SOL    HW231992   1.742   3.917   0.975
10365SOL     OW31993   4.742   5.131   6.966
10365SOL    HW131994   4.831   5.087   6.977
10365SOL    HW231995   4.750   5.210   6.906
10366SOL     OW31996   3.898   6.445   3.680
10366SOL    HW131997   3.903   6.390   3.597
10366SOL    HW231998   3.989   6.477   3.705
10367SOL     OW31999   0.005   1.666   3.244
10367SOL    HW132000   6.945   1.612   3.261
10367SOL    HW232001   0.067   1.616   3.183
10368SOL     OW32002   2.361   0.641   1.447
10368SOL    HW132003   2.392   0.652   1.542
10368SOL    HW232004   2.275   0.691   1.434
10369SOL     OW32005   4.295   2.672   0.018
10369SOL    HW132006   4.319   2.764   7.010
10369SOL    HW232007   4.223   2.635   6.981
10370SOL     OW32008   3.826   1.166   5.085
10370SOL    HW132009   3.860   1.075   5.109
10370SOL    HW232010   3.738   1.182   5.129
10371SOL     OW32011   5.353   6.665   5.397
10371SOL    HW132012   5.347   6.650   5.298
10371SOL    HW232013   5.270   6.629   5.441
10372SOL     OW32014   1.072   0.629   3.817
10372SOL    HW132015   0.975   0.629   3.842
10372SOL    HW232016   1.090   0.552   3.756
10373SOL     OW32017   1.165   5.252   4.918
10373SOL    HW132018   1.155   5.203   4.831
10373SOL    HW232019   1.187   5.187   4.991
10374SOL     OW32020   3.051   1.890   3.935
10374SOL    HW132021   2.992   1.922   3.861
10374SOL    HW232022   3.126   1.955   3.947
10375SOL     OW32023   0.133   1.753   0.766
10375SOL    HW132024   0.191   1.834   0.760
10375SOL    HW232025   0.159   1.687   0.696
10376SOL     OW32026   6.683   0.060   3.454
10376SOL    HW132027   6.776   0.049   3.488
10376SOL    HW232028   6.679   0.032   3.358
10377SOL     OW32029   0.477   6.442   4.330
10377SOL    HW132030   0.479   6.427   4.231
10377SOL    HW232031   0.414   6.516   4.351
10378SOL     OW32032   6.243   6.467   5.696
10378SOL    HW132033   6.256   6.398   5.768
10378SOL    HW232034   6.203   6.550   5.736
10379SOL     OW32035   4.466   1.887   4.698
10379SOL    HW132036   4.546   1.908   4.641
10379SOL    HW232037   4.454   1.788   4.704
10380SOL     OW32038   3.854   1.127   3.808
10380SOL    HW132039   3.908   1.121   3.724
10380SOL    HW232040   3.836   1.035   3.843
10381SOL     OW32041   3.872   5.211   4.935
10381SOL    HW132042   3.872   5.285   4.868
10381SOL    HW232043   3.945   5.146   4.915
10382SOL     OW32044   0.841   5.705   0.264
10382SOL    HW132045   0.937   5.684   0.246
10382SOL    HW232046   0.783   5.651   0.204
10383SOL     OW32047   5.449   2.608   0.502
10383SOL    HW132048   5.504   2.689   0.524
10383SOL    HW232049   5.503   2.545   0.445
10384SOL     OW32050   5.810   1.112   6.775
10384SOL    HW132051   5.752   1.052   6.721
10384SOL    HW232052   5.790   1.099   6.872
10385SOL     OW32053   7.003   2.464   6.889
10385SOL    HW132054   6.910   2.427   6.887
10385SOL    HW232055   0.047   2.388   6.886
10386SOL     OW32056   6.785   1.712   6.154
10386SOL    HW132057   6.751   1.618   6.144
10386SOL    HW232058   6.879   1.716   6.119
10387SOL     OW32059   1.445   3.935   2.576
10387SOL    HW132060   1.453   3.844   2.536
10387SOL    HW232061   1.370   3.936   2.642
10388SOL     OW32062   1.950   4.338   2.523
10388SOL    HW132063   1.871   4.365   2.467
10388SOL    HW232064   2.006   4.418   2.542
10389SOL     OW32065   0.904   5.858   3.399
10389SOL    HW132066   0.872   5.766   3.424
10389SOL    HW232067   0.989   5.878   3.448
10390SOL     OW32068   2.138   4.022   3.739
10390SOL    HW132069   2.139   3.963   3.820
10390SOL    HW232070   2.200   4.099   3.753
10391SOL     OW32071   3.744   6.262   4.652
10391SOL    HW132072   3.715   6.181   4.600
10391SOL    HW232073   3.703   6.344   4.611
10392SOL     OW32074   6.150   5.155   6.412
10392SOL    HW132075   6.154   5.152   6.511
10392SOL    HW232076   6.070   5.207   6.383
10393SOL     OW32077   0.439   0.975   4.870
10393SOL    HW132078   0.406   1.038   4.800
10393SOL    HW232079   0.537   0.957   4.855
10394SOL     OW32080   3.453   0.092   1.019
10394SOL    HW132081   3.356   0.070   1.025
10394SOL    HW232082   3.505   0.008   1.004
10395SOL     OW32083   1.376   1.078   4.042
10395SOL    HW132084   1.326   1.164   4.030
10395SOL    HW232085   1.312   1.005   4.066
10396SOL     OW32086   0.592   0.124   4.940
10396SOL    HW132087   0.655   0.140   4.864
10396SOL    HW232088   0.503   0.164   4.917
10397SOL     OW32089   4.189   1.836   2.437
10397SOL    HW132090   4.165   1.906   2.370
10397SOL    HW232091   4.133   1.847   2.519
10398SOL     OW32092   6.674   2.947   1.990
10398SOL    HW132093   6.765   2.938   1.950
10398SOL    HW232094   6.607   2.903   1.931
10399SOL     OW32095   6.573   3.023   5.400
10399SOL    HW132096   6.586   2.925   5.390
10399SOL    HW232097   6.518   3.057   5.324
10400SOL     OW32098   1.570   4.892   1.700
10400SOL    HW132099   1.628   4.870   1.621
10400SOL    HW232100   1.547   4.808   1.749
10401SOL     OW32101   1.287   5.179   1.188
10401SOL    HW132102   1.325   5.087   1.179
10401SOL    HW232103   1.281   5.222   1.098
10402SOL     OW32104   0.860   2.279   4.812
10402SOL    HW132105   0.902   2.304   4.724
10402SOL    HW232106   0.814   2.359   4.850
10403SOL     OW32107   5.604   0.708   2.547
10403SOL    HW132108   5.657   0.623   2.550
10403SOL    HW232109   5.538   0.708   2.621
10404SOL     OW32110   0.063   0.245   4.468
10404SOL    HW132111   0.118   0.321   4.503
10404SOL    HW232112   7.008   0.280   4.415
10405SOL     OW32113   2.944   7.001   6.964
10405SOL    HW132114   2.906   6.909   6.978
10405SOL    HW232115   2.899   0.021   6.885
10406SOL     OW32116   2.127   5.845   5.253
10406SOL    HW132117   2.070   5.897   5.316
10406SOL    HW232118   2.222   5.875   5.261
10407SOL     OW32119   2.159   0.820   6.573
10407SOL    HW132120   2.110   0.866   6.500
10407SOL    HW232121   2.255   0.846   6.570
10408SOL     OW32122   3.919   6.874   2.904
10408SOL    HW132123   3.832   6.889   2.952
10408SOL    HW232124   3.911   6.907   2.810
10409SOL     OW32125   6.673   4.830   2.526
10409SOL    HW132126   6.638   4.866   2.439
10409SOL    HW232127   6.646   4.891   2.600
10410SOL     OW32128   4.900   5.537   1.244
10410SOL    HW132129   4.844   5.527   1.162
10410SOL    HW232130   4.997   5.529   1.219
10411SOL     OW32131   1.840   4.895   2.450
10411SOL    HW132132   1.897   4.817   2.424
10411SOL    HW232133   1.890   4.952   2.515
10412SOL     OW32134   0.639   2.619   6.941
10412SOL    HW132135   0.559   2.654   6.989
10412SOL    HW232136   0.613   2.544   6.881
10413SOL     OW32137   6.767   1.631   4.819
10413SOL    HW132138   6.814   1.551   4.858
10413SOL    HW232139   6.744   1.695   4.893
10414SOL     OW32140   5.686   6.369   5.162
10414SOL    HW132141   5.753   6.443   5.166
10414SOL    HW232142   5.622   6.378   5.239
10415SOL     OW32143   6.973   5.386   3.419
10415SOL    HW132144   6.970   5.423   3.326
10415SOL    HW232145   6.944   5.290   3.418
10416SOL     OW32146   5.211   0.666   0.345
10416SOL    HW132147   5.187   0.674   0.441
10416SOL    HW232148   5.288   0.727   0.324
10417SOL     OW32149   4.695   4.417   4.292
10417SOL    HW132150   4.688   4.330   4.243
10417SOL    HW232151   4.766   4.410   4.362
10418SOL     OW32152   6.046   3.488   0.068
10418SOL    HW132153   6.141   3.461   0.055
10418SOL    HW232154   6.014   3.539   7.010
10419SOL     OW32155   1.519   0.450   4.686
10419SOL    HW132156   1.525   0.459   4.586
10419SOL    HW232157   1.539   0.538   4.728
10420SOL     OW32158   6.285   3.841   4.245
10420SOL    HW132159   6.340   3.761   4.217
10420SOL    HW232160   6.324   3.924   4.205
10421SOL     OW32161   0.510   3.663   4.469
10421SOL    HW132162   0.590   3.714   4.437
10421SOL    HW232163   0.427   3.702   4.428
10422SOL     OW32164   5.626   3.186   5.784
10422SOL    HW132165   5.666   3.110   5.836
10422SOL    HW232166   5.696   3.257   5.771
10423SOL     OW32167   2.434   5.435   2.591
10423SOL    HW132168   2.342   5.444   2.630
10423SOL    HW232169   2.445   5.502   2.517
10424SOL     OW32170   4.392   0.855   2.261
10424SOL    HW132171   4.491   0.845   2.269
10424SOL    HW232172   4.358   0.914   2.334
10425SOL     OW32173   0.963   4.103   0.545
10425SOL    HW132174   0.905   4.067   0.473
10425SOL    HW232175   0.906   4.142   0.618
10426SOL     OW32176   6.769   1.948   0.400
10426SOL    HW132177   6.771   2.011   0.478
10426SOL    HW232178   6.711   1.869   0.422
10427SOL     OW32179   5.828   0.487   3.881
10427SOL    HW132180   5.885   0.467   3.801
10427SOL    HW232181   5.746   0.537   3.851
10428SOL     OW32182   1.863   6.500   4.721
10428SOL    HW132183   1.803   6.577   4.699
10428SOL    HW232184   1.825   6.448   4.797
10429SOL     OW32185   2.463   4.108   1.706
10429SOL    HW132186   2.471   4.203   1.734
10429SOL    HW232187   2.538   4.084   1.645
10430SOL     OW32188   3.231   0.253   4.303
10430SOL    HW132189   3.224   0.162   4.261
10430SOL    HW232190   3.305   0.253   4.370
10431SOL     OW32191   4.199   2.150   4.042
10431SOL    HW132192   4.223   2.222   3.977
10431SOL    HW232193   4.279   2.092   4.058
10432SOL     OW32194   0.484   5.073   0.711
10432SOL    HW132195   0.435   5.020   0.642
10432SOL    HW232196   0.523   5.155   0.669
10433SOL     OW32197   3.813   6.540   4.233
10433SOL    HW132198   3.713   6.537   4.235
10433SOL    HW232199   3.848   6.572   4.321
10434SOL     OW32200   4.074   1.227   0.034
10434SOL    HW132201   4.028   1.138   0.034
10434SOL    HW232202   4.016   1.294   7.010
10435SOL     OW32203   2.524   1.358   1.825
10435SOL    HW132204   2.623   1.352   1.833
10435SOL    HW232205   2.500   1.436   1.766
10436SOL     OW32206   0.729   3.591   5.243
10436SOL    HW132207   0.775   3.504   5.261
10436SOL    HW232208   0.636   3.572   5.209
10437SOL     OW32209   6.965   6.809   4.954
10437SOL    HW132210   0.012   6.854   4.897
10437SOL    HW232211   6.892   6.774   4.895
10438SOL     OW32212   6.774   5.319   6.604
10438SOL    HW132213   6.839   5.393   6.623
10438SOL    HW232214   6.823   5.232   6.598
10439SOL     OW32215   6.103   5.636   4.495
10439SOL    HW132216   6.088   5.546   4.455
10439SOL    HW232217   6.070   5.637   4.589
10440SOL     OW32218   6.062   2.753   1.119
10440SOL    HW132219   6.032   2.664   1.086
10440SOL    HW232220   6.162   2.761   1.110
10441SOL     OW32221   4.602   1.841   6.600
10441SOL    HW132222   4.665   1.797   6.664
10441SOL    HW232223   4.519   1.786   6.593
10442SOL     OW32224   2.228   1.093   5.301
10442SOL    HW132225   2.313   1.064   5.345
10442SOL    HW232226   2.249   1.162   5.231
10443SOL     OW32227   0.753   0.783   0.202
10443SOL    HW132228   0.782   0.734   0.119
10443SOL    HW232229   0.747   0.719   0.278
10444SOL     OW32230   4.292   5.163   3.467
10444SOL    HW132231   4.335   5.098   3.530
10444SOL    HW232232   4.196   5.139   3.454
10445SOL     OW32233   0.991   3.755   4.086
10445SOL    HW132234   0.915   3.812   4.055
10445SOL    HW232235   1.055   3.740   4.011
10446SOL     OW32236   2.461   4.658   4.861
10446SOL    HW132237   2.554   4.622   4.856
10446SOL    HW232238   2.396   4.582   4.868
10447SOL     OW32239   1.456   2.286   2.707
10447SOL    HW132240   1.464   2.273   2.806
10447SOL    HW232241   1.461   2.197   2.662
10448SOL     OW32242   0.770   5.622   2.423
10448SOL    HW132243   0.798   5.651   2.515
10448SOL    HW232244   0.817   5.676   2.354
10449SOL     OW32245   3.676   4.931   4.732
10449SOL    HW132246   3.767   4.913   4.769
10449SOL    HW232247   3.607   4.895   4.796
10450SOL     OW32248   0.722   2.118   3.942
10450SOL    HW132249   0.753   2.212   3.927
10450SOL    HW232250   0.627   2.118   3.973
10451SOL     OW32251   2.933   1.755   4.561
10451SOL    HW132252   2.976   1.845   4.552
10451SOL    HW232253   2.836   1.766   4.580
10452SOL     OW32254   6.629   2.467   4.290
10452SOL    HW132255   6.626   2.433   4.384
10452SOL    HW232256   6.539   2.458   4.248
10453SOL     OW32257   3.202   5.477   4.165
10453SOL    HW132258   3.228   5.381   4.157
10453SOL    HW232259   3.272   5.526   4.216
10454SOL     OW32260   6.570   1.358   6.915
10454SOL    HW132261   6.518   1.336   6.833
10454SOL    HW232262   6.566   1.457   6.931
10455SOL     OW32263   0.521   6.120   2.276
10455SOL    HW132264   0.489   6.206   2.236
10455SOL    HW232265   0.482   6.109   2.367
10456SOL     OW32266   1.846   5.223   6.753
10456SOL    HW132267   1.906   5.145   6.737
10456SOL    HW232268   1.818   5.262   6.665
10457SOL     OW32269   3.884   1.420   0.616
10457SOL    HW132270   3.856   1.505   0.660
10457SOL    HW232271   3.975   1.431   0.577
10458SOL     OW32272   1.424   6.524   0.185
10458SOL    HW132273   1.364   6.589   0.232
10458SOL    HW232274   1.510   6.516   0.235
10459SOL     OW32275   5.715   6.061   1.105
10459SOL    HW132276   5.776   5.986   1.081
10459SOL    HW232277   5.621   6.036   1.082
10460SOL     OW32278   6.200   0.970   6.299
10460SOL    HW132279   6.224   0.874   6.285
10460SOL    HW232280   6.244   1.026   6.228
10461SOL     OW32281   6.934   3.863   5.385
10461SOL    HW132282   6.974   3.810   5.310
10461SOL    HW232283   6.896   3.801   5.454
10462SOL     OW32284   4.049   3.830   6.647
10462SOL    HW132285   4.006   3.815   6.736
10462SOL    HW232286   4.148   3.843   6.659
10463SOL     OW32287   4.652   2.307   5.315
10463SOL    HW132288   4.587   2.343   5.248
10463SOL    HW232289   4.720   2.250   5.269
10464SOL     OW32290   6.456   4.584   1.939
10464SOL    HW132291   6.548   4.572   1.901
10464SOL    HW232292   6.398   4.508   1.910
10465SOL     OW32293   5.112   3.936   1.457
10465SOL    HW132294   5.074   3.853   1.496
10465SOL    HW232295   5.044   3.978   1.395
10466SOL     OW32296   6.064   4.189   5.006
10466SOL    HW132297   6.156   4.189   5.046
10466SOL    HW232298   6.071   4.170   4.908
10467SOL     OW32299   0.398   2.677   6.517
10467SOL    HW132300   0.304   2.704   6.494
10467SOL    HW232301   0.444   2.754   6.561
10468SOL     OW32302   1.555   3.648   3.701
10468SOL    HW132303   1.617   3.607   3.633
10468SOL    HW232304   1.490   3.579   3.732
10469SOL     OW32305   1.176   1.283   3.955
10469SOL    HW132306   1.215   1.374   3.970
10469SOL    HW232307   1.214   1.243   3.871
10470SOL     OW32308   2.088   3.921   1.877
10470SOL    HW132309   1.998   3.948   1.845
10470SOL    HW232310   2.079   3.850   1.947
10471SOL     OW32311   2.826   4.539   5.990
10471SOL    HW132312   2.793   4.445   5.990
10471SOL    HW232313   2.875   4.558   5.905
10472SOL     OW32314   4.391   5.520   6.053
10472SOL    HW132315   4.403   5.430   6.095
10472SOL    HW232316   4.428   5.590   6.114
10473SOL     OW32317   6.344   5.226   0.198
10473SOL    HW132318   6.406   5.223   0.276
10473SOL    HW232319   6.259   5.179   0.221
10474SOL     OW32320   6.251   5.737   5.322
10474SOL    HW132321   6.185   5.774   5.388
10474SOL    HW232322   6.322   5.686   5.370
10475SOL     OW32323   0.743   5.544   1.483
10475SOL    HW132324   0.680   5.546   1.405
10475SOL    HW232325   0.690   5.540   1.568
10476SOL     OW32326   5.275   6.792   1.159
10476SOL    HW132327   5.218   6.874   1.168
10476SOL    HW232328   5.217   6.713   1.137
10477SOL     OW32329   6.854   5.699   3.809
10477SOL    HW132330   6.888   5.794   3.811
10477SOL    HW232331   6.838   5.671   3.715
10478SOL     OW32332   0.332   0.699   6.489
10478SOL    HW132333   0.339   0.604   6.459
10478SOL    HW232334   0.350   0.760   6.412
10479SOL     OW32335   0.261   4.118   2.410
10479SOL    HW132336   0.320   4.187   2.367
10479SOL    HW232337   0.213   4.159   2.487
10480SOL     OW32338   2.471   0.563   3.201
10480SOL    HW132339   2.554   0.521   3.239
10480SOL    HW232340   2.497   0.637   3.139
10481SOL     OW32341   6.404   1.015   1.318
10481SOL    HW132342   6.465   0.954   1.368
10481SOL    HW232343   6.458   1.072   1.256
10482SOL     OW32344   5.541   4.075   3.990
10482SOL    HW132345   5.586   4.001   3.940
10482SOL    HW232346   5.611   4.134   4.032
10483SOL     OW32347   6.163   0.735   6.721
10483SOL    HW132348   6.165   0.657   6.659
10483SOL    HW232349   6.123   0.814   6.675
10484SOL     OW32350   5.884   0.900   1.903
10484SOL    HW132351   5.897   0.897   1.804
10484SOL    HW232352   5.949   0.964   1.944
10485SOL     OW32353   6.176   3.272   5.255
10485SOL    HW132354   6.093   3.261   5.202
10485SOL    HW232355   6.173   3.212   5.336
10486SOL     OW32356   5.447   2.590   2.138
10486SOL    HW132357   5.527   2.649   2.132
10486SOL    HW232358   5.418   2.564   2.046
10487SOL     OW32359   4.372   6.794   2.354
10487SOL    HW132360   4.294   6.828   2.302
10487SOL    HW232361   4.342   6.760   2.443
10488SOL     OW32362   3.920   4.093   6.552
10488SOL    HW132363   3.945   4.005   6.593
10488SOL    HW232364   3.854   4.077   6.478
10489SOL     OW32365   1.678   4.896   5.074
10489SOL    HW132366   1.594   4.880   5.022
10489SOL    HW232367   1.655   4.929   5.165
10490SOL     OW32368   6.159   0.118   4.492
10490SOL    HW132369   6.218   0.174   4.434
10490SOL    HW232370   6.076   0.170   4.514
10491SOL     OW32371   6.476   5.608   5.500
10491SOL    HW132372   6.498   5.696   5.543
10491SOL    HW232373   6.554   5.578   5.445
10492SOL     OW32374   5.075   4.508   5.566
10492SOL    HW132375   5.025   4.589   5.596
10492SOL    HW232376   5.021   4.458   5.499
10493SOL     OW32377   3.375   1.574   1.066
10493SOL    HW132378   3.451   1.566   1.002
10493SOL    HW232379   3.296   1.525   1.029
10494SOL     OW32380   5.532   1.581   5.725
10494SOL    HW132381   5.609   1.572   5.662
10494SOL    HW232382   5.516   1.493   5.770
10495SOL     OW32383   2.043   6.988   6.413
10495SOL    HW132384   2.108   7.020   6.483
10495SOL    HW232385   2.060   0.014   6.327
10496SOL     OW32386   6.450   0.051   5.411
10496SOL    HW132387   6.421   0.031   5.318
10496SOL    HW232388   6.543   0.018   5.425
10497SOL     OW32389   1.494   1.544   6.411
10497SOL    HW132390   1.525   1.511   6.500
10497SOL    HW232391   1.450   1.633   6.423
10498SOL     OW32392   3.382   5.279   5.992
10498SOL    HW132393   3.475   5.294   6.028
10498SOL    HW232394   3.335   5.211   6.048
10499SOL     OW32395   3.030   5.857   3.115
10499SOL    HW132396   2.968   5.934   3.106
10499SOL    HW232397   3.117   5.888   3.154
10500SOL     OW32398   2.254   2.225   6.615
10500SOL    HW132399   2.221   2.171   6.538
10500SOL    HW232400   2.303   2.305   6.581
10501SOL     OW32401   1.952   3.781   3.039
10501SOL    HW132402   1.908   3.837   2.968
10501SOL    HW232403   1.887   3.766   3.113
10502SOL     OW32404   3.317   5.708   4.278
10502SOL    HW132405   3.265   5.759   4.210
10502SOL    HW232406   3.366   5.771   4.338
10503SOL     OW32407   2.188   3.193   6.055
10503SOL    HW132408   2.224   3.194   5.962
10503SOL    HW232409   2.263   3.207   6.120
10504SOL     OW32410   2.188   3.405   1.172
10504SOL    HW132411   2.169   3.308   1.187
10504SOL    HW232412   2.286   3.421   1.182
10505SOL     OW32413   1.026   6.552   0.416
10505SOL    HW132414   0.934   6.574   0.382
10505SOL    HW232415   1.027   6.560   0.516
10506SOL     OW32416   6.860   4.437   5.484
10506SOL    HW132417   6.956   4.464   5.487
10506SOL    HW232418   6.803   4.517   5.465
10507SOL     OW32419   2.055   0.078   3.388
10507SOL    HW132420   1.987   0.133   3.437
10507SOL    HW232421   2.070   7.015   3.437
10508SOL     OW32422   6.084   4.028   2.951
10508SOL    HW132423   6.163   4.066   2.903
10508SOL    HW232424   6.000   4.064   2.910
10509SOL     OW32425   2.046   0.867   5.315
10509SOL    HW132426   1.982   0.860   5.391
10509SOL    HW232427   2.108   0.944   5.331
10510SOL     OW32428   5.926   0.413   6.725
10510SOL    HW132429   5.981   0.384   6.803
10510SOL    HW232430   5.984   0.463   6.660
10511SOL     OW32431   6.739   2.655   1.365
10511SOL    HW132432   6.746   2.556   1.355
10511SOL    HW232433   6.806   2.686   1.433
10512SOL     OW32434   2.274   0.733   6.325
10512SOL    HW132435   2.338   0.757   6.399
10512SOL    HW232436   2.274   0.634   6.312
10513SOL     OW32437   0.245   1.967   0.465
10513SOL    HW132438   0.241   2.064   0.440
10513SOL    HW232439   0.285   1.915   0.389
10514SOL     OW32440   0.588   3.191   1.957
10514SOL    HW132441   0.577   3.112   1.896
10514SOL    HW232442   0.498   3.223   1.987
10515SOL     OW32443   6.975   3.245   4.830
10515SOL    HW132444   6.975   3.180   4.754
10515SOL    HW232445   6.942   3.334   4.797
10516SOL     OW32446   2.394   6.880   0.956
10516SOL    HW132447   2.464   6.846   1.019
10516SOL    HW232448   2.432   6.955   0.902
10517SOL     OW32449   0.669   2.822   3.126
10517SOL    HW132450   0.633   2.793   3.038
10517SOL    HW232451   0.596   2.825   3.194
10518SOL     OW32452   0.564   5.855   2.583
10518SOL    HW132453   0.629   5.797   2.534
10518SOL    HW232454   0.524   5.804   2.659
10519SOL     OW32455   4.327   3.045   5.727
10519SOL    HW132456   4.273   3.093   5.797
10519SOL    HW232457   4.350   3.108   5.653
10520SOL     OW32458   3.147   4.952   6.058
10520SOL    HW132459   3.205   4.902   5.994
10520SOL    HW232460   3.205   4.999   6.125
10521SOL     OW32461   6.580   5.673   2.367
10521SOL    HW132462   6.565   5.751   2.427
10521SOL    HW232463   6.552   5.698   2.274
10522SOL     OW32464   0.078   0.053   2.128
10522SOL    HW132465   0.073   6.981   2.161
10522SOL    HW232466   0.084   0.052   2.028
10523SOL     OW32467   6.689   6.055   5.955
10523SOL    HW132468   6.608   6.076   5.901
10523SOL    HW232469   6.764   6.116   5.928
10524SOL     OW32470   4.804   0.920   4.439
10524SOL    HW132471   4.780   0.903   4.534
10524SOL    HW232472   4.734   0.881   4.379
10525SOL     OW32473   3.262   6.687   4.805
10525SOL    HW132474   3.197   6.690   4.729
10525SOL    HW232475   3.229   6.745   4.879
10526SOL     OW32476   4.668   6.695   2.717
10526SOL    HW132477   4.679   6.784   2.671
10526SOL    HW232478   4.757   6.652   2.727
10527SOL     OW32479   1.742   2.537   4.830
10527SOL    HW132480   1.687   2.589   4.765
10527SOL    HW232481   1.837   2.570   4.828
10528SOL     OW32482   5.662   4.937   5.520
10528SOL    HW132483   5.751   4.890   5.522
10528SOL    HW232484   5.673   5.031   5.551
10529SOL     OW32485   0.220   6.112   4.446
10529SOL    HW132486   0.170   6.029   4.470
10529SOL    HW232487   0.244   6.110   4.349
10530SOL     OW32488   2.047   2.205   5.011
10530SOL    HW132489   1.951   2.231   5.021
10530SOL    HW232490   2.088   2.196   5.102
10531SOL     OW32491   2.032   2.307   4.744
10531SOL    HW132492   2.031   2.252   4.828
10531SOL    HW232493   2.122   2.348   4.732
10532SOL     OW32494   3.347   3.519   4.912
10532SOL    HW132495   3.327   3.424   4.886
10532SOL    HW232496   3.261   3.568   4.927
10533SOL     OW32497   2.980   1.345   6.331
10533SOL    HW132498   2.987   1.282   6.253
10533SOL    HW232499   2.915   1.310   6.397
10534SOL     OW32500   5.648   4.878   1.649
10534SOL    HW132501   5.646   4.783   1.617
10534SOL    HW232502   5.743   4.907   1.662
10535SOL     OW32503   6.851   0.594   1.805
10535SOL    HW132504   6.754   0.592   1.829
10535SOL    HW232505   6.861   0.616   1.708
10536SOL     OW32506   5.290   5.999   3.205
10536SOL    HW132507   5.353   6.074   3.222
10536SOL    HW232508   5.213   6.006   3.268
10537SOL     OW32509   6.308   5.559   1.064
10537SOL    HW132510   6.299   5.624   0.989
10537SOL    HW232511   6.224   5.505   1.072
10538SOL     OW32512   4.065   3.944   6.969
10538SOL    HW132513   4.135   3.887   7.012
10538SOL    HW232514   3.974   3.909   6.993
10539SOL     OW32515   0.809   3.216   4.947
10539SOL    HW132516   0.840   3.134   4.899
10539SOL    HW232517   0.888   3.263   4.986
10540SOL     OW32518   3.631   0.853   0.012
10540SOL    HW132519   3.691   0.815   6.964
10540SOL    HW232520   3.685   0.873   0.094
10541SOL     OW32521   3.639   2.603   1.088
10541SOL    HW132522   3.659   2.663   1.011
10541SOL    HW232523   3.605   2.658   1.165
10542SOL     OW32524   1.597   2.152   0.413
10542SOL    HW132525   1.525   2.083   0.421
10542SOL    HW232526   1.629   2.177   0.504
10543SOL     OW32527   2.280   0.046   4.692
10543SOL    HW132528   2.315   0.136   4.715
10543SOL    HW232529   2.257   0.043   4.595
10544SOL     OW32530   0.120   2.507   1.572
10544SOL    HW132531   0.145   2.424   1.523
10544SOL    HW232532   0.185   2.524   1.645
10545SOL     OW32533   4.721   1.579   2.970
10545SOL    HW132534   4.675   1.539   3.049
10545SOL    HW232535   4.692   1.674   2.959
10546SOL     OW32536   4.307   1.637   5.704
10546SOL    HW132537   4.271   1.654   5.612
10546SOL    HW232538   4.406   1.623   5.699
10547SOL     OW32539   4.978   6.452   1.744
10547SOL    HW132540   5.018   6.377   1.796
10547SOL    HW232541   5.002   6.539   1.788
10548SOL     OW32542   4.197   4.320   5.428
10548SOL    HW132543   4.234   4.371   5.350
10548SOL    HW232544   4.127   4.375   5.473
10549SOL     OW32545   0.987   1.442   1.803
10549SOL    HW132546   1.078   1.472   1.772
10549SOL    HW232547   0.918   1.507   1.770
10550SOL     OW32548   5.174   6.754   4.771
10550SOL    HW132549   5.147   6.727   4.679
10550SOL    HW232550   5.256   6.703   4.798
10551SOL     OW32551   1.178   2.780   6.161
10551SOL    HW132552   1.270   2.741   6.149
10551SOL    HW232553   1.118   2.712   6.203
10552SOL     OW32554   3.102   1.741   5.011
10552SOL    HW132555   3.124   1.661   5.067
10552SOL    HW232556   3.052   1.712   4.929
10553SOL     OW32557   2.872   5.081   6.038
10553SOL    HW132558   2.953   5.026   6.059
10553SOL    HW232559   2.832   5.116   6.123
10554SOL     OW32560   6.028   4.123   5.745
10554SOL    HW132561   6.081   4.072   5.812
10554SOL    HW232562   6.058   4.099   5.653
10555SOL     OW32563   3.617   2.712   1.345
10555SOL    HW132564   3.699   2.767   1.357
10555SOL    HW232565   3.609   2.647   1.421
10556SOL     OW32566   1.223   3.682   3.933
10556SOL    HW132567   1.186   3.654   3.844
10556SOL    HW232568   1.292   3.753   3.920
10557SOL     OW32569   5.327   1.323   3.526
10557SOL    HW132570   5.275   1.308   3.442
10557SOL    HW232571   5.274   1.382   3.587
10558SOL     OW32572   4.862   5.955   5.121
10558SOL    HW132573   4.889   5.986   5.030
10558SOL    HW232574   4.932   5.893   5.157
10559SOL     OW32575   4.245   2.746   0.697
10559SOL    HW132576   4.343   2.743   0.679
10559SOL    HW232577   4.198   2.681   0.638
10560SOL     OW32578   0.185   2.101   4.345
10560SOL    HW132579   0.153   2.190   4.313
10560SOL    HW232580   0.124   2.067   4.417
10561SOL     OW32581   2.182   4.262   6.676
10561SOL    HW132582   2.186   4.357   6.706
10561SOL    HW232583   2.087   4.236   6.659
10562SOL     OW32584   3.735   1.800   0.474
10562SOL    HW132585   3.640   1.770   0.477
10562SOL    HW232586   3.745   1.873   0.407
10563SOL     OW32587   1.325   2.512   2.828
10563SOL    HW132588   1.400   2.545   2.885
10563SOL    HW232589   1.357   2.438   2.769
10564SOL     OW32590   6.360   2.298   2.596
10564SOL    HW132591   6.402   2.300   2.687
10564SOL    HW232592   6.403   2.226   2.541
10565SOL     OW32593   5.105   1.905   4.922
10565SOL    HW132594   5.065   1.818   4.951
10565SOL    HW232595   5.139   1.896   4.828
10566SOL     OW32596   4.686   5.305   6.675
10566SOL    HW132597   4.748   5.240   6.632
10566SOL    HW232598   4.612   5.256   6.721
10567SOL     OW32599   2.904   5.214   4.377
10567SOL    HW132600   2.897   5.121   4.341
10567SOL    HW232601   2.819   5.264   4.357
10568SOL     OW32602   3.427   1.247   3.143
10568SOL    HW132603   3.518   1.287   3.133
10568SOL    HW232604   3.359   1.320   3.144
10569SOL     OW32605   6.641   2.379   3.243
10569SOL    HW132606   6.669   2.471   3.213
10569SOL    HW232607   6.715   2.338   3.296
10570SOL     OW32608   1.573   3.988   0.979
10570SOL    HW132609   1.565   3.982   0.880
10570SOL    HW232610   1.589   4.083   1.006
10571SOL     OW32611   6.522   6.864   4.649
10571SOL    HW132612   6.610   6.845   4.692
10571SOL    HW232613   6.494   6.958   4.670
10572SOL     OW32614   6.985   3.642   1.415
10572SOL    HW132615   6.984   3.731   1.368
10572SOL    HW232616   6.958   3.655   1.510
10573SOL     OW32617   6.114   4.944   5.698
10573SOL    HW132618   6.173   4.895   5.762
10573SOL    HW232619   6.154   4.939   5.606
10574SOL     OW32620   0.570   2.426   2.929
10574SOL    HW132621   0.593   2.521   2.908
10574SOL    HW232622   0.564   2.374   2.844
10575SOL     OW32623   1.073   6.677   6.488
10575SOL    HW132624   1.169   6.676   6.461
10575SOL    HW232625   1.062   6.629   6.574
10576SOL     OW32626   1.329   5.553   3.119
10576SOL    HW132627   1.233   5.526   3.115
10576SOL    HW232628   1.377   5.518   3.038
10577SOL     OW32629   0.727   2.436   5.632
10577SOL    HW132630   0.644   2.414   5.580
10577SOL    HW232631   0.711   2.419   5.729
10578SOL     OW32632   5.258   1.475   5.572
10578SOL    HW132633   5.245   1.430   5.660
10578SOL    HW232634   5.289   1.409   5.504
10579SOL     OW32635   5.413   6.713   0.561
10579SOL    HW132636   5.443   6.619   0.544
10579SOL    HW232637   5.398   6.727   0.659
10580SOL     OW32638   0.527   5.588   6.978
10580SOL    HW132639   0.441   5.572   0.004
10580SOL    HW232640   0.551   5.507   6.924
10581SOL     OW32641   4.852   2.726   3.671
10581SOL    HW132642   4.932   2.667   3.662
10581SOL    HW232643   4.796   2.719   3.589
10582SOL     OW32644   3.182   4.876   6.989
10582SOL    HW132645   3.083   4.874   7.005
10582SOL    HW232646   3.215   4.782   6.979
10583SOL     OW32647   4.675   1.231   1.564
10583SOL    HW132648   4.705   1.263   1.653
10583SOL    HW232649   4.595   1.172   1.574
10584SOL     OW32650   5.954   6.638   0.941
10584SOL    HW132651   5.902   6.657   1.025
10584SOL    HW232652   5.972   6.540   0.934
10585SOL     OW32653   2.731   4.178   6.203
10585SOL    HW132654   2.660   4.227   6.153
10585SOL    HW232655   2.752   4.226   6.288
10586SOL     OW32656   4.824   2.012   1.225
10586SOL    HW132657   4.736   1.971   1.248
10586SOL    HW232658   4.897   1.947   1.246
10587SOL     OW32659   6.259   3.102   0.499
10587SOL    HW132660   6.174   3.056   0.475
10587SOL    HW232661   6.251   3.200   0.481
10588SOL     OW32662   1.594   5.077   3.320
10588SOL    HW132663   1.580   4.988   3.277
10588SOL    HW232664   1.576   5.150   3.254
10589SOL     OW32665   5.928   1.438   3.723
10589SOL    HW132666   5.893   1.352   3.762
10589SOL    HW232667   6.027   1.432   3.713
10590SOL     OW32668   1.611   0.129   5.352
10590SOL    HW132669   1.630   0.057   5.285
10590SOL    HW232670   1.686   0.196   5.351
10591SOL     OW32671   1.545   2.514   2.051
10591SOL    HW132672   1.643   2.493   2.046
10591SOL    HW232673   1.501   2.448   2.112
10592SOL     OW32674   5.769   1.439   6.251
10592SOL    HW132675   5.843   1.385   6.292
10592SOL    HW232676   5.698   1.377   6.217
10593SOL     OW32677   0.987   4.463   1.620
10593SOL    HW132678   0.973   4.484   1.523
10593SOL    HW232679   1.085   4.462   1.640
10594SOL     OW32680   1.348   1.130   4.573
10594SOL    HW132681   1.327   1.092   4.664
10594SOL    HW232682   1.273   1.109   4.510
10595SOL     OW32683   2.282   5.877   4.533
10595SOL    HW132684   2.374   5.854   4.500
10595SOL    HW232685   2.230   5.921   4.460
10596SOL     OW32686   3.189   1.298   2.043
10596SOL    HW132687   3.181   1.214   2.096
10596SOL    HW232688   3.254   1.284   1.969
10597SOL     OW32689   1.278   0.430   3.958
10597SOL    HW132690   1.190   0.410   3.916
10597SOL    HW232691   1.350   0.427   3.889
10598SOL     OW32692   2.441   0.578   0.886
10598SOL    HW132693   2.462   0.575   0.984
10598SOL    HW232694   2.508   0.636   0.840
10599SOL     OW32695   4.811   0.453   6.528
10599SOL    HW132696   4.910   0.464   6.517
10599SOL    HW232697   4.768   0.453   6.438
10600SOL     OW32698   1.790   3.087   4.831
10600SOL    HW132699   1.814   3.024   4.757
10600SOL    HW232700   1.755   3.035   4.909
10601SOL     OW32701   3.296   6.452   5.271
10601SOL    HW132702   3.390   6.483   5.290
10601SOL    HW232703   3.298   6.358   5.237
10602SOL     OW32704   4.684   1.916   1.509
10602SOL    HW132705   4.618   1.989   1.491
10602SOL    HW232706   4.776   1.946   1.482
10603SOL     OW32707   0.925   5.152   5.642
10603SOL    HW132708   0.975   5.141   5.556
10603SOL    HW232709   0.963   5.229   5.693
10604SOL     OW32710   0.515   4.158   6.222
10604SOL    HW132711   0.472   4.106   6.149
10604SOL    HW232712   0.445   4.197   6.281
10605SOL     OW32713   1.840   5.008   6.534
10605SOL    HW132714   1.832   4.946   6.456
10605SOL    HW232715   1.775   5.083   6.525
10606SOL     OW32716   0.189   1.350   2.126
10606SOL    HW132717   0.265   1.380   2.069
10606SOL    HW232718   0.126   1.427   2.141
10607SOL     OW32719   5.580   4.300   6.329
10607SOL    HW132720   5.668   4.338   6.299
10607SOL    HW232721   5.564   4.323   6.425
10608SOL     OW32722   5.577   6.942   2.567
10608SOL    HW132723   5.562   0.019   2.558
10608SOL    HW232724   5.610   6.922   2.659
10609SOL     OW32725   4.158   6.969   2.598
10609SOL    HW132726   4.186   7.015   2.682
10609SOL    HW232727   4.188   6.873   2.601
10610SOL     OW32728   2.019   4.355   4.932
10610SOL    HW132729   2.045   4.307   5.016
10610SOL    HW232730   2.098   4.406   4.897
10611SOL     OW32731   4.996   2.239   6.042
10611SOL    HW132732   4.900   2.243   6.016
10611SOL    HW232733   5.051   2.214   5.963
10612SOL     OW32734   1.925   0.261   0.931
10612SOL    HW132735   1.871   0.255   1.014
10612SOL    HW232736   1.931   0.172   0.887
10613SOL     OW32737   0.703   6.470   6.676
10613SOL    HW132738   0.698   6.506   6.769
10613SOL    HW232739   0.631   6.402   6.663
10614SOL     OW32740   0.331   0.990   2.559
10614SOL    HW132741   0.336   0.944   2.648
10614SOL    HW232742   0.286   0.931   2.493
10615SOL     OW32743   0.169   6.419   5.508
10615SOL    HW132744   0.256   6.440   5.462
10615SOL    HW232745   0.095   6.420   5.441
10616SOL     OW32746   2.894   5.819   1.163
10616SOL    HW132747   2.866   5.832   1.068
10616SOL    HW232748   2.908   5.722   1.181
10617SOL     OW32749   0.573   1.107   6.696
10617SOL    HW132750   0.653   1.162   6.674
10617SOL    HW232751   0.595   1.043   6.770
10618SOL     OW32752   6.389   4.144   0.680
10618SOL    HW132753   6.375   4.116   0.585
10618SOL    HW232754   6.482   4.118   0.709
10619SOL     OW32755   0.277   3.594   3.693
10619SOL    HW132756   0.278   3.690   3.666
10619SOL    HW232757   0.241   3.586   3.787
10620SOL     OW32758   1.180   5.282   4.331
10620SOL    HW132759   1.253   5.276   4.398
10620SOL    HW232760   1.137   5.372   4.336
10621SOL     OW32761   3.770   6.408   0.528
10621SOL    HW132762   3.677   6.445   0.540
10621SOL    HW232763   3.767   6.326   0.471
10622SOL     OW32764   3.787   2.248   0.728
10622SOL    HW132765   3.882   2.231   0.703
10622SOL    HW232766   3.776   2.344   0.753
10623SOL     OW32767   6.878   1.393   4.926
10623SOL    HW132768   6.972   1.409   4.957
10623SOL    HW232769   6.842   1.309   4.966
10624SOL     OW32770   2.879   1.140   4.431
10624SOL    HW132771   2.835   1.214   4.380
10624SOL    HW232772   2.948   1.178   4.493
10625SOL     OW32773   0.980   2.757   0.647
10625SOL    HW132774   1.060   2.726   0.595
10625SOL    HW232775   0.902   2.768   0.585
10626SOL     OW32776   6.467   2.393   2.859
10626SOL    HW132777   6.556   2.399   2.905
10626SOL    HW232778   6.399   2.358   2.924
10627SOL     OW32779   5.311   5.780   4.997
10627SOL    HW132780   5.396   5.813   5.037
10627SOL    HW232781   5.326   5.690   4.955
10628SOL     OW32782   6.646   5.510   5.314
10628SOL    HW132783   6.708   5.432   5.308
10628SOL    HW232784   6.627   5.544   5.222
10629SOL     OW32785   2.445   4.403   6.521
10629SOL    HW132786   2.414   4.475   6.584
10629SOL    HW232787   2.372   4.336   6.509
10630SOL     OW32788   5.217   0.734   1.966
10630SOL    HW132789   5.293   0.705   2.024
10630SOL    HW232790   5.250   0.797   1.897
10631SOL     OW32791   1.407   6.806   4.870
10631SOL    HW132792   1.394   6.708   4.885
10631SOL    HW232793   1.385   6.856   4.954
10632SOL     OW32794   0.203   3.174   6.556
10632SOL    HW132795   0.206   3.270   6.585
10632SOL    HW232796   0.130   3.127   6.605
10633SOL     OW32797   1.125   5.190   0.126
10633SOL    HW132798   1.205   5.168   0.182
10633SOL    HW232799   1.048   5.134   0.155
10634SOL     OW32800   3.718   6.511   2.367
10634SOL    HW132801   3.733   6.538   2.272
10634SOL    HW232802   3.784   6.441   2.393
10635SOL     OW32803   1.725   1.507   1.579
10635SOL    HW132804   1.669   1.468   1.506
10635SOL    HW232805   1.822   1.487   1.561
10636SOL     OW32806   4.905   1.713   0.333
10636SOL    HW132807   4.997   1.752   0.335
10636SOL    HW232808   4.907   1.625   0.285
10637SOL     OW32809   3.073   4.106   6.128
10637SOL    HW132810   3.160   4.069   6.160
10637SOL    HW232811   3.020   4.138   6.206
10638SOL     OW32812   6.397   0.680   5.741
10638SOL    HW132813   6.372   0.586   5.767
10638SOL    HW232814   6.471   0.712   5.800
10639SOL     OW32815   3.594   2.140   5.208
10639SOL    HW132816   3.537   2.217   5.238
10639SOL    HW232817   3.573   2.060   5.264
10640SOL     OW32818   4.765   6.203   0.888
10640SOL    HW132819   4.809   6.147   0.818
10640SOL    HW232820   4.694   6.259   0.846
10641SOL     OW32821   3.674   0.009   0.010
10641SOL    HW132822   3.632   7.000   0.096
10641SOL    HW232823   3.712   6.952   6.984
10642SOL     OW32824   0.100   4.979   0.537
10642SOL    HW132825   0.018   5.002   0.485
10642SOL    HW232826   0.075   4.922   0.615
10643SOL     OW32827   4.278   3.151   5.379
10643SOL    HW132828   4.308   3.244   5.359
10643SOL    HW232829   4.357   3.090   5.380
10644SOL     OW32830   4.050   1.369   5.546
10644SOL    HW132831   4.019   1.283   5.507
10644SOL    HW232832   4.035   1.369   5.645
10645SOL     OW32833   2.251   6.897   4.900
10645SOL    HW132834   2.181   6.826   4.891
10645SOL    HW232835   2.265   6.941   4.811
10646SOL     OW32836   6.890   4.981   6.863
10646SOL    HW132837   6.979   4.952   6.828
10646SOL    HW232838   6.898   5.070   6.907
10647SOL     OW32839   0.649   5.816   0.679
10647SOL    HW132840   0.580   5.888   0.685
10647SOL    HW232841   0.623   5.740   0.738
10648SOL     OW32842   5.094   4.450   5.845
10648SOL    HW132843   5.094   4.460   5.746
10648SOL    HW232844   5.103   4.541   5.887
10649SOL     OW32845   0.382   4.625   6.500
10649SOL    HW132846   0.319   4.701   6.491
10649SOL    HW232847   0.390   4.598   6.596
10650SOL     OW32848   2.617   0.211   5.710
10650SOL    HW132849   2.701   0.200   5.656
10650SOL    HW232850   2.543   0.160   5.667
10651SOL     OW32851   2.410   0.526   4.997
10651SOL    HW132852   2.324   0.474   5.004
10651SOL    HW232853   2.396   0.606   4.938
10652SOL     OW32854   4.283   1.226   0.922
10652SOL    HW132855   4.351   1.154   0.904
10652SOL    HW232856   4.326   1.299   0.976
10653SOL     OW32857   6.373   4.020   3.879
10653SOL    HW132858   6.338   4.091   3.819
10653SOL    HW232859   6.322   3.935   3.864
10654SOL     OW32860   4.802   0.627   1.880
10654SOL    HW132861   4.851   0.707   1.915
10654SOL    HW232862   4.707   0.651   1.861
10655SOL     OW32863   2.346   5.678   1.199
10655SOL    HW132864   2.361   5.585   1.165
10655SOL    HW232865   2.434   5.724   1.210
10656SOL     OW32866   6.397   2.626   6.406
10656SOL    HW132867   6.376   2.658   6.498
10656SOL    HW232868   6.496   2.613   6.398
10657SOL     OW32869   6.652   0.662   0.927
10657SOL    HW132870   6.631   0.740   0.868
10657SOL    HW232871   6.639   0.577   0.875
10658SOL     OW32872   0.164   6.395   4.388
10658SOL    HW132873   0.183   6.315   4.445
10658SOL    HW232874   0.177   6.371   4.292
10659SOL     OW32875   4.833   1.008   1.143
10659SOL    HW132876   4.864   0.946   1.215
10659SOL    HW232877   4.906   1.022   1.077
10660SOL     OW32878   5.034   5.547   5.617
10660SOL    HW132879   5.126   5.578   5.593
10660SOL    HW232880   5.007   5.473   5.554
10661SOL     OW32881   6.992   0.764   1.928
10661SOL    HW132882   6.949   0.680   1.895
10661SOL    HW232883   6.951   0.843   1.882
10662SOL     OW32884   7.015   1.836   0.407
10662SOL    HW132885   6.944   1.906   0.408
10662SOL    HW232886   0.072   1.867   0.461
10663SOL     OW32887   0.945   2.304   1.013
10663SOL    HW132888   0.852   2.311   1.049
10663SOL    HW232889   0.988   2.395   1.013
10664SOL     OW32890   2.337   5.496   6.097
10664SOL    HW132891   2.300   5.405   6.076
10664SOL    HW232892   2.424   5.486   6.145
10665SOL     OW32893   5.765   2.062   0.032
10665SOL    HW132894   5.681   2.103   7.018
10665SOL    HW232895   5.830   2.050   6.980
10666SOL     OW32896   0.784   6.660   0.368
10666SOL    HW132897   0.707   6.645   0.305
10666SOL    HW232898   0.827   6.748   0.348
10667SOL     OW32899   3.100   2.603   5.653
10667SOL    HW132900   3.104   2.703   5.661
10667SOL    HW232901   3.087   2.579   5.557
10668SOL     OW32902   1.686   0.710   5.900
10668SOL    HW132903   1.769   0.700   5.844
10668SOL    HW232904   1.704   0.771   5.976
10669SOL     OW32905   2.076   6.119   6.880
10669SOL    HW132906   1.989   6.106   6.832
10669SOL    HW232907   2.106   6.032   6.918
10670SOL     OW32908   6.128   4.374   4.605
10670SOL    HW132909   6.172   4.285   4.616
10670SOL    HW232910   6.157   4.435   4.678
10671SOL     OW32911   1.934   2.827   3.302
10671SOL    HW132912   1.939   2.784   3.392
10671SOL    HW232913   2.012   2.889   3.290
10672SOL     OW32914   0.030   2.118   0.724
10672SOL    HW132915   0.110   2.157   0.771
10672SOL    HW232916   0.029   2.150   0.629
10673SOL     OW32917   3.626   4.062   4.254
10673SOL    HW132918   3.590   4.129   4.319
10673SOL    HW232919   3.722   4.044   4.276
10674SOL     OW32920   4.407   1.393   2.341
10674SOL    HW132921   4.406   1.318   2.406
10674SOL    HW232922   4.338   1.460   2.366
10675SOL     OW32923   1.325   1.255   5.814
10675SOL    HW132924   1.277   1.229   5.730
10675SOL    HW232925   1.288   1.204   5.891
10676SOL     OW32926   6.846   0.645   0.000
10676SOL    HW132927   6.780   0.666   0.072
10676SOL    HW232928   6.867   0.728   6.972
10677SOL     OW32929   5.653   1.538   0.487
10677SOL    HW132930   5.638   1.589   0.401
10677SOL    HW232931   5.670   1.603   0.561
10678SOL     OW32932   1.610   5.488   3.707
10678SOL    HW132933   1.596   5.581   3.674
10678SOL    HW232934   1.615   5.489   3.807
10679SOL     OW32935   5.616   5.194   3.600
10679SOL    HW132936   5.534   5.231   3.644
10679SOL    HW232937   5.690   5.187   3.667
10680SOL     OW32938   0.299   2.834   3.784
10680SOL    HW132939   0.299   2.767   3.857
10680SOL    HW232940   0.352   2.800   3.707
10681SOL     OW32941   0.626   3.058   0.001
10681SOL    HW132942   0.648   3.135   0.060
10681SOL    HW232943   0.696   3.048   6.953
10682SOL     OW32944   5.994   2.127   3.341
10682SOL    HW132945   5.990   2.212   3.290
10682SOL    HW232946   5.994   2.147   3.439
10683SOL     OW32947   1.049   0.925   4.058
10683SOL    HW132948   1.069   0.882   3.970
10683SOL    HW232949   1.109   0.886   4.128
10684SOL     OW32950   5.344   5.909   0.865
10684SOL    HW132951   5.348   5.813   0.836
10684SOL    HW232952   5.249   5.941   0.861
10685SOL     OW32953   6.304   2.751   2.480
10685SOL    HW132954   6.269   2.825   2.537
10685SOL    HW232955   6.325   2.787   2.389
10686SOL     OW32956   4.479   4.344   1.143
10686SOL    HW132957   4.417   4.267   1.127
10686SOL    HW232958   4.435   4.411   1.202
10687SOL     OW32959   6.989   5.305   1.177
10687SOL    HW132960   6.949   5.363   1.248
10687SOL    HW232961   0.040   5.249   1.217
10688SOL     OW32962   1.368   4.615   0.975
10688SOL    HW132963   1.283   4.586   1.019
10688SOL    HW232964   1.361   4.602   0.876
10689SOL     OW32965   0.970   0.481   0.794
10689SOL    HW132966   0.959   0.574   0.759
10689SOL    HW232967   0.884   0.449   0.832
10690SOL     OW32968   4.409   0.200   3.329
10690SOL    HW132969   4.468   0.130   3.368
10690SOL    HW232970   4.452   0.290   3.338
10691SOL     OW32971   4.976   1.596   1.487
10691SOL    HW132972   4.990   1.686   1.446
10691SOL    HW232973   4.956   1.607   1.584
10692SOL     OW32974   6.223   6.366   4.011
10692SOL    HW132975   6.241   6.377   3.913
10692SOL    HW232976   6.263   6.280   4.043
10693SOL     OW32977   4.709   2.785   4.151
10693SOL    HW132978   4.739   2.871   4.190
10693SOL    HW232979   4.661   2.731   4.221
10694SOL     OW32980   2.546   6.101   0.203
10694SOL    HW132981   2.529   6.135   0.296
10694SOL    HW232982   2.547   6.001   0.204
10695SOL     OW32983   5.634   3.377   6.057
10695SOL    HW132984   5.728   3.409   6.045
10695SOL    HW232985   5.627   3.322   6.141
10696SOL     OW32986   6.701   0.146   0.607
10696SOL    HW132987   6.647   0.078   0.656
10696SOL    HW232988   6.779   0.102   0.563
10697SOL     OW32989   2.056   5.866   3.464
10697SOL    HW132990   2.040   5.907   3.374
10697SOL    HW232991   2.009   5.778   3.468
10698SOL     OW32992   3.342   0.464   4.842
10698SOL    HW132993   3.403   0.543   4.847
10698SOL    HW232994   3.248   0.494   4.858
10699SOL     OW32995   1.331   2.905   3.594
10699SOL    HW132996   1.336   2.865   3.502
10699SOL    HW232997   1.311   2.833   3.661
10700SOL     OW32998   1.086   3.262   2.402
10700SOL    HW132999   1.143   3.279   2.483
10700SOL    HW233000   1.089   3.165   2.379
10701SOL     OW33001   2.916   0.081   1.110
10701SOL    HW133002   2.910   7.005   1.093
10701SOL    HW233003   2.896   0.131   1.025
10702SOL     OW33004   4.859   2.030   0.560
10702SOL    HW133005   4.791   2.049   0.489
10702SOL    HW233006   4.887   2.117   0.603
10703SOL     OW33007   3.608   3.904   4.027
10703SOL    HW133008   3.605   3.955   4.112
10703SOL    HW233009   3.644   3.812   4.044
10704SOL     OW33010   5.214   5.681   1.852
10704SOL    HW133011   5.177   5.598   1.893
10704SOL    HW233012   5.309   5.666   1.825
10705SOL     OW33013   1.358   3.126   6.932
10705SOL    HW133014   1.326   3.220   6.918
10705SOL    HW233015   1.381   3.085   6.843
10706SOL     OW33016   3.536   3.531   0.686
10706SOL    HW133017   3.532   3.497   0.780
10706SOL    HW233018   3.630   3.558   0.664
10707SOL     OW33019   5.717   0.327   6.564
10707SOL    HW133020   5.783   0.316   6.638
10707SOL    HW233021   5.628   0.351   6.603
10708SOL     OW33022   4.597   2.292   1.897
10708SOL    HW133023   4.562   2.198   1.903
10708SOL    HW233024   4.680   2.293   1.842
10709SOL     OW33025   1.065   0.765   6.486
10709SOL    HW133026   0.985   0.816   6.452
10709SOL    HW233027   1.040   0.669   6.499
10710SOL     OW33028   0.220   6.491   3.432
10710SOL    HW133029   0.151   6.419   3.441
10710SOL    HW233030   0.306   6.451   3.402
10711SOL     OW33031   1.892   3.870   5.410
10711SOL    HW133032   1.988   3.888   5.393
10711SOL    HW233033   1.837   3.907   5.335
10712SOL     OW33034   3.324   1.907   6.874
10712SOL    HW133035   3.385   1.832   6.848
10712SOL    HW233036   3.284   1.948   6.792
10713SOL     OW33037   2.515   6.984   6.972
10713SOL    HW133038   2.470   6.896   6.988
10713SOL    HW233039   2.580   7.002   0.024
10714SOL     OW33040   5.076   5.677   4.240
10714SOL    HW133041   5.046   5.603   4.179
10714SOL    HW233042   5.172   5.664   4.264
10715SOL     OW33043   6.054   0.137   2.696
10715SOL    HW133044   6.121   0.201   2.658
10715SOL    HW233045   6.095   0.087   2.772
10716SOL     OW33046   6.737   0.905   2.097
10716SOL    HW133047   6.771   0.914   2.190
10716SOL    HW233048   6.813   0.887   2.035
10717SOL     OW33049   0.670   6.662   1.813
10717SOL    HW133050   0.677   6.564   1.829
10717SOL    HW233051   0.741   6.709   1.867
10718SOL     OW33052   0.626   4.679   5.149
10718SOL    HW133053   0.646   4.584   5.124
10718SOL    HW233054   0.539   4.682   5.199
10719SOL     OW33055   3.413   6.672   3.336
10719SOL    HW133056   3.479   6.633   3.272
10719SOL    HW233057   3.422   6.628   3.425
10720SOL     OW33058   0.356   2.697   6.241
10720SOL    HW133059   0.408   2.668   6.161
10720SOL    HW233060   0.268   2.650   6.243
10721SOL     OW33061   5.448   1.460   3.903
10721SOL    HW133062   5.392   1.382   3.932
10721SOL    HW233063   5.516   1.428   3.836
10722SOL     OW33064   0.877   5.455   0.418
10722SOL    HW133065   0.875   5.446   0.518
10722SOL    HW233066   0.862   5.550   0.393
10723SOL     OW33067   7.019   3.927   6.405
10723SOL    HW133068   6.996   3.944   6.501
10723SOL    HW233069   0.080   3.976   6.381
10724SOL     OW33070   3.352   6.360   5.786
10724SOL    HW133071   3.350   6.459   5.800
10724SOL    HW233072   3.357   6.315   5.875
10725SOL     OW33073   0.047   6.857   5.716
10725SOL    HW133074   0.069   6.812   5.629
10725SOL    HW233075   7.000   6.803   5.764
10726SOL     OW33076   6.942   0.051   3.528
10726SOL    HW133077   6.897   0.090   3.608
10726SOL    HW233078   0.013   0.087   3.521
10727SOL     OW33079   4.830   6.145   6.283
10727SOL    HW133080   4.868   6.054   6.264
10727SOL    HW233081   4.896   6.215   6.256
10728SOL     OW33082   5.632   5.931   3.873
10728SOL    HW133083   5.540   5.968   3.889
10728SOL    HW233084   5.630   5.869   3.794
10729SOL     OW33085   0.200   2.990   4.097
10729SOL    HW133086   0.297   2.963   4.094
10729SOL    HW233087   0.143   2.909   4.097
10730SOL     OW33088   1.549   6.026   4.399
10730SOL    HW133089   1.549   6.085   4.318
10730SOL    HW233090   1.638   5.981   4.408
10731SOL     OW33091   4.853   4.331   5.387
10731SOL    HW133092   4.753   4.331   5.379
10731SOL    HW233093   4.885   4.239   5.409
10732SOL     OW33094   5.875   6.068   1.953
10732SOL    HW133095   5.866   6.083   1.855
10732SOL    HW233096   5.861   6.154   2.002
10733SOL     OW33097   0.576   1.498   5.869
10733SOL    HW133098   0.486   1.454   5.880
10733SOL    HW233099   0.574   1.589   5.911
10734SOL     OW33100   0.620   0.486   4.556
10734SOL    HW133101   0.612   0.399   4.508
10734SOL    HW233102   0.540   0.499   4.614
10735SOL     OW33103   6.595   0.541   1.843
10735SOL    HW133104   6.559   0.449   1.836
10735SOL    HW233105   6.547   0.601   1.779
10736SOL     OW33106   5.440   5.834   3.700
10736SOL    HW133107   5.395   5.808   3.784
10736SOL    HW233108   5.389   5.798   3.622
10737SOL     OW33109   0.119   0.675   0.650
10737SOL    HW133110   0.206   0.648   0.610
10737SOL    HW233111   0.080   0.598   0.701
10738SOL     OW33112   1.667   6.739   1.865
10738SOL    HW133113   1.668   6.644   1.831
10738SOL    HW233114   1.656   6.738   1.965
10739SOL     OW33115   4.895   2.577   4.144
10739SOL    HW133116   4.838   2.659   4.136
10739SOL    HW233117   4.951   2.567   4.062
10740SOL     OW33118   2.667   0.536   6.268
10740SOL    HW133119   2.649   0.581   6.355
10740SOL    HW233120   2.623   0.587   6.194
10741SOL     OW33121   1.549   2.591   4.201
10741SOL    HW133122   1.469   2.613   4.257
10741SOL    HW233123   1.631   2.630   4.243
10742SOL     OW33124   0.525   0.312   1.892
10742SOL    HW133125   0.618   0.278   1.874
10742SOL    HW233126   0.459   0.250   1.850
10743SOL     OW33127   3.848   2.639   6.155
10743SOL    HW133128   3.922   2.667   6.093
10743SOL    HW233129   3.835   2.709   6.225
10744SOL     OW33130   1.652   2.048   1.357
10744SOL    HW133131   1.696   2.063   1.269
10744SOL    HW233132   1.593   2.125   1.379
10745SOL     OW33133   2.843   5.548   1.216
10745SOL    HW133134   2.812   5.503   1.300
10745SOL    HW233135   2.853   5.480   1.144
10746SOL     OW33136   2.558   5.679   6.043
10746SOL    HW133137   2.496   5.601   6.049
10746SOL    HW233138   2.601   5.679   5.952
10747SOL     OW33139   6.869   0.039   4.655
10747SOL    HW133140   6.878   0.033   4.555
10747SOL    HW233141   6.935   6.999   4.698
10748SOL     OW33142   2.707   6.320   2.660
10748SOL    HW133143   2.641   6.293   2.729
10748SOL    HW233144   2.734   6.240   2.606
10749SOL     OW33145   4.884   3.281   2.198
10749SOL    HW133146   4.884   3.310   2.102
10749SOL    HW233147   4.852   3.186   2.204
10750SOL     OW33148   3.783   1.633   4.344
10750SOL    HW133149   3.702   1.650   4.400
10750SOL    HW233150   3.757   1.584   4.261
10751SOL     OW33151   6.217   5.977   3.566
10751SOL    HW133152   6.241   5.934   3.480
10751SOL    HW233153   6.289   5.960   3.634
10752SOL     OW33154   0.307   5.991   6.649
10752SOL    HW133155   0.218   6.002   6.692
10752SOL    HW233156   0.303   5.915   6.584
10753SOL     OW33157   5.294   6.990   5.097
10753SOL    HW133158   5.251   7.008   5.009
10753SOL    HW233159   5.242   0.013   5.169
10754SOL     OW33160   0.067   5.474   2.334
10754SOL    HW133161   7.006   5.436   2.373
10754SOL    HW233162   0.084   5.431   2.245
10755SOL     OW33163   0.328   1.975   2.354
10755SOL    HW133164   0.324   1.891   2.299
10755SOL    HW233165   0.303   1.954   2.449
10756SOL     OW33166   1.276   6.925   6.373
10756SOL    HW133167   1.373   6.950   6.374
10756SOL    HW233168   1.229   6.978   6.303
10757SOL     OW33169   6.949   2.714   1.535
10757SOL    HW133170   6.979   2.804   1.567
10757SOL    HW233171   7.019   2.646   1.557
10758SOL     OW33172   0.827   1.897   0.492
10758SOL    HW133173   0.848   1.994   0.500
10758SOL    HW233174   0.731   1.881   0.515
10759SOL     OW33175   3.895   4.246   5.689
10759SOL    HW133176   3.930   4.153   5.691
10759SOL    HW233177   3.814   4.250   5.631
10760SOL     OW33178   0.618   5.120   0.179
10760SOL    HW133179   0.608   5.029   0.218
10760SOL    HW233180   0.538   5.141   0.122
10761SOL     OW33181   1.281   1.362   6.696
10761SOL    HW133182   1.363   1.405   6.734
10761SOL    HW233183   1.297   1.337   6.601
10762SOL     OW33184   1.770   6.155   1.269
10762SOL    HW133185   1.771   6.068   1.318
10762SOL    HW233186   1.797   6.228   1.332
10763SOL     OW33187   5.031   1.095   2.154
10763SOL    HW133188   5.125   1.079   2.184
10763SOL    HW233189   4.968   1.075   2.229
10764SOL     OW33190   5.226   6.496   5.156
10764SOL    HW133191   5.263   6.419   5.208
10764SOL    HW233192   5.187   6.463   5.070
10765SOL     OW33193   6.867   2.833   1.209
10765SOL    HW133194   6.967   2.827   1.219
10765SOL    HW233195   6.824   2.757   1.258
10766SOL     OW33196   3.149   5.153   6.480
10766SOL    HW133197   3.191   5.185   6.565
10766SOL    HW233198   3.049   5.157   6.489
10767SOL     OW33199   1.862   4.670   6.493
10767SOL    HW133200   1.928   4.734   6.534
10767SOL    HW233201   1.801   4.719   6.432
10768SOL     OW33202   5.672   6.309   0.232
10768SOL    HW133203   5.740   6.279   0.166
10768SOL    HW233204   5.581   6.306   0.191
10769SOL     OW33205   3.106   3.624   4.976
10769SOL    HW133206   3.097   3.554   5.046
10769SOL    HW233207   3.070   3.711   5.011
10770SOL     OW33208   4.836   6.938   3.847
10770SOL    HW133209   4.914   6.938   3.911
10770SOL    HW233210   4.819   0.010   3.816
10771SOL     OW33211   4.771   5.789   5.847
10771SOL    HW133212   4.751   5.874   5.799
10771SOL    HW233213   4.694   5.726   5.837
10772SOL     OW33214   4.897   3.858   3.451
10772SOL    HW133215   4.868   3.764   3.469
10772SOL    HW233216   4.974   3.880   3.511
10773SOL     OW33217   0.384   4.259   0.944
10773SOL    HW133218   0.399   4.328   1.015
10773SOL    HW233219   0.347   4.176   0.986
10774SOL     OW33220   6.847   2.771   0.118
10774SOL    HW133221   6.862   2.729   0.029
10774SOL    HW233222   6.922   2.747   0.180
10775SOL     OW33223   2.858   4.936   6.997
10775SOL    HW133224   2.783   4.935   6.931
10775SOL    HW233225   2.870   4.844   0.013
10776SOL     OW33226   0.717   3.760   3.390
10776SOL    HW133227   0.799   3.761   3.447
10776SOL    HW233228   0.640   3.799   3.441
10777SOL     OW33229   1.373   6.790   1.841
10777SOL    HW133230   1.472   6.776   1.833
10777SOL    HW233231   1.352   6.888   1.833
10778SOL     OW33232   4.960   0.508   3.869
10778SOL    HW133233   4.902   0.553   3.802
10778SOL    HW233234   4.904   0.482   3.949
10779SOL     OW33235   5.585   3.024   6.114
10779SOL    HW133236   5.598   2.995   6.209
10779SOL    HW233237   5.493   3.060   6.102
10780SOL     OW33238   0.806   5.105   4.563
10780SOL    HW133239   0.716   5.143   4.543
10780SOL    HW233240   0.796   5.014   4.604
10781SOL     OW33241   6.165   2.557   5.610
10781SOL    HW133242   6.209   2.546   5.521
10781SOL    HW233243   6.066   2.554   5.599
10782SOL     OW33244   0.996   3.280   5.534
10782SOL    HW133245   1.093   3.258   5.525
10782SOL    HW233246   0.979   3.315   5.627
10783SOL     OW33247   1.366   3.912   3.913
10783SOL    HW133248   1.465   3.915   3.898
10783SOL    HW233249   1.332   4.004   3.933
10784SOL     OW33250   4.600   5.232   3.750
10784SOL    HW133251   4.610   5.168   3.673
10784SOL    HW233252   4.565   5.183   3.829
10785SOL     OW33253   1.445   5.131   1.867
10785SOL    HW133254   1.532   5.126   1.914
10785SOL    HW233255   1.435   5.052   1.806
10786SOL     OW33256   5.154   1.462   2.431
10786SOL    HW133257   5.221   1.408   2.379
10786SOL    HW233258   5.194   1.488   2.519
10787SOL     OW33259   3.168   1.536   3.860
10787SOL    HW133260   3.209   1.624   3.835
10787SOL    HW233261   3.102   1.549   3.934
10788SOL     OW33262   1.615   2.967   0.296
10788SOL    HW133263   1.587   3.007   0.383
10788SOL    HW233264   1.558   3.005   0.222
10789SOL     OW33265   5.833   2.212   2.678
10789SOL    HW133266   5.925   2.245   2.695
10789SOL    HW233267   5.799   2.165   2.760
10790SOL     OW33268   0.152   2.169   5.264
10790SOL    HW133269   0.095   2.091   5.240
10790SOL    HW233270   0.165   2.227   5.184
10791SOL     OW33271   1.704   3.565   3.480
10791SOL    HW133272   1.804   3.570   3.482
10791SOL    HW233273   1.674   3.496   3.415
10792SOL     OW33274   3.956   1.235   2.156
10792SOL    HW133275   3.989   1.283   2.238
10792SOL    HW233276   3.908   1.300   2.097
10793SOL     OW33277   3.779   2.181   4.379
10793SOL    HW133278   3.787   2.181   4.280
10793SOL    HW233279   3.847   2.242   4.419
10794SOL     OW33280   4.732   2.873   6.507
10794SOL    HW133281   4.773   2.830   6.588
10794SOL    HW233282   4.768   2.829   6.425
10795SOL     OW33283   6.380   2.926   3.388
10795SOL    HW133284   6.342   2.980   3.312
10795SOL    HW233285   6.458   2.974   3.426
10796SOL     OW33286   0.315   1.372   6.663
10796SOL    HW133287   0.308   1.275   6.640
10796SOL    HW233288   0.299   1.384   6.761
10797SOL     OW33289   5.396   4.996   6.653
10797SOL    HW133290   5.466   4.929   6.677
10797SOL    HW233291   5.421   5.041   6.567
10798SOL     OW33292   2.326   5.551   0.537
10798SOL    HW133293   2.374   5.638   0.525
10798SOL    HW233294   2.360   5.484   0.471
10799SOL     OW33295   2.290   0.349   3.197
10799SOL    HW133296   2.349   0.426   3.222
10799SOL    HW233297   2.345   0.279   3.150
10800SOL     OW33298   2.020   0.747   4.852
10800SOL    HW133299   2.111   0.729   4.815
10800SOL    HW233300   1.951   0.700   4.797
10801SOL     OW33301   2.740   6.203   6.500
10801SOL    HW133302   2.757   6.292   6.542
10801SOL    HW233303   2.644   6.178   6.511
10802SOL     OW33304   0.834   4.663   4.123
10802SOL    HW133305   0.837   4.703   4.214
10802SOL    HW233306   0.869   4.729   4.056
10803SOL     OW33307   6.808   4.457   4.674
10803SOL    HW133308   6.866   4.442   4.755
10803SOL    HW233309   6.854   4.520   4.612
10804SOL     OW33310   4.287   4.939   6.810
10804SOL    HW133311   4.269   4.862   6.750
10804SOL    HW233312   4.327   4.907   6.896
10805SOL     OW33313   4.848   6.031   0.707
10805SOL    HW133314   4.790   6.026   0.625
10805SOL    HW233315   4.932   5.980   0.691
10806SOL     OW33316   5.207   2.909   5.546
10806SOL    HW133317   5.165   2.824   5.515
10806SOL    HW233318   5.137   2.981   5.552
10807SOL     OW33319   4.485   2.955   5.350
10807SOL    HW133320   4.445   2.864   5.338
10807SOL    HW233321   4.576   2.947   5.389
10808SOL     OW33322   0.688   2.912   0.879
10808SOL    HW133323   0.654   2.944   0.791
10808SOL    HW233324   0.679   2.812   0.884
10809SOL     OW33325   1.226   0.851   2.877
10809SOL    HW133326   1.310   0.832   2.827
10809SOL    HW233327   1.152   0.791   2.844
10810SOL     OW33328   1.837   1.631   6.178
10810SOL    HW133329   1.760   1.690   6.152
10810SOL    HW233330   1.813   1.535   6.159
10811SOL     OW33331   4.001   6.123   6.457
10811SOL    HW133332   4.064   6.085   6.524
10811SOL    HW233333   3.944   6.049   6.419
10812SOL     OW33334   6.420   3.272   2.916
10812SOL    HW133335   6.472   3.187   2.922
10812SOL    HW233336   6.387   3.283   2.822
10813SOL     OW33337   3.069   5.902   2.321
10813SOL    HW133338   3.113   5.873   2.236
10813SOL    HW233339   3.098   5.842   2.396
10814SOL     OW33340   2.044   6.105   4.429
10814SOL    HW133341   2.057   6.176   4.498
10814SOL    HW233342   2.003   6.024   4.472
10815SOL     OW33343   5.649   2.191   5.749
10815SOL    HW133344   5.558   2.204   5.709
10815SOL    HW233345   5.639   2.148   5.839
10816SOL     OW33346   2.342   2.119   1.149
10816SOL    HW133347   2.407   2.155   1.081
10816SOL    HW233348   2.389   2.052   1.207
10817SOL     OW33349   3.827   1.698   1.913
10817SOL    HW133350   3.821   1.606   1.873
10817SOL    HW233351   3.771   1.761   1.859
10818SOL     OW33352   4.527   3.328   6.136
10818SOL    HW133353   4.536   3.361   6.042
10818SOL    HW233354   4.443   3.363   6.177
10819SOL     OW33355   2.108   3.354   5.189
10819SOL    HW133356   2.068   3.298   5.116
10819SOL    HW233357   2.178   3.301   5.237
10820SOL     OW33358   1.474   6.271   5.843
10820SOL    HW133359   1.455   6.175   5.822
10820SOL    HW233360   1.529   6.311   5.770
10821SOL     OW33361   0.204   0.256   6.750
10821SOL    HW133362   0.164   0.321   6.685
10821SOL    HW233363   0.134   0.191   6.779
10822SOL     OW33364   0.368   4.608   5.921
10822SOL    HW133365   0.437   4.653   5.864
10822SOL    HW233366   0.413   4.544   5.983
10823SOL     OW33367   1.604   1.717   1.043
10823SOL    HW133368   1.627   1.696   1.138
10823SOL    HW233369   1.688   1.739   0.993
10824SOL     OW33370   5.463   1.424   4.869
10824SOL    HW133371   5.489   1.505   4.816
10824SOL    HW233372   5.400   1.368   4.816
10825SOL     OW33373   3.776   1.123   2.465
10825SOL    HW133374   3.748   1.080   2.552
10825SOL    HW233375   3.718   1.202   2.447
10826SOL     OW33376   6.958   3.553   1.132
10826SOL    HW133377   7.013   3.469   1.126
10826SOL    HW233378   6.949   3.580   1.228
10827SOL     OW33379   0.916   2.506   4.651
10827SOL    HW133380   0.856   2.531   4.575
10827SOL    HW233381   0.868   2.518   4.738
10828SOL     OW33382   2.690   4.762   0.245
10828SOL    HW133383   2.687   4.856   0.212
10828SOL    HW233384   2.636   4.704   0.185
10829SOL     OW33385   2.311   3.866   1.718
10829SOL    HW133386   2.370   3.942   1.691
10829SOL    HW233387   2.239   3.900   1.779
10830SOL     OW33388   6.521   0.570   3.460
10830SOL    HW133389   6.558   0.482   3.488
10830SOL    HW233390   6.570   0.644   3.506
10831SOL     OW33391   5.068   2.880   2.070
10831SOL    HW133392   5.167   2.886   2.082
10831SOL    HW233393   5.047   2.864   1.974
10832SOL     OW33394   1.749   2.880   2.206
10832SOL    HW133395   1.736   2.791   2.250
10832SOL    HW233396   1.753   2.952   2.275
10833SOL     OW33397   3.377   7.008   4.740
10833SOL    HW133398   3.449   6.957   4.787
10833SOL    HW233399   3.411   0.075   4.712
10834SOL     OW33400   0.202   1.616   5.912
10834SOL    HW133401   0.224   1.524   5.880
10834SOL    HW233402   0.191   1.677   5.833
10835SOL     OW33403   0.424   1.458   0.446
10835SOL    HW133404   0.510   1.487   0.489
10835SOL    HW233405   0.353   1.526   0.463
10836SOL     OW33406   0.345   2.397   1.390
10836SOL    HW133407   0.297   2.381   1.304
10836SOL    HW233408   0.444   2.394   1.374
10837SOL     OW33409   1.483   5.296   0.598
10837SOL    HW133410   1.570   5.254   0.571
10837SOL    HW233411   1.458   5.366   0.531
10838SOL     OW33412   6.672   5.868   0.326
10838SOL    HW133413   6.747   5.927   0.354
10838SOL    HW233414   6.645   5.890   0.232
10839SOL     OW33415   2.088   2.067   6.812
10839SOL    HW133416   2.129   2.133   6.749
10839SOL    HW233417   2.035   2.000   6.760
10840SOL     OW33418   1.946   0.256   3.658
10840SOL    HW133419   1.980   0.345   3.688
10840SOL    HW233420   1.895   0.212   3.732
10841SOL     OW33421   4.511   4.020   0.188
10841SOL    HW133422   4.431   4.079   0.191
10841SOL    HW233423   4.591   4.073   0.159
10842SOL     OW33424   6.329   1.899   2.141
10842SOL    HW133425   6.420   1.858   2.135
10842SOL    HW233426   6.274   1.848   2.207
10843SOL     OW33427   1.074   2.481   1.308
10843SOL    HW133428   1.150   2.417   1.301
10843SOL    HW233429   1.099   2.567   1.263
10844SOL     OW33430   5.008   6.900   4.250
10844SOL    HW133431   5.098   6.872   4.284
10844SOL    HW233432   4.955   6.940   4.324
10845SOL     OW33433   2.541   3.487   1.489
10845SOL    HW133434   2.522   3.532   1.576
10845SOL    HW233435   2.456   3.449   1.452
10846SOL     OW33436   3.527   2.817   1.961
10846SOL    HW133437   3.609   2.865   1.990
10846SOL    HW233438   3.497   2.852   1.872
10847SOL     OW33439   5.427   1.863   5.266
10847SOL    HW133440   5.459   1.795   5.332
10847SOL    HW233441   5.411   1.950   5.313
10848SOL     OW33442   1.674   0.943   6.957
10848SOL    HW133443   1.769   0.966   6.980
10848SOL    HW233444   1.634   1.020   6.906
10849SOL     OW33445   0.752   4.203   4.776
10849SOL    HW133446   0.799   4.155   4.850
10849SOL    HW233447   0.680   4.261   4.814
10850SOL     OW33448   6.232   0.451   2.891
10850SOL    HW133449   6.280   0.374   2.933
10850SOL    HW233450   6.134   0.433   2.890
10851SOL     OW33451   4.474   2.696   0.224
10851SOL    HW133452   4.402   2.688   0.156
10851SOL    HW233453   4.558   2.728   0.181
10852SOL     OW33454   6.377   1.376   5.883
10852SOL    HW133455   6.338   1.354   5.793
10852SOL    HW233456   6.446   1.308   5.907
10853SOL     OW33457   2.901   0.212   5.546
10853SOL    HW133458   2.899   0.273   5.467
10853SOL    HW233459   2.985   0.157   5.543
10854SOL     OW33460   6.277   7.008   6.936
10854SOL    HW133461   6.267   0.028   6.846
10854SOL    HW233462   6.199   0.011   6.993
10855SOL     OW33463   1.242   6.085   0.547
10855SOL    HW133464   1.213   6.089   0.642
10855SOL    HW233465   1.312   6.156   0.531
10856SOL     OW33466   4.977   6.863   6.632
10856SOL    HW133467   5.007   6.898   6.543
10856SOL    HW233468   4.897   6.805   6.619
10857SOL     OW33469   6.400   6.774   4.889
10857SOL    HW133470   6.469   6.777   4.816
10857SOL    HW233471   6.335   6.701   4.869
10858SOL     OW33472   1.997   2.476   0.844
10858SOL    HW133473   1.942   2.524   0.911
10858SOL    HW233474   1.959   2.491   0.753
10859SOL     OW33475   2.547   5.720   1.596
10859SOL    HW133476   2.504   5.667   1.669
10859SOL    HW233477   2.597   5.658   1.535
10860SOL     OW33478   6.005   1.448   1.740
10860SOL    HW133479   5.986   1.524   1.803
10860SOL    HW233480   5.960   1.365   1.774
10861SOL     OW33481   1.700   4.786   0.903
10861SOL    HW133482   1.779   4.847   0.902
10861SOL    HW233483   1.701   4.731   0.987
10862SOL     OW33484   3.709   4.353   5.290
10862SOL    HW133485   3.627   4.311   5.250
10862SOL    HW233486   3.711   4.450   5.267
10863SOL     OW33487   0.597   6.804   3.346
10863SOL    HW133488   0.648   6.890   3.347
10863SOL    HW233489   0.575   6.779   3.252
10864SOL     OW33490   3.057   3.736   2.318
10864SOL    HW133491   3.103   3.648   2.328
10864SOL    HW233492   3.121   3.804   2.281
10865SOL     OW33493   3.002   2.013   2.795
10865SOL    HW133494   3.049   2.065   2.724
10865SOL    HW233495   3.066   1.947   2.835
10866SOL     OW33496   0.522   3.389   4.498
10866SOL    HW133497   0.510   3.488   4.502
10866SOL    HW233498   0.556   3.356   4.586
10867SOL     OW33499   4.726   2.716   0.477
10867SOL    HW133500   4.732   2.806   0.519
10867SOL    HW233501   4.631   2.684   0.480
10868SOL     OW33502   0.791   6.943   5.673
10868SOL    HW133503   0.783   6.907   5.580
10868SOL    HW233504   0.699   6.965   5.708
10869NA      NA33505   0.129   0.662   6.627
10870NA      NA33506   4.699   4.899   4.939
10871NA      NA33507   0.861   4.650   2.897
10872NA      NA33508   6.279   3.776   3.601
10873NA      NA33509   4.176   2.341   5.276
10874NA      NA33510   2.248   3.613   0.008
10875NA      NA33511   1.811   5.614   0.359
10876NA      NA33512   4.267   4.859   2.140
10877NA      NA33513   5.310   3.520   1.328
10878NA      NA33514   3.727   2.016   0.673
10879NA      NA33515   5.447   6.788   1.331
10880NA      NA33516   2.963   6.473   4.630
10881NA      NA33517   3.258   5.537   2.921
10882NA      NA33518   3.956   4.833   6.299
   7.02214   7.02214   7.02214
