Generated by trjconv : CNT in water t= 317.00000
33518
    1C        C    1   2.849   2.774   4.747
    1C        C    2   2.900   2.719   4.867
    1C        C    3   2.843   2.768   4.985
    1C        C    4   2.844   2.769   4.260
    1C        C    5   2.904   2.730   4.382
    1C        C    6   2.845   2.769   4.505
    1C        C    7   3.013   2.638   4.625
    1C        C    8   2.898   2.720   4.626
    1C        C    9   3.075   2.602   4.747
    1C        C   10   3.008   2.628   4.869
    1C        C   11   3.182   2.488   4.976
    1C        C   12   3.060   2.557   4.978
    1C        C   13   2.849   2.773   3.770
    1C        C   14   2.901   2.722   3.890
    1C        C   15   2.854   2.775   4.013
    1C        C   16   3.014   2.644   4.137
    1C        C   17   2.898   2.725   4.137
    1C        C   18   3.078   2.613   4.260
    1C        C   19   3.020   2.650   4.383
    1C        C   20   3.209   2.553   4.505
    1C        C   21   3.078   2.606   4.504
    1C        C   22   3.276   2.531   4.627
    1C        C   23   3.204   2.542   4.748
    1C        C   24   3.414   2.483   4.865
    1C        C   25   3.271   2.496   4.864
    1C        C   26   3.491   2.485   4.983
    1C        C   27   2.850   2.769   3.283
    1C        C   28   2.906   2.726   3.406
    1C        C   29   2.859   2.778   3.528
    1C        C   30   3.017   2.638   3.651
    1C        C   31   2.905   2.723   3.650
    1C        C   32   3.079   2.604   3.773
    1C        C   33   3.016   2.639   3.895
    1C        C   34   3.209   2.553   4.019
    1C        C   35   3.079   2.608   4.017
    1C        C   36   3.277   2.533   4.141
    1C        C   37   3.209   2.560   4.261
    1C        C   38   3.416   2.505   4.383
    1C        C   39   3.278   2.538   4.382
    1C        C   40   3.486   2.493   4.505
    1C        C   41   3.415   2.506   4.626
    1C        C   42   3.630   2.479   4.742
    1C        C   43   3.488   2.480   4.744
    1C        C   44   3.704   2.480   4.863
    1C        C   45   3.630   2.476   4.982
    1C        C   46   2.840   2.755   2.796
    1C        C   47   2.894   2.709   2.918
    1C        C   48   2.842   2.761   3.039
    1C        C   49   3.014   2.635   3.162
    1C        C   50   2.899   2.718   3.161
    1C        C   51   3.078   2.604   3.284
    1C        C   52   3.020   2.642   3.407
    1C        C   53   3.208   2.544   3.527
    1C        C   54   3.078   2.600   3.529
    1C        C   55   3.272   2.517   3.650
    1C        C   56   3.207   2.545   3.772
    1C        C   57   3.413   2.500   3.891
    1C        C   58   3.275   2.529   3.896
    1C        C   59   3.483   2.499   4.014
    1C        C   60   3.416   2.506   4.138
    1C        C   61   3.626   2.495   4.260
    1C        C   62   3.485   2.496   4.260
    1C        C   63   3.698   2.505   4.382
    1C        C   64   3.627   2.501   4.504
    1C        C   65   3.836   2.543   4.620
    1C        C   66   3.703   2.495   4.622
    1C        C   67   3.908   2.560   4.740
    1C        C   68   3.837   2.527   4.858
    1C        C   69   4.051   2.582   4.974
    1C        C   70   3.920   2.531   4.970
    1C        C   71   2.827   2.734   2.308
    1C        C   72   2.887   2.693   2.429
    1C        C   73   2.836   2.745   2.550
    1C        C   74   3.003   2.619   2.674
    1C        C   75   2.890   2.703   2.674
    1C        C   76   3.068   2.590   2.796
    1C        C   77   3.008   2.627   2.919
    1C        C   78   3.206   2.546   3.036
    1C        C   79   3.074   2.597   3.040
    1C        C   80   3.273   2.527   3.160
    1C        C   81   3.207   2.547   3.283
    1C        C   82   3.414   2.499   3.401
    1C        C   83   3.275   2.522   3.404
    1C        C   84   3.483   2.494   3.524
    1C        C   85   3.411   2.495   3.646
    1C        C   86   3.623   2.498   3.770
    1C        C   87   3.482   2.494   3.768
    1C        C   88   3.693   2.505   3.892
    1C        C   89   3.625   2.502   4.016
    1C        C   90   3.832   2.545   4.135
    1C        C   91   3.695   2.509   4.138
    1C        C   92   3.900   2.573   4.256
    1C        C   93   3.835   2.541   4.376
    1C        C   94   4.024   2.638   4.497
    1C        C   95   3.901   2.569   4.498
    1C        C   96   4.091   2.672   4.616
    1C        C   97   4.034   2.625   4.736
    1C        C   98   4.188   2.766   4.859
    1C        C   99   4.096   2.656   4.860
    1C        C  100   4.214   2.839   4.976
    1C        C  101   2.824   2.730   2.072
    1C        C  102   2.991   2.587   2.190
    1C        C  103   2.879   2.676   2.189
    1C        C  104   3.061   2.563   2.312
    1C        C  105   3.002   2.611   2.431
    1C        C  106   3.199   2.533   2.552
    1C        C  107   3.068   2.585   2.553
    1C        C  108   3.269   2.515   2.674
    1C        C  109   3.202   2.546   2.795
    1C        C  110   3.410   2.487   2.913
    1C        C  111   3.272   2.518   2.915
    1C        C  112   3.480   2.483   3.036
    1C        C  113   3.409   2.492   3.158
    1C        C  114   3.625   2.490   3.279
    1C        C  115   3.483   2.485   3.278
    1C        C  116   3.692   2.508   3.401
    1C        C  117   3.624   2.502   3.525
    1C        C  118   3.831   2.545   3.646
    1C        C  119   3.694   2.509   3.648
    1C        C  120   3.893   2.572   3.770
    1C        C  121   3.830   2.542   3.892
    1C        C  122   4.021   2.638   4.009
    1C        C  123   3.900   2.566   4.013
    1C        C  124   4.082   2.679   4.130
    1C        C  125   4.024   2.640   4.253
    1C        C  126   4.189   2.773   4.373
    1C        C  127   4.085   2.677   4.375
    1C        C  128   4.239   2.822   4.496
    1C        C  129   4.200   2.762   4.618
    1C        C  130   4.321   2.938   4.736
    1C        C  131   4.244   2.818   4.740
    1C        C  132   4.352   3.004   4.857
    1C        C  133   4.280   2.962   4.970
    1C        C  134   3.174   2.469   2.079
    1C        C  135   3.041   2.512   2.079
    1C        C  136   3.258   2.478   2.191
    1C        C  137   3.193   2.509   2.312
    1C        C  138   3.404   2.468   2.428
    1C        C  139   3.266   2.500   2.433
    1C        C  140   3.479   2.476   2.548
    1C        C  141   3.408   2.493   2.669
    1C        C  142   3.620   2.488   2.790
    1C        C  143   3.479   2.478   2.790
    1C        C  144   3.691   2.499   2.912
    1C        C  145   3.621   2.489   3.034
    1C        C  146   3.828   2.538   3.155
    1C        C  147   3.694   2.496   3.155
    1C        C  148   3.895   2.563   3.277
    1C        C  149   3.829   2.543   3.400
    1C        C  150   4.023   2.628   3.524
    1C        C  151   3.896   2.565   3.522
    1C        C  152   4.082   2.670   3.645
    1C        C  153   4.018   2.637   3.767
    1C        C  154   4.195   2.760   3.887
    1C        C  155   4.080   2.679   3.887
    1C        C  156   4.247   2.811   4.008
    1C        C  157   4.192   2.767   4.131
    1C        C  158   4.337   2.926   4.250
    1C        C  159   4.244   2.820   4.252
    1C        C  160   4.371   2.987   4.372
    1C        C  161   4.326   2.933   4.495
    1C        C  162   4.433   3.120   4.612
    1C        C  163   4.360   3.000   4.615
    1C        C  164   4.462   3.184   4.735
    1C        C  165   4.435   3.118   4.857
    1C        C  166   4.521   3.313   4.969
    1C        C  167   4.480   3.181   4.973
    1C        C  168   3.477   2.438   2.074
    1C        C  169   3.397   2.455   2.188
    1C        C  170   3.616   2.464   2.305
    1C        C  171   3.474   2.455   2.306
    1C        C  172   3.690   2.485   2.423
    1C        C  173   3.620   2.482   2.546
    1C        C  174   3.824   2.539   2.666
    1C        C  175   3.690   2.496   2.668
    1C        C  176   3.894   2.560   2.787
    1C        C  177   3.827   2.538   2.909
    1C        C  178   4.017   2.630   3.032
    1C        C  179   3.892   2.565   3.031
    1C        C  180   4.078   2.668   3.154
    1C        C  181   4.019   2.631   3.277
    1C        C  182   4.192   2.750   3.398
    1C        C  183   4.080   2.663   3.400
    1C        C  184   4.241   2.805   3.518
    1C        C  185   4.194   2.757   3.642
    1C        C  186   4.330   2.922   3.761
    1C        C  187   4.243   2.810   3.764
    1C        C  188   4.369   2.981   3.883
    1C        C  189   4.332   2.924   4.007
    1C        C  190   4.447   3.106   4.127
    1C        C  191   4.378   2.982   4.127
    1C        C  192   4.468   3.175   4.249
    1C        C  193   4.438   3.111   4.371
    1C        C  194   4.509   3.318   4.489
    1C        C  195   4.464   3.184   4.490
    1C        C  196   4.521   3.388   4.610
    1C        C  197   4.506   3.319   4.732
    1C        C  198   4.549   3.533   4.853
    1C        C  199   4.528   3.391   4.853
    1C        C  200   4.584   3.617   4.964
    1C        C  201   3.616   2.417   2.070
    1C        C  202   3.823   2.515   2.183
    1C        C  203   3.691   2.459   2.185
    1C        C  204   3.893   2.551   2.301
    1C        C  205   3.825   2.527   2.423
    1C        C  206   4.020   2.619   2.542
    1C        C  207   3.893   2.556   2.543
    1C        C  208   4.078   2.662   2.663
    1C        C  209   4.019   2.625   2.786
    1C        C  210   4.189   2.749   2.906
    1C        C  211   4.079   2.661   2.909
    1C        C  212   4.240   2.800   3.028
    1C        C  213   4.191   2.754   3.152
    1C        C  214   4.335   2.905   3.270
    1C        C  215   4.246   2.796   3.275
    1C        C  216   4.369   2.971   3.390
    1C        C  217   4.328   2.916   3.514
    1C        C  218   4.430   3.102   3.637
    1C        C  219   4.367   2.976   3.636
    1C        C  220   4.461   3.168   3.758
    1C        C  221   4.437   3.105   3.882
    1C        C  222   4.507   3.305   4.002
    1C        C  223   4.473   3.168   4.003
    1C        C  224   4.518   3.379   4.121
    1C        C  225   4.506   3.311   4.245
    1C        C  226   4.524   3.526   4.366
    1C        C  227   4.515   3.385   4.365
    1C        C  228   4.524   3.600   4.486
    1C        C  229   4.531   3.529   4.608
    1C        C  230   4.502   3.740   4.725
    1C        C  231   4.537   3.602   4.729
    1C        C  232   4.498   3.816   4.843
    1C        C  233   4.555   3.753   4.955
    1C        C  234   4.018   2.607   2.062
    1C        C  235   3.897   2.539   2.066
    1C        C  236   4.088   2.645   2.177
    1C        C  237   4.023   2.609   2.297
    1C        C  238   4.195   2.735   2.421
    1C        C  239   4.080   2.652   2.419
    1C        C  240   4.250   2.787   2.540
    1C        C  241   4.189   2.749   2.662
    1C        C  242   4.332   2.905   2.784
    1C        C  243   4.244   2.795   2.784
    1C        C  244   4.380   2.959   2.906
    1C        C  245   4.335   2.904   3.028
    1C        C  246   4.441   3.091   3.145
    1C        C  247   4.376   2.966   3.149
    1C        C  248   4.464   3.158   3.268
    1C        C  249   4.431   3.098   3.391
    1C        C  250   4.497   3.301   3.512
    1C        C  251   4.457   3.165   3.513
    1C        C  252   4.514   3.371   3.634
    1C        C  253   4.499   3.304   3.758
    1C        C  254   4.524   3.516   3.876
    1C        C  255   4.515   3.375   3.879
    1C        C  256   4.522   3.589   3.997
    1C        C  257   4.521   3.520   4.120
    1C        C  258   4.499   3.732   4.240
    1C        C  259   4.521   3.593   4.241
    1C        C  260   4.476   3.804   4.359
    1C        C  261   4.491   3.737   4.483
    1C        C  262   4.425   3.940   4.604
    1C        C  263   4.472   3.807   4.604
    1C        C  264   4.401   4.011   4.724
    1C        C  265   4.436   3.943   4.843
    1C        C  266   4.320   4.131   4.960
    1C        C  267   4.392   4.012   4.956
    1C        C  268   4.260   2.774   2.059
    1C        C  269   4.198   2.733   2.178
    1C        C  270   4.343   2.889   2.296
    1C        C  271   4.251   2.781   2.300
    1C        C  272   4.378   2.955   2.416
    1C        C  273   4.337   2.899   2.539
    1C        C  274   4.443   3.084   2.659
    1C        C  275   4.371   2.962   2.661
    1C        C  276   4.469   3.152   2.780
    1C        C  277   4.443   3.084   2.901
    1C        C  278   4.509   3.289   3.021
    1C        C  279   4.467   3.154   3.022
    1C        C  280   4.513   3.362   3.142
    1C        C  281   4.496   3.295   3.265
    1C        C  282   4.518   3.506   3.386
    1C        C  283   4.509   3.365   3.387
    1C        C  284   4.519   3.579   3.507
    1C        C  285   4.519   3.512   3.632
    1C        C  286   4.494   3.724   3.752
    1C        C  287   4.515   3.584   3.753
    1C        C  288   4.478   3.792   3.875
    1C        C  289   4.491   3.727   3.999
    1C        C  290   4.427   3.933   4.115
    1C        C  291   4.479   3.802   4.119
    1C        C  292   4.394   3.999   4.236
    1C        C  293   4.433   3.939   4.358
    1C        C  294   4.326   4.122   4.477
    1C        C  295   4.402   4.003   4.480
    1C        C  296   4.287   4.186   4.597
    1C        C  297   4.327   4.133   4.721
    1C        C  298   4.198   4.310   4.838
    1C        C  299   4.283   4.195   4.841
    1C        C  300   4.173   4.404   4.944
    1C        C  301   4.346   2.884   2.060
    1C        C  302   4.465   3.068   2.170
    1C        C  303   4.398   2.942   2.176
    1C        C  304   4.481   3.139   2.292
    1C        C  305   4.449   3.077   2.415
    1C        C  306   4.512   3.282   2.533
    1C        C  307   4.472   3.147   2.536
    1C        C  308   4.526   3.354   2.654
    1C        C  309   4.512   3.286   2.777
    1C        C  310   4.526   3.499   2.896
    1C        C  311   4.521   3.358   2.898
    1C        C  312   4.519   3.571   3.017
    1C        C  313   4.522   3.503   3.141
    1C        C  314   4.489   3.712   3.261
    1C        C  315   4.520   3.574   3.262
    1C        C  316   4.471   3.782   3.383
    1C        C  317   4.493   3.718   3.506
    1C        C  318   4.425   3.920   3.625
    1C        C  319   4.476   3.788   3.627
    1C        C  320   4.395   3.985   3.746
    1C        C  321   4.427   3.924   3.869
    1C        C  322   4.314   4.106   3.986
    1C        C  323   4.389   3.987   3.990
    1C        C  324   4.275   4.167   4.107
    1C        C  325   4.325   4.122   4.232
    1C        C  326   4.186   4.279   4.353
    1C        C  327   4.288   4.182   4.354
    1C        C  328   4.132   4.330   4.474
    1C        C  329   4.192   4.291   4.595
    1C        C  330   4.026   4.432   4.712
    1C        C  331   4.142   4.349   4.713
    1C        C  332   3.972   4.491   4.828
    1C        C  333   4.054   4.478   4.941
    1C        C  334   4.557   3.264   2.064
    1C        C  335   4.539   3.125   2.061
    1C        C  336   4.539   3.350   2.174
    1C        C  337   4.511   3.278   2.292
    1C        C  338   4.512   3.495   2.410
    1C        C  339   4.518   3.354   2.411
    1C        C  340   4.520   3.566   2.532
    1C        C  341   4.530   3.495   2.654
    1C        C  342   4.489   3.707   2.771
    1C        C  343   4.522   3.570   2.773
    1C        C  344   4.471   3.776   2.893
    1C        C  345   4.491   3.710   3.017
    1C        C  346   4.426   3.913   3.135
    1C        C  347   4.472   3.779   3.138
    1C        C  348   4.391   3.976   3.256
    1C        C  349   4.422   3.915   3.379
    1C        C  350   4.320   4.100   3.501
    1C        C  351   4.397   3.982   3.501
    1C        C  352   4.270   4.158   3.620
    1C        C  353   4.315   4.102   3.742
    1C        C  354   4.172   4.262   3.865
    1C        C  355   4.271   4.161   3.863
    1C        C  356   4.124   4.314   3.986
    1C        C  357   4.174   4.266   4.109
    1C        C  358   4.013   4.401   4.229
    1C        C  359   4.129   4.321   4.231
    1C        C  360   3.951   4.441   4.350
    1C        C  361   4.018   4.414   4.471
    1C        C  362   3.828   4.513   4.592
    1C        C  363   3.959   4.459   4.591
    1C        C  364   3.763   4.550   4.711
    1C        C  365   3.843   4.548   4.828
    1C        C  366   3.630   4.587   4.949
    1C        C  367   3.767   4.566   4.944
    1C        C  368   4.502   3.561   2.052
    1C        C  369   4.527   3.490   2.170
    1C        C  370   4.504   3.706   2.287
    1C        C  371   4.522   3.566   2.289
    1C        C  372   4.482   3.777   2.407
    1C        C  373   4.497   3.705   2.528
    1C        C  374   4.424   3.908   2.646
    1C        C  375   4.471   3.775   2.649
    1C        C  376   4.389   3.971   2.768
    1C        C  377   4.426   3.910   2.890
    1C        C  378   4.319   4.093   3.012
    1C        C  379   4.401   3.978   3.012
    1C        C  380   4.278   4.154   3.133
    1C        C  381   4.317   4.097   3.256
    1C        C  382   4.173   4.253   3.375
    1C        C  383   4.272   4.152   3.378
    1C        C  384   4.120   4.303   3.496
    1C        C  385   4.175   4.262   3.620
    1C        C  386   4.002   4.386   3.740
    1C        C  387   4.121   4.309   3.742
    1C        C  388   3.943   4.425   3.862
    1C        C  389   4.005   4.391   3.984
    1C        C  390   3.819   4.488   4.107
    1C        C  391   3.949   4.433   4.107
    1C        C  392   3.749   4.510   4.228
    1C        C  393   3.821   4.495   4.349
    1C        C  394   3.618   4.552   4.472
    1C        C  395   3.756   4.525   4.471
    1C        C  396   3.549   4.556   4.595
    1C        C  397   3.622   4.563   4.715
    1C        C  398   3.410   4.545   4.838
    1C        C  399   3.549   4.570   4.836
    1C        C  400   3.344   4.518   4.959
    1C        C  401   4.500   3.700   2.049
    1C        C  402   4.452   3.913   2.164
    1C        C  403   4.487   3.777   2.166
    1C        C  404   4.413   3.978   2.283
    1C        C  405   4.436   3.910   2.405
    1C        C  406   4.325   4.096   2.523
    1C        C  407   4.399   3.975   2.525
    1C        C  408   4.276   4.148   2.644
    1C        C  409   4.309   4.087   2.767
    1C        C  410   4.173   4.247   2.887
    1C        C  411   4.272   4.146   2.890
    1C        C  412   4.120   4.292   3.010
    1C        C  413   4.177   4.252   3.133
    1C        C  414   4.003   4.379   3.250
    1C        C  415   4.121   4.300   3.253
    1C        C  416   3.939   4.413   3.372
    1C        C  417   4.002   4.380   3.494
    1C        C  418   3.813   4.476   3.619
    1C        C  419   3.940   4.415   3.617
    1C        C  420   3.744   4.499   3.741
    1C        C  421   3.814   4.483   3.862
    1C        C  422   3.610   4.532   3.987
    1C        C  423   3.749   4.505   3.986
    1C        C  424   3.540   4.544   4.109
    1C        C  425   3.612   4.544   4.230
    1C        C  426   3.401   4.548   4.355
    1C        C  427   3.542   4.553   4.352
    1C        C  428   3.333   4.544   4.479
    1C        C  429   3.408   4.552   4.598
    1C        C  430   3.196   4.515   4.723
    1C        C  431   3.334   4.549   4.719
    1C        C  432   3.127   4.494   4.845
    1C        C  433   3.207   4.498   4.960
    1C        C  434   4.384   4.118   2.049
    1C        C  435   4.441   3.990   2.047
    1C        C  436   4.303   4.160   2.159
    1C        C  437   4.338   4.099   2.283
    1C        C  438   4.183   4.253   2.401
    1C        C  439   4.286   4.156   2.401
    1C        C  440   4.128   4.301   2.522
    1C        C  441   4.181   4.254   2.644
    1C        C  442   4.008   4.378   2.765
    1C        C  443   4.125   4.299   2.765
    1C        C  444   3.945   4.414   2.886
    1C        C  445   4.008   4.378   3.007
    1C        C  446   3.815   4.474   3.130
    1C        C  447   3.945   4.418   3.128
    1C        C  448   3.746   4.492   3.251
    1C        C  449   3.808   4.464   3.375
    1C        C  450   3.607   4.524   3.497
    1C        C  451   3.746   4.499   3.497
    1C        C  452   3.540   4.538   3.620
    1C        C  453   3.608   4.537   3.744
    1C        C  454   3.397   4.547   3.864
    1C        C  455   3.538   4.544   3.866
    1C        C  456   3.329   4.539   3.988
    1C        C  457   3.399   4.539   4.111
    1C        C  458   3.193   4.495   4.236
    1C        C  459   3.330   4.530   4.234
    1C        C  460   3.128   4.477   4.360
    1C        C  461   3.197   4.506   4.480
    1C        C  462   2.997   4.435   4.603
    1C        C  463   3.128   4.489   4.602
    1C        C  464   2.932   4.403   4.724
    1C        C  465   2.993   4.444   4.845
    1C        C  466   2.801   4.335   4.957
    1C        C  467   2.908   4.425   4.960
    1C        C  468   4.128   4.285   2.039
    1C        C  469   4.192   4.251   2.159
    1C        C  470   4.008   4.371   2.277
    1C        C  471   4.129   4.296   2.278
    1C        C  472   3.944   4.402   2.399
    1C        C  473   4.009   4.377   2.522
    1C        C  474   3.815   4.466   2.641
    1C        C  475   3.945   4.413   2.643
    1C        C  476   3.748   4.489   2.764
    1C        C  477   3.814   4.468   2.887
    1C        C  478   3.606   4.512   3.008
    1C        C  479   3.746   4.490   3.008
    1C        C  480   3.537   4.526   3.131
    1C        C  481   3.607   4.522   3.253
    1C        C  482   3.395   4.533   3.375
    1C        C  483   3.536   4.529   3.375
    1C        C  484   3.327   4.528   3.499
    1C        C  485   3.398   4.542   3.621
    1C        C  486   3.190   4.501   3.745
    1C        C  487   3.326   4.539   3.742
    1C        C  488   3.127   4.477   3.869
    1C        C  489   3.192   4.505   3.991
    1C        C  490   3.002   4.410   4.115
    1C        C  491   3.125   4.480   4.113
    1C        C  492   2.939   4.384   4.239
    1C        C  493   2.997   4.424   4.362
    1C        C  494   2.825   4.302   4.482
    1C        C  495   2.933   4.394   4.484
    1C        C  496   2.772   4.256   4.604
    1C        C  497   2.823   4.312   4.724
    1C        C  498   2.663   4.164   4.839
    1C        C  499   2.758   4.268   4.841
    1C        C  500   2.583   4.123   4.947
    1C        C  501   4.008   4.355   2.039
    1C        C  502   3.820   4.466   2.159
    1C        C  503   3.948   4.407   2.154
    1C        C  504   3.744   4.479   2.277
    1C        C  505   3.812   4.454   2.399
    1C        C  506   3.607   4.511   2.520
    1C        C  507   3.747   4.487   2.519
    1C        C  508   3.537   4.516   2.643
    1C        C  509   3.608   4.512   2.765
    1C        C  510   3.395   4.527   2.886
    1C        C  511   3.536   4.519   2.886
    1C        C  512   3.324   4.525   3.008
    1C        C  513   3.396   4.530   3.130
    1C        C  514   3.189   4.487   3.255
    1C        C  515   3.326   4.524   3.253
    1C        C  516   3.122   4.466   3.377
    1C        C  517   3.189   4.497   3.498
    1C        C  518   3.000   4.412   3.626
    1C        C  519   3.125   4.477   3.622
    1C        C  520   2.941   4.372   3.748
    1C        C  521   3.004   4.407   3.869
    1C        C  522   2.835   4.281   3.995
    1C        C  523   2.946   4.368   3.992
    1C        C  524   2.787   4.234   4.119
    1C        C  525   2.831   4.294   4.240
    1C        C  526   2.694   4.133   4.363
    1C        C  527   2.774   4.249   4.361
    1C        C  528   2.654   4.075   4.485
    1C        C  529   2.687   4.143   4.605
    1C        C  530   2.578   3.959   4.731
    1C        C  531   2.632   4.090   4.723
    1C        C  532   2.539   3.903   4.856
    1C        C  533   2.524   3.997   4.963
    1C        C  534   3.617   4.554   2.040
    1C        C  535   3.751   4.514   2.047
    1C        C  536   3.535   4.536   2.156
    1C        C  537   3.606   4.513   2.276
    1C        C  538   3.394   4.515   2.399
    1C        C  539   3.535   4.518   2.399
    1C        C  540   3.323   4.510   2.521
    1C        C  541   3.396   4.511   2.642
    1C        C  542   3.187   4.484   2.764
    1C        C  543   3.325   4.517   2.764
    1C        C  544   3.125   4.454   2.887
    1C        C  545   3.189   4.484   3.010
    1C        C  546   2.998   4.396   3.137
    1C        C  547   3.123   4.462   3.133
    1C        C  548   2.940   4.359   3.260
    1C        C  549   2.996   4.402   3.383
    1C        C  550   2.829   4.278   3.506
    1C        C  551   2.936   4.371   3.507
    1C        C  552   2.781   4.228   3.629
    1C        C  553   2.833   4.281   3.749
    1C        C  554   2.696   4.122   3.875
    1C        C  555   2.784   4.233   3.872
    1C        C  556   2.664   4.060   3.998
    1C        C  557   2.701   4.123   4.119
    1C        C  558   2.601   3.939   4.245
    1C        C  559   2.662   4.066   4.242
    1C        C  560   2.569   3.877   4.368
    1C        C  561   2.593   3.948   4.488
    1C        C  562   2.524   3.751   4.616
    1C        C  563   2.559   3.888   4.611
    1C        C  564   2.518   3.680   4.737
    1C        C  565   2.520   3.761   4.854
    1C        C  566   2.526   3.547   4.977
    1C        C  567   2.523   3.686   4.973
    1C        C  568   3.325   4.475   2.041
    1C        C  569   3.395   4.509   2.157
    1C        C  570   3.182   4.476   2.278
    1C        C  571   3.321   4.506   2.278
    1C        C  572   3.114   4.461   2.401
    1C        C  573   3.184   4.483   2.521
    1C        C  574   2.990   4.399   2.647
    1C        C  575   3.117   4.461   2.643
    1C        C  576   2.934   4.356   2.769
    1C        C  577   2.997   4.394   2.889
    1C        C  578   2.833   4.268   3.016
    1C        C  579   2.941   4.358   3.014
    1C        C  580   2.781   4.216   3.137
    1C        C  581   2.833   4.267   3.258
    1C        C  582   2.703   4.107   3.386
    1C        C  583   2.786   4.221   3.384
    1C        C  584   2.663   4.052   3.510
    1C        C  585   2.696   4.115   3.632
    1C        C  586   2.597   3.930   3.756
    1C        C  587   2.658   4.058   3.755
    1C        C  588   2.575   3.866   3.879
    1C        C  589   2.606   3.931   4.000
    1C        C  590   2.534   3.735   4.127
    1C        C  591   2.577   3.870   4.124
    1C        C  592   2.518   3.671   4.251
    1C        C  593   2.531   3.741   4.373
    1C        C  594   2.510   3.533   4.495
    1C        C  595   2.515   3.674   4.497
    1C        C  596   2.515   3.464   4.618
    1C        C  597   2.516   3.537   4.739
    1C        C  598   2.534   3.327   4.861
    1C        C  599   2.524   3.468   4.861
    1C        C  600   2.530   3.248   4.977
    1C        C  601   3.192   4.436   2.040
    1C        C  602   2.979   4.397   2.157
    1C        C  603   3.116   4.440   2.158
    1C        C  604   2.925   4.356   2.281
    1C        C  605   2.988   4.395   2.401
    1C        C  606   2.823   4.269   2.528
    1C        C  607   2.930   4.361   2.525
    1C        C  608   2.769   4.217   2.648
    1C        C  609   2.826   4.265   2.768
    1C        C  610   2.689   4.111   2.896
    1C        C  611   2.782   4.217   2.894
    1C        C  612   2.651   4.050   3.018
    1C        C  613   2.695   4.105   3.141
    1C        C  614   2.594   3.923   3.266
    1C        C  615   2.660   4.048   3.265
    1C        C  616   2.564   3.862   3.390
    1C        C  617   2.596   3.928   3.511
    1C        C  618   2.530   3.727   3.637
    1C        C  619   2.575   3.862   3.634
    1C        C  620   2.519   3.660   3.760
    1C        C  621   2.530   3.732   3.882
    1C        C  622   2.510   3.523   4.008
    1C        C  623   2.520   3.664   4.005
    1C        C  624   2.512   3.455   4.132
    1C        C  625   2.508   3.530   4.251
    1C        C  626   2.538   3.322   4.380
    1C        C  627   2.514   3.461   4.374
    1C        C  628   2.556   3.251   4.501
    1C        C  629   2.539   3.325   4.621
    1C        C  630   2.598   3.118   4.743
    1C        C  631   2.554   3.253   4.742
    1C        C  632   2.614   3.048   4.865
    1C        C  633   2.568   3.113   4.984
    1C        C  634   2.781   4.300   2.055
    1C        C  635   2.886   4.392   2.048
    1C        C  636   2.748   4.224   2.169
    1C        C  637   2.813   4.267   2.286
    1C        C  638   2.676   4.109   2.410
    1C        C  639   2.767   4.217   2.410
    1C        C  640   2.636   4.050   2.532
    1C        C  641   2.683   4.105   2.653
    1C        C  642   2.584   3.921   2.779
    1C        C  643   2.645   4.048   2.777
    1C        C  644   2.559   3.855   2.901
    1C        C  645   2.587   3.924   3.021
    1C        C  646   2.528   3.722   3.149
    1C        C  647   2.563   3.859   3.144
    1C        C  648   2.513   3.655   3.273
    1C        C  649   2.526   3.726   3.394
    1C        C  650   2.503   3.515   3.518
    1C        C  651   2.514   3.656   3.516
    1C        C  652   2.508   3.447   3.642
    1C        C  653   2.508   3.519   3.764
    1C        C  654   2.526   3.310   3.887
    1C        C  655   2.507   3.450   3.887
    1C        C  656   2.552   3.248   4.012
    1C        C  657   2.533   3.315   4.135
    1C        C  658   2.607   3.121   4.256
    1C        C  659   2.552   3.251   4.259
    1C        C  660   2.640   3.057   4.378
    1C        C  661   2.605   3.119   4.500
    1C        C  662   2.712   2.937   4.625
    1C        C  663   2.631   3.053   4.622
    1C        C  664   2.755   2.881   4.747
    1C        C  665   2.700   2.934   4.867
    1C        C  666   2.750   2.871   4.982
    1C        C  667   2.676   4.022   2.054
    1C        C  668   2.682   4.099   2.170
    1C        C  669   2.585   3.910   2.293
    1C        C  670   2.641   4.040   2.292
    1C        C  671   2.556   3.846   2.416
    1C        C  672   2.582   3.919   2.534
    1C        C  673   2.518   3.719   2.661
    1C        C  674   2.558   3.855   2.657
    1C        C  675   2.510   3.648   2.783
    1C        C  676   2.524   3.718   2.905
    1C        C  677   2.503   3.509   3.030
    1C        C  678   2.516   3.650   3.029
    1C        C  679   2.504   3.439   3.153
    1C        C  680   2.500   3.514   3.273
    1C        C  681   2.523   3.305   3.400
    1C        C  682   2.500   3.444   3.396
    1C        C  683   2.540   3.238   3.523
    1C        C  684   2.520   3.306   3.645
    1C        C  685   2.582   3.103   3.769
    1C        C  686   2.540   3.237   3.767
    1C        C  687   2.628   3.049   3.891
    1C        C  688   2.606   3.117   4.013
    1C        C  689   2.716   2.936   4.136
    1C        C  690   2.640   3.055   4.135
    1C        C  691   2.756   2.879   4.260
    1C        C  692   2.714   2.936   4.382
    1C        C  693   2.755   2.878   4.504
    1C        C  694   2.627   3.891   2.059
    1C        C  695   2.523   3.702   2.175
    1C        C  696   2.571   3.835   2.174
    1C        C  697   2.500   3.635   2.297
    1C        C  698   2.513   3.711   2.416
    1C        C  699   2.496   3.505   2.540
    1C        C  700   2.503   3.646   2.541
    1C        C  701   2.504   3.436   2.664
    1C        C  702   2.503   3.507   2.785
    1C        C  703   2.525   3.298   2.909
    1C        C  704   2.501   3.438   2.908
    1C        C  705   2.546   3.231   3.032
    1C        C  706   2.533   3.301   3.154
    1C        C  707   2.601   3.105   3.278
    1C        C  708   2.545   3.235   3.279
    1C        C  709   2.629   3.045   3.402
    1C        C  710   2.595   3.108   3.524
    1C        C  711   2.711   2.933   3.648
    1C        C  712   2.622   3.043   3.647
    1C        C  713   2.754   2.878   3.771
    1C        C  714   2.710   2.934   3.893
    1C        C  715   2.758   2.879   4.014
    1C        C  716   2.448   3.498   2.060
    1C        C  717   2.489   3.632   2.058
    1C        C  718   2.461   3.420   2.179
    1C        C  719   2.477   3.495   2.298
    1C        C  720   2.518   3.290   2.420
    1C        C  721   2.490   3.428   2.422
    1C        C  722   2.532   3.224   2.545
    1C        C  723   2.523   3.296   2.666
    1C        C  724   2.594   3.097   2.786
    1C        C  725   2.540   3.227   2.788
    1C        C  726   2.624   3.033   2.909
    1C        C  727   2.597   3.099   3.031
    1C        C  728   2.707   2.923   3.159
    1C        C  729   2.627   3.040   3.155
    1C        C  730   2.754   2.873   3.282
    1C        C  731   2.714   2.932   3.404
    1C        C  732   2.757   2.876   3.527
    1C        C  733   2.488   3.194   2.069
    1C        C  734   2.493   3.280   2.180
    1C        C  735   2.585   3.084   2.302
    1C        C  736   2.532   3.216   2.300
    1C        C  737   2.615   3.022   2.425
    1C        C  738   2.588   3.094   2.544
    1C        C  739   2.699   2.911   2.666
    1C        C  740   2.622   3.030   2.665
    1C        C  741   2.748   2.862   2.789
    1C        C  742   2.704   2.917   2.912
    1C        C  743   2.747   2.866   3.036
    1C        C  744   2.543   3.067   2.072
    1C        C  745   2.689   2.895   2.183
    1C        C  746   2.608   3.010   2.183
    1C        C  747   2.731   2.839   2.305
    1C        C  748   2.693   2.905   2.425
    1C        C  749   2.743   2.851   2.546
    1C        C  750   2.742   2.842   2.064
    1C        C  751   3.654   2.315   1.970
    1C        O  752   3.666   2.191   1.984
    1C        O  753   3.684   2.363   1.842
    1C        C  754   4.569   3.058   1.933
    1C        O  755   4.513   3.088   1.825
    1C        O  756   4.653   2.947   1.920
    1C        C  757   4.449   4.215   1.959
    1C        O  758   4.535   4.293   2.007
    1C        O  759   4.465   4.179   1.824
    1C        C  760   3.607   4.680   1.963
    1C        O  761   3.621   4.792   2.019
    1C        O  762   3.523   4.681   1.851
    1C        C  763   2.860   4.505   1.956
    1C        O  764   2.865   4.495   1.831
    1C        O  765   2.811   4.620   2.019
    1C        C  766   2.346   3.479   1.954
    1C        O  767   2.379   3.455   1.835
    1C        O  768   2.218   3.440   1.995
    1C        C  769   4.715   3.592   5.028
    1C        O  770   4.725   3.530   5.137
    1C        O  771   4.832   3.616   4.955
    1C        C  772   4.267   4.448   5.049
    1C        O  773   4.222   4.446   5.166
    1C        O  774   4.350   4.558   5.024
    1C        C  775   4.143   2.524   5.074
    1C        O  776   4.249   2.459   5.051
    1C        O  777   4.101   2.496   5.205
    1C        C  778   2.885   4.537   5.053
    1C        O  779   2.819   4.641   5.027
    1C        O  780   2.913   4.531   5.191
    1C        C  781   2.487   3.053   5.093
    1C        O  782   2.361   3.054   5.085
    1C        O  783   2.547   3.030   5.216
    1C        C  784   2.403   4.000   5.048
    1C        O  785   2.295   4.049   5.006
    1C        O  786   2.418   4.017   5.186
    1C        C  787   2.956   2.402   2.027
    1C        O  788   2.935   2.375   1.906
    1C        O  789   2.852   2.355   2.106
    1C        C  790   3.193   2.375   5.070
    1C        O  791   3.140   2.264   5.040
    1C        O  792   3.247   2.398   5.198
    1C        H  793   4.249   3.028   5.048
    1C        H  794   4.228   2.788   5.069
    1C        H  795   4.519   3.119   5.051
    1C        H  796   4.574   3.360   5.049
    1C        H  797   4.537   3.796   5.052
    1C        H  798   4.438   3.989   5.050
    1C        H  799   4.287   4.165   5.056
    1C        H  800   3.999   4.462   5.031
    1C        H  801   3.820   4.586   5.035
    1C        H  802   3.585   4.651   5.022
    1C        H  803   3.405   4.460   5.026
    1C        H  804   3.161   4.522   5.054
    1C        H  805   3.892   2.465   5.049
    1C        H  806   3.671   2.440   5.074
    1C        H  807   2.991   2.525   5.052
    1C        H  808   3.439   2.484   5.076
    1C        H  809   2.900   2.755   5.075
    1C        H  810   2.757   2.930   5.071
    1C        H  811   2.477   3.286   5.061
    1C        H  812   2.479   3.506   5.064
    1C        H  813   2.486   3.737   5.060
    1C        H  814   2.538   4.204   5.000
    1C        H  815   2.742   4.327   5.045
    1C        H  816   2.741   2.896   1.972
    1C        H  817   2.856   2.680   1.982
    1C        H  818   3.215   2.441   1.985
    1C        H  819   3.443   2.487   1.984
    1C        H  820   3.886   2.470   1.985
    1C        H  821   4.041   2.651   1.967
    1C        H  822   4.280   2.700   1.985
    1C        H  823   4.363   2.931   1.965
    1C        H  824   4.617   3.310   1.988
    1C        H  825   4.473   3.516   1.959
    1C        H  826   4.564   3.738   1.971
    1C        H  827   3.803   4.499   1.955
    1C        H  828   3.940   4.316   1.966
    1C        H  829   4.184   4.298   1.949
    1C        H  830   4.486   3.954   1.957
    1C        H  831   2.638   3.835   1.969
    1C        H  832   2.675   4.069   1.958
    1C        H  833   2.729   4.281   1.963
    1C        H  834   3.376   4.463   1.947
    1C        H  835   3.157   4.370   1.964
    1C        H  836   2.502   2.995   2.005
    1C        H  837   2.440   3.228   1.980
    1C        H  838   2.451   3.692   1.979
    2V3OU   H29  839   2.808   3.552   3.265
    2V3OU   C27  840   2.790   3.503   3.364
    2V3OU   H27  841   2.734   3.571   3.433
    2V3OU   H28  842   2.741   3.404   3.347
    2V3OU   O11  843   2.914   3.480   3.431
    2V3OU   C15  844   2.926   3.398   3.541
    2V3OU   C13  845   3.051   3.374   3.602
    2V3OU   C14  846   3.078   3.269   3.692
    2V3OU   C16  847   2.977   3.186   3.737
    2V3OU    H6  848   2.994   3.104   3.808
    2V3OU   C12  849   3.214   3.229   3.735
    2V3OU    O2  850   3.233   3.124   3.800
    2V3OU   C10  851   3.327   3.307   3.682
    2V3OU    C8  852   3.457   3.269   3.713
    2V3OU   O10  853   3.488   3.151   3.774
    2V3OU   H26  854   3.400   3.115   3.797
    2V3OU    C6  855   3.567   3.347   3.665
    2V3OU    C5  856   3.539   3.465   3.596
    2V3OU    C4  857   3.703   3.289   3.672
    2V3OU    H4  858   3.717   3.229   3.767
    2V3OU    H5  859   3.714   3.220   3.583
    2V3OU    C2  860   3.813   3.395   3.668
    2V3OU    O6  861   3.802   3.472   3.788
    2V3OU   H21  862   3.766   3.557   3.756
    2V3OU    C3  863   3.783   3.499   3.559
    2V3OU    H2  864   3.861   3.578   3.551
    2V3OU    H3  865   3.788   3.445   3.461
    2V3OU   C25  866   3.951   3.331   3.649
    2V3OU    O7  867   3.994   3.290   3.541
    2V3OU   C26  868   4.033   3.288   3.769
    2V3OU   H22  869   4.069   3.381   3.820
    2V3OU   H23  870   4.119   3.225   3.736
    2V3OU    O8  871   3.966   3.207   3.864
    2V3OU   H24  872   3.925   3.257   3.936
    2V3OU    C1  873   3.647   3.565   3.568
    2V3OU    H1  874   3.626   3.615   3.468
    2V3OU    O3  875   3.655   3.653   3.681
    2V3OU   C19  876   3.618   3.790   3.666
    2V3OU    H9  877   3.521   3.802   3.610
    2V3OU    O4  878   3.712   3.849   3.579
    2V3OU   C20  879   3.844   3.875   3.628
    2V3OU   H10  880   3.888   3.774   3.651
    2V3OU   C24  881   3.605   3.851   3.806
    2V3OU   H16  882   3.543   3.791   3.876
    2V3OU   H17  883   3.561   3.952   3.785
    2V3OU   C23  884   3.746   3.873   3.861
    2V3OU   H15  885   3.791   3.770   3.881
    2V3OU    N1  886   3.732   3.950   3.984
    2V3OU   H19  887   3.812   3.921   4.037
    2V3OU   H20  888   3.643   3.931   4.025
    2V3OU   C21  889   3.845   3.945   3.764
    2V3OU   H11  890   3.949   3.930   3.807
    2V3OU    O5  891   3.830   4.086   3.768
    2V3OU   H18  892   3.773   4.102   3.845
    2V3OU   C22  893   3.911   3.952   3.515
    2V3OU   H12  894   3.858   4.050   3.501
    2V3OU   H13  895   3.913   3.888   3.423
    2V3OU   H14  896   4.018   3.975   3.538
    2V3OU   C11  897   3.161   3.470   3.591
    2V3OU    O1  898   3.136   3.589   3.561
    2V3OU    C9  899   3.301   3.426   3.610
    2V3OU    C7  900   3.406   3.507   3.566
    2V3OU    O9  901   3.387   3.614   3.482
    2V3OU   H25  902   3.292   3.629   3.491
    2V3OU   C17  903   2.825   3.319   3.598
    2V3OU    H7  904   2.732   3.350   3.551
    2V3OU   C18  905   2.850   3.217   3.690
    2V3OU    H8  906   2.786   3.176   3.769
    3SOL     OW  907   2.572   4.694   5.920
    3SOL    HW1  908   2.585   4.603   5.959
    3SOL    HW2  909   2.522   4.751   5.986
    4SOL     OW  910   6.842   6.934   6.855
    4SOL    HW1  911   6.795   6.978   6.778
    4SOL    HW2  912   6.785   6.942   6.937
    5SOL     OW  913   5.191   2.514   2.175
    5SOL    HW1  914   5.177   2.433   2.119
    5SOL    HW2  915   5.103   2.548   2.208
    6SOL     OW  916   4.724   1.969   2.339
    6SOL    HW1  917   4.712   1.882   2.387
    6SOL    HW2  918   4.716   2.044   2.404
    7SOL     OW  919   0.516   4.078   3.538
    7SOL    HW1  920   0.558   4.076   3.447
    7SOL    HW2  921   0.539   4.164   3.584
    8SOL     OW  922   2.575   2.336   5.601
    8SOL    HW1  923   2.559   2.353   5.503
    8SOL    HW2  924   2.544   2.244   5.624
    9SOL     OW  925   6.199   2.179   6.153
    9SOL    HW1  926   6.129   2.152   6.087
    9SOL    HW2  927   6.189   2.124   6.236
   10SOL     OW  928   2.997   5.171   4.817
   10SOL    HW1  929   3.040   5.083   4.835
   10SOL    HW2  930   2.958   5.207   4.901
   11SOL     OW  931   1.878   1.404   6.172
   11SOL    HW1  932   1.829   1.368   6.093
   11SOL    HW2  933   1.928   1.487   6.147
   12SOL     OW  934   3.012   4.837   3.753
   12SOL    HW1  935   2.961   4.851   3.838
   12SOL    HW2  936   3.110   4.851   3.771
   13SOL     OW  937   4.195   6.293   3.460
   13SOL    HW1  938   4.166   6.331   3.372
   13SOL    HW2  939   4.160   6.349   3.534
   14SOL     OW  940   3.925   5.077   6.090
   14SOL    HW1  941   3.990   5.104   6.020
   14SOL    HW2  942   3.933   5.140   6.168
   15SOL     OW  943   0.862   6.469   0.153
   15SOL    HW1  944   0.943   6.467   0.211
   15SOL    HW2  945   0.875   6.536   0.079
   16SOL     OW  946   5.285   2.592   6.495
   16SOL    HW1  947   5.359   2.548   6.444
   16SOL    HW2  948   5.199   2.577   6.447
   17SOL     OW  949   5.218   0.178   6.642
   17SOL    HW1  950   5.287   0.234   6.688
   17SOL    HW2  951   5.260   0.094   6.608
   18SOL     OW  952   3.246   0.767   4.965
   18SOL    HW1  953   3.288   0.841   4.912
   18SOL    HW2  954   3.198   0.805   5.044
   19SOL     OW  955   0.291   2.570   2.204
   19SOL    HW1  956   0.259   2.618   2.122
   19SOL    HW2  957   0.299   2.473   2.184
   20SOL     OW  958   4.725   2.232   5.228
   20SOL    HW1  959   4.806   2.173   5.217
   20SOL    HW2  960   4.673   2.202   5.307
   21SOL     OW  961   2.792   0.693   2.918
   21SOL    HW1  962   2.794   0.779   2.868
   21SOL    HW2  963   2.842   0.702   3.004
   22SOL     OW  964   1.465   5.946   0.450
   22SOL    HW1  965   1.379   5.993   0.431
   22SOL    HW2  966   1.506   5.985   0.533
   23SOL     OW  967   4.164   5.289   2.296
   23SOL    HW1  968   4.125   5.344   2.222
   23SOL    HW2  969   4.121   5.313   2.383
   24SOL     OW  970   4.007   0.398   2.447
   24SOL    HW1  971   3.964   0.389   2.357
   24SOL    HW2  972   4.105   0.380   2.440
   25SOL     OW  973   2.273   0.148   3.697
   25SOL    HW1  974   2.330   0.190   3.626
   25SOL    HW2  975   2.308   0.057   3.719
   26SOL     OW  976   6.784   2.105   0.010
   26SOL    HW1  977   6.796   2.016   6.988
   26SOL    HW2  978   6.833   2.175   6.979
   27SOL     OW  979   1.801   1.419   1.764
   27SOL    HW1  980   1.745   1.499   1.785
   27SOL    HW2  981   1.791   1.352   1.837
   28SOL     OW  982   0.691   0.931   5.106
   28SOL    HW1  983   0.689   0.894   5.013
   28SOL    HW2  984   0.660   1.026   5.104
   29SOL     OW  985   6.737   1.325   1.061
   29SOL    HW1  986   6.703   1.253   1.001
   29SOL    HW2  987   6.740   1.411   1.012
   30SOL     OW  988   5.026   7.009   5.388
   30SOL    HW1  989   5.051   6.949   5.312
   30SOL    HW2  990   5.098   0.056   5.401
   31SOL     OW  991   0.679   2.461   5.746
   31SOL    HW1  992   0.772   2.446   5.711
   31SOL    HW2  993   0.647   2.551   5.717
   32SOL     OW  994   1.105   1.876   2.396
   32SOL    HW1  995   1.063   1.820   2.324
   32SOL    HW2  996   1.063   1.855   2.484
   33SOL     OW  997   0.876   4.776   5.052
   33SOL    HW1  998   0.942   4.701   5.053
   33SOL    HW2  999   0.920   4.858   5.016
   34SOL     OW 1000   2.271   5.583   5.091
   34SOL    HW1 1001   2.315   5.664   5.052
   34SOL    HW2 1002   2.300   5.502   5.039
   35SOL     OW 1003   4.209   2.190   5.672
   35SOL    HW1 1004   4.257   2.233   5.748
   35SOL    HW2 1005   4.159   2.110   5.706
   36SOL     OW 1006   4.740   1.741   3.732
   36SOL    HW1 1007   4.831   1.778   3.717
   36SOL    HW2 1008   4.715   1.680   3.657
   37SOL     OW 1009   1.656   2.103   5.062
   37SOL    HW1 1010   1.607   2.162   5.126
   37SOL    HW2 1011   1.711   2.159   5.000
   38SOL     OW 1012   1.222   4.959   1.450
   38SOL    HW1 1013   1.301   5.001   1.495
   38SOL    HW2 1014   1.139   5.010   1.475
   39SOL     OW 1015   5.955   4.964   6.092
   39SOL    HW1 1016   5.957   4.871   6.055
   39SOL    HW2 1017   5.884   5.018   6.046
   40SOL     OW 1018   3.657   2.145   0.418
   40SOL    HW1 1019   3.602   2.066   0.442
   40SOL    HW2 1020   3.610   2.199   0.348
   41SOL     OW 1021   5.628   3.556   3.342
   41SOL    HW1 1022   5.712   3.588   3.387
   41SOL    HW2 1023   5.638   3.460   3.318
   42SOL     OW 1024   3.141   6.258   4.515
   42SOL    HW1 1025   3.224   6.289   4.471
   42SOL    HW2 1026   3.122   6.314   4.596
   43SOL     OW 1027   4.436   0.886   5.339
   43SOL    HW1 1028   4.445   0.984   5.358
   43SOL    HW2 1029   4.344   0.866   5.306
   44SOL     OW 1030   5.470   2.417   5.165
   44SOL    HW1 1031   5.524   2.491   5.204
   44SOL    HW2 1032   5.523   2.333   5.165
   45SOL     OW 1033   4.370   5.208   1.887
   45SOL    HW1 1034   4.395   5.201   1.984
   45SOL    HW2 1035   4.371   5.117   1.846
   46SOL     OW 1036   1.395   2.361   3.714
   46SOL    HW1 1037   1.495   2.359   3.714
   46SOL    HW2 1038   1.362   2.384   3.805
   47SOL     OW 1039   4.022   4.243   1.266
   47SOL    HW1 1040   3.964   4.245   1.184
   47SOL    HW2 1041   3.982   4.302   1.336
   48SOL     OW 1042   6.877   2.450   6.791
   48SOL    HW1 1043   6.835   2.440   6.881
   48SOL    HW2 1044   6.976   2.451   6.800
   49SOL     OW 1045   5.844   2.535   1.790
   49SOL    HW1 1046   5.885   2.452   1.828
   49SOL    HW2 1047   5.894   2.615   1.821
   50SOL     OW 1048   6.631   1.146   5.346
   50SOL    HW1 1049   6.693   1.094   5.405
   50SOL    HW2 1050   6.685   1.205   5.286
   51SOL     OW 1051   2.183   6.282   2.521
   51SOL    HW1 1052   2.272   6.298   2.478
   51SOL    HW2 1053   2.192   6.292   2.620
   52SOL     OW 1054   4.946   3.626   1.622
   52SOL    HW1 1055   4.952   3.721   1.591
   52SOL    HW2 1056   5.009   3.611   1.698
   53SOL     OW 1057   4.761   0.970   3.546
   53SOL    HW1 1058   4.789   0.927   3.459
   53SOL    HW2 1059   4.715   0.902   3.602
   54SOL     OW 1060   5.479   6.726   1.088
   54SOL    HW1 1061   5.550   6.743   1.020
   54SOL    HW2 1062   5.403   6.789   1.074
   55SOL     OW 1063   1.879   2.893   5.040
   55SOL    HW1 1064   1.821   2.904   4.959
   55SOL    HW2 1065   1.968   2.935   5.022
   56SOL     OW 1066   0.931   1.017   1.002
   56SOL    HW1 1067   1.009   1.007   0.941
   56SOL    HW2 1068   0.964   1.033   1.096
   57SOL     OW 1069   3.816   1.161   0.864
   57SOL    HW1 1070   3.846   1.145   0.958
   57SOL    HW2 1071   3.822   1.076   0.812
   58SOL     OW 1072   0.798   6.433   5.927
   58SOL    HW1 1073   0.720   6.492   5.905
   58SOL    HW2 1074   0.876   6.460   5.872
   59SOL     OW 1075   0.115   3.838   6.037
   59SOL    HW1 1076   0.179   3.909   6.008
   59SOL    HW2 1077   0.066   3.868   6.119
   60SOL     OW 1078   4.714   2.730   4.309
   60SOL    HW1 1079   4.732   2.828   4.315
   60SOL    HW2 1080   4.640   2.713   4.243
   61SOL     OW 1081   6.962   1.106   4.467
   61SOL    HW1 1082   0.008   1.107   4.540
   61SOL    HW2 1083   6.881   1.158   4.495
   62SOL     OW 1084   2.196   1.392   1.944
   62SOL    HW1 1085   2.179   1.337   2.026
   62SOL    HW2 1086   2.143   1.356   1.868
   63SOL     OW 1087   3.554   0.096   4.057
   63SOL    HW1 1088   3.570   0.166   3.987
   63SOL    HW2 1089   3.477   0.123   4.114
   64SOL     OW 1090   0.377   3.175   6.348
   64SOL    HW1 1091   0.398   3.205   6.441
   64SOL    HW2 1092   0.377   3.254   6.286
   65SOL     OW 1093   0.985   5.752   6.123
   65SOL    HW1 1094   0.911   5.715   6.180
   65SOL    HW2 1095   1.004   5.846   6.149
   66SOL     OW 1096   3.441   0.495   3.414
   66SOL    HW1 1097   3.378   0.527   3.343
   66SOL    HW2 1098   3.393   0.494   3.502
   67SOL     OW 1099   0.276   3.412   6.511
   67SOL    HW1 1100   0.298   3.416   6.414
   67SOL    HW2 1101   0.233   3.498   6.539
   68SOL     OW 1102   0.402   1.772   6.471
   68SOL    HW1 1103   0.331   1.707   6.497
   68SOL    HW2 1104   0.368   1.832   6.398
   69SOL     OW 1105   1.243   3.326   5.143
   69SOL    HW1 1106   1.242   3.266   5.223
   69SOL    HW2 1107   1.300   3.405   5.161
   70SOL     OW 1108   5.321   5.051   4.593
   70SOL    HW1 1109   5.239   5.106   4.609
   70SOL    HW2 1110   5.309   4.998   4.509
   71SOL     OW 1111   5.012   2.118   3.460
   71SOL    HW1 1112   4.976   2.151   3.372
   71SOL    HW2 1113   5.010   2.018   3.461
   72SOL     OW 1114   0.510   0.977   2.886
   72SOL    HW1 1115   0.519   0.988   2.787
   72SOL    HW2 1116   0.601   0.982   2.928
   73SOL     OW 1117   3.152   0.824   1.239
   73SOL    HW1 1118   3.108   0.769   1.168
   73SOL    HW2 1119   3.246   0.845   1.212
   74SOL     OW 1120   3.322   1.135   6.776
   74SOL    HW1 1121   3.385   1.206   6.808
   74SOL    HW2 1122   3.308   1.068   6.849
   75SOL     OW 1123   3.973   1.172   1.547
   75SOL    HW1 1124   3.989   1.270   1.557
   75SOL    HW2 1125   3.923   1.138   1.627
   76SOL     OW 1126   2.911   3.559   6.535
   76SOL    HW1 1127   2.991   3.597   6.489
   76SOL    HW2 1128   2.894   3.466   6.503
   77SOL     OW 1129   1.951   6.261   2.896
   77SOL    HW1 1130   1.925   6.252   2.992
   77SOL    HW2 1131   1.894   6.332   2.853
   78SOL     OW 1132   4.539   1.523   1.111
   78SOL    HW1 1133   4.484   1.559   1.035
   78SOL    HW2 1134   4.502   1.557   1.197
   79SOL     OW 1135   3.119   6.409   1.348
   79SOL    HW1 1136   3.092   6.334   1.409
   79SOL    HW2 1137   3.105   6.496   1.396
   80SOL     OW 1138   4.089   1.367   4.453
   80SOL    HW1 1139   4.094   1.459   4.414
   80SOL    HW2 1140   4.171   1.349   4.506
   81SOL     OW 1141   1.706   6.718   1.708
   81SOL    HW1 1142   1.652   6.650   1.661
   81SOL    HW2 1143   1.804   6.698   1.696
   82SOL     OW 1144   6.682   5.711   1.555
   82SOL    HW1 1145   6.638   5.799   1.535
   82SOL    HW2 1146   6.663   5.648   1.479
   83SOL     OW 1147   0.934   0.855   6.532
   83SOL    HW1 1148   0.977   0.806   6.608
   83SOL    HW2 1149   0.891   0.789   6.470
   84SOL     OW 1150   5.780   4.014   3.378
   84SOL    HW1 1151   5.852   3.983   3.317
   84SOL    HW2 1152   5.821   4.049   3.463
   85SOL     OW 1153   1.440   0.905   3.309
   85SOL    HW1 1154   1.387   0.842   3.365
   85SOL    HW2 1155   1.504   0.854   3.252
   86SOL     OW 1156   0.147   1.351   7.016
   86SOL    HW1 1157   0.196   1.416   0.053
   86SOL    HW2 1158   0.209   1.277   6.989
   87SOL     OW 1159   3.603   4.141   0.844
   87SOL    HW1 1160   3.624   4.138   0.746
   87SOL    HW2 1161   3.680   4.182   0.893
   88SOL     OW 1162   3.015   2.274   6.366
   88SOL    HW1 1163   3.082   2.223   6.421
   88SOL    HW2 1164   2.944   2.310   6.426
   89SOL     OW 1165   3.253   3.523   0.002
   89SOL    HW1 1166   3.250   3.514   0.101
   89SOL    HW2 1167   3.298   3.443   6.983
   90SOL     OW 1168   3.642   4.893   3.026
   90SOL    HW1 1169   3.668   4.962   2.959
   90SOL    HW2 1170   3.705   4.815   3.020
   91SOL     OW 1171   5.932   3.960   5.802
   91SOL    HW1 1172   5.931   4.043   5.858
   91SOL    HW2 1173   5.867   3.894   5.839
   92SOL     OW 1174   4.785   4.197   0.591
   92SOL    HW1 1175   4.821   4.254   0.666
   92SOL    HW2 1176   4.686   4.190   0.599
   93SOL     OW 1177   3.046   3.351   6.853
   93SOL    HW1 1178   3.140   3.361   6.886
   93SOL    HW2 1179   2.998   3.438   6.865
   94SOL     OW 1180   2.295   6.042   6.905
   94SOL    HW1 1181   2.270   6.092   6.822
   94SOL    HW2 1182   2.340   5.956   6.879
   95SOL     OW 1183   1.655   0.716   3.399
   95SOL    HW1 1184   1.686   0.765   3.318
   95SOL    HW2 1185   1.612   0.630   3.372
   96SOL     OW 1186   4.309   5.578   5.793
   96SOL    HW1 1187   4.296   5.498   5.734
   96SOL    HW2 1188   4.352   5.550   5.879
   97SOL     OW 1189   2.324   3.786   5.267
   97SOL    HW1 1190   2.263   3.757   5.193
   97SOL    HW2 1191   2.361   3.876   5.245
   98SOL     OW 1192   1.202   1.587   0.287
   98SOL    HW1 1193   1.163   1.679   0.292
   98SOL    HW2 1194   1.245   1.563   0.374
   99SOL     OW 1195   3.740   3.640   2.315
   99SOL    HW1 1196   3.659   3.675   2.362
   99SOL    HW2 1197   3.808   3.712   2.307
  100SOL     OW 1198   6.858   6.848   4.161
  100SOL    HW1 1199   6.865   6.749   4.172
  100SOL    HW2 1200   6.922   6.893   4.223
  101SOL     OW 1201   0.030   5.724   2.550
  101SOL    HW1 1202   6.959   5.758   2.567
  101SOL    HW2 1203   0.090   5.800   2.524
  102SOL     OW 1204   3.865   5.902   2.041
  102SOL    HW1 1205   3.934   5.951   1.987
  102SOL    HW2 1206   3.837   5.820   1.991
  103SOL     OW 1207   1.992   2.391   2.753
  103SOL    HW1 1208   2.019   2.416   2.846
  103SOL    HW2 1209   1.903   2.345   2.755
  104SOL     OW 1210   1.425   5.055   1.736
  104SOL    HW1 1211   1.510   5.025   1.693
  104SOL    HW2 1212   1.430   5.037   1.835
  105SOL     OW 1213   5.641   0.887   6.147
  105SOL    HW1 1214   5.602   0.979   6.144
  105SOL    HW2 1215   5.588   0.831   6.211
  106SOL     OW 1216   4.286   6.147   3.139
  106SOL    HW1 1217   4.314   6.195   3.222
  106SOL    HW2 1218   4.243   6.060   3.164
  107SOL     OW 1219   0.298   1.122   6.898
  107SOL    HW1 1220   0.318   1.104   6.801
  107SOL    HW2 1221   0.254   1.041   6.938
  108SOL     OW 1222   3.620   6.855   6.047
  108SOL    HW1 1223   3.619   6.933   5.985
  108SOL    HW2 1224   3.562   6.875   6.126
  109SOL     OW 1225   2.853   0.561   2.514
  109SOL    HW1 1226   2.769   0.609   2.540
  109SOL    HW2 1227   2.918   0.565   2.590
  110SOL     OW 1228   2.443   4.927   4.144
  110SOL    HW1 1229   2.533   4.956   4.177
  110SOL    HW2 1230   2.407   4.997   4.082
  111SOL     OW 1231   2.156   1.068   3.352
  111SOL    HW1 1232   2.066   1.095   3.387
  111SOL    HW2 1233   2.167   0.969   3.362
  112SOL     OW 1234   5.290   6.405   0.727
  112SOL    HW1 1235   5.352   6.327   0.730
  112SOL    HW2 1236   5.335   6.481   0.681
  113SOL     OW 1237   1.361   5.898   2.631
  113SOL    HW1 1238   1.327   5.804   2.623
  113SOL    HW2 1239   1.287   5.958   2.660
  114SOL     OW 1240   1.706   6.230   1.867
  114SOL    HW1 1241   1.699   6.308   1.929
  114SOL    HW2 1242   1.791   6.237   1.815
  115SOL     OW 1243   5.251   0.072   2.962
  115SOL    HW1 1244   5.316   0.060   3.037
  115SOL    HW2 1245   5.159   0.085   3.000
  116SOL     OW 1246   0.279   5.656   1.332
  116SOL    HW1 1247   0.218   5.735   1.327
  116SOL    HW2 1248   0.305   5.641   1.427
  117SOL     OW 1249   1.147   0.771   0.708
  117SOL    HW1 1250   1.131   0.680   0.747
  117SOL    HW2 1251   1.234   0.771   0.659
  118SOL     OW 1252   1.865   2.278   3.076
  118SOL    HW1 1253   1.781   2.232   3.048
  118SOL    HW2 1254   1.850   2.377   3.079
  119SOL     OW 1255   7.011   0.434   6.686
  119SOL    HW1 1256   7.006   0.407   6.783
  119SOL    HW2 1257   0.032   0.361   6.633
  120SOL     OW 1258   5.066   0.332   4.139
  120SOL    HW1 1259   5.058   0.233   4.126
  120SOL    HW2 1260   4.991   0.378   4.093
  121SOL     OW 1261   1.057   3.934   0.642
  121SOL    HW1 1262   1.135   3.926   0.704
  121SOL    HW2 1263   0.983   3.873   0.674
  122SOL     OW 1264   1.618   3.671   0.278
  122SOL    HW1 1265   1.605   3.729   0.358
  122SOL    HW2 1266   1.595   3.576   0.301
  123SOL     OW 1267   0.829   1.233   2.084
  123SOL    HW1 1268   0.736   1.197   2.089
  123SOL    HW2 1269   0.894   1.158   2.087
  124SOL     OW 1270   3.267   2.135   0.558
  124SOL    HW1 1271   3.262   2.127   0.458
  124SOL    HW2 1272   3.243   2.228   0.586
  125SOL     OW 1273   3.189   2.759   0.518
  125SOL    HW1 1274   3.253   2.821   0.474
  125SOL    HW2 1275   3.187   2.779   0.616
  126SOL     OW 1276   3.572   2.957   2.838
  126SOL    HW1 1277   3.562   3.021   2.914
  126SOL    HW2 1278   3.661   2.969   2.796
  127SOL     OW 1279   6.899   6.109   6.015
  127SOL    HW1 1280   6.942   6.073   5.932
  127SOL    HW2 1281   6.873   6.034   6.075
  128SOL     OW 1282   4.963   3.296   1.694
  128SOL    HW1 1283   5.030   3.346   1.640
  128SOL    HW2 1284   4.940   3.210   1.649
  129SOL     OW 1285   3.037   4.214   0.206
  129SOL    HW1 1286   2.940   4.231   0.225
  129SOL    HW2 1287   3.090   4.296   0.225
  130SOL     OW 1288   6.288   0.297   4.742
  130SOL    HW1 1289   6.276   0.260   4.834
  130SOL    HW2 1290   6.320   0.392   4.748
  131SOL     OW 1291   5.654   0.418   3.856
  131SOL    HW1 1292   5.657   0.365   3.940
  131SOL    HW2 1293   5.600   0.501   3.871
  132SOL     OW 1294   3.277   2.781   1.187
  132SOL    HW1 1295   3.311   2.811   1.276
  132SOL    HW2 1296   3.197   2.722   1.200
  133SOL     OW 1297   5.497   0.641   3.889
  133SOL    HW1 1298   5.464   0.696   3.812
  133SOL    HW2 1299   5.440   0.657   3.969
  134SOL     OW 1300   0.161   0.059   2.717
  134SOL    HW1 1301   0.197   7.008   2.775
  134SOL    HW2 1302   0.224   0.137   2.718
  135SOL     OW 1303   5.105   3.598   4.093
  135SOL    HW1 1304   5.051   3.529   4.044
  135SOL    HW2 1305   5.149   3.556   4.172
  136SOL     OW 1306   1.764   6.403   4.619
  136SOL    HW1 1307   1.826   6.328   4.641
  136SOL    HW2 1308   1.671   6.379   4.645
  137SOL     OW 1309   4.386   1.324   4.504
  137SOL    HW1 1310   4.347   1.234   4.487
  137SOL    HW2 1311   4.459   1.342   4.438
  138SOL     OW 1312   0.815   4.140   2.899
  138SOL    HW1 1313   0.816   4.040   2.896
  138SOL    HW2 1314   0.737   4.170   2.955
  139SOL     OW 1315   2.264   5.743   6.401
  139SOL    HW1 1316   2.294   5.661   6.353
  139SOL    HW2 1317   2.265   5.821   6.339
  140SOL     OW 1318   1.274   6.637   3.431
  140SOL    HW1 1319   1.203   6.707   3.430
  140SOL    HW2 1320   1.339   6.655   3.357
  141SOL     OW 1321   6.594   2.402   6.345
  141SOL    HW1 1322   6.543   2.330   6.299
  141SOL    HW2 1323   6.685   2.369   6.369
  142SOL     OW 1324   2.151   3.659   2.160
  142SOL    HW1 1325   2.188   3.589   2.099
  142SOL    HW2 1326   2.116   3.617   2.244
  143SOL     OW 1327   5.616   5.720   0.586
  143SOL    HW1 1328   5.651   5.793   0.645
  143SOL    HW2 1329   5.551   5.664   0.637
  144SOL     OW 1330   2.312   4.955   5.370
  144SOL    HW1 1331   2.215   4.955   5.345
  144SOL    HW2 1332   2.351   4.866   5.348
  145SOL     OW 1333   1.856   5.246   1.233
  145SOL    HW1 1334   1.827   5.339   1.254
  145SOL    HW2 1335   1.927   5.248   1.162
  146SOL     OW 1336   4.986   0.984   6.706
  146SOL    HW1 1337   4.961   1.077   6.734
  146SOL    HW2 1338   5.045   0.944   6.776
  147SOL     OW 1339   5.211   1.589   5.786
  147SOL    HW1 1340   5.297   1.635   5.805
  147SOL    HW2 1341   5.137   1.657   5.781
  148SOL     OW 1342   0.380   5.612   1.582
  148SOL    HW1 1343   0.314   5.541   1.605
  148SOL    HW2 1344   0.361   5.694   1.637
  149SOL     OW 1345   3.138   1.892   4.653
  149SOL    HW1 1346   3.176   1.803   4.628
  149SOL    HW2 1347   3.205   1.942   4.708
  150SOL     OW 1348   4.790   0.252   6.293
  150SOL    HW1 1349   4.783   0.153   6.293
  150SOL    HW2 1350   4.875   0.280   6.248
  151SOL     OW 1351   3.555   1.118   1.672
  151SOL    HW1 1352   3.462   1.088   1.693
  151SOL    HW2 1353   3.617   1.086   1.744
  152SOL     OW 1354   6.997   1.558   0.209
  152SOL    HW1 1355   0.060   1.523   0.168
  152SOL    HW2 1356   7.001   1.658   0.213
  153SOL     OW 1357   2.832   7.007   2.870
  153SOL    HW1 1358   2.811   6.911   2.890
  153SOL    HW2 1359   2.877   7.013   2.781
  154SOL     OW 1360   0.129   3.141   0.415
  154SOL    HW1 1361   0.071   3.096   0.483
  154SOL    HW2 1362   0.106   3.107   0.324
  155SOL     OW 1363   1.042   0.109   3.150
  155SOL    HW1 1364   0.971   0.088   3.218
  155SOL    HW2 1365   1.090   0.192   3.176
  156SOL     OW 1366   6.214   0.647   6.945
  156SOL    HW1 1367   6.160   0.615   6.868
  156SOL    HW2 1368   6.311   0.631   6.928
  157SOL     OW 1369   5.439   3.384   0.705
  157SOL    HW1 1370   5.408   3.348   0.793
  157SOL    HW2 1371   5.367   3.370   0.636
  158SOL     OW 1372   1.770   2.597   0.882
  158SOL    HW1 1373   1.808   2.600   0.790
  158SOL    HW2 1374   1.687   2.540   0.883
  159SOL     OW 1375   4.213   5.172   1.161
  159SOL    HW1 1376   4.158   5.210   1.086
  159SOL    HW2 1377   4.186   5.216   1.247
  160SOL     OW 1378   6.147   0.304   0.783
  160SOL    HW1 1379   6.143   0.394   0.740
  160SOL    HW2 1380   6.242   0.283   0.808
  161SOL     OW 1381   1.987   6.893   2.398
  161SOL    HW1 1382   2.005   6.800   2.366
  161SOL    HW2 1383   2.037   6.958   2.342
  162SOL     OW 1384   3.305   6.796   0.078
  162SOL    HW1 1385   3.395   6.815   0.118
  162SOL    HW2 1386   3.252   6.881   0.076
  163SOL     OW 1387   0.502   5.441   2.855
  163SOL    HW1 1388   0.485   5.531   2.896
  163SOL    HW2 1389   0.490   5.447   2.756
  164SOL     OW 1390   1.179   3.020   2.378
  164SOL    HW1 1391   1.260   3.072   2.404
  164SOL    HW2 1392   1.120   3.008   2.458
  165SOL     OW 1393   5.714   4.917   0.338
  165SOL    HW1 1394   5.773   4.953   0.411
  165SOL    HW2 1395   5.628   4.885   0.377
  166SOL     OW 1396   0.051   3.718   2.199
  166SOL    HW1 1397   0.011   3.802   2.237
  166SOL    HW2 1398   7.013   3.640   2.220
  167SOL     OW 1399   6.455   1.123   6.365
  167SOL    HW1 1400   6.377   1.091   6.419
  167SOL    HW2 1401   6.474   1.219   6.388
  168SOL     OW 1402   4.060   1.987   1.592
  168SOL    HW1 1403   4.015   2.073   1.567
  168SOL    HW2 1404   4.147   1.980   1.544
  169SOL     OW 1405   5.790   2.672   0.033
  169SOL    HW1 1406   5.782   2.574   0.015
  169SOL    HW2 1407   5.855   2.713   6.990
  170SOL     OW 1408   6.863   5.777   2.984
  170SOL    HW1 1409   6.891   5.847   3.049
  170SOL    HW2 1410   6.831   5.820   2.899
  171SOL     OW 1411   2.350   4.054   0.450
  171SOL    HW1 1412   2.273   4.107   0.485
  171SOL    HW2 1413   2.321   4.000   0.371
  172SOL     OW 1414   6.113   2.169   2.263
  172SOL    HW1 1415   6.049   2.130   2.197
  172SOL    HW2 1416   6.075   2.160   2.355
  173SOL     OW 1417   5.743   1.121   4.923
  173SOL    HW1 1418   5.724   1.025   4.943
  173SOL    HW2 1419   5.837   1.143   4.950
  174SOL     OW 1420   4.391   5.623   3.955
  174SOL    HW1 1421   4.307   5.627   4.009
  174SOL    HW2 1422   4.416   5.716   3.925
  175SOL     OW 1423   3.378   0.891   1.147
  175SOL    HW1 1424   3.392   0.854   1.055
  175SOL    HW2 1425   3.444   0.964   1.164
  176SOL     OW 1426   4.854   4.391   2.690
  176SOL    HW1 1427   4.761   4.365   2.716
  176SOL    HW2 1428   4.880   4.342   2.606
  177SOL     OW 1429   4.716   2.909   4.705
  177SOL    HW1 1430   4.662   2.850   4.764
  177SOL    HW2 1431   4.666   2.994   4.688
  178SOL     OW 1432   2.554   4.906   4.956
  178SOL    HW1 1433   2.647   4.903   4.919
  178SOL    HW2 1434   2.533   4.818   4.999
  179SOL     OW 1435   4.195   0.115   0.144
  179SOL    HW1 1436   4.128   0.044   0.164
  179SOL    HW2 1437   4.243   0.094   0.059
  180SOL     OW 1438   2.435   6.871   0.424
  180SOL    HW1 1439   2.532   6.896   0.419
  180SOL    HW2 1440   2.380   6.941   0.380
  181SOL     OW 1441   3.723   3.227   6.212
  181SOL    HW1 1442   3.659   3.159   6.248
  181SOL    HW2 1443   3.673   3.295   6.159
  182SOL     OW 1444   4.413   2.382   6.704
  182SOL    HW1 1445   4.423   2.480   6.723
  182SOL    HW2 1446   4.489   2.332   6.746
  183SOL     OW 1447   3.915   2.166   3.481
  183SOL    HW1 1448   3.976   2.176   3.559
  183SOL    HW2 1449   3.906   2.255   3.435
  184SOL     OW 1450   0.628   6.570   3.426
  184SOL    HW1 1451   0.695   6.499   3.405
  184SOL    HW2 1452   0.672   6.642   3.480
  185SOL     OW 1453   1.281   1.166   4.143
  185SOL    HW1 1454   1.322   1.160   4.052
  185SOL    HW2 1455   1.353   1.167   4.212
  186SOL     OW 1456   5.135   0.104   4.404
  186SOL    HW1 1457   5.053   0.150   4.372
  186SOL    HW2 1458   5.213   0.166   4.395
  187SOL     OW 1459   5.728   6.372   2.328
  187SOL    HW1 1460   5.735   6.463   2.368
  187SOL    HW2 1461   5.788   6.367   2.248
  188SOL     OW 1462   0.546   3.250   3.790
  188SOL    HW1 1463   0.534   3.282   3.884
  188SOL    HW2 1464   0.579   3.156   3.791
  189SOL     OW 1465   1.541   4.827   6.862
  189SOL    HW1 1466   1.638   4.804   6.855
  189SOL    HW2 1467   1.490   4.775   6.794
  190SOL     OW 1468   6.189   4.278   6.382
  190SOL    HW1 1469   6.090   4.264   6.394
  190SOL    HW2 1470   6.224   4.329   6.461
  191SOL     OW 1471   6.675   1.293   6.525
  191SOL    HW1 1472   6.738   1.266   6.452
  191SOL    HW2 1473   6.641   1.386   6.507
  192SOL     OW 1474   6.915   4.875   1.402
  192SOL    HW1 1475   6.891   4.965   1.439
  192SOL    HW2 1476   6.908   4.878   1.302
  193SOL     OW 1477   4.796   3.951   5.178
  193SOL    HW1 1478   4.845   3.926   5.095
  193SOL    HW2 1479   4.819   3.887   5.251
  194SOL     OW 1480   3.974   6.259   3.188
  194SOL    HW1 1481   4.022   6.172   3.194
  194SOL    HW2 1482   4.030   6.331   3.231
  195SOL     OW 1483   1.818   1.016   3.213
  195SOL    HW1 1484   1.770   1.010   3.126
  195SOL    HW2 1485   1.874   0.934   3.226
  196SOL     OW 1486   3.452   0.016   0.565
  196SOL    HW1 1487   3.398   0.080   0.619
  196SOL    HW2 1488   3.525   0.065   0.517
  197SOL     OW 1489   2.650   6.826   0.162
  197SOL    HW1 1490   2.566   6.776   0.141
  197SOL    HW2 1491   2.718   6.809   0.090
  198SOL     OW 1492   4.761   6.874   1.778
  198SOL    HW1 1493   4.697   6.950   1.777
  198SOL    HW2 1494   4.726   6.801   1.837
  199SOL     OW 1495   6.469   1.048   3.106
  199SOL    HW1 1496   6.555   1.003   3.127
  199SOL    HW2 1497   6.465   1.137   3.153
  200SOL     OW 1498   1.175   4.521   2.587
  200SOL    HW1 1499   1.123   4.559   2.662
  200SOL    HW2 1500   1.124   4.446   2.545
  201SOL     OW 1501   4.100   6.612   6.140
  201SOL    HW1 1502   4.137   6.535   6.192
  201SOL    HW2 1503   4.012   6.639   6.178
  202SOL     OW 1504   5.242   0.445   5.235
  202SOL    HW1 1505   5.305   0.505   5.186
  202SOL    HW2 1506   5.148   0.471   5.212
  203SOL     OW 1507   5.345   2.255   4.746
  203SOL    HW1 1508   5.414   2.209   4.803
  203SOL    HW2 1509   5.314   2.192   4.675
  204SOL     OW 1510   0.522   0.644   6.766
  204SOL    HW1 1511   0.487   0.633   6.674
  204SOL    HW2 1512   0.526   0.741   6.789
  205SOL     OW 1513   0.653   1.447   2.204
  205SOL    HW1 1514   0.637   1.507   2.125
  205SOL    HW2 1515   0.720   1.377   2.179
  206SOL     OW 1516   0.486   5.073   2.651
  206SOL    HW1 1517   0.414   5.079   2.719
  206SOL    HW2 1518   0.455   5.020   2.573
  207SOL     OW 1519   4.078   6.980   5.049
  207SOL    HW1 1520   4.154   7.002   5.111
  207SOL    HW2 1521   4.023   0.040   5.034
  208SOL     OW 1522   4.925   3.770   5.846
  208SOL    HW1 1523   4.875   3.684   5.832
  208SOL    HW2 1524   5.022   3.755   5.828
  209SOL     OW 1525   0.975   5.638   5.208
  209SOL    HW1 1526   1.058   5.583   5.223
  209SOL    HW2 1527   0.895   5.587   5.240
  210SOL     OW 1528   4.051   2.151   1.872
  210SOL    HW1 1529   4.090   2.127   1.960
  210SOL    HW2 1530   3.962   2.106   1.862
  211SOL     OW 1531   0.977   6.400   4.311
  211SOL    HW1 1532   0.975   6.500   4.308
  211SOL    HW2 1533   0.964   6.363   4.218
  212SOL     OW 1534   2.507   4.778   2.139
  212SOL    HW1 1535   2.490   4.817   2.049
  212SOL    HW2 1536   2.437   4.810   2.203
  213SOL     OW 1537   3.908   0.820   6.400
  213SOL    HW1 1538   4.007   0.823   6.384
  213SOL    HW2 1539   3.888   0.747   6.466
  214SOL     OW 1540   3.175   6.128   2.288
  214SOL    HW1 1541   3.206   6.056   2.225
  214SOL    HW2 1542   3.075   6.125   2.295
  215SOL     OW 1543   3.097   4.069   1.941
  215SOL    HW1 1544   3.152   4.042   2.020
  215SOL    HW2 1545   3.156   4.089   1.863
  216SOL     OW 1546   1.825   6.811   5.063
  216SOL    HW1 1547   1.842   6.909   5.050
  216SOL    HW2 1548   1.893   6.774   5.126
  217SOL     OW 1549   2.582   2.510   4.144
  217SOL    HW1 1550   2.557   2.567   4.066
  217SOL    HW2 1551   2.512   2.519   4.215
  218SOL     OW 1552   1.051   3.099   4.717
  218SOL    HW1 1553   1.041   3.110   4.618
  218SOL    HW2 1554   0.972   3.052   4.754
  219SOL     OW 1555   3.059   6.395   6.388
  219SOL    HW1 1556   3.086   6.317   6.443
  219SOL    HW2 1557   3.039   6.364   6.295
  220SOL     OW 1558   3.302   6.206   6.702
  220SOL    HW1 1559   3.281   6.304   6.704
  220SOL    HW2 1560   3.281   6.166   6.791
  221SOL     OW 1561   6.581   3.748   2.535
  221SOL    HW1 1562   6.646   3.696   2.591
  221SOL    HW2 1563   6.625   3.774   2.449
  222SOL     OW 1564   1.915   5.005   5.601
  222SOL    HW1 1565   1.986   5.034   5.665
  222SOL    HW2 1566   1.937   5.038   5.509
  223SOL     OW 1567   6.662   4.008   0.533
  223SOL    HW1 1568   6.608   4.002   0.449
  223SOL    HW2 1569   6.757   4.030   0.511
  224SOL     OW 1570   2.578   1.829   3.890
  224SOL    HW1 1571   2.665   1.784   3.870
  224SOL    HW2 1572   2.513   1.763   3.928
  225SOL     OW 1573   4.946   1.154   6.399
  225SOL    HW1 1574   4.859   1.113   6.429
  225SOL    HW2 1575   5.022   1.107   6.444
  226SOL     OW 1576   0.574   6.968   6.379
  226SOL    HW1 1577   0.541   6.970   6.285
  226SOL    HW2 1578   0.674   6.974   6.380
  227SOL     OW 1579   1.605   4.585   2.403
  227SOL    HW1 1580   1.576   4.621   2.314
  227SOL    HW2 1581   1.528   4.538   2.446
  228SOL     OW 1582   3.170   6.455   3.865
  228SOL    HW1 1583   3.108   6.398   3.918
  228SOL    HW2 1584   3.172   6.423   3.770
  229SOL     OW 1585   5.885   6.007   0.558
  229SOL    HW1 1586   5.891   6.050   0.468
  229SOL    HW2 1587   5.895   6.078   0.629
  230SOL     OW 1588   3.094   4.880   3.086
  230SOL    HW1 1589   3.056   4.972   3.080
  230SOL    HW2 1590   3.189   4.880   3.055
  231SOL     OW 1591   6.231   1.887   5.926
  231SOL    HW1 1592   6.146   1.868   5.878
  231SOL    HW2 1593   6.213   1.894   6.024
  232SOL     OW 1594   0.934   4.094   6.197
  232SOL    HW1 1595   0.995   4.027   6.155
  232SOL    HW2 1596   0.854   4.048   6.234
  233SOL     OW 1597   1.976   0.939   4.291
  233SOL    HW1 1598   1.925   0.992   4.360
  233SOL    HW2 1599   1.949   0.970   4.200
  234SOL     OW 1600   2.892   6.282   5.546
  234SOL    HW1 1601   2.918   6.238   5.632
  234SOL    HW2 1602   2.902   6.217   5.471
  235SOL     OW 1603   2.959   3.551   2.510
  235SOL    HW1 1604   2.936   3.645   2.533
  235SOL    HW2 1605   2.908   3.522   2.429
  236SOL     OW 1606   6.197   2.960   6.696
  236SOL    HW1 1607   6.226   2.962   6.600
  236SOL    HW2 1608   6.238   2.879   6.741
  237SOL     OW 1609   6.727   6.689   0.859
  237SOL    HW1 1610   6.796   6.730   0.800
  237SOL    HW2 1611   6.669   6.628   0.805
  238SOL     OW 1612   6.551   2.315   6.991
  238SOL    HW1 1613   6.513   2.395   0.017
  238SOL    HW2 1614   6.541   2.235   0.028
  239SOL     OW 1615   6.606   5.030   0.038
  239SOL    HW1 1616   6.535   5.091   0.004
  239SOL    HW2 1617   6.582   4.935   0.017
  240SOL     OW 1618   0.068   3.076   5.252
  240SOL    HW1 1619   7.006   3.118   5.285
  240SOL    HW2 1620   0.046   3.006   5.184
  241SOL     OW 1621   0.870   0.379   3.925
  241SOL    HW1 1622   0.817   0.457   3.959
  241SOL    HW2 1623   0.876   0.310   3.997
  242SOL     OW 1624   2.261   2.585   6.220
  242SOL    HW1 1625   2.361   2.574   6.217
  242SOL    HW2 1626   2.222   2.566   6.130
  243SOL     OW 1627   4.856   6.835   6.367
  243SOL    HW1 1628   4.871   6.924   6.411
  243SOL    HW2 1629   4.909   6.831   6.282
  244SOL     OW 1630   4.919   2.835   4.528
  244SOL    HW1 1631   4.888   2.908   4.467
  244SOL    HW2 1632   4.859   2.831   4.608
  245SOL     OW 1633   0.075   2.336   4.462
  245SOL    HW1 1634   0.044   2.419   4.417
  245SOL    HW2 1635   0.043   2.334   4.556
  246SOL     OW 1636   5.523   3.102   3.021
  246SOL    HW1 1637   5.495   3.013   2.985
  246SOL    HW2 1638   5.622   3.114   3.007
  247SOL     OW 1639   1.877   1.913   2.581
  247SOL    HW1 1640   1.886   1.818   2.553
  247SOL    HW2 1641   1.889   1.973   2.503
  248SOL     OW 1642   4.448   2.421   4.858
  248SOL    HW1 1643   4.373   2.454   4.916
  248SOL    HW2 1644   4.532   2.415   4.912
  249SOL     OW 1645   4.655   0.257   5.447
  249SOL    HW1 1646   4.705   0.171   5.458
  249SOL    HW2 1647   4.712   0.333   5.477
  250SOL     OW 1648   4.597   2.170   5.488
  250SOL    HW1 1649   4.523   2.103   5.488
  250SOL    HW2 1650   4.584   2.234   5.564
  251SOL     OW 1651   4.399   4.527   6.045
  251SOL    HW1 1652   4.407   4.552   6.142
  251SOL    HW2 1653   4.302   4.530   6.018
  252SOL     OW 1654   6.972   0.668   6.944
  252SOL    HW1 1655   0.009   0.587   6.940
  252SOL    HW2 1656   6.879   0.644   6.916
  253SOL     OW 1657   2.391   4.632   0.194
  253SOL    HW1 1658   2.412   4.651   0.291
  253SOL    HW2 1659   2.322   4.696   0.162
  254SOL     OW 1660   6.671   2.955   3.574
  254SOL    HW1 1661   6.657   2.971   3.477
  254SOL    HW2 1662   6.595   2.900   3.610
  255SOL     OW 1663   2.009   2.746   4.080
  255SOL    HW1 1664   1.919   2.736   4.038
  255SOL    HW2 1665   2.050   2.656   4.093
  256SOL     OW 1666   6.676   4.601   0.031
  256SOL    HW1 1667   6.689   4.511   7.011
  256SOL    HW2 1668   6.751   4.620   0.094
  257SOL     OW 1669   3.521   5.311   5.114
  257SOL    HW1 1670   3.556   5.397   5.077
  257SOL    HW2 1671   3.422   5.320   5.129
  258SOL     OW 1672   5.436   3.591   4.689
  258SOL    HW1 1673   5.339   3.575   4.667
  258SOL    HW2 1674   5.464   3.526   4.760
  259SOL     OW 1675   2.206   3.016   2.296
  259SOL    HW1 1676   2.209   3.021   2.396
  259SOL    HW2 1677   2.149   3.090   2.261
  260SOL     OW 1678   4.155   0.855   0.928
  260SOL    HW1 1679   4.168   0.805   1.014
  260SOL    HW2 1680   4.212   0.937   0.929
  261SOL     OW 1681   6.879   3.781   1.140
  261SOL    HW1 1682   6.841   3.762   1.231
  261SOL    HW2 1683   6.935   3.864   1.145
  262SOL     OW 1684   0.530   3.926   2.022
  262SOL    HW1 1685   0.597   3.856   1.995
  262SOL    HW2 1686   0.441   3.904   1.982
  263SOL     OW 1687   0.300   1.300   3.998
  263SOL    HW1 1688   0.250   1.303   3.912
  263SOL    HW2 1689   0.265   1.370   4.060
  264SOL     OW 1690   6.240   4.497   5.434
  264SOL    HW1 1691   6.155   4.545   5.416
  264SOL    HW2 1692   6.318   4.554   5.407
  265SOL     OW 1693   4.838   3.976   3.014
  265SOL    HW1 1694   4.864   3.958   3.109
  265SOL    HW2 1695   4.858   3.895   2.958
  266SOL     OW 1696   3.537   3.051   6.300
  266SOL    HW1 1697   3.453   3.087   6.342
  266SOL    HW2 1698   3.562   2.965   6.343
  267SOL     OW 1699   6.857   2.723   6.091
  267SOL    HW1 1700   6.809   2.811   6.087
  267SOL    HW2 1701   6.806   2.655   6.039
  268SOL     OW 1702   5.057   5.849   5.315
  268SOL    HW1 1703   5.081   5.802   5.231
  268SOL    HW2 1704   5.136   5.851   5.376
  269SOL     OW 1705   1.619   1.690   0.579
  269SOL    HW1 1706   1.718   1.690   0.594
  269SOL    HW2 1707   1.599   1.719   0.485
  270SOL     OW 1708   6.919   0.783   1.825
  270SOL    HW1 1709   6.959   0.803   1.736
  270SOL    HW2 1710   6.970   0.831   1.896
  271SOL     OW 1711   2.843   1.752   0.372
  271SOL    HW1 1712   2.791   1.822   0.323
  271SOL    HW2 1713   2.789   1.669   0.379
  272SOL     OW 1714   3.210   5.302   4.269
  272SOL    HW1 1715   3.240   5.301   4.365
  272SOL    HW2 1716   3.204   5.209   4.235
  273SOL     OW 1717   1.555   5.384   5.291
  273SOL    HW1 1718   1.510   5.470   5.315
  273SOL    HW2 1719   1.617   5.358   5.365
  274SOL     OW 1720   5.333   2.134   4.387
  274SOL    HW1 1721   5.249   2.124   4.333
  274SOL    HW2 1722   5.372   2.225   4.372
  275SOL     OW 1723   0.425   5.835   6.182
  275SOL    HW1 1724   0.458   5.745   6.212
  275SOL    HW2 1725   0.487   5.906   6.216
  276SOL     OW 1726   6.698   5.488   4.005
  276SOL    HW1 1727   6.752   5.533   3.933
  276SOL    HW2 1728   6.609   5.460   3.967
  277SOL     OW 1729   3.151   1.317   6.634
  277SOL    HW1 1730   3.196   1.295   6.720
  277SOL    HW2 1731   3.212   1.295   6.557
  278SOL     OW 1732   6.497   3.453   2.138
  278SOL    HW1 1733   6.433   3.471   2.213
  278SOL    HW2 1734   6.456   3.385   2.077
  279SOL     OW 1735   6.123   2.829   4.255
  279SOL    HW1 1736   6.165   2.913   4.290
  279SOL    HW2 1737   6.165   2.804   4.168
  280SOL     OW 1738   4.315   0.039   3.305
  280SOL    HW1 1739   4.299   6.985   3.242
  280SOL    HW2 1740   4.297   0.010   3.399
  281SOL     OW 1741   2.896   4.757   3.246
  281SOL    HW1 1742   2.918   4.798   3.334
  281SOL    HW2 1743   2.936   4.812   3.172
  282SOL     OW 1744   3.879   2.349   5.300
  282SOL    HW1 1745   3.957   2.400   5.262
  282SOL    HW2 1746   3.874   2.260   5.255
  283SOL     OW 1747   5.812   0.538   5.922
  283SOL    HW1 1748   5.814   0.443   5.954
  283SOL    HW2 1749   5.902   0.579   5.934
  284SOL     OW 1750   1.011   4.627   4.783
  284SOL    HW1 1751   0.921   4.585   4.793
  284SOL    HW2 1752   1.075   4.584   4.846
  285SOL     OW 1753   5.075   5.725   0.214
  285SOL    HW1 1754   4.987   5.733   0.261
  285SOL    HW2 1755   5.147   5.761   0.273
  286SOL     OW 1756   4.377   4.612   5.711
  286SOL    HW1 1757   4.310   4.552   5.755
  286SOL    HW2 1758   4.366   4.607   5.612
  287SOL     OW 1759   1.493   5.318   6.428
  287SOL    HW1 1760   1.421   5.388   6.423
  287SOL    HW2 1761   1.577   5.360   6.464
  288SOL     OW 1762   3.998   1.483   0.253
  288SOL    HW1 1763   3.954   1.566   0.287
  288SOL    HW2 1764   3.971   1.467   0.158
  289SOL     OW 1765   0.738   5.081   5.538
  289SOL    HW1 1766   0.739   5.160   5.477
  289SOL    HW2 1767   0.816   5.022   5.517
  290SOL     OW 1768   5.044   1.087   3.623
  290SOL    HW1 1769   4.946   1.074   3.609
  290SOL    HW2 1770   5.060   1.173   3.670
  291SOL     OW 1771   4.312   1.146   4.192
  291SOL    HW1 1772   4.321   1.227   4.134
  291SOL    HW2 1773   4.379   1.077   4.165
  292SOL     OW 1774   5.021   1.302   3.807
  292SOL    HW1 1775   4.926   1.310   3.836
  292SOL    HW2 1776   5.046   1.380   3.749
  293SOL     OW 1777   4.116   6.391   1.168
  293SOL    HW1 1778   4.171   6.321   1.212
  293SOL    HW2 1779   4.054   6.433   1.235
  294SOL     OW 1780   5.901   5.591   6.778
  294SOL    HW1 1781   5.853   5.542   6.705
  294SOL    HW2 1782   5.909   5.688   6.754
  295SOL     OW 1783   2.209   2.300   5.251
  295SOL    HW1 1784   2.214   2.308   5.152
  295SOL    HW2 1785   2.302   2.298   5.289
  296SOL     OW 1786   0.041   2.397   1.722
  296SOL    HW1 1787   6.988   2.335   1.748
  296SOL    HW2 1788   0.033   2.482   1.773
  297SOL     OW 1789   3.061   5.106   3.449
  297SOL    HW1 1790   3.017   5.016   3.447
  297SOL    HW2 1791   3.135   5.105   3.516
  298SOL     OW 1792   4.495   6.833   0.041
  298SOL    HW1 1793   4.496   6.759   0.109
  298SOL    HW2 1794   4.583   6.881   0.043
  299SOL     OW 1795   4.502   1.968   6.884
  299SOL    HW1 1796   4.507   2.068   6.878
  299SOL    HW2 1797   4.486   1.941   6.979
  300SOL     OW 1798   4.196   0.198   2.774
  300SOL    HW1 1799   4.098   0.210   2.755
  300SOL    HW2 1800   4.244   0.284   2.759
  301SOL     OW 1801   4.952   1.334   1.358
  301SOL    HW1 1802   5.052   1.345   1.366
  301SOL    HW2 1803   4.908   1.386   1.431
  302SOL     OW 1804   0.204   0.592   2.367
  302SOL    HW1 1805   0.182   0.557   2.458
  302SOL    HW2 1806   0.120   0.615   2.318
  303SOL     OW 1807   6.556   5.869   2.168
  303SOL    HW1 1808   6.573   5.901   2.075
  303SOL    HW2 1809   6.606   5.784   2.184
  304SOL     OW 1810   2.398   6.388   6.743
  304SOL    HW1 1811   2.350   6.301   6.738
  304SOL    HW2 1812   2.494   6.372   6.763
  305SOL     OW 1813   1.281   3.089   1.042
  305SOL    HW1 1814   1.214   3.090   1.116
  305SOL    HW2 1815   1.371   3.111   1.079
  306SOL     OW 1816   0.155   1.113   2.732
  306SOL    HW1 1817   0.213   1.193   2.724
  306SOL    HW2 1818   0.156   1.079   2.826
  307SOL     OW 1819   4.179   4.378   0.077
  307SOL    HW1 1820   4.266   4.421   0.100
  307SOL    HW2 1821   4.170   4.294   0.131
  308SOL     OW 1822   5.754   2.320   3.972
  308SOL    HW1 1823   5.725   2.307   3.878
  308SOL    HW2 1824   5.812   2.401   3.978
  309SOL     OW 1825   1.735   6.259   0.373
  309SOL    HW1 1826   1.674   6.188   0.339
  309SOL    HW2 1827   1.829   6.228   0.369
  310SOL     OW 1828   5.045   6.569   4.509
  310SOL    HW1 1829   4.992   6.508   4.567
  310SOL    HW2 1830   5.020   6.664   4.528
  311SOL     OW 1831   3.209   5.112   2.526
  311SOL    HW1 1832   3.170   5.029   2.485
  311SOL    HW2 1833   3.170   5.193   2.481
  312SOL     OW 1834   3.712   2.118   4.017
  312SOL    HW1 1835   3.621   2.092   4.049
  312SOL    HW2 1836   3.716   2.110   3.917
  313SOL     OW 1837   3.454   4.122   2.231
  313SOL    HW1 1838   3.552   4.138   2.241
  313SOL    HW2 1839   3.423   4.159   2.143
  314SOL     OW 1840   2.356   4.688   5.309
  314SOL    HW1 1841   2.319   4.596   5.325
  314SOL    HW2 1842   2.335   4.716   5.215
  315SOL     OW 1843   1.146   2.172   4.058
  315SOL    HW1 1844   1.079   2.103   4.034
  315SOL    HW2 1845   1.235   2.148   4.019
  316SOL     OW 1846   3.825   0.500   4.489
  316SOL    HW1 1847   3.813   0.526   4.393
  316SOL    HW2 1848   3.872   0.574   4.537
  317SOL     OW 1849   0.129   1.435   1.738
  317SOL    HW1 1850   0.197   1.458   1.668
  317SOL    HW2 1851   0.078   1.517   1.763
  318SOL     OW 1852   6.507   0.040   6.997
  318SOL    HW1 1853   6.494   6.974   6.949
  318SOL    HW2 1854   6.418   0.078   0.001
  319SOL     OW 1855   6.499   1.466   3.494
  319SOL    HW1 1856   6.427   1.404   3.463
  319SOL    HW2 1857   6.475   1.560   3.471
  320SOL     OW 1858   5.777   3.053   0.157
  320SOL    HW1 1859   5.869   3.034   0.122
  320SOL    HW2 1860   5.781   3.127   0.224
  321SOL     OW 1861   4.254   2.183   6.910
  321SOL    HW1 1862   4.283   2.241   6.986
  321SOL    HW2 1863   4.284   2.223   6.824
  322SOL     OW 1864   3.212   3.042   4.404
  322SOL    HW1 1865   3.167   3.130   4.387
  322SOL    HW2 1866   3.188   3.009   4.495
  323SOL     OW 1867   1.160   2.890   5.485
  323SOL    HW1 1868   1.169   2.871   5.583
  323SOL    HW2 1869   1.161   2.804   5.434
  324SOL     OW 1870   2.503   0.175   2.775
  324SOL    HW1 1871   2.547   0.132   2.855
  324SOL    HW2 1872   2.574   0.200   2.709
  325SOL     OW 1873   0.755   3.351   2.095
  325SOL    HW1 1874   0.807   3.423   2.050
  325SOL    HW2 1875   0.771   3.355   2.194
  326SOL     OW 1876   0.784   4.419   6.059
  326SOL    HW1 1877   0.742   4.403   5.969
  326SOL    HW2 1878   0.870   4.368   6.065
  327SOL     OW 1879   2.453   4.680   2.897
  327SOL    HW1 1880   2.458   4.729   2.809
  327SOL    HW2 1881   2.445   4.746   2.971
  328SOL     OW 1882   2.075   5.051   1.916
  328SOL    HW1 1883   2.135   5.129   1.933
  328SOL    HW2 1884   2.092   4.981   1.986
  329SOL     OW 1885   2.496   3.546   5.869
  329SOL    HW1 1886   2.495   3.578   5.774
  329SOL    HW2 1887   2.552   3.463   5.875
  330SOL     OW 1888   2.992   6.431   0.909
  330SOL    HW1 1889   3.007   6.343   0.865
  330SOL    HW2 1890   2.896   6.440   0.935
  331SOL     OW 1891   4.926   5.525   0.453
  331SOL    HW1 1892   4.835   5.530   0.495
  331SOL    HW2 1893   4.928   5.449   0.388
  332SOL     OW 1894   5.468   2.841   5.344
  332SOL    HW1 1895   5.414   2.778   5.287
  332SOL    HW2 1896   5.439   2.834   5.439
  333SOL     OW 1897   4.429   0.694   5.550
  333SOL    HW1 1898   4.484   0.763   5.502
  333SOL    HW2 1899   4.339   0.689   5.507
  334SOL     OW 1900   2.851   2.118   0.266
  334SOL    HW1 1901   2.923   2.178   0.232
  334SOL    HW2 1902   2.788   2.170   0.323
  335SOL     OW 1903   3.553   0.140   6.465
  335SOL    HW1 1904   3.614   0.065   6.436
  335SOL    HW2 1905   3.609   0.217   6.497
  336SOL     OW 1906   3.104   0.695   3.361
  336SOL    HW1 1907   3.135   0.610   3.321
  336SOL    HW2 1908   3.117   0.692   3.460
  337SOL     OW 1909   7.018   3.472   5.330
  337SOL    HW1 1910   6.923   3.497   5.351
  337SOL    HW2 1911   0.041   3.439   5.414
  338SOL     OW 1912   3.069   2.300   1.351
  338SOL    HW1 1913   3.033   2.313   1.444
  338SOL    HW2 1914   3.093   2.203   1.338
  339SOL     OW 1915   4.529   5.412   4.755
  339SOL    HW1 1916   4.492   5.505   4.751
  339SOL    HW2 1917   4.628   5.414   4.738
  340SOL     OW 1918   5.187   3.487   4.688
  340SOL    HW1 1919   5.222   3.412   4.744
  340SOL    HW2 1920   5.093   3.507   4.716
  341SOL     OW 1921   6.095   6.503   4.477
  341SOL    HW1 1922   6.179   6.536   4.434
  341SOL    HW2 1923   6.039   6.581   4.505
  342SOL     OW 1924   5.464   3.436   0.211
  342SOL    HW1 1925   5.462   3.459   0.114
  342SOL    HW2 1926   5.440   3.340   0.223
  343SOL     OW 1927   0.668   5.892   1.722
  343SOL    HW1 1928   0.669   5.986   1.688
  343SOL    HW2 1929   0.658   5.829   1.646
  344SOL     OW 1930   0.887   3.532   1.897
  344SOL    HW1 1931   0.832   3.492   1.824
  344SOL    HW2 1932   0.975   3.486   1.901
  345SOL     OW 1933   5.345   2.396   3.570
  345SOL    HW1 1934   5.366   2.314   3.623
  345SOL    HW2 1935   5.284   2.372   3.494
  346SOL     OW 1936   1.858   1.148   2.357
  346SOL    HW1 1937   1.795   1.086   2.405
  346SOL    HW2 1938   1.907   1.098   2.286
  347SOL     OW 1939   3.060   6.007   0.201
  347SOL    HW1 1940   3.022   6.090   0.160
  347SOL    HW2 1941   3.151   5.990   0.163
  348SOL     OW 1942   4.928   3.780   2.798
  348SOL    HW1 1943   4.853   3.814   2.741
  348SOL    HW2 1944   5.009   3.837   2.784
  349SOL     OW 1945   0.020   5.017   1.701
  349SOL    HW1 1946   6.962   4.957   1.691
  349SOL    HW2 1947   0.025   5.079   1.624
  350SOL     OW 1948   2.952   1.867   1.614
  350SOL    HW1 1949   3.029   1.900   1.669
  350SOL    HW2 1950   2.884   1.940   1.605
  351SOL     OW 1951   2.386   3.465   1.037
  351SOL    HW1 1952   2.393   3.561   1.065
  351SOL    HW2 1953   2.478   3.426   1.029
  352SOL     OW 1954   3.537   6.683   3.759
  352SOL    HW1 1955   3.587   6.625   3.824
  352SOL    HW2 1956   3.529   6.636   3.671
  353SOL     OW 1957   3.436   0.165   0.136
  353SOL    HW1 1958   3.525   0.206   0.113
  353SOL    HW2 1959   3.414   0.184   0.231
  354SOL     OW 1960   4.490   2.214   1.720
  354SOL    HW1 1961   4.436   2.297   1.706
  354SOL    HW2 1962   4.428   2.138   1.743
  355SOL     OW 1963   1.518   4.288   3.108
  355SOL    HW1 1964   1.581   4.299   3.184
  355SOL    HW2 1965   1.459   4.369   3.101
  356SOL     OW 1966   2.066   0.471   5.389
  356SOL    HW1 1967   2.110   0.484   5.478
  356SOL    HW2 1968   1.979   0.520   5.388
  357SOL     OW 1969   6.840   6.855   5.352
  357SOL    HW1 1970   6.893   6.910   5.287
  357SOL    HW2 1971   6.878   6.763   5.356
  358SOL     OW 1972   4.610   6.454   0.585
  358SOL    HW1 1973   4.542   6.390   0.620
  358SOL    HW2 1974   4.635   6.519   0.657
  359SOL     OW 1975   2.917   1.931   2.092
  359SOL    HW1 1976   2.854   1.982   2.033
  359SOL    HW2 1977   2.972   1.869   2.037
  360SOL     OW 1978   1.370   4.879   5.601
  360SOL    HW1 1979   1.384   4.928   5.688
  360SOL    HW2 1980   1.456   4.835   5.574
  361SOL     OW 1981   6.689   6.371   3.008
  361SOL    HW1 1982   6.607   6.328   3.046
  361SOL    HW2 1983   6.751   6.395   3.083
  362SOL     OW 1984   3.388   2.647   1.488
  362SOL    HW1 1985   3.431   2.612   1.405
  362SOL    HW2 1986   3.426   2.600   1.568
  363SOL     OW 1987   5.809   4.229   3.123
  363SOL    HW1 1988   5.903   4.247   3.152
  363SOL    HW2 1989   5.809   4.186   3.033
  364SOL     OW 1990   6.712   5.209   6.304
  364SOL    HW1 1991   6.619   5.245   6.296
  364SOL    HW2 1992   6.726   5.174   6.397
  365SOL     OW 1993   5.368   0.099   2.225
  365SOL    HW1 1994   5.275   0.062   2.218
  365SOL    HW2 1995   5.364   0.199   2.218
  366SOL     OW 1996   5.334   1.520   6.918
  366SOL    HW1 1997   5.433   1.505   6.916
  366SOL    HW2 1998   5.287   1.432   6.920
  367SOL     OW 1999   6.103   2.566   1.207
  367SOL    HW1 2000   6.123   2.630   1.134
  367SOL    HW2 2001   6.129   2.606   1.295
  368SOL     OW 2002   0.867   2.890   5.510
  368SOL    HW1 2003   0.956   2.847   5.524
  368SOL    HW2 2004   0.872   2.987   5.533
  369SOL     OW 2005   5.773   4.990   2.256
  369SOL    HW1 2006   5.727   4.990   2.344
  369SOL    HW2 2007   5.777   4.897   2.220
  370SOL     OW 2008   1.254   1.505   5.189
  370SOL    HW1 2009   1.202   1.458   5.118
  370SOL    HW2 2010   1.249   1.452   5.274
  371SOL     OW 2011   1.768   4.883   6.037
  371SOL    HW1 2012   1.760   4.806   6.101
  371SOL    HW2 2013   1.758   4.849   5.943
  372SOL     OW 2014   1.922   6.953   6.341
  372SOL    HW1 2015   1.885   6.990   6.256
  372SOL    HW2 2016   1.926   6.853   6.334
  373SOL     OW 2017   6.031   6.184   4.884
  373SOL    HW1 2018   6.125   6.183   4.918
  373SOL    HW2 2019   6.031   6.190   4.784
  374SOL     OW 2020   2.482   2.079   3.971
  374SOL    HW1 2021   2.555   2.145   3.957
  374SOL    HW2 2022   2.514   1.987   3.946
  375SOL     OW 2023   0.592   4.335   3.676
  375SOL    HW1 2024   0.613   4.417   3.623
  375SOL    HW2 2025   0.508   4.350   3.728
  376SOL     OW 2026   1.658   1.015   4.963
  376SOL    HW1 2027   1.601   1.056   4.892
  376SOL    HW2 2028   1.696   1.087   5.021
  377SOL     OW 2029   1.441   1.982   0.387
  377SOL    HW1 2030   1.501   2.008   0.463
  377SOL    HW2 2031   1.364   2.046   0.383
  378SOL     OW 2032   4.569   2.240   6.897
  378SOL    HW1 2033   4.560   2.217   6.994
  378SOL    HW2 2034   4.662   2.270   6.878
  379SOL     OW 2035   6.208   2.229   1.249
  379SOL    HW1 2036   6.289   2.223   1.191
  379SOL    HW2 2037   6.137   2.281   1.201
  380SOL     OW 2038   3.210   1.147   0.786
  380SOL    HW1 2039   3.152   1.223   0.757
  380SOL    HW2 2040   3.292   1.144   0.728
  381SOL     OW 2041   1.782   4.124   3.500
  381SOL    HW1 2042   1.811   4.183   3.575
  381SOL    HW2 2043   1.859   4.104   3.441
  382SOL     OW 2044   6.145   0.758   0.337
  382SOL    HW1 2045   6.158   0.666   0.299
  382SOL    HW2 2046   6.126   0.822   0.262
  383SOL     OW 2047   4.008   3.248   6.696
  383SOL    HW1 2048   4.101   3.263   6.729
  383SOL    HW2 2049   4.008   3.244   6.596
  384SOL     OW 2050   6.344   5.217   4.642
  384SOL    HW1 2051   6.285   5.247   4.717
  384SOL    HW2 2052   6.323   5.271   4.561
  385SOL     OW 2053   3.062   4.738   5.347
  385SOL    HW1 2054   3.127   4.701   5.413
  385SOL    HW2 2055   3.006   4.664   5.310
  386SOL     OW 2056   2.948   6.734   4.145
  386SOL    HW1 2057   2.892   6.668   4.095
  386SOL    HW2 2058   3.007   6.686   4.210
  387SOL     OW 2059   1.135   6.341   2.817
  387SOL    HW1 2060   1.173   6.425   2.779
  387SOL    HW2 2061   1.156   6.264   2.757
  388SOL     OW 2062   1.280   2.651   5.360
  388SOL    HW1 2063   1.223   2.570   5.352
  388SOL    HW2 2064   1.354   2.647   5.292
  389SOL     OW 2065   3.797   3.639   1.777
  389SOL    HW1 2066   3.769   3.701   1.704
  389SOL    HW2 2067   3.764   3.674   1.865
  390SOL     OW 2068   2.610   1.786   2.354
  390SOL    HW1 2069   2.613   1.884   2.370
  390SOL    HW2 2070   2.631   1.738   2.440
  391SOL     OW 2071   2.413   1.904   6.352
  391SOL    HW1 2072   2.500   1.946   6.325
  391SOL    HW2 2073   2.430   1.834   6.421
  392SOL     OW 2074   1.571   4.921   0.706
  392SOL    HW1 2075   1.608   4.835   0.671
  392SOL    HW2 2076   1.586   4.993   0.639
  393SOL     OW 2077   1.228   4.310   6.398
  393SOL    HW1 2078   1.213   4.404   6.428
  393SOL    HW2 2079   1.217   4.248   6.476
  394SOL     OW 2080   6.783   1.796   0.066
  394SOL    HW1 2081   6.702   1.784   0.123
  394SOL    HW2 2082   6.759   1.782   6.992
  395SOL     OW 2083   5.009   3.545   2.891
  395SOL    HW1 2084   5.004   3.643   2.872
  395SOL    HW2 2085   5.075   3.529   2.965
  396SOL     OW 2086   3.537   3.920   1.343
  396SOL    HW1 2087   3.604   3.952   1.276
  396SOL    HW2 2088   3.525   3.821   1.333
  397SOL     OW 2089   5.329   1.332   5.981
  397SOL    HW1 2090   5.267   1.385   6.039
  397SOL    HW2 2091   5.420   1.329   6.023
  398SOL     OW 2092   0.750   6.330   2.530
  398SOL    HW1 2093   0.781   6.415   2.488
  398SOL    HW2 2094   0.755   6.339   2.630
  399SOL     OW 2095   6.246   5.871   2.725
  399SOL    HW1 2096   6.223   5.874   2.628
  399SOL    HW2 2097   6.175   5.821   2.774
  400SOL     OW 2098   6.708   6.854   5.880
  400SOL    HW1 2099   6.753   6.791   5.816
  400SOL    HW2 2100   6.776   6.915   5.919
  401SOL     OW 2101   5.360   0.625   5.708
  401SOL    HW1 2102   5.448   0.667   5.685
  401SOL    HW2 2103   5.307   0.689   5.764
  402SOL     OW 2104   5.685   0.000   3.243
  402SOL    HW1 2105   5.709   0.094   3.268
  402SOL    HW2 2106   5.677   7.014   3.144
  403SOL     OW 2107   3.997   2.105   4.042
  403SOL    HW1 2108   4.004   2.017   3.995
  403SOL    HW2 2109   3.903   2.137   4.040
  404SOL     OW 2110   1.484   5.254   4.353
  404SOL    HW1 2111   1.431   5.339   4.350
  404SOL    HW2 2112   1.573   5.271   4.395
  405SOL     OW 2113   1.695   3.851   1.728
  405SOL    HW1 2114   1.762   3.785   1.762
  405SOL    HW2 2115   1.621   3.860   1.794
  406SOL     OW 2116   1.010   4.900   4.723
  406SOL    HW1 2117   1.018   4.908   4.623
  406SOL    HW2 2118   1.059   4.818   4.753
  407SOL     OW 2119   1.380   0.795   4.027
  407SOL    HW1 2120   1.470   0.782   3.985
  407SOL    HW2 2121   1.332   0.869   3.980
  408SOL     OW 2122   1.369   2.312   2.773
  408SOL    HW1 2123   1.343   2.290   2.867
  408SOL    HW2 2124   1.342   2.405   2.752
  409SOL     OW 2125   6.796   3.035   1.724
  409SOL    HW1 2126   6.878   3.082   1.755
  409SOL    HW2 2127   6.721   3.100   1.713
  410SOL     OW 2128   1.827   1.672   1.577
  410SOL    HW1 2129   1.796   1.638   1.665
  410SOL    HW2 2130   1.921   1.706   1.586
  411SOL     OW 2131   5.534   0.112   1.763
  411SOL    HW1 2132   5.531   0.174   1.841
  411SOL    HW2 2133   5.466   0.140   1.695
  412SOL     OW 2134   4.631   5.904   4.126
  412SOL    HW1 2135   4.686   5.833   4.082
  412SOL    HW2 2136   4.608   5.975   4.060
  413SOL     OW 2137   5.141   3.936   1.870
  413SOL    HW1 2138   5.170   4.013   1.813
  413SOL    HW2 2139   5.043   3.943   1.888
  414SOL     OW 2140   3.406   5.672   3.265
  414SOL    HW1 2141   3.341   5.729   3.215
  414SOL    HW2 2142   3.500   5.698   3.240
  415SOL     OW 2143   0.880   6.341   6.757
  415SOL    HW1 2144   0.872   6.241   6.761
  415SOL    HW2 2145   0.794   6.382   6.789
  416SOL     OW 2146   4.964   6.636   4.026
  416SOL    HW1 2147   4.871   6.670   4.013
  416SOL    HW2 2148   4.987   6.574   3.951
  417SOL     OW 2149   2.739   5.414   6.423
  417SOL    HW1 2150   2.656   5.368   6.454
  417SOL    HW2 2151   2.735   5.428   6.324
  418SOL     OW 2152   4.233   6.527   0.205
  418SOL    HW1 2153   4.263   6.438   0.240
  418SOL    HW2 2154   4.287   6.599   0.247
  419SOL     OW 2155   2.102   0.105   1.772
  419SOL    HW1 2156   2.106   0.092   1.871
  419SOL    HW2 2157   2.188   0.144   1.740
  420SOL     OW 2158   5.624   1.375   0.155
  420SOL    HW1 2159   5.624   1.289   0.104
  420SOL    HW2 2160   5.717   1.408   0.166
  421SOL     OW 2161   6.765   4.367   5.946
  421SOL    HW1 2162   6.776   4.318   5.859
  421SOL    HW2 2163   6.826   4.446   5.948
  422SOL     OW 2164   6.082   3.436   1.355
  422SOL    HW1 2165   6.090   3.419   1.453
  422SOL    HW2 2166   6.143   3.374   1.305
  423SOL     OW 2167   0.961   2.059   6.297
  423SOL    HW1 2168   1.057   2.031   6.294
  423SOL    HW2 2169   0.954   2.148   6.341
  424SOL     OW 2170   2.128   4.785   0.838
  424SOL    HW1 2171   2.215   4.743   0.810
  424SOL    HW2 2172   2.110   4.764   0.934
  425SOL     OW 2173   5.464   1.660   3.418
  425SOL    HW1 2174   5.559   1.637   3.398
  425SOL    HW2 2175   5.417   1.578   3.452
  426SOL     OW 2176   3.685   2.127   4.795
  426SOL    HW1 2177   3.638   2.087   4.874
  426SOL    HW2 2178   3.781   2.145   4.818
  427SOL     OW 2179   5.399   6.450   3.516
  427SOL    HW1 2180   5.438   6.531   3.560
  427SOL    HW2 2181   5.436   6.441   3.424
  428SOL     OW 2182   3.945   0.205   4.986
  428SOL    HW1 2183   3.863   0.256   4.959
  428SOL    HW2 2184   3.999   0.261   5.049
  429SOL     OW 2185   1.361   3.856   1.149
  429SOL    HW1 2186   1.374   3.863   1.050
  429SOL    HW2 2187   1.277   3.905   1.175
  430SOL     OW 2188   0.746   0.638   5.065
  430SOL    HW1 2189   0.825   0.696   5.041
  430SOL    HW2 2190   0.680   0.641   4.990
  431SOL     OW 2191   3.288   7.013   1.055
  431SOL    HW1 2192   3.359   7.001   0.986
  431SOL    HW2 2193   3.292   0.085   1.091
  432SOL     OW 2194   6.577   1.618   0.470
  432SOL    HW1 2195   6.665   1.649   0.505
  432SOL    HW2 2196   6.570   1.519   0.481
  433SOL     OW 2197   2.588   6.758   4.981
  433SOL    HW1 2198   2.528   6.771   4.903
  433SOL    HW2 2199   2.593   6.661   5.004
  434SOL     OW 2200   3.085   6.023   3.005
  434SOL    HW1 2201   3.056   5.979   2.920
  434SOL    HW2 2202   3.016   6.008   3.075
  435SOL     OW 2203   5.134   2.613   6.921
  435SOL    HW1 2204   5.096   2.522   6.904
  435SOL    HW2 2205   5.234   2.606   6.929
  436SOL     OW 2206   2.989   6.233   1.503
  436SOL    HW1 2207   2.898   6.271   1.517
  436SOL    HW2 2208   3.007   6.161   1.570
  437SOL     OW 2209   0.876   1.413   0.275
  437SOL    HW1 2210   0.800   1.444   0.218
  437SOL    HW2 2211   0.945   1.485   0.280
  438SOL     OW 2212   1.585   3.924   3.509
  438SOL    HW1 2213   1.584   3.890   3.415
  438SOL    HW2 2214   1.648   4.001   3.516
  439SOL     OW 2215   5.374   4.928   2.730
  439SOL    HW1 2216   5.383   4.980   2.645
  439SOL    HW2 2217   5.420   4.978   2.804
  440SOL     OW 2218   2.152   1.343   4.938
  440SOL    HW1 2219   2.199   1.383   4.859
  440SOL    HW2 2220   2.145   1.412   5.010
  441SOL     OW 2221   0.649   3.014   3.945
  441SOL    HW1 2222   0.627   2.929   3.897
  441SOL    HW2 2223   0.586   3.025   4.022
  442SOL     OW 2224   3.439   5.481   5.453
  442SOL    HW1 2225   3.515   5.508   5.395
  442SOL    HW2 2226   3.437   5.539   5.534
  443SOL     OW 2227   5.922   4.533   4.380
  443SOL    HW1 2228   6.013   4.492   4.385
  443SOL    HW2 2229   5.853   4.461   4.369
  444SOL     OW 2230   4.887   1.038   5.860
  444SOL    HW1 2231   4.833   0.958   5.883
  444SOL    HW2 2232   4.922   1.080   5.944
  445SOL     OW 2233   0.849   5.820   2.842
  445SOL    HW1 2234   0.941   5.792   2.814
  445SOL    HW2 2235   0.844   5.825   2.941
  446SOL     OW 2236   2.569   5.888   4.045
  446SOL    HW1 2237   2.585   5.854   4.138
  446SOL    HW2 2238   2.604   5.822   3.979
  447SOL     OW 2239   0.524   2.910   6.063
  447SOL    HW1 2240   0.516   2.938   6.159
  447SOL    HW2 2241   0.614   2.936   6.028
  448SOL     OW 2242   2.097   0.614   3.149
  448SOL    HW1 2243   2.069   0.519   3.136
  448SOL    HW2 2244   2.164   0.639   3.080
  449SOL     OW 2245   3.986   0.940   3.899
  449SOL    HW1 2246   3.970   0.956   3.996
  449SOL    HW2 2247   4.072   0.890   3.887
  450SOL     OW 2248   1.161   5.427   3.025
  450SOL    HW1 2249   1.235   5.393   2.967
  450SOL    HW2 2250   1.120   5.351   3.076
  451SOL     OW 2251   1.586   2.222   3.057
  451SOL    HW1 2252   1.572   2.284   3.135
  451SOL    HW2 2253   1.517   2.150   3.059
  452SOL     OW 2254   5.769   6.860   0.473
  452SOL    HW1 2255   5.731   6.791   0.411
  452SOL    HW2 2256   5.866   6.843   0.487
  453SOL     OW 2257   4.192   0.802   5.982
  453SOL    HW1 2258   4.099   0.816   5.951
  453SOL    HW2 2259   4.213   0.867   6.055
  454SOL     OW 2260   6.736   4.704   6.350
  454SOL    HW1 2261   6.661   4.766   6.370
  454SOL    HW2 2262   6.734   4.679   6.253
  455SOL     OW 2263   6.081   2.250   3.161
  455SOL    HW1 2264   6.067   2.244   3.062
  455SOL    HW2 2265   6.009   2.200   3.208
  456SOL     OW 2266   6.183   6.605   3.681
  456SOL    HW1 2267   6.131   6.610   3.767
  456SOL    HW2 2268   6.169   6.515   3.639
  457SOL     OW 2269   1.713   2.292   3.987
  457SOL    HW1 2270   1.621   2.254   3.976
  457SOL    HW2 2271   1.712   2.364   4.056
  458SOL     OW 2272   4.493   5.849   3.003
  458SOL    HW1 2273   4.477   5.879   2.909
  458SOL    HW2 2274   4.588   5.869   3.029
  459SOL     OW 2275   1.817   6.189   5.435
  459SOL    HW1 2276   1.758   6.250   5.487
  459SOL    HW2 2277   1.908   6.231   5.427
  460SOL     OW 2278   2.379   6.536   3.974
  460SOL    HW1 2279   2.447   6.522   4.046
  460SOL    HW2 2280   2.289   6.508   4.009
  461SOL     OW 2281   6.476   6.389   6.609
  461SOL    HW1 2282   6.509   6.465   6.664
  461SOL    HW2 2283   6.503   6.302   6.651
  462SOL     OW 2284   4.033   3.385   0.039
  462SOL    HW1 2285   4.052   3.288   0.030
  462SOL    HW2 2286   4.079   3.422   0.120
  463SOL     OW 2287   5.380   5.862   3.217
  463SOL    HW1 2288   5.291   5.850   3.173
  463SOL    HW2 2289   5.370   5.844   3.315
  464SOL     OW 2290   2.475   1.536   5.458
  464SOL    HW1 2291   2.478   1.447   5.413
  464SOL    HW2 2292   2.423   1.600   5.403
  465SOL     OW 2293   0.406   3.015   0.047
  465SOL    HW1 2294   0.470   2.974   7.003
  465SOL    HW2 2295   0.457   3.063   0.118
  466SOL     OW 2296   1.208   6.441   3.230
  466SOL    HW1 2297   1.262   6.508   3.280
  466SOL    HW2 2298   1.181   6.479   3.142
  467SOL     OW 2299   1.634   1.100   0.818
  467SOL    HW1 2300   1.655   1.198   0.826
  467SOL    HW2 2301   1.703   1.047   0.868
  468SOL     OW 2302   3.619   0.299   6.229
  468SOL    HW1 2303   3.666   0.367   6.285
  468SOL    HW2 2304   3.584   0.226   6.287
  469SOL     OW 2305   2.942   3.035   6.455
  469SOL    HW1 2306   3.023   3.090   6.474
  469SOL    HW2 2307   2.860   3.093   6.457
  470SOL     OW 2308   4.505   6.393   1.845
  470SOL    HW1 2309   4.412   6.414   1.876
  470SOL    HW2 2310   4.567   6.466   1.874
  471SOL     OW 2311   2.496   2.616   3.547
  471SOL    HW1 2312   2.579   2.572   3.514
  471SOL    HW2 2313   2.418   2.585   3.493
  472SOL     OW 2314   4.564   3.607   6.720
  472SOL    HW1 2315   4.467   3.588   6.703
  472SOL    HW2 2316   4.596   3.551   6.796
  473SOL     OW 2317   1.252   2.963   2.759
  473SOL    HW1 2318   1.203   2.878   2.737
  473SOL    HW2 2319   1.312   2.988   2.684
  474SOL     OW 2320   5.309   4.898   4.380
  474SOL    HW1 2321   5.259   4.972   4.334
  474SOL    HW2 2322   5.372   4.855   4.315
  475SOL     OW 2323   6.202   1.241   6.430
  475SOL    HW1 2324   6.183   1.226   6.526
  475SOL    HW2 2325   6.156   1.171   6.375
  476SOL     OW 2326   0.531   3.255   3.304
  476SOL    HW1 2327   0.484   3.241   3.391
  476SOL    HW2 2328   0.610   3.316   3.318
  477SOL     OW 2329   2.537   6.354   3.340
  477SOL    HW1 2330   2.625   6.371   3.385
  477SOL    HW2 2331   2.469   6.418   3.376
  478SOL     OW 2332   3.427   6.206   2.302
  478SOL    HW1 2333   3.429   6.294   2.349
  478SOL    HW2 2334   3.332   6.172   2.299
  479SOL     OW 2335   4.555   1.690   5.930
  479SOL    HW1 2336   4.581   1.605   5.883
  479SOL    HW2 2337   4.457   1.704   5.921
  480SOL     OW 2338   2.878   0.665   0.034
  480SOL    HW1 2339   2.849   0.666   6.960
  480SOL    HW2 2340   2.941   0.740   0.051
  481SOL     OW 2341   2.124   6.885   1.251
  481SOL    HW1 2342   2.078   6.886   1.162
  481SOL    HW2 2343   2.133   6.978   1.285
  482SOL     OW 2344   4.110   4.791   2.234
  482SOL    HW1 2345   4.052   4.795   2.316
  482SOL    HW2 2346   4.179   4.720   2.245
  483SOL     OW 2347   6.279   1.751   2.118
  483SOL    HW1 2348   6.288   1.658   2.154
  483SOL    HW2 2349   6.341   1.812   2.167
  484SOL     OW 2350   1.927   3.420   4.668
  484SOL    HW1 2351   1.851   3.448   4.728
  484SOL    HW2 2352   1.928   3.320   4.662
  485SOL     OW 2353   3.797   5.646   2.903
  485SOL    HW1 2354   3.711   5.674   2.862
  485SOL    HW2 2355   3.861   5.723   2.901
  486SOL     OW 2356   6.848   1.380   0.679
  486SOL    HW1 2357   6.833   1.282   0.665
  486SOL    HW2 2358   6.934   1.407   0.637
  487SOL     OW 2359   0.819   0.817   2.831
  487SOL    HW1 2360   0.813   0.902   2.777
  487SOL    HW2 2361   0.892   0.760   2.793
  488SOL     OW 2362   0.546   1.394   1.705
  488SOL    HW1 2363   0.569   1.309   1.751
  488SOL    HW2 2364   0.466   1.435   1.748
  489SOL     OW 2365   4.019   6.263   6.034
  489SOL    HW1 2366   4.017   6.179   5.979
  489SOL    HW2 2367   4.012   6.343   5.974
  490SOL     OW 2368   0.460   5.978   3.014
  490SOL    HW1 2369   0.460   6.077   2.998
  490SOL    HW2 2370   0.393   5.955   3.085
  491SOL     OW 2371   1.117   3.974   2.386
  491SOL    HW1 2372   1.109   3.882   2.349
  491SOL    HW2 2373   1.026   4.008   2.410
  492SOL     OW 2374   1.330   0.270   4.757
  492SOL    HW1 2375   1.309   0.210   4.679
  492SOL    HW2 2376   1.357   0.360   4.723
  493SOL     OW 2377   5.035   6.130   5.578
  493SOL    HW1 2378   5.085   6.157   5.496
  493SOL    HW2 2379   5.095   6.079   5.639
  494SOL     OW 2380   0.587   6.702   0.207
  494SOL    HW1 2381   0.519   6.719   0.137
  494SOL    HW2 2382   0.679   6.719   0.170
  495SOL     OW 2383   4.781   5.835   3.709
  495SOL    HW1 2384   4.756   5.739   3.724
  495SOL    HW2 2385   4.825   5.872   3.791
  496SOL     OW 2386   4.932   2.735   1.643
  496SOL    HW1 2387   5.001   2.713   1.712
  496SOL    HW2 2388   4.976   2.746   1.554
  497SOL     OW 2389   2.685   1.655   4.800
  497SOL    HW1 2390   2.632   1.739   4.790
  497SOL    HW2 2391   2.640   1.581   4.750
  498SOL     OW 2392   0.920   4.656   1.462
  498SOL    HW1 2393   0.867   4.571   1.456
  498SOL    HW2 2394   0.983   4.651   1.540
  499SOL     OW 2395   1.709   5.970   4.285
  499SOL    HW1 2396   1.617   5.933   4.297
  499SOL    HW2 2397   1.715   6.018   4.198
  500SOL     OW 2398   0.323   2.739   5.707
  500SOL    HW1 2399   0.307   2.826   5.754
  500SOL    HW2 2400   0.395   2.688   5.754
  501SOL     OW 2401   3.050   6.694   0.873
  501SOL    HW1 2402   3.105   6.707   0.791
  501SOL    HW2 2403   3.030   6.597   0.885
  502SOL     OW 2404   1.076   3.816   6.296
  502SOL    HW1 2405   1.136   3.844   6.222
  502SOL    HW2 2406   1.042   3.723   6.280
  503SOL     OW 2407   0.304   5.283   6.671
  503SOL    HW1 2408   0.307   5.372   6.627
  503SOL    HW2 2409   0.389   5.268   6.723
  504SOL     OW 2410   1.121   4.838   2.507
  504SOL    HW1 2411   1.172   4.791   2.578
  504SOL    HW2 2412   1.113   4.935   2.530
  505SOL     OW 2413   2.920   6.080   5.353
  505SOL    HW1 2414   2.993   6.137   5.314
  505SOL    HW2 2415   2.888   6.015   5.284
  506SOL     OW 2416   2.798   4.872   4.009
  506SOL    HW1 2417   2.793   4.780   4.048
  506SOL    HW2 2418   2.885   4.914   4.036
  507SOL     OW 2419   3.584   6.797   3.412
  507SOL    HW1 2420   3.553   6.835   3.325
  507SOL    HW2 2421   3.554   6.856   3.487
  508SOL     OW 2422   6.395   3.514   2.931
  508SOL    HW1 2423   6.485   3.557   2.933
  508SOL    HW2 2424   6.394   3.436   2.993
  509SOL     OW 2425   2.763   1.220   1.049
  509SOL    HW1 2426   2.734   1.150   1.114
  509SOL    HW2 2427   2.836   1.275   1.090
  510SOL     OW 2428   6.575   4.097   6.599
  510SOL    HW1 2429   6.533   4.136   6.517
  510SOL    HW2 2430   6.550   4.152   6.678
  511SOL     OW 2431   1.362   2.256   6.252
  511SOL    HW1 2432   1.302   2.178   6.268
  511SOL    HW2 2433   1.343   2.327   6.321
  512SOL     OW 2434   6.660   2.894   6.519
  512SOL    HW1 2435   6.692   2.815   6.572
  512SOL    HW2 2436   6.576   2.869   6.471
  513SOL     OW 2437   5.944   6.870   3.375
  513SOL    HW1 2438   5.938   6.825   3.286
  513SOL    HW2 2439   5.951   6.969   3.362
  514SOL     OW 2440   6.358   1.490   4.158
  514SOL    HW1 2441   6.348   1.490   4.257
  514SOL    HW2 2442   6.300   1.419   4.118
  515SOL     OW 2443   0.938   6.983   0.059
  515SOL    HW1 2444   0.857   0.015   0.084
  515SOL    HW2 2445   0.991   6.963   0.141
  516SOL     OW 2446   2.878   4.866   2.006
  516SOL    HW1 2447   2.806   4.921   2.049
  516SOL    HW2 2448   2.851   4.770   2.007
  517SOL     OW 2449   4.347   5.606   1.391
  517SOL    HW1 2450   4.297   5.671   1.333
  517SOL    HW2 2451   4.444   5.608   1.368
  518SOL     OW 2452   2.837   1.946   3.272
  518SOL    HW1 2453   2.886   2.033   3.267
  518SOL    HW2 2454   2.869   1.894   3.351
  519SOL     OW 2455   0.359   6.365   4.384
  519SOL    HW1 2456   0.395   6.275   4.411
  519SOL    HW2 2457   0.296   6.354   4.307
  520SOL     OW 2458   5.780   3.535   6.786
  520SOL    HW1 2459   5.798   3.437   6.773
  520SOL    HW2 2460   5.709   3.546   6.856
  521SOL     OW 2461   6.353   5.594   5.247
  521SOL    HW1 2462   6.356   5.512   5.190
  521SOL    HW2 2463   6.271   5.647   5.225
  522SOL     OW 2464   3.567   3.457   4.737
  522SOL    HW1 2465   3.652   3.486   4.692
  522SOL    HW2 2466   3.494   3.521   4.715
  523SOL     OW 2467   1.045   5.966   1.600
  523SOL    HW1 2468   1.026   6.055   1.642
  523SOL    HW2 2469   1.109   5.914   1.658
  524SOL     OW 2470   0.256   1.810   2.821
  524SOL    HW1 2471   0.175   1.753   2.836
  524SOL    HW2 2472   0.281   1.807   2.724
  525SOL     OW 2473   2.183   3.794   5.981
  525SOL    HW1 2474   2.085   3.799   5.998
  525SOL    HW2 2475   2.199   3.780   5.883
  526SOL     OW 2476   4.114   5.934   3.967
  526SOL    HW1 2477   4.047   6.006   3.982
  526SOL    HW2 2478   4.076   5.866   3.904
  527SOL     OW 2479   5.697   3.018   0.743
  527SOL    HW1 2480   5.696   3.111   0.707
  527SOL    HW2 2481   5.605   2.995   0.777
  528SOL     OW 2482   0.999   2.248   3.805
  528SOL    HW1 2483   1.083   2.213   3.765
  528SOL    HW2 2484   1.020   2.320   3.871
  529SOL     OW 2485   1.187   6.596   5.047
  529SOL    HW1 2486   1.245   6.559   5.120
  529SOL    HW2 2487   1.228   6.574   4.958
  530SOL     OW 2488   3.408   3.296   4.512
  530SOL    HW1 2489   3.455   3.229   4.569
  530SOL    HW2 2490   3.309   3.288   4.525
  531SOL     OW 2491   0.618   1.978   3.108
  531SOL    HW1 2492   0.695   2.039   3.125
  531SOL    HW2 2493   0.551   2.025   3.049
  532SOL     OW 2494   0.445   3.131   6.655
  532SOL    HW1 2495   0.524   3.091   6.608
  532SOL    HW2 2496   0.475   3.213   6.706
  533SOL     OW 2497   3.963   6.192   4.218
  533SOL    HW1 2498   4.000   6.210   4.127
  533SOL    HW2 2499   3.888   6.126   4.210
  534SOL     OW 2500   5.537   6.163   2.036
  534SOL    HW1 2501   5.634   6.145   2.020
  534SOL    HW2 2502   5.516   6.152   2.133
  535SOL     OW 2503   0.037   3.355   4.674
  535SOL    HW1 2504   0.038   3.454   4.692
  535SOL    HW2 2505   6.988   3.334   4.607
  536SOL     OW 2506   6.216   4.764   2.014
  536SOL    HW1 2507   6.269   4.774   1.930
  536SOL    HW2 2508   6.208   4.853   2.059
  537SOL     OW 2509   2.666   6.583   4.604
  537SOL    HW1 2510   2.747   6.549   4.652
  537SOL    HW2 2511   2.690   6.606   4.510
  538SOL     OW 2512   0.789   4.864   3.592
  538SOL    HW1 2513   0.712   4.914   3.552
  538SOL    HW2 2514   0.828   4.918   3.667
  539SOL     OW 2515   1.527   5.914   1.091
  539SOL    HW1 2516   1.550   5.818   1.073
  539SOL    HW2 2517   1.439   5.935   1.048
  540SOL     OW 2518   1.931   1.062   2.772
  540SOL    HW1 2519   1.990   0.983   2.764
  540SOL    HW2 2520   1.954   1.129   2.701
  541SOL     OW 2521   4.997   5.471   3.822
  541SOL    HW1 2522   4.901   5.497   3.813
  541SOL    HW2 2523   5.004   5.386   3.875
  542SOL     OW 2524   6.234   6.093   6.536
  542SOL    HW1 2525   6.249   6.192   6.536
  542SOL    HW2 2526   6.208   6.064   6.444
  543SOL     OW 2527   0.960   3.438   5.203
  543SOL    HW1 2528   0.903   3.364   5.239
  543SOL    HW2 2529   1.038   3.399   5.153
  544SOL     OW 2530   2.241   4.865   0.156
  544SOL    HW1 2531   2.221   4.861   0.254
  544SOL    HW2 2532   2.165   4.826   0.104
  545SOL     OW 2533   3.145   1.623   1.743
  545SOL    HW1 2534   3.082   1.546   1.737
  545SOL    HW2 2535   3.191   1.635   1.655
  546SOL     OW 2536   2.149   3.126   0.790
  546SOL    HW1 2537   2.073   3.065   0.764
  546SOL    HW2 2538   2.235   3.076   0.783
  547SOL     OW 2539   3.422   0.771   0.270
  547SOL    HW1 2540   3.325   0.791   0.284
  547SOL    HW2 2541   3.473   0.794   0.352
  548SOL     OW 2542   3.580   3.409   2.191
  548SOL    HW1 2543   3.634   3.492   2.204
  548SOL    HW2 2544   3.524   3.392   2.272
  549SOL     OW 2545   5.228   2.920   1.363
  549SOL    HW1 2546   5.158   2.975   1.319
  549SOL    HW2 2547   5.201   2.824   1.362
  550SOL     OW 2548   0.679   5.612   3.735
  550SOL    HW1 2549   0.646   5.625   3.828
  550SOL    HW2 2550   0.601   5.595   3.674
  551SOL     OW 2551   0.840   0.391   2.672
  551SOL    HW1 2552   0.901   0.315   2.692
  551SOL    HW2 2553   0.776   0.404   2.747
  552SOL     OW 2554   5.631   4.422   6.947
  552SOL    HW1 2555   5.695   4.345   6.938
  552SOL    HW2 2556   5.683   4.506   6.964
  553SOL     OW 2557   2.824   6.788   2.434
  553SOL    HW1 2558   2.741   6.843   2.427
  553SOL    HW2 2559   2.800   6.691   2.439
  554SOL     OW 2560   5.789   0.213   6.642
  554SOL    HW1 2561   5.766   0.150   6.716
  554SOL    HW2 2562   5.707   0.231   6.587
  555SOL     OW 2563   1.654   4.917   3.749
  555SOL    HW1 2564   1.672   4.985   3.821
  555SOL    HW2 2565   1.596   4.844   3.786
  556SOL     OW 2566   4.290   2.277   3.294
  556SOL    HW1 2567   4.338   2.334   3.228
  556SOL    HW2 2568   4.325   2.183   3.288
  557SOL     OW 2569   0.125   5.244   0.674
  557SOL    HW1 2570   0.110   5.343   0.677
  557SOL    HW2 2571   0.148   5.211   0.766
  558SOL     OW 2572   3.130   3.019   4.655
  558SOL    HW1 2573   3.037   3.020   4.691
  558SOL    HW2 2574   3.195   3.010   4.730
  559SOL     OW 2575   6.513   6.072   6.952
  559SOL    HW1 2576   6.493   6.101   6.858
  559SOL    HW2 2577   6.534   5.974   6.952
  560SOL     OW 2578   4.738   4.760   6.786
  560SOL    HW1 2579   4.837   4.757   6.772
  560SOL    HW2 2580   4.707   4.671   6.820
  561SOL     OW 2581   0.758   1.491   1.430
  561SOL    HW1 2582   0.695   1.441   1.490
  561SOL    HW2 2583   0.720   1.582   1.411
  562SOL     OW 2584   5.058   0.445   6.040
  562SOL    HW1 2585   5.058   0.542   6.064
  562SOL    HW2 2586   5.111   0.394   6.108
  563SOL     OW 2587   2.401   1.033   3.700
  563SOL    HW1 2588   2.360   0.968   3.763
  563SOL    HW2 2589   2.497   1.009   3.684
  564SOL     OW 2590   1.554   2.021   0.082
  564SOL    HW1 2591   1.629   2.014   0.017
  564SOL    HW2 2592   1.489   1.946   0.068
  565SOL     OW 2593   3.814   2.833   5.240
  565SOL    HW1 2594   3.782   2.861   5.149
  565SOL    HW2 2595   3.736   2.831   5.303
  566SOL     OW 2596   0.116   5.088   3.771
  566SOL    HW1 2597   0.172   5.167   3.744
  566SOL    HW2 2598   0.035   5.120   3.820
  567SOL     OW 2599   2.787   2.825   1.489
  567SOL    HW1 2600   2.829   2.737   1.512
  567SOL    HW2 2601   2.763   2.826   1.392
  568SOL     OW 2602   4.612   1.666   0.153
  568SOL    HW1 2603   4.535   1.684   0.215
  568SOL    HW2 2604   4.688   1.727   0.176
  569SOL     OW 2605   1.793   3.176   6.441
  569SOL    HW1 2606   1.711   3.205   6.491
  569SOL    HW2 2607   1.862   3.144   6.506
  570SOL     OW 2608   3.216   6.457   6.829
  570SOL    HW1 2609   3.267   6.486   6.748
  570SOL    HW2 2610   3.212   6.533   6.894
  571SOL     OW 2611   3.061   0.272   1.745
  571SOL    HW1 2612   2.989   0.207   1.766
  571SOL    HW2 2613   3.119   0.285   1.825
  572SOL     OW 2614   2.749   4.805   5.515
  572SOL    HW1 2615   2.849   4.801   5.520
  572SOL    HW2 2616   2.716   4.729   5.459
  573SOL     OW 2617   5.451   1.848   5.641
  573SOL    HW1 2618   5.429   1.783   5.569
  573SOL    HW2 2619   5.446   1.802   5.730
  574SOL     OW 2620   3.271   1.773   3.947
  574SOL    HW1 2621   3.269   1.757   4.046
  574SOL    HW2 2622   3.256   1.686   3.899
  575SOL     OW 2623   5.105   3.870   0.264
  575SOL    HW1 2624   5.110   3.781   0.311
  575SOL    HW2 2625   5.048   3.932   0.318
  576SOL     OW 2626   1.094   1.846   2.951
  576SOL    HW1 2627   1.097   1.909   3.029
  576SOL    HW2 2628   1.023   1.777   2.967
  577SOL     OW 2629   1.400   1.294   2.511
  577SOL    HW1 2630   1.373   1.388   2.491
  577SOL    HW2 2631   1.428   1.249   2.427
  578SOL     OW 2632   5.566   5.658   3.521
  578SOL    HW1 2633   5.489   5.704   3.476
  578SOL    HW2 2634   5.633   5.726   3.551
  579SOL     OW 2635   1.968   2.755   2.606
  579SOL    HW1 2636   1.893   2.703   2.564
  579SOL    HW2 2637   1.959   2.752   2.706
  580SOL     OW 2638   6.394   5.279   0.445
  580SOL    HW1 2639   6.332   5.274   0.523
  580SOL    HW2 2640   6.426   5.188   0.421
  581SOL     OW 2641   2.976   3.306   2.043
  581SOL    HW1 2642   2.953   3.212   2.019
  581SOL    HW2 2643   2.962   3.365   1.963
  582SOL     OW 2644   4.587   6.883   2.189
  582SOL    HW1 2645   4.540   6.957   2.141
  582SOL    HW2 2646   4.683   6.882   2.162
  583SOL     OW 2647   2.943   4.844   5.936
  583SOL    HW1 2648   3.010   4.795   5.991
  583SOL    HW2 2649   2.870   4.878   5.995
  584SOL     OW 2650   3.078   4.032   6.024
  584SOL    HW1 2651   3.041   3.990   5.941
  584SOL    HW2 2652   3.178   4.040   6.015
  585SOL     OW 2653   5.474   2.941   6.365
  585SOL    HW1 2654   5.396   3.003   6.361
  585SOL    HW2 2655   5.468   2.886   6.449
  586SOL     OW 2656   3.729   1.661   5.708
  586SOL    HW1 2657   3.733   1.572   5.662
  586SOL    HW2 2658   3.639   1.701   5.695
  587SOL     OW 2659   4.162   1.224   5.763
  587SOL    HW1 2660   4.147   1.177   5.850
  587SOL    HW2 2661   4.078   1.271   5.735
  588SOL     OW 2662   2.034   4.886   1.694
  588SOL    HW1 2663   1.962   4.932   1.641
  588SOL    HW2 2664   2.046   4.932   1.782
  589SOL     OW 2665   3.100   4.841   1.404
  589SOL    HW1 2666   3.043   4.920   1.427
  589SOL    HW2 2667   3.121   4.844   1.306
  590SOL     OW 2668   4.893   3.531   3.311
  590SOL    HW1 2669   4.861   3.456   3.253
  590SOL    HW2 2670   4.993   3.529   3.316
  591SOL     OW 2671   4.171   5.556   4.113
  591SOL    HW1 2672   4.145   5.581   4.206
  591SOL    HW2 2673   4.102   5.495   4.074
  592SOL     OW 2674   3.490   0.924   1.440
  592SOL    HW1 2675   3.564   0.953   1.500
  592SOL    HW2 2676   3.483   0.986   1.362
  593SOL     OW 2677   4.991   2.310   3.232
  593SOL    HW1 2678   4.959   2.326   3.138
  593SOL    HW2 2679   4.961   2.385   3.290
  594SOL     OW 2680   6.243   2.440   6.718
  594SOL    HW1 2681   6.338   2.408   6.717
  594SOL    HW2 2682   6.203   2.423   6.808
  595SOL     OW 2683   5.911   6.677   3.596
  595SOL    HW1 2684   5.860   6.749   3.642
  595SOL    HW2 2685   6.008   6.684   3.620
  596SOL     OW 2686   1.770   4.634   2.996
  596SOL    HW1 2687   1.716   4.578   2.933
  596SOL    HW2 2688   1.763   4.596   3.088
  597SOL     OW 2689   3.805   0.047   0.176
  597SOL    HW1 2690   3.746   6.997   0.138
  597SOL    HW2 2691   3.895   0.009   0.197
  598SOL     OW 2692   3.838   4.891   5.588
  598SOL    HW1 2693   3.829   4.838   5.504
  598SOL    HW2 2694   3.841   4.828   5.666
  599SOL     OW 2695   2.555   6.343   2.187
  599SOL    HW1 2696   2.501   6.387   2.116
  599SOL    HW2 2697   2.495   6.312   2.261
  600SOL     OW 2698   0.631   0.946   0.091
  600SOL    HW1 2699   0.611   1.031   0.041
  600SOL    HW2 2700   0.588   0.949   0.181
  601SOL     OW 2701   2.950   0.180   4.372
  601SOL    HW1 2702   2.990   0.256   4.320
  601SOL    HW2 2703   2.960   0.096   4.320
  602SOL     OW 2704   2.574   2.522   6.245
  602SOL    HW1 2705   2.648   2.508   6.180
  602SOL    HW2 2706   2.584   2.612   6.287
  603SOL     OW 2707   3.413   2.159   3.812
  603SOL    HW1 2708   3.388   2.206   3.896
  603SOL    HW2 2709   3.330   2.138   3.760
  604SOL     OW 2710   0.829   3.504   1.404
  604SOL    HW1 2711   0.811   3.564   1.326
  604SOL    HW2 2712   0.873   3.556   1.477
  605SOL     OW 2713   0.244   6.540   2.215
  605SOL    HW1 2714   0.165   6.481   2.233
  605SOL    HW2 2715   0.213   6.624   2.171
  606SOL     OW 2716   5.089   0.372   6.526
  606SOL    HW1 2717   5.127   0.290   6.568
  606SOL    HW2 2718   5.161   0.440   6.512
  607SOL     OW 2719   6.328   0.009   5.989
  607SOL    HW1 2720   6.242   0.030   5.944
  607SOL    HW2 2721   6.378   6.963   5.935
  608SOL     OW 2722   2.800   6.105   6.325
  608SOL    HW1 2723   2.811   6.180   6.261
  608SOL    HW2 2724   2.724   6.125   6.388
  609SOL     OW 2725   4.061   3.283   3.263
  609SOL    HW1 2726   4.139   3.330   3.221
  609SOL    HW2 2727   4.042   3.324   3.352
  610SOL     OW 2728   4.952   3.318   2.033
  610SOL    HW1 2729   4.925   3.390   1.968
  610SOL    HW2 2730   4.915   3.230   2.003
  611SOL     OW 2731   3.955   0.264   0.094
  611SOL    HW1 2732   3.894   0.187   0.110
  611SOL    HW2 2733   4.049   0.230   0.082
  612SOL     OW 2734   3.836   6.510   5.363
  612SOL    HW1 2735   3.817   6.586   5.300
  612SOL    HW2 2736   3.934   6.493   5.367
  613SOL     OW 2737   4.357   6.782   5.796
  613SOL    HW1 2738   4.426   6.771   5.725
  613SOL    HW2 2739   4.397   6.762   5.885
  614SOL     OW 2740   4.498   4.471   1.132
  614SOL    HW1 2741   4.437   4.529   1.186
  614SOL    HW2 2742   4.451   4.385   1.110
  615SOL     OW 2743   0.075   2.665   2.020
  615SOL    HW1 2744   0.070   2.675   1.920
  615SOL    HW2 2745   0.033   2.745   2.063
  616SOL     OW 2746   0.731   2.158   3.781
  616SOL    HW1 2747   0.758   2.083   3.720
  616SOL    HW2 2748   0.804   2.226   3.786
  617SOL     OW 2749   6.381   3.534   6.260
  617SOL    HW1 2750   6.293   3.493   6.235
  617SOL    HW2 2751   6.366   3.613   6.319
  618SOL     OW 2752   6.782   2.229   6.647
  618SOL    HW1 2753   6.832   2.233   6.560
  618SOL    HW2 2754   6.802   2.311   6.701
  619SOL     OW 2755   4.586   0.712   6.614
  619SOL    HW1 2756   4.622   0.634   6.666
  619SOL    HW2 2757   4.656   0.783   6.608
  620SOL     OW 2758   4.591   2.878   1.343
  620SOL    HW1 2759   4.506   2.851   1.387
  620SOL    HW2 2760   4.594   2.843   1.249
  621SOL     OW 2761   2.413   6.285   6.332
  621SOL    HW1 2762   2.435   6.380   6.311
  621SOL    HW2 2763   2.315   6.269   6.317
  622SOL     OW 2764   1.303   1.241   4.480
  622SOL    HW1 2765   1.388   1.264   4.526
  622SOL    HW2 2766   1.273   1.318   4.424
  623SOL     OW 2767   1.392   6.255   6.185
  623SOL    HW1 2768   1.350   6.300   6.264
  623SOL    HW2 2769   1.321   6.234   6.117
  624SOL     OW 2770   0.398   1.625   1.846
  624SOL    HW1 2771   0.458   1.698   1.814
  624SOL    HW2 2772   0.311   1.664   1.877
  625SOL     OW 2773   1.203   1.810   1.899
  625SOL    HW1 2774   1.258   1.770   1.972
  625SOL    HW2 2775   1.207   1.751   1.818
  626SOL     OW 2776   0.906   5.992   3.189
  626SOL    HW1 2777   0.963   5.965   3.111
  626SOL    HW2 2778   0.962   5.994   3.272
  627SOL     OW 2779   6.530   6.553   0.704
  627SOL    HW1 2780   6.501   6.567   0.610
  627SOL    HW2 2781   6.456   6.509   0.755
  628SOL     OW 2782   5.371   5.803   6.114
  628SOL    HW1 2783   5.335   5.729   6.058
  628SOL    HW2 2784   5.335   5.890   6.081
  629SOL     OW 2785   0.729   0.548   6.919
  629SOL    HW1 2786   0.727   0.449   6.928
  629SOL    HW2 2787   0.662   0.577   6.851
  630SOL     OW 2788   0.235   1.675   0.851
  630SOL    HW1 2789   0.156   1.723   0.812
  630SOL    HW2 2790   0.262   1.720   0.936
  631SOL     OW 2791   4.057   1.497   5.415
  631SOL    HW1 2792   4.114   1.554   5.356
  631SOL    HW2 2793   4.032   1.548   5.497
  632SOL     OW 2794   3.993   1.435   1.613
  632SOL    HW1 2795   3.952   1.526   1.606
  632SOL    HW2 2796   4.005   1.410   1.709
  633SOL     OW 2797   3.237   3.524   6.585
  633SOL    HW1 2798   3.182   3.459   6.638
  633SOL    HW2 2799   3.327   3.484   6.567
  634SOL     OW 2800   4.131   3.574   2.322
  634SOL    HW1 2801   4.105   3.491   2.273
  634SOL    HW2 2802   4.230   3.587   2.315
  635SOL     OW 2803   4.682   5.516   0.606
  635SOL    HW1 2804   4.742   5.543   0.681
  635SOL    HW2 2805   4.597   5.568   0.611
  636SOL     OW 2806   3.254   6.346   0.348
  636SOL    HW1 2807   3.193   6.352   0.269
  636SOL    HW2 2808   3.221   6.276   0.411
  637SOL     OW 2809   6.894   3.178   3.066
  637SOL    HW1 2810   6.944   3.258   3.101
  637SOL    HW2 2811   6.959   3.113   3.026
  638SOL     OW 2812   5.610   2.559   3.177
  638SOL    HW1 2813   5.576   2.505   3.254
  638SOL    HW2 2814   5.696   2.520   3.144
  639SOL     OW 2815   4.871   3.371   3.071
  639SOL    HW1 2816   4.845   3.290   3.018
  639SOL    HW2 2817   4.901   3.443   3.009
  640SOL     OW 2818   0.317   5.068   4.060
  640SOL    HW1 2819   0.268   5.155   4.057
  640SOL    HW2 2820   0.358   5.050   3.970
  641SOL     OW 2821   0.487   4.519   5.367
  641SOL    HW1 2822   0.582   4.504   5.394
  641SOL    HW2 2823   0.483   4.550   5.272
  642SOL     OW 2824   0.148   3.346   3.941
  642SOL    HW1 2825   0.198   3.328   4.025
  642SOL    HW2 2826   0.199   3.412   3.885
  643SOL     OW 2827   6.147   6.391   6.196
  643SOL    HW1 2828   6.181   6.415   6.105
  643SOL    HW2 2829   6.049   6.370   6.192
  644SOL     OW 2830   1.718   6.697   4.400
  644SOL    HW1 2831   1.763   6.610   4.379
  644SOL    HW2 2832   1.621   6.692   4.374
  645SOL     OW 2833   4.336   0.130   5.067
  645SOL    HW1 2834   4.399   0.072   5.118
  645SOL    HW2 2835   4.330   0.220   5.111
  646SOL     OW 2836   3.493   0.884   4.498
  646SOL    HW1 2837   3.564   0.826   4.540
  646SOL    HW2 2838   3.531   0.975   4.480
  647SOL     OW 2839   5.589   1.911   5.432
  647SOL    HW1 2840   5.558   1.893   5.526
  647SOL    HW2 2841   5.510   1.930   5.374
  648SOL     OW 2842   0.682   3.476   3.384
  648SOL    HW1 2843   0.652   3.571   3.390
  648SOL    HW2 2844   0.774   3.472   3.346
  649SOL     OW 2845   2.254   4.436   1.089
  649SOL    HW1 2846   2.342   4.481   1.072
  649SOL    HW2 2847   2.184   4.477   1.031
  650SOL     OW 2848   5.818   4.220   6.906
  650SOL    HW1 2849   5.893   4.239   6.970
  650SOL    HW2 2850   5.813   4.122   6.888
  651SOL     OW 2851   0.813   6.528   6.232
  651SOL    HW1 2852   0.789   6.471   6.153
  651SOL    HW2 2853   0.898   6.578   6.212
  652SOL     OW 2854   5.274   0.248   3.814
  652SOL    HW1 2855   5.342   0.261   3.741
  652SOL    HW2 2856   5.311   0.278   3.901
  653SOL     OW 2857   1.311   5.760   6.729
  653SOL    HW1 2858   1.321   5.834   6.796
  653SOL    HW2 2859   1.255   5.793   6.653
  654SOL     OW 2860   0.629   5.488   6.918
  654SOL    HW1 2861   0.649   5.419   6.988
  654SOL    HW2 2862   0.714   5.521   6.878
  655SOL     OW 2863   0.145   5.880   1.427
  655SOL    HW1 2864   0.205   5.957   1.406
  655SOL    HW2 2865   0.069   5.912   1.484
  656SOL     OW 2866   1.874   6.180   1.109
  656SOL    HW1 2867   1.909   6.232   1.187
  656SOL    HW2 2868   1.950   6.140   1.059
  657SOL     OW 2869   2.469   3.770   1.557
  657SOL    HW1 2870   2.487   3.839   1.487
  657SOL    HW2 2871   2.378   3.786   1.597
  658SOL     OW 2872   2.230   3.751   6.817
  658SOL    HW1 2873   2.197   3.668   6.863
  658SOL    HW2 2874   2.269   3.726   6.728
  659SOL     OW 2875   1.550   6.018   5.463
  659SOL    HW1 2876   1.629   6.049   5.410
  659SOL    HW2 2877   1.480   6.089   5.463
  660SOL     OW 2878   5.841   3.763   2.261
  660SOL    HW1 2879   5.791   3.849   2.253
  660SOL    HW2 2880   5.794   3.702   2.325
  661SOL     OW 2881   4.785   4.221   3.279
  661SOL    HW1 2882   4.714   4.291   3.267
  661SOL    HW2 2883   4.746   4.141   3.324
  662SOL     OW 2884   4.310   0.301   4.786
  662SOL    HW1 2885   4.409   0.288   4.778
  662SOL    HW2 2886   4.268   0.219   4.825
  663SOL     OW 2887   1.182   3.499   6.423
  663SOL    HW1 2888   1.133   3.457   6.346
  663SOL    HW2 2889   1.269   3.536   6.390
  664SOL     OW 2890   0.151   5.061   6.549
  664SOL    HW1 2891   0.190   5.144   6.588
  664SOL    HW2 2892   0.114   5.081   6.458
  665SOL     OW 2893   4.314   4.616   0.652
  665SOL    HW1 2894   4.298   4.706   0.694
  665SOL    HW2 2895   4.239   4.555   0.675
  666SOL     OW 2896   5.343   1.780   2.855
  666SOL    HW1 2897   5.264   1.728   2.888
  666SOL    HW2 2898   5.315   1.837   2.778
  667SOL     OW 2899   6.031   3.728   3.503
  667SOL    HW1 2900   6.088   3.790   3.449
  667SOL    HW2 2901   6.013   3.645   3.449
  668SOL     OW 2902   4.818   6.083   6.779
  668SOL    HW1 2903   4.792   6.035   6.863
  668SOL    HW2 2904   4.750   6.064   6.707
  669SOL     OW 2905   3.951   5.961   3.442
  669SOL    HW1 2906   3.860   5.920   3.434
  669SOL    HW2 2907   3.958   6.011   3.528
  670SOL     OW 2908   2.568   2.904   1.301
  670SOL    HW1 2909   2.494   2.848   1.338
  670SOL    HW2 2910   2.544   3.001   1.308
  671SOL     OW 2911   2.757   5.648   0.204
  671SOL    HW1 2912   2.854   5.649   0.227
  671SOL    HW2 2913   2.733   5.559   0.165
  672SOL     OW 2914   0.605   4.466   1.711
  672SOL    HW1 2915   0.512   4.446   1.742
  672SOL    HW2 2916   0.632   4.557   1.743
  673SOL     OW 2917   6.749   0.637   1.411
  673SOL    HW1 2918   6.701   0.673   1.331
  673SOL    HW2 2919   6.720   0.543   1.428
  674SOL     OW 2920   0.187   3.066   4.274
  674SOL    HW1 2921   0.220   2.993   4.215
  674SOL    HW2 2922   0.110   3.033   4.329
  675SOL     OW 2923   0.818   1.004   4.216
  675SOL    HW1 2924   0.797   1.039   4.125
  675SOL    HW2 2925   0.846   1.080   4.275
  676SOL     OW 2926   3.876   5.927   2.973
  676SOL    HW1 2927   3.905   5.995   2.906
  676SOL    HW2 2928   3.914   5.951   3.063
  677SOL     OW 2929   5.988   1.562   0.020
  677SOL    HW1 2930   5.997   1.596   6.948
  677SOL    HW2 2931   5.988   1.639   0.084
  678SOL     OW 2932   1.533   1.335   4.614
  678SOL    HW1 2933   1.547   1.370   4.707
  678SOL    HW2 2934   1.592   1.385   4.551
  679SOL     OW 2935   4.743   1.629   4.469
  679SOL    HW1 2936   4.799   1.699   4.513
  679SOL    HW2 2937   4.793   1.590   4.392
  680SOL     OW 2938   6.260   5.645   5.913
  680SOL    HW1 2939   6.203   5.570   5.880
  680SOL    HW2 2940   6.207   5.702   5.975
  681SOL     OW 2941   5.513   5.956   1.249
  681SOL    HW1 2942   5.592   6.016   1.261
  681SOL    HW2 2943   5.541   5.873   1.201
  682SOL     OW 2944   1.620   0.559   0.553
  682SOL    HW1 2945   1.608   0.466   0.588
  682SOL    HW2 2946   1.708   0.566   0.506
  683SOL     OW 2947   3.758   2.625   6.842
  683SOL    HW1 2948   3.736   2.720   6.821
  683SOL    HW2 2949   3.712   2.598   6.926
  684SOL     OW 2950   6.561   0.584   0.295
  684SOL    HW1 2951   6.599   0.610   0.206
  684SOL    HW2 2952   6.506   0.660   0.331
  685SOL     OW 2953   4.577   1.392   4.313
  685SOL    HW1 2954   4.649   1.434   4.258
  685SOL    HW2 2955   4.604   1.298   4.337
  686SOL     OW 2956   5.686   2.234   3.729
  686SOL    HW1 2957   5.587   2.217   3.735
  686SOL    HW2 2958   5.721   2.196   3.644
  687SOL     OW 2959   0.371   2.640   4.847
  687SOL    HW1 2960   0.350   2.636   4.945
  687SOL    HW2 2961   0.396   2.549   4.815
  688SOL     OW 2962   1.623   2.909   6.852
  688SOL    HW1 2963   1.566   2.990   6.868
  688SOL    HW2 2964   1.633   2.894   6.754
  689SOL     OW 2965   0.106   4.191   5.855
  689SOL    HW1 2966   0.062   4.191   5.765
  689SOL    HW2 2967   0.036   4.197   5.926
  690SOL     OW 2968   0.678   4.094   3.325
  690SOL    HW1 2969   0.664   4.165   3.256
  690SOL    HW2 2970   0.764   4.112   3.374
  691SOL     OW 2971   2.517   0.308   6.468
  691SOL    HW1 2972   2.467   0.234   6.513
  691SOL    HW2 2973   2.547   0.374   6.537
  692SOL     OW 2974   4.408   5.873   3.875
  692SOL    HW1 2975   4.458   5.960   3.877
  692SOL    HW2 2976   4.310   5.892   3.867
  693SOL     OW 2977   6.572   0.532   3.573
  693SOL    HW1 2978   6.649   0.496   3.520
  693SOL    HW2 2979   6.498   0.559   3.511
  694SOL     OW 2980   4.097   6.306   2.434
  694SOL    HW1 2981   4.101   6.406   2.442
  694SOL    HW2 2982   4.188   6.268   2.449
  695SOL     OW 2983   4.262   5.800   4.937
  695SOL    HW1 2984   4.294   5.887   4.975
  695SOL    HW2 2985   4.196   5.818   4.864
  696SOL     OW 2986   3.282   5.549   2.578
  696SOL    HW1 2987   3.215   5.619   2.604
  696SOL    HW2 2988   3.364   5.593   2.543
  697SOL     OW 2989   2.203   2.911   3.944
  697SOL    HW1 2990   2.245   2.868   3.864
  697SOL    HW2 2991   2.184   2.842   4.013
  698SOL     OW 2992   5.508   0.439   6.993
  698SOL    HW1 2993   5.528   0.377   0.047
  698SOL    HW2 2994   5.428   0.495   7.016
  699SOL     OW 2995   1.517   3.845   6.176
  699SOL    HW1 2996   1.568   3.884   6.253
  699SOL    HW2 2997   1.419   3.864   6.188
  700SOL     OW 2998   2.753   1.381   3.533
  700SOL    HW1 2999   2.786   1.417   3.445
  700SOL    HW2 3000   2.745   1.282   3.527
  701SOL     OW 3001   5.803   3.319   5.231
  701SOL    HW1 3002   5.778   3.225   5.253
  701SOL    HW2 3003   5.894   3.320   5.189
  702SOL     OW 3004   0.402   6.653   6.106
  702SOL    HW1 3005   0.337   6.726   6.128
  702SOL    HW2 3006   0.352   6.570   6.080
  703SOL     OW 3007   3.305   4.285   6.410
  703SOL    HW1 3008   3.401   4.277   6.435
  703SOL    HW2 3009   3.272   4.197   6.375
  704SOL     OW 3010   1.043   1.552   6.969
  704SOL    HW1 3011   0.978   1.623   6.998
  704SOL    HW2 3012   1.094   1.584   6.889
  705SOL     OW 3013   6.065   6.129   3.022
  705SOL    HW1 3014   6.021   6.218   3.015
  705SOL    HW2 3015   6.115   6.110   2.937
  706SOL     OW 3016   4.357   2.412   4.246
  706SOL    HW1 3017   4.265   2.440   4.274
  706SOL    HW2 3018   4.406   2.376   4.325
  707SOL     OW 3019   4.779   6.658   2.150
  707SOL    HW1 3020   4.809   6.566   2.124
  707SOL    HW2 3021   4.838   6.692   2.224
  708SOL     OW 3022   3.786   0.802   1.305
  708SOL    HW1 3023   3.700   0.765   1.269
  708SOL    HW2 3024   3.845   0.829   1.229
  709SOL     OW 3025   0.752   5.344   0.594
  709SOL    HW1 3026   0.758   5.263   0.653
  709SOL    HW2 3027   0.656   5.365   0.577
  710SOL     OW 3028   3.429   2.894   2.586
  710SOL    HW1 3029   3.340   2.927   2.618
  710SOL    HW2 3030   3.496   2.903   2.660
  711SOL     OW 3031   0.059   2.336   5.625
  711SOL    HW1 3032   0.105   2.355   5.712
  711SOL    HW2 3033   0.003   2.253   5.634
  712SOL     OW 3034   3.693   3.499   0.792
  712SOL    HW1 3035   3.620   3.500   0.724
  712SOL    HW2 3036   3.705   3.406   0.828
  713SOL     OW 3037   3.808   3.066   6.473
  713SOL    HW1 3038   3.819   3.125   6.393
  713SOL    HW2 3039   3.841   2.974   6.452
  714SOL     OW 3040   6.687   4.187   4.355
  714SOL    HW1 3041   6.605   4.178   4.298
  714SOL    HW2 3042   6.751   4.250   4.312
  715SOL     OW 3043   5.718   5.444   6.960
  715SOL    HW1 3044   5.734   5.352   6.926
  715SOL    HW2 3045   5.782   5.508   6.917
  716SOL     OW 3046   1.101   0.013   0.896
  716SOL    HW1 3047   1.154   0.058   0.968
  716SOL    HW2 3048   1.107   6.936   0.906
  717SOL     OW 3049   6.176   4.615   6.094
  717SOL    HW1 3050   6.171   4.665   6.008
  717SOL    HW2 3051   6.270   4.612   6.126
  718SOL     OW 3052   5.004   2.654   6.410
  718SOL    HW1 3053   4.913   2.693   6.395
  718SOL    HW2 3054   4.994   2.560   6.441
  719SOL     OW 3055   6.352   0.811   1.895
  719SOL    HW1 3056   6.350   0.768   1.805
  719SOL    HW2 3057   6.401   0.753   1.960
  720SOL     OW 3058   3.578   1.067   6.621
  720SOL    HW1 3059   3.646   1.071   6.694
  720SOL    HW2 3060   3.487   1.053   6.661
  721SOL     OW 3061   2.565   1.138   3.982
  721SOL    HW1 3062   2.664   1.140   3.996
  721SOL    HW2 3063   2.533   1.229   3.954
  722SOL     OW 3064   2.814   0.314   4.542
  722SOL    HW1 3065   2.830   0.268   4.629
  722SOL    HW2 3066   2.876   0.277   4.473
  723SOL     OW 3067   1.989   3.937   2.921
  723SOL    HW1 3068   1.988   3.892   3.010
  723SOL    HW2 3069   1.987   4.036   2.934
  724SOL     OW 3070   1.235   2.907   4.495
  724SOL    HW1 3071   1.329   2.941   4.505
  724SOL    HW2 3072   1.221   2.828   4.555
  725SOL     OW 3073   3.722   5.889   0.839
  725SOL    HW1 3074   3.731   5.975   0.890
  725SOL    HW2 3075   3.801   5.831   0.856
  726SOL     OW 3076   4.295   4.874   0.725
  726SOL    HW1 3077   4.302   4.899   0.628
  726SOL    HW2 3078   4.277   4.956   0.779
  727SOL     OW 3079   5.511   5.302   6.355
  727SOL    HW1 3080   5.455   5.385   6.350
  727SOL    HW2 3081   5.452   5.223   6.368
  728SOL     OW 3082   6.287   3.650   5.056
  728SOL    HW1 3083   6.303   3.561   5.100
  728SOL    HW2 3084   6.362   3.669   4.992
  729SOL     OW 3085   1.269   2.210   0.564
  729SOL    HW1 3086   1.222   2.296   0.585
  729SOL    HW2 3087   1.339   2.193   0.633
  730SOL     OW 3088   5.467   1.303   2.914
  730SOL    HW1 3089   5.397   1.308   2.985
  730SOL    HW2 3090   5.521   1.388   2.914
  731SOL     OW 3091   5.360   4.721   5.957
  731SOL    HW1 3092   5.412   4.655   6.012
  731SOL    HW2 3093   5.275   4.678   5.925
  732SOL     OW 3094   0.448   2.433   1.817
  732SOL    HW1 3095   0.487   2.356   1.768
  732SOL    HW2 3096   0.395   2.489   1.754
  733SOL     OW 3097   5.950   6.392   5.717
  733SOL    HW1 3098   5.871   6.381   5.657
  733SOL    HW2 3099   6.008   6.311   5.713
  734SOL     OW 3100   6.922   4.568   2.541
  734SOL    HW1 3101   6.987   4.594   2.613
  734SOL    HW2 3102   6.833   4.551   2.582
  735SOL     OW 3103   3.630   2.303   0.692
  735SOL    HW1 3104   3.605   2.210   0.664
  735SOL    HW2 3105   3.730   2.312   0.692
  736SOL     OW 3106   0.973   0.639   3.037
  736SOL    HW1 3107   0.976   0.554   3.089
  736SOL    HW2 3108   1.005   0.622   2.944
  737SOL     OW 3109   4.737   2.349   5.925
  737SOL    HW1 3110   4.825   2.396   5.923
  737SOL    HW2 3111   4.666   2.413   5.952
  738SOL     OW 3112   1.931   4.682   2.308
  738SOL    HW1 3113   1.970   4.774   2.320
  738SOL    HW2 3114   1.992   4.614   2.349
  739SOL     OW 3115   4.385   0.340   4.112
  739SOL    HW1 3116   4.421   0.255   4.152
  739SOL    HW2 3117   4.344   0.395   4.184
  740SOL     OW 3118   5.037   0.085   0.971
  740SOL    HW1 3119   5.035   0.123   0.878
  740SOL    HW2 3120   4.978   0.139   1.031
  741SOL     OW 3121   2.137   6.540   3.146
  741SOL    HW1 3122   2.044   6.533   3.182
  741SOL    HW2 3123   2.171   6.633   3.162
  742SOL     OW 3124   2.540   6.534   1.940
  742SOL    HW1 3125   2.449   6.574   1.928
  742SOL    HW2 3126   2.547   6.452   1.883
  743SOL     OW 3127   0.335   3.877   4.163
  743SOL    HW1 3128   0.418   3.864   4.216
  743SOL    HW2 3129   0.297   3.788   4.138
  744SOL     OW 3130   5.617   0.661   6.816
  744SOL    HW1 3131   5.704   0.624   6.786
  744SOL    HW2 3132   5.561   0.587   6.855
  745SOL     OW 3133   0.808   5.968   4.982
  745SOL    HW1 3134   0.760   5.903   4.922
  745SOL    HW2 3135   0.808   6.058   4.939
  746SOL     OW 3136   0.035   4.798   5.902
  746SOL    HW1 3137   0.005   4.846   5.819
  746SOL    HW2 3138   0.004   4.849   5.982
  747SOL     OW 3139   3.854   6.376   4.383
  747SOL    HW1 3140   3.868   6.353   4.479
  747SOL    HW2 3141   3.893   6.304   4.326
  748SOL     OW 3142   3.904   4.839   2.411
  748SOL    HW1 3143   3.834   4.892   2.365
  748SOL    HW2 3144   3.881   4.830   2.508
  749SOL     OW 3145   6.504   4.451   5.240
  749SOL    HW1 3146   6.439   4.382   5.271
  749SOL    HW2 3147   6.564   4.412   5.170
  750SOL     OW 3148   1.767   2.369   0.681
  750SOL    HW1 3149   1.688   2.430   0.677
  750SOL    HW2 3150   1.777   2.323   0.593
  751SOL     OW 3151   3.618   2.357   6.485
  751SOL    HW1 3152   3.717   2.349   6.494
  751SOL    HW2 3153   3.576   2.356   6.576
  752SOL     OW 3154   3.556   1.264   2.402
  752SOL    HW1 3155   3.481   1.245   2.338
  752SOL    HW2 3156   3.633   1.204   2.382
  753SOL     OW 3157   1.882   3.542   5.043
  753SOL    HW1 3158   1.799   3.570   5.092
  753SOL    HW2 3159   1.959   3.598   5.073
  754SOL     OW 3160   5.381   2.703   5.753
  754SOL    HW1 3161   5.448   2.637   5.719
  754SOL    HW2 3162   5.358   2.767   5.680
  755SOL     OW 3163   1.270   4.291   5.175
  755SOL    HW1 3164   1.197   4.260   5.237
  755SOL    HW2 3165   1.352   4.311   5.228
  756SOL     OW 3166   3.720   0.102   0.558
  756SOL    HW1 3167   3.697   0.068   0.649
  756SOL    HW2 3168   3.737   0.201   0.563
  757SOL     OW 3169   0.904   0.150   4.098
  757SOL    HW1 3170   0.845   0.150   4.179
  757SOL    HW2 3171   0.960   0.067   4.098
  758SOL     OW 3172   3.874   6.949   1.770
  758SOL    HW1 3173   3.936   7.011   1.818
  758SOL    HW2 3174   3.786   6.994   1.755
  759SOL     OW 3175   0.581   1.317   1.237
  759SOL    HW1 3176   0.565   1.412   1.262
  759SOL    HW2 3177   0.583   1.261   1.320
  760SOL     OW 3178   5.405   0.334   5.429
  760SOL    HW1 3179   5.466   0.400   5.474
  760SOL    HW2 3180   5.337   0.383   5.375
  761SOL     OW 3181   5.669   2.867   5.776
  761SOL    HW1 3182   5.657   2.828   5.685
  761SOL    HW2 3183   5.681   2.793   5.842
  762SOL     OW 3184   2.449   0.864   4.851
  762SOL    HW1 3185   2.512   0.849   4.776
  762SOL    HW2 3186   2.498   0.904   4.929
  763SOL     OW 3187   4.104   5.533   6.118
  763SOL    HW1 3188   4.191   5.546   6.071
  763SOL    HW2 3189   4.098   5.596   6.195
  764SOL     OW 3190   5.356   1.920   5.257
  764SOL    HW1 3191   5.383   1.824   5.257
  764SOL    HW2 3192   5.270   1.932   5.306
  765SOL     OW 3193   1.314   6.395   1.284
  765SOL    HW1 3194   1.393   6.333   1.285
  765SOL    HW2 3195   1.297   6.426   1.191
  766SOL     OW 3196   2.587   3.675   6.538
  766SOL    HW1 3197   2.487   3.668   6.532
  766SOL    HW2 3198   2.612   3.728   6.619
  767SOL     OW 3199   6.344   5.667   2.001
  767SOL    HW1 3200   6.267   5.658   1.938
  767SOL    HW2 3201   6.378   5.761   1.998
  768SOL     OW 3202   2.000   6.386   1.957
  768SOL    HW1 3203   1.920   6.392   2.016
  768SOL    HW2 3204   1.975   6.343   1.870
  769SOL     OW 3205   3.416   0.504   4.861
  769SOL    HW1 3206   3.407   0.501   4.761
  769SOL    HW2 3207   3.346   0.565   4.899
  770SOL     OW 3208   2.260   4.207   3.130
  770SOL    HW1 3209   2.324   4.275   3.093
  770SOL    HW2 3210   2.207   4.248   3.203
  771SOL     OW 3211   2.651   5.368   2.534
  771SOL    HW1 3212   2.601   5.339   2.616
  771SOL    HW2 3213   2.740   5.405   2.560
  772SOL     OW 3214   5.571   4.836   0.827
  772SOL    HW1 3215   5.592   4.751   0.875
  772SOL    HW2 3216   5.642   4.903   0.846
  773SOL     OW 3217   0.437   3.604   5.018
  773SOL    HW1 3218   0.375   3.564   5.086
  773SOL    HW2 3219   0.490   3.532   4.974
  774SOL     OW 3220   1.020   1.606   1.155
  774SOL    HW1 3221   1.043   1.568   1.244
  774SOL    HW2 3222   1.013   1.706   1.163
  775SOL     OW 3223   0.746   2.224   2.752
  775SOL    HW1 3224   0.715   2.306   2.800
  775SOL    HW2 3225   0.841   2.205   2.777
  776SOL     OW 3226   1.238   0.161   6.262
  776SOL    HW1 3227   1.223   0.194   6.169
  776SOL    HW2 3228   1.315   0.097   6.263
  777SOL     OW 3229   2.405   4.977   1.482
  777SOL    HW1 3230   2.377   4.919   1.558
  777SOL    HW2 3231   2.400   5.073   1.509
  778SOL     OW 3232   3.019   1.170   2.705
  778SOL    HW1 3233   3.118   1.155   2.699
  778SOL    HW2 3234   2.983   1.194   2.615
  779SOL     OW 3235   0.090   2.583   2.478
  779SOL    HW1 3236   0.104   2.644   2.399
  779SOL    HW2 3237   0.107   2.489   2.451
  780SOL     OW 3238   6.314   3.806   3.653
  780SOL    HW1 3239   6.393   3.829   3.596
  780SOL    HW2 3240   6.335   3.726   3.708
  781SOL     OW 3241   5.341   1.012   0.042
  781SOL    HW1 3242   5.341   0.954   0.124
  781SOL    HW2 3243   5.434   1.043   0.023
  782SOL     OW 3244   1.543   4.099   6.762
  782SOL    HW1 3245   1.620   4.114   6.700
  782SOL    HW2 3246   1.459   4.136   6.721
  783SOL     OW 3247   4.184   5.386   0.922
  783SOL    HW1 3248   4.249   5.440   0.975
  783SOL    HW2 3249   4.102   5.440   0.903
  784SOL     OW 3250   5.608   6.291   0.559
  784SOL    HW1 3251   5.559   6.294   0.472
  784SOL    HW2 3252   5.555   6.239   0.626
  785SOL     OW 3253   0.545   2.477   2.762
  785SOL    HW1 3254   0.546   2.571   2.729
  785SOL    HW2 3255   0.451   2.450   2.783
  786SOL     OW 3256   1.375   0.593   1.664
  786SOL    HW1 3257   1.432   0.519   1.701
  786SOL    HW2 3258   1.413   0.622   1.576
  787SOL     OW 3259   3.313   0.276   6.859
  787SOL    HW1 3260   3.228   0.313   6.897
  787SOL    HW2 3261   3.322   0.305   6.764
  788SOL     OW 3262   3.864   2.925   5.872
  788SOL    HW1 3263   3.899   2.981   5.798
  788SOL    HW2 3264   3.867   2.829   5.846
  789SOL     OW 3265   5.156   4.099   0.632
  789SOL    HW1 3266   5.116   4.038   0.563
  789SOL    HW2 3267   5.227   4.051   0.683
  790SOL     OW 3268   2.038   1.393   4.129
  790SOL    HW1 3269   2.084   1.430   4.210
  790SOL    HW2 3270   1.957   1.342   4.157
  791SOL     OW 3271   3.345   5.571   3.757
  791SOL    HW1 3272   3.301   5.577   3.667
  791SOL    HW2 3273   3.314   5.647   3.815
  792SOL     OW 3274   0.697   6.613   1.021
  792SOL    HW1 3275   0.660   6.705   1.008
  792SOL    HW2 3276   0.732   6.578   0.935
  793SOL     OW 3277   4.539   4.935   3.529
  793SOL    HW1 3278   4.583   4.865   3.474
  793SOL    HW2 3279   4.496   5.003   3.469
  794SOL     OW 3280   3.368   3.782   5.550
  794SOL    HW1 3281   3.439   3.852   5.557
  794SOL    HW2 3282   3.371   3.723   5.631
  795SOL     OW 3283   3.478   6.836   4.105
  795SOL    HW1 3284   3.387   6.849   4.066
  795SOL    HW2 3285   3.534   6.918   4.089
  796SOL     OW 3286   0.615   1.895   6.594
  796SOL    HW1 3287   0.524   1.872   6.561
  796SOL    HW2 3288   0.678   1.820   6.574
  797SOL     OW 3289   5.335   3.246   0.943
  797SOL    HW1 3290   5.310   3.255   1.040
  797SOL    HW2 3291   5.381   3.159   0.929
  798SOL     OW 3292   4.193   0.228   2.044
  798SOL    HW1 3293   4.228   0.167   2.115
  798SOL    HW2 3294   4.248   0.312   2.041
  799SOL     OW 3295   6.335   0.310   5.889
  799SOL    HW1 3296   6.262   0.250   5.855
  799SOL    HW2 3297   6.412   0.308   5.826
  800SOL     OW 3298   5.328   2.469   2.456
  800SOL    HW1 3299   5.328   2.414   2.539
  800SOL    HW2 3300   5.311   2.410   2.377
  801SOL     OW 3301   1.278   3.734   4.140
  801SOL    HW1 3302   1.206   3.784   4.093
  801SOL    HW2 3303   1.272   3.637   4.117
  802SOL     OW 3304   4.393   1.541   0.844
  802SOL    HW1 3305   4.388   1.640   0.829
  802SOL    HW2 3306   4.374   1.493   0.759
  803SOL     OW 3307   0.220   6.830   5.248
  803SOL    HW1 3308   0.160   6.807   5.172
  803SOL    HW2 3309   0.262   6.920   5.231
  804SOL     OW 3310   5.175   5.213   6.655
  804SOL    HW1 3311   5.135   5.196   6.745
  804SOL    HW2 3312   5.104   5.246   6.593
  805SOL     OW 3313   3.941   6.978   5.621
  805SOL    HW1 3314   3.970   6.927   5.540
  805SOL    HW2 3315   4.020   6.996   5.679
  806SOL     OW 3316   5.253   1.164   4.326
  806SOL    HW1 3317   5.232   1.166   4.424
  806SOL    HW2 3318   5.351   1.178   4.312
  807SOL     OW 3319   1.359   1.914   4.166
  807SOL    HW1 3320   1.276   1.934   4.218
  807SOL    HW2 3321   1.335   1.892   4.072
  808SOL     OW 3322   4.394   3.472   6.326
  808SOL    HW1 3323   4.378   3.569   6.307
  808SOL    HW2 3324   4.311   3.420   6.303
  809SOL     OW 3325   0.055   5.204   1.530
  809SOL    HW1 3326   0.118   5.165   1.463
  809SOL    HW2 3327   7.008   5.259   1.484
  810SOL     OW 3328   3.072   2.604   1.181
  810SOL    HW1 3329   3.095   2.546   1.260
  810SOL    HW2 3330   3.067   2.548   1.099
  811SOL     OW 3331   3.933   5.571   4.938
  811SOL    HW1 3332   4.001   5.644   4.932
  811SOL    HW2 3333   3.979   5.482   4.932
  812SOL     OW 3334   0.112   1.372   2.008
  812SOL    HW1 3335   0.015   1.347   2.019
  812SOL    HW2 3336   0.126   1.408   1.916
  813SOL     OW 3337   3.233   6.196   5.472
  813SOL    HW1 3338   3.219   6.245   5.559
  813SOL    HW2 3339   3.267   6.104   5.491
  814SOL     OW 3340   6.736   6.150   2.697
  814SOL    HW1 3341   6.826   6.191   2.709
  814SOL    HW2 3342   6.673   6.219   2.661
  815SOL     OW 3343   0.537   3.515   3.035
  815SOL    HW1 3344   0.474   3.591   3.049
  815SOL    HW2 3345   0.485   3.431   3.019
  816SOL     OW 3346   6.282   6.450   0.797
  816SOL    HW1 3347   6.191   6.433   0.759
  816SOL    HW2 3348   6.275   6.465   0.895
  817SOL     OW 3349   2.071   4.131   0.493
  817SOL    HW1 3350   2.007   4.192   0.538
  817SOL    HW2 3351   2.095   4.168   0.403
  818SOL     OW 3352   6.285   2.757   2.164
  818SOL    HW1 3353   6.190   2.740   2.192
  818SOL    HW2 3354   6.342   2.680   2.192
  819SOL     OW 3355   5.570   2.813   2.831
  819SOL    HW1 3356   5.601   2.821   2.926
  819SOL    HW2 3357   5.499   2.742   2.826
  820SOL     OW 3358   2.907   2.563   5.367
  820SOL    HW1 3359   2.861   2.574   5.456
  820SOL    HW2 3360   2.982   2.498   5.377
  821SOL     OW 3361   1.200   4.071   1.164
  821SOL    HW1 3362   1.167   4.149   1.217
  821SOL    HW2 3363   1.283   4.096   1.115
  822SOL     OW 3364   1.776   4.306   4.007
  822SOL    HW1 3365   1.802   4.402   4.016
  822SOL    HW2 3366   1.723   4.278   4.087
  823SOL     OW 3367   5.502   3.871   6.716
  823SOL    HW1 3368   5.428   3.928   6.751
  823SOL    HW2 3369   5.568   3.852   6.789
  824SOL     OW 3370   5.504   1.135   6.098
  824SOL    HW1 3371   5.427   1.179   6.144
  824SOL    HW2 3372   5.481   1.118   6.003
  825SOL     OW 3373   0.734   4.010   1.233
  825SOL    HW1 3374   0.634   4.007   1.244
  825SOL    HW2 3375   0.765   4.104   1.238
  826SOL     OW 3376   5.345   2.905   5.597
  826SOL    HW1 3377   5.417   2.974   5.591
  826SOL    HW2 3378   5.259   2.943   5.563
  827SOL     OW 3379   2.983   4.852   5.629
  827SOL    HW1 3380   3.037   4.913   5.571
  827SOL    HW2 3381   2.958   4.900   5.713
  828SOL     OW 3382   5.248   6.972   6.508
  828SOL    HW1 3383   5.210   7.017   6.427
  828SOL    HW2 3384   5.235   6.873   6.500
  829SOL     OW 3385   2.963   3.910   2.847
  829SOL    HW1 3386   2.891   3.974   2.875
  829SOL    HW2 3387   2.960   3.829   2.906
  830SOL     OW 3388   4.850   5.090   6.674
  830SOL    HW1 3389   4.867   5.173   6.621
  830SOL    HW2 3390   4.924   5.025   6.660
  831SOL     OW 3391   5.947   0.797   6.645
  831SOL    HW1 3392   5.979   0.716   6.694
  831SOL    HW2 3393   5.913   0.771   6.555
  832SOL     OW 3394   2.906   0.788   1.877
  832SOL    HW1 3395   2.903   0.849   1.798
  832SOL    HW2 3396   2.822   0.799   1.931
  833SOL     OW 3397   0.527   3.835   5.471
  833SOL    HW1 3398   0.502   3.898   5.544
  833SOL    HW2 3399   0.597   3.877   5.414
  834SOL     OW 3400   3.966   3.682   0.207
  834SOL    HW1 3401   4.034   3.609   0.202
  834SOL    HW2 3402   3.998   3.761   0.155
  835SOL     OW 3403   3.424   0.269   5.036
  835SOL    HW1 3404   3.382   0.341   4.982
  835SOL    HW2 3405   3.353   0.209   5.074
  836SOL     OW 3406   4.016   6.258   0.064
  836SOL    HW1 3407   3.998   6.192   7.012
  836SOL    HW2 3408   4.031   6.348   0.025
  837SOL     OW 3409   5.390   6.984   0.260
  837SOL    HW1 3410   5.335   6.912   0.219
  837SOL    HW2 3411   5.353   0.052   0.234
  838SOL     OW 3412   2.365   0.678   4.520
  838SOL    HW1 3413   2.420   0.657   4.601
  838SOL    HW2 3414   2.380   0.773   4.493
  839SOL     OW 3415   2.013   2.745   2.064
  839SOL    HW1 3416   2.081   2.796   2.011
  839SOL    HW2 3417   2.059   2.694   2.137
  840SOL     OW 3418   6.128   6.211   6.872
  840SOL    HW1 3419   6.041   6.219   6.921
  840SOL    HW2 3420   6.136   6.120   6.833
  841SOL     OW 3421   3.829   5.014   6.717
  841SOL    HW1 3422   3.808   4.970   6.805
  841SOL    HW2 3423   3.916   5.063   6.724
  842SOL     OW 3424   4.049   6.710   5.009
  842SOL    HW1 3425   4.129   6.690   4.952
  842SOL    HW2 3426   4.049   6.807   5.034
  843SOL     OW 3427   1.443   1.549   0.904
  843SOL    HW1 3428   1.373   1.618   0.883
  843SOL    HW2 3429   1.412   1.494   0.981
  844SOL     OW 3430   6.005   0.759   0.871
  844SOL    HW1 3431   5.990   0.715   0.960
  844SOL    HW2 3432   5.973   0.853   0.875
  845SOL     OW 3433   5.374   4.325   5.469
  845SOL    HW1 3434   5.307   4.258   5.500
  845SOL    HW2 3435   5.426   4.358   5.547
  846SOL     OW 3436   2.096   2.085   6.774
  846SOL    HW1 3437   2.015   2.141   6.793
  846SOL    HW2 3438   2.067   1.995   6.742
  847SOL     OW 3439   1.755   3.569   1.331
  847SOL    HW1 3440   1.822   3.525   1.391
  847SOL    HW2 3441   1.723   3.654   1.374
  848SOL     OW 3442   5.899   0.727   6.386
  848SOL    HW1 3443   5.987   0.688   6.359
  848SOL    HW2 3444   5.882   0.810   6.333
  849SOL     OW 3445   0.463   4.222   6.198
  849SOL    HW1 3446   0.417   4.310   6.181
  849SOL    HW2 3447   0.410   4.169   6.264
  850SOL     OW 3448   4.950   0.727   3.640
  850SOL    HW1 3449   5.046   0.698   3.637
  850SOL    HW2 3450   4.916   0.740   3.546
  851SOL     OW 3451   0.307   1.852   2.540
  851SOL    HW1 3452   0.399   1.890   2.529
  851SOL    HW2 3453   0.247   1.891   2.470
  852SOL     OW 3454   1.205   2.895   6.763
  852SOL    HW1 3455   1.212   2.806   6.806
  852SOL    HW2 3456   1.284   2.911   6.705
  853SOL     OW 3457   1.955   4.394   2.796
  853SOL    HW1 3458   1.857   4.412   2.805
  853SOL    HW2 3459   1.982   4.322   2.861
  854SOL     OW 3460   4.701   6.090   1.516
  854SOL    HW1 3461   4.644   6.011   1.540
  854SOL    HW2 3462   4.659   6.174   1.550
  855SOL     OW 3463   0.082   0.301   2.097
  855SOL    HW1 3464   0.037   0.218   2.131
  855SOL    HW2 3465   0.023   0.345   2.029
  856SOL     OW 3466   1.685   1.999   5.473
  856SOL    HW1 3467   1.635   1.967   5.394
  856SOL    HW2 3468   1.656   2.093   5.495
  857SOL     OW 3469   5.997   4.612   2.043
  857SOL    HW1 3470   6.005   4.527   2.096
  857SOL    HW2 3471   6.089   4.649   2.027
  858SOL     OW 3472   3.011   3.593   1.235
  858SOL    HW1 3473   3.095   3.646   1.235
  858SOL    HW2 3474   2.945   3.635   1.297
  859SOL     OW 3475   4.986   5.564   5.720
  859SOL    HW1 3476   4.969   5.650   5.768
  859SOL    HW2 3477   4.924   5.494   5.756
  860SOL     OW 3478   4.749   3.792   0.407
  860SOL    HW1 3479   4.789   3.765   0.320
  860SOL    HW2 3480   4.654   3.819   0.393
  861SOL     OW 3481   2.374   6.444   3.707
  861SOL    HW1 3482   2.434   6.488   3.639
  861SOL    HW2 3483   2.395   6.481   3.797
  862SOL     OW 3484   0.715   4.105   5.126
  862SOL    HW1 3485   0.798   4.083   5.077
  862SOL    HW2 3486   0.663   4.021   5.144
  863SOL     OW 3487   6.569   0.292   0.998
  863SOL    HW1 3488   6.661   0.257   1.015
  863SOL    HW2 3489   6.547   0.362   1.067
  864SOL     OW 3490   4.171   4.937   3.530
  864SOL    HW1 3491   4.143   4.890   3.614
  864SOL    HW2 3492   4.141   5.032   3.533
  865SOL     OW 3493   0.786   6.021   5.800
  865SOL    HW1 3494   0.692   5.989   5.797
  865SOL    HW2 3495   0.826   6.003   5.890
  866SOL     OW 3496   1.718   1.664   1.853
  866SOL    HW1 3497   1.773   1.686   1.933
  866SOL    HW2 3498   1.641   1.728   1.846
  867SOL     OW 3499   3.871   3.885   0.842
  867SOL    HW1 3500   3.969   3.902   0.830
  867SOL    HW2 3501   3.829   3.869   0.753
  868SOL     OW 3502   5.637   0.610   1.354
  868SOL    HW1 3503   5.727   0.573   1.329
  868SOL    HW2 3504   5.567   0.541   1.337
  869SOL     OW 3505   6.507   4.896   3.290
  869SOL    HW1 3506   6.413   4.868   3.271
  869SOL    HW2 3507   6.566   4.816   3.295
  870SOL     OW 3508   3.942   3.096   0.672
  870SOL    HW1 3509   3.992   3.171   0.714
  870SOL    HW2 3510   3.894   3.129   0.591
  871SOL     OW 3511   4.885   2.889   3.247
  871SOL    HW1 3512   4.936   2.967   3.209
  871SOL    HW2 3513   4.832   2.919   3.326
  872SOL     OW 3514   5.465   4.442   3.880
  872SOL    HW1 3515   5.451   4.370   3.812
  872SOL    HW2 3516   5.542   4.500   3.852
  873SOL     OW 3517   5.969   6.782   3.962
  873SOL    HW1 3518   6.042   6.850   3.958
  873SOL    HW2 3519   5.922   6.788   4.050
  874SOL     OW 3520   0.927   4.457   5.765
  874SOL    HW1 3521   0.980   4.388   5.815
  874SOL    HW2 3522   0.976   4.544   5.766
  875SOL     OW 3523   3.320   2.908   0.335
  875SOL    HW1 3524   3.283   2.922   0.243
  875SOL    HW2 3525   3.361   2.993   0.368
  876SOL     OW 3526   0.492   5.234   3.040
  876SOL    HW1 3527   0.490   5.140   3.007
  876SOL    HW2 3528   0.494   5.296   2.961
  877SOL     OW 3529   4.056   4.049   6.710
  877SOL    HW1 3530   4.114   3.971   6.733
  877SOL    HW2 3531   3.992   4.066   6.785
  878SOL     OW 3532   3.635   5.528   4.991
  878SOL    HW1 3533   3.602   5.618   4.961
  878SOL    HW2 3534   3.735   5.528   4.993
  879SOL     OW 3535   2.777   2.133   1.912
  879SOL    HW1 3536   2.845   2.146   1.839
  879SOL    HW2 3537   2.770   2.217   1.966
  880SOL     OW 3538   3.553   3.998   5.641
  880SOL    HW1 3539   3.470   4.034   5.683
  880SOL    HW2 3540   3.630   4.010   5.703
  881SOL     OW 3541   4.603   3.998   5.349
  881SOL    HW1 3542   4.673   3.988   5.279
  881SOL    HW2 3543   4.535   4.066   5.320
  882SOL     OW 3544   1.264   1.724   4.403
  882SOL    HW1 3545   1.187   1.714   4.340
  882SOL    HW2 3546   1.329   1.790   4.364
  883SOL     OW 3547   4.674   5.490   6.005
  883SOL    HW1 3548   4.684   5.583   5.971
  883SOL    HW2 3549   4.578   5.472   6.027
  884SOL     OW 3550   0.020   4.134   0.119
  884SOL    HW1 3551   6.979   4.061   0.147
  884SOL    HW2 3552   0.096   4.140   0.184
  885SOL     OW 3553   4.963   5.609   6.318
  885SOL    HW1 3554   4.969   5.588   6.416
  885SOL    HW2 3555   4.948   5.707   6.306
  886SOL     OW 3556   4.064   0.539   0.948
  886SOL    HW1 3557   4.022   0.471   1.008
  886SOL    HW2 3558   4.133   0.495   0.891
  887SOL     OW 3559   3.749   6.748   4.024
  887SOL    HW1 3560   3.784   6.840   4.041
  887SOL    HW2 3561   3.649   6.750   4.028
  888SOL     OW 3562   5.542   6.028   2.934
  888SOL    HW1 3563   5.633   6.058   2.963
  888SOL    HW2 3564   5.475   6.101   2.952
  889SOL     OW 3565   1.686   6.453   5.877
  889SOL    HW1 3566   1.724   6.367   5.843
  889SOL    HW2 3567   1.679   6.449   5.977
  890SOL     OW 3568   2.121   4.907   2.133
  890SOL    HW1 3569   2.181   4.840   2.176
  890SOL    HW2 3570   2.125   4.993   2.184
  891SOL     OW 3571   6.123   4.216   1.094
  891SOL    HW1 3572   6.024   4.215   1.084
  891SOL    HW2 3573   6.165   4.240   1.006
  892SOL     OW 3574   4.004   4.274   5.817
  892SOL    HW1 3575   3.925   4.281   5.755
  892SOL    HW2 3576   4.040   4.181   5.816
  893SOL     OW 3577   1.783   1.208   1.931
  893SOL    HW1 3578   1.877   1.199   1.899
  893SOL    HW2 3579   1.727   1.134   1.895
  894SOL     OW 3580   1.774   2.275   3.371
  894SOL    HW1 3581   1.684   2.318   3.365
  894SOL    HW2 3582   1.824   2.288   3.285
  895SOL     OW 3583   1.379   5.875   4.685
  895SOL    HW1 3584   1.444   5.834   4.622
  895SOL    HW2 3585   1.364   5.971   4.659
  896SOL     OW 3586   6.058   6.412   2.323
  896SOL    HW1 3587   6.065   6.377   2.417
  896SOL    HW2 3588   5.968   6.393   2.287
  897SOL     OW 3589   5.003   1.015   0.401
  897SOL    HW1 3590   4.981   0.995   0.496
  897SOL    HW2 3591   5.092   1.061   0.397
  898SOL     OW 3592   4.292   6.182   2.851
  898SOL    HW1 3593   4.325   6.161   2.943
  898SOL    HW2 3594   4.201   6.223   2.857
  899SOL     OW 3595   0.217   5.461   0.379
  899SOL    HW1 3596   0.168   5.486   0.463
  899SOL    HW2 3597   0.151   5.447   0.305
  900SOL     OW 3598   4.424   6.340   0.955
  900SOL    HW1 3599   4.432   6.316   0.858
  900SOL    HW2 3600   4.448   6.436   0.967
  901SOL     OW 3601   1.118   1.081   5.288
  901SOL    HW1 3602   1.152   1.156   5.345
  901SOL    HW2 3603   1.181   1.004   5.294
  902SOL     OW 3604   0.606   2.226   0.139
  902SOL    HW1 3605   0.560   2.146   0.176
  902SOL    HW2 3606   0.662   2.269   0.210
  903SOL     OW 3607   6.696   4.009   6.350
  903SOL    HW1 3608   6.610   4.054   6.374
  903SOL    HW2 3609   6.766   4.034   6.416
  904SOL     OW 3610   1.972   2.744   3.295
  904SOL    HW1 3611   2.052   2.803   3.278
  904SOL    HW2 3612   1.893   2.801   3.314
  905SOL     OW 3613   4.760   3.866   6.249
  905SOL    HW1 3614   4.754   3.782   6.302
  905SOL    HW2 3615   4.716   3.940   6.299
  906SOL     OW 3616   0.669   3.161   5.877
  906SOL    HW1 3617   0.651   3.116   5.790
  906SOL    HW2 3618   0.605   3.128   5.946
  907SOL     OW 3619   6.111   3.111   2.851
  907SOL    HW1 3620   6.046   3.184   2.832
  907SOL    HW2 3621   6.092   3.033   2.791
  908SOL     OW 3622   1.744   6.005   3.292
  908SOL    HW1 3623   1.716   5.909   3.289
  908SOL    HW2 3624   1.662   6.062   3.298
  909SOL     OW 3625   2.741   6.154   2.155
  909SOL    HW1 3626   2.676   6.229   2.164
  909SOL    HW2 3627   2.830   6.190   2.129
  910SOL     OW 3628   2.673   0.465   1.219
  910SOL    HW1 3629   2.654   0.398   1.147
  910SOL    HW2 3630   2.626   0.551   1.199
  911SOL     OW 3631   6.947   5.159   1.094
  911SOL    HW1 3632   6.937   5.197   1.002
  911SOL    HW2 3633   0.005   5.199   1.139
  912SOL     OW 3634   6.065   0.610   4.356
  912SOL    HW1 3635   6.072   0.511   4.347
  912SOL    HW2 3636   6.145   0.645   4.406
  913SOL     OW 3637   1.630   0.765   3.122
  913SOL    HW1 3638   1.725   0.785   3.102
  913SOL    HW2 3639   1.572   0.800   3.048
  914SOL     OW 3640   2.623   6.026   4.915
  914SOL    HW1 3641   2.554   6.074   4.860
  914SOL    HW2 3642   2.584   5.942   4.951
  915SOL     OW 3643   1.316   3.695   6.941
  915SOL    HW1 3644   1.234   3.649   6.975
  915SOL    HW2 3645   1.289   3.769   6.879
  916SOL     OW 3646   1.425   2.782   1.573
  916SOL    HW1 3647   1.461   2.826   1.490
  916SOL    HW2 3648   1.326   2.770   1.564
  917SOL     OW 3649   5.607   0.346   2.252
  917SOL    HW1 3650   5.521   0.379   2.291
  917SOL    HW2 3651   5.598   0.343   2.152
  918SOL     OW 3652   2.606   6.593   6.787
  918SOL    HW1 3653   2.591   6.618   6.691
  918SOL    HW2 3654   2.704   6.589   6.805
  919SOL     OW 3655   6.691   5.553   2.687
  919SOL    HW1 3656   6.592   5.562   2.690
  919SOL    HW2 3657   6.726   5.540   2.780
  920SOL     OW 3658   2.382   5.862   3.415
  920SOL    HW1 3659   2.368   5.875   3.514
  920SOL    HW2 3660   2.375   5.951   3.369
  921SOL     OW 3661   4.683   4.176   4.127
  921SOL    HW1 3662   4.722   4.146   4.040
  921SOL    HW2 3663   4.718   4.118   4.201
  922SOL     OW 3664   3.755   2.797   5.549
  922SOL    HW1 3665   3.818   2.764   5.618
  922SOL    HW2 3666   3.664   2.757   5.564
  923SOL     OW 3667   3.061   4.422   6.015
  923SOL    HW1 3668   2.998   4.416   6.091
  923SOL    HW2 3669   3.011   4.446   5.931
  924SOL     OW 3670   6.776   2.514   2.360
  924SOL    HW1 3671   6.798   2.582   2.431
  924SOL    HW2 3672   6.829   2.534   2.278
  925SOL     OW 3673   0.063   1.707   6.216
  925SOL    HW1 3674   0.003   1.770   6.264
  925SOL    HW2 3675   0.028   1.614   6.224
  926SOL     OW 3676   6.366   1.249   0.721
  926SOL    HW1 3677   6.412   1.330   0.685
  926SOL    HW2 3678   6.303   1.212   0.653
  927SOL     OW 3679   5.594   3.910   3.558
  927SOL    HW1 3680   5.653   3.949   3.487
  927SOL    HW2 3681   5.641   3.834   3.603
  928SOL     OW 3682   1.339   6.385   0.349
  928SOL    HW1 3683   1.342   6.342   0.439
  928SOL    HW2 3684   1.246   6.384   0.314
  929SOL     OW 3685   0.956   0.698   1.175
  929SOL    HW1 3686   1.016   0.775   1.195
  929SOL    HW2 3687   0.919   0.708   1.082
  930SOL     OW 3688   5.612   5.977   4.893
  930SOL    HW1 3689   5.683   5.995   4.825
  930SOL    HW2 3690   5.523   5.975   4.849
  931SOL     OW 3691   5.821   3.130   3.029
  931SOL    HW1 3692   5.826   3.111   2.931
  931SOL    HW2 3693   5.906   3.098   3.073
  932SOL     OW 3694   2.908   6.744   2.705
  932SOL    HW1 3695   2.987   6.685   2.686
  932SOL    HW2 3696   2.871   6.778   2.618
  933SOL     OW 3697   0.714   5.794   3.121
  933SOL    HW1 3698   0.751   5.701   3.118
  933SOL    HW2 3699   0.774   5.852   3.176
  934SOL     OW 3700   1.551   0.858   4.501
  934SOL    HW1 3701   1.580   0.951   4.477
  934SOL    HW2 3702   1.498   0.861   4.586
  935SOL     OW 3703   5.060   4.196   5.289
  935SOL    HW1 3704   5.083   4.289   5.260
  935SOL    HW2 3705   5.124   4.131   5.247
  936SOL     OW 3706   1.678   1.115   6.291
  936SOL    HW1 3707   1.606   1.118   6.361
  936SOL    HW2 3708   1.639   1.083   6.205
  937SOL     OW 3709   5.061   1.439   4.555
  937SOL    HW1 3710   5.102   1.529   4.568
  937SOL    HW2 3711   4.968   1.439   4.593
  938SOL     OW 3712   0.541   5.565   6.202
  938SOL    HW1 3713   0.504   5.572   6.109
  938SOL    HW2 3714   0.518   5.476   6.240
  939SOL     OW 3715   5.211   0.680   5.440
  939SOL    HW1 3716   5.241   0.654   5.532
  939SOL    HW2 3717   5.250   0.616   5.373
  940SOL     OW 3718   0.915   3.070   2.483
  940SOL    HW1 3719   0.828   3.100   2.445
  940SOL    HW2 3720   0.919   2.970   2.481
  941SOL     OW 3721   6.536   0.764   4.791
  941SOL    HW1 3722   6.461   0.703   4.768
  941SOL    HW2 3723   6.576   0.737   4.879
  942SOL     OW 3724   4.792   0.109   3.691
  942SOL    HW1 3725   4.696   0.127   3.670
  942SOL    HW2 3726   4.829   0.043   3.625
  943SOL     OW 3727   1.709   3.473   3.413
  943SOL    HW1 3728   1.654   3.417   3.475
  943SOL    HW2 3729   1.714   3.566   3.448
  944SOL     OW 3730   6.675   3.901   5.515
  944SOL    HW1 3731   6.709   3.966   5.446
  944SOL    HW2 3732   6.578   3.885   5.500
  945SOL     OW 3733   6.809   4.866   5.598
  945SOL    HW1 3734   6.902   4.895   5.623
  945SOL    HW2 3735   6.809   4.830   5.505
  946SOL     OW 3736   4.619   3.007   5.644
  946SOL    HW1 3737   4.539   2.957   5.677
  946SOL    HW2 3738   4.610   3.021   5.545
  947SOL     OW 3739   3.461   2.903   4.419
  947SOL    HW1 3740   3.385   2.968   4.418
  947SOL    HW2 3741   3.501   2.897   4.328
  948SOL     OW 3742   4.133   0.177   0.961
  948SOL    HW1 3743   4.230   0.182   0.937
  948SOL    HW2 3744   4.087   0.111   0.902
  949SOL     OW 3745   1.086   6.613   6.242
  949SOL    HW1 3746   1.116   6.524   6.277
  949SOL    HW2 3747   1.050   6.668   6.317
  950SOL     OW 3748   4.294   4.930   1.911
  950SOL    HW1 3749   4.276   4.962   2.004
  950SOL    HW2 3750   4.250   4.842   1.897
  951SOL     OW 3751   2.063   0.352   2.776
  951SOL    HW1 3752   2.040   0.256   2.761
  951SOL    HW2 3753   2.163   0.361   2.783
  952SOL     OW 3754   5.189   1.900   2.664
  952SOL    HW1 3755   5.203   1.995   2.636
  952SOL    HW2 3756   5.091   1.879   2.660
  953SOL     OW 3757   5.038   5.638   4.763
  953SOL    HW1 3758   4.976   5.681   4.830
  953SOL    HW2 3759   5.089   5.565   4.808
  954SOL     OW 3760   4.809   5.740   0.277
  954SOL    HW1 3761   4.753   5.659   0.289
  954SOL    HW2 3762   4.790   5.805   0.351
  955SOL     OW 3763   0.033   4.497   2.869
  955SOL    HW1 3764   0.080   4.555   2.803
  955SOL    HW2 3765   0.026   4.545   2.957
  956SOL     OW 3766   0.223   2.136   2.679
  956SOL    HW1 3767   0.239   2.038   2.680
  956SOL    HW2 3768   0.242   2.172   2.588
  957SOL     OW 3769   0.728   5.073   4.410
  957SOL    HW1 3770   0.685   5.093   4.322
  957SOL    HW2 3771   0.690   5.134   4.480
  958SOL     OW 3772   4.585   1.929   2.859
  958SOL    HW1 3773   4.568   1.947   2.762
  958SOL    HW2 3774   4.547   1.840   2.884
  959SOL     OW 3775   3.292   5.418   3.245
  959SOL    HW1 3776   3.335   5.343   3.195
  959SOL    HW2 3777   3.355   5.497   3.246
  960SOL     OW 3778   0.243   5.535   3.444
  960SOL    HW1 3779   0.277   5.494   3.359
  960SOL    HW2 3780   0.320   5.571   3.496
  961SOL     OW 3781   4.598   0.062   3.367
  961SOL    HW1 3782   4.510   0.072   3.320
  961SOL    HW2 3783   4.670   0.104   3.311
  962SOL     OW 3784   1.157   0.864   4.188
  962SOL    HW1 3785   1.248   0.839   4.156
  962SOL    HW2 3786   1.148   0.963   4.190
  963SOL     OW 3787   6.851   2.341   6.399
  963SOL    HW1 3788   6.914   2.416   6.422
  963SOL    HW2 3789   6.878   2.302   6.311
  964SOL     OW 3790   6.186   4.348   6.919
  964SOL    HW1 3791   6.276   4.355   6.961
  964SOL    HW2 3792   6.115   4.366   6.987
  965SOL     OW 3793   5.778   1.658   0.603
  965SOL    HW1 3794   5.841   1.720   0.650
  965SOL    HW2 3795   5.737   1.704   0.525
  966SOL     OW 3796   5.103   2.685   1.840
  966SOL    HW1 3797   5.078   2.667   1.935
  966SOL    HW2 3798   5.175   2.755   1.838
  967SOL     OW 3799   2.325   4.864   1.706
  967SOL    HW1 3800   2.226   4.879   1.698
  967SOL    HW2 3801   2.343   4.769   1.730
  968SOL     OW 3802   3.508   1.875   2.384
  968SOL    HW1 3803   3.408   1.872   2.390
  968SOL    HW2 3804   3.535   1.942   2.315
  969SOL     OW 3805   3.558   5.801   6.656
  969SOL    HW1 3806   3.538   5.827   6.561
  969SOL    HW2 3807   3.508   5.861   6.718
  970SOL     OW 3808   4.673   1.311   5.544
  970SOL    HW1 3809   4.707   1.217   5.536
  970SOL    HW2 3810   4.747   1.375   5.523
  971SOL     OW 3811   6.640   2.216   2.907
  971SOL    HW1 3812   6.724   2.209   2.853
  971SOL    HW2 3813   6.663   2.212   3.004
  972SOL     OW 3814   5.531   3.878   1.550
  972SOL    HW1 3815   5.528   3.899   1.452
  972SOL    HW2 3816   5.626   3.876   1.581
  973SOL     OW 3817   6.986   4.528   6.900
  973SOL    HW1 3818   7.016   4.568   6.814
  973SOL    HW2 3819   7.004   4.592   6.975
  974SOL     OW 3820   5.623   0.053   2.345
  974SOL    HW1 3821   5.625   0.150   2.324
  974SOL    HW2 3822   5.547   0.009   2.295
  975SOL     OW 3823   1.734   5.490   6.822
  975SOL    HW1 3824   1.774   5.581   6.815
  975SOL    HW2 3825   1.639   5.498   6.852
  976SOL     OW 3826   6.469   3.321   3.124
  976SOL    HW1 3827   6.509   3.251   3.065
  976SOL    HW2 3828   6.532   3.343   3.198
  977SOL     OW 3829   1.355   0.713   2.873
  977SOL    HW1 3830   1.368   0.618   2.844
  977SOL    HW2 3831   1.349   0.716   2.973
  978SOL     OW 3832   4.780   3.517   5.854
  978SOL    HW1 3833   4.861   3.458   5.858
  978SOL    HW2 3834   4.732   3.503   5.768
  979SOL     OW 3835   0.087   2.147   1.002
  979SOL    HW1 3836   0.072   2.224   1.064
  979SOL    HW2 3837   0.020   2.151   0.928
  980SOL     OW 3838   4.291   2.305   4.019
  980SOL    HW1 3839   4.218   2.371   3.999
  980SOL    HW2 3840   4.337   2.331   4.104
  981SOL     OW 3841   1.333   2.207   5.435
  981SOL    HW1 3842   1.430   2.211   5.456
  981SOL    HW2 3843   1.294   2.123   5.475
  982SOL     OW 3844   2.267   2.159   3.711
  982SOL    HW1 3845   2.308   2.068   3.709
  982SOL    HW2 3846   2.214   2.169   3.795
  983SOL     OW 3847   5.882   2.230   4.805
  983SOL    HW1 3848   5.839   2.180   4.730
  983SOL    HW2 3849   5.947   2.171   4.852
  984SOL     OW 3850   2.892   1.599   4.289
  984SOL    HW1 3851   2.839   1.534   4.235
  984SOL    HW2 3852   2.859   1.597   4.384
  985SOL     OW 3853   4.928   4.704   6.454
  985SOL    HW1 3854   4.964   4.656   6.374
  985SOL    HW2 3855   4.870   4.779   6.425
  986SOL     OW 3856   5.426   4.224   0.837
  986SOL    HW1 3857   5.426   4.256   0.932
  986SOL    HW2 3858   5.520   4.203   0.809
  987SOL     OW 3859   4.351   0.006   1.859
  987SOL    HW1 3860   4.387   0.070   1.792
  987SOL    HW2 3861   4.370   0.041   1.951
  988SOL     OW 3862   3.419   3.283   3.191
  988SOL    HW1 3863   3.486   3.229   3.139
  988SOL    HW2 3864   3.375   3.224   3.259
  989SOL     OW 3865   6.496   0.848   5.365
  989SOL    HW1 3866   6.533   0.940   5.370
  989SOL    HW2 3867   6.561   0.784   5.406
  990SOL     OW 3868   4.211   0.630   1.943
  990SOL    HW1 3869   4.208   0.614   2.041
  990SOL    HW2 3870   4.164   0.556   1.895
  991SOL     OW 3871   1.625   3.219   5.197
  991SOL    HW1 3872   1.699   3.260   5.250
  991SOL    HW2 3873   1.566   3.166   5.258
  992SOL     OW 3874   0.080   2.806   2.325
  992SOL    HW1 3875   0.008   2.876   2.333
  992SOL    HW2 3876   0.152   2.840   2.265
  993SOL     OW 3877   1.528   4.634   2.135
  993SOL    HW1 3878   1.438   4.592   2.121
  993SOL    HW2 3879   1.583   4.624   2.052
  994SOL     OW 3880   3.316   3.803   2.526
  994SOL    HW1 3881   3.280   3.718   2.488
  994SOL    HW2 3882   3.244   3.871   2.531
  995SOL     OW 3883   3.774   3.215   5.294
  995SOL    HW1 3884   3.739   3.307   5.309
  995SOL    HW2 3885   3.754   3.158   5.374
  996SOL     OW 3886   2.052   4.612   3.956
  996SOL    HW1 3887   2.124   4.628   4.023
  996SOL    HW2 3888   1.964   4.601   4.003
  997SOL     OW 3889   1.199   0.805   3.119
  997SOL    HW1 3890   1.118   0.761   3.079
  997SOL    HW2 3891   1.184   0.904   3.123
  998SOL     OW 3892   4.099   6.534   4.388
  998SOL    HW1 3893   4.032   6.463   4.366
  998SOL    HW2 3894   4.086   6.612   4.327
  999SOL     OW 3895   5.210   4.324   2.129
  999SOL    HW1 3896   5.295   4.273   2.138
  999SOL    HW2 3897   5.190   4.338   2.032
 1000SOL     OW 3898   1.811   0.627   2.080
 1000SOL    HW1 3899   1.761   0.712   2.094
 1000SOL    HW2 3900   1.833   0.616   1.983
 1001SOL     OW 3901   5.540   6.532   0.653
 1001SOL    HW1 3902   5.587   6.445   0.637
 1001SOL    HW2 3903   5.503   6.567   0.567
 1002SOL     OW 3904   6.232   1.624   0.499
 1002SOL    HW1 3905   6.301   1.679   0.454
 1002SOL    HW2 3906   6.235   1.640   0.598
 1003SOL     OW 3907   2.323   5.983   1.498
 1003SOL    HW1 3908   2.336   5.916   1.425
 1003SOL    HW2 3909   2.371   5.952   1.580
 1004SOL     OW 3910   0.310   0.609   1.675
 1004SOL    HW1 3911   0.370   0.646   1.605
 1004SOL    HW2 3912   0.250   0.540   1.634
 1005SOL     OW 3913   1.057   2.342   3.463
 1005SOL    HW1 3914   1.043   2.389   3.376
 1005SOL    HW2 3915   0.982   2.366   3.525
 1006SOL     OW 3916   1.111   5.206   0.867
 1006SOL    HW1 3917   1.210   5.197   0.863
 1006SOL    HW2 3918   1.068   5.124   0.827
 1007SOL     OW 3919   4.997   0.212   4.679
 1007SOL    HW1 3920   5.036   0.260   4.758
 1007SOL    HW2 3921   5.067   0.201   4.608
 1008SOL     OW 3922   2.018   3.309   5.034
 1008SOL    HW1 3923   1.968   3.396   5.039
 1008SOL    HW2 3924   2.063   3.292   5.121
 1009SOL     OW 3925   0.243   5.541   4.793
 1009SOL    HW1 3926   0.307   5.506   4.861
 1009SOL    HW2 3927   0.197   5.465   4.748
 1010SOL     OW 3928   3.714   2.650   6.150
 1010SOL    HW1 3929   3.652   2.582   6.188
 1010SOL    HW2 3930   3.683   2.677   6.058
 1011SOL     OW 3931   2.357   5.116   2.265
 1011SOL    HW1 3932   2.270   5.164   2.253
 1011SOL    HW2 3933   2.347   5.046   2.335
 1012SOL     OW 3934   6.227   0.615   1.272
 1012SOL    HW1 3935   6.249   0.567   1.357
 1012SOL    HW2 3936   6.149   0.571   1.228
 1013SOL     OW 3937   1.206   1.321   5.940
 1013SOL    HW1 3938   1.123   1.308   5.886
 1013SOL    HW2 3939   1.267   1.385   5.894
 1014SOL     OW 3940   4.991   6.064   6.357
 1014SOL    HW1 3941   5.008   6.152   6.312
 1014SOL    HW2 3942   5.013   6.072   6.454
 1015SOL     OW 3943   2.557   6.820   5.606
 1015SOL    HW1 3944   2.604   6.895   5.653
 1015SOL    HW2 3945   2.530   6.849   5.514
 1016SOL     OW 3946   3.752   3.483   0.007
 1016SOL    HW1 3947   3.847   3.450   0.009
 1016SOL    HW2 3948   3.752   3.583   0.004
 1017SOL     OW 3949   3.901   2.764   1.255
 1017SOL    HW1 3950   3.983   2.724   1.297
 1017SOL    HW2 3951   3.854   2.694   1.202
 1018SOL     OW 3952   0.748   3.330   4.286
 1018SOL    HW1 3953   0.727   3.309   4.382
 1018SOL    HW2 3954   0.703   3.416   4.261
 1019SOL     OW 3955   6.906   0.213   1.310
 1019SOL    HW1 3956   6.865   0.188   1.222
 1019SOL    HW2 3957   6.966   0.293   1.297
 1020SOL     OW 3958   1.038   6.401   1.382
 1020SOL    HW1 3959   0.974   6.326   1.366
 1020SOL    HW2 3960   1.130   6.373   1.354
 1021SOL     OW 3961   5.076   0.403   1.049
 1021SOL    HW1 3962   5.156   0.375   0.995
 1021SOL    HW2 3963   4.994   0.396   0.993
 1022SOL     OW 3964   3.545   4.760   6.316
 1022SOL    HW1 3965   3.461   4.764   6.370
 1022SOL    HW2 3966   3.522   4.751   6.219
 1023SOL     OW 3967   1.002   6.838   2.467
 1023SOL    HW1 3968   0.997   6.792   2.556
 1023SOL    HW2 3969   1.078   6.902   2.467
 1024SOL     OW 3970   6.638   2.835   3.983
 1024SOL    HW1 3971   6.579   2.906   3.946
 1024SOL    HW2 3972   6.588   2.781   4.050
 1025SOL     OW 3973   2.403   2.972   0.742
 1025SOL    HW1 3974   2.444   2.992   0.831
 1025SOL    HW2 3975   2.423   2.877   0.717
 1026SOL     OW 3976   2.345   2.723   1.334
 1026SOL    HW1 3977   2.332   2.735   1.235
 1026SOL    HW2 3978   2.405   2.645   1.350
 1027SOL     OW 3979   2.742   6.612   1.006
 1027SOL    HW1 3980   2.667   6.634   0.944
 1027SOL    HW2 3981   2.794   6.695   1.026
 1028SOL     OW 3982   2.642   6.278   0.085
 1028SOL    HW1 3983   2.589   6.289   0.170
 1028SOL    HW2 3984   2.590   6.314   0.008
 1029SOL     OW 3985   2.205   0.576   0.244
 1029SOL    HW1 3986   2.194   0.499   0.307
 1029SOL    HW2 3987   2.261   0.646   0.287
 1030SOL     OW 3988   3.339   3.783   1.846
 1030SOL    HW1 3989   3.402   3.711   1.872
 1030SOL    HW2 3990   3.313   3.836   1.927
 1031SOL     OW 3991   4.676   5.120   0.918
 1031SOL    HW1 3992   4.653   5.174   0.837
 1031SOL    HW2 3993   4.636   5.029   0.910
 1032SOL     OW 3994   1.985   1.695   4.750
 1032SOL    HW1 3995   2.073   1.740   4.766
 1032SOL    HW2 3996   1.913   1.746   4.798
 1033SOL     OW 3997   1.560   6.080   0.657
 1033SOL    HW1 3998   1.502   6.044   0.730
 1033SOL    HW2 3999   1.650   6.103   0.693
 1034SOL     OW 4000   0.348   5.654   5.213
 1034SOL    HW1 4001   0.298   5.568   5.227
 1034SOL    HW2 4002   0.322   5.719   5.284
 1035SOL     OW 4003   1.423   1.479   4.333
 1035SOL    HW1 4004   1.358   1.523   4.395
 1035SOL    HW2 4005   1.400   1.502   4.238
 1036SOL     OW 4006   2.754   1.154   2.076
 1036SOL    HW1 4007   2.851   1.172   2.060
 1036SOL    HW2 4008   2.701   1.182   1.996
 1037SOL     OW 4009   1.492   0.405   1.857
 1037SOL    HW1 4010   1.405   0.403   1.906
 1037SOL    HW2 4011   1.559   0.347   1.905
 1038SOL     OW 4012   1.704   0.212   5.799
 1038SOL    HW1 4013   1.688   0.114   5.791
 1038SOL    HW2 4014   1.799   0.232   5.773
 1039SOL     OW 4015   3.547   3.115   5.738
 1039SOL    HW1 4016   3.519   3.071   5.824
 1039SOL    HW2 4017   3.506   3.207   5.733
 1040SOL     OW 4018   4.774   2.870   2.603
 1040SOL    HW1 4019   4.775   2.874   2.703
 1040SOL    HW2 4020   4.810   2.956   2.566
 1041SOL     OW 4021   6.371   7.005   4.406
 1041SOL    HW1 4022   6.294   6.954   4.368
 1041SOL    HW2 4023   6.456   6.960   4.381
 1042SOL     OW 4024   4.098   4.977   2.539
 1042SOL    HW1 4025   4.060   4.936   2.456
 1042SOL    HW2 4026   4.033   5.043   2.577
 1043SOL     OW 4027   3.818   1.604   4.491
 1043SOL    HW1 4028   3.902   1.635   4.446
 1043SOL    HW2 4029   3.751   1.678   4.493
 1044SOL     OW 4030   5.002   4.160   2.210
 1044SOL    HW1 4031   5.078   4.211   2.169
 1044SOL    HW2 4032   4.919   4.175   2.157
 1045SOL     OW 4033   3.847   6.214   2.510
 1045SOL    HW1 4034   3.829   6.132   2.456
 1045SOL    HW2 4035   3.936   6.252   2.483
 1046SOL     OW 4036   1.039   0.277   0.593
 1046SOL    HW1 4037   1.124   0.314   0.630
 1046SOL    HW2 4038   1.034   0.297   0.495
 1047SOL     OW 4039   1.572   0.460   3.348
 1047SOL    HW1 4040   1.635   0.406   3.292
 1047SOL    HW2 4041   1.533   0.403   3.420
 1048SOL     OW 4042   5.757   6.385   4.715
 1048SOL    HW1 4043   5.662   6.383   4.748
 1048SOL    HW2 4044   5.762   6.339   4.626
 1049SOL     OW 4045   6.105   5.425   4.004
 1049SOL    HW1 4046   6.079   5.358   3.935
 1049SOL    HW2 4047   6.071   5.515   3.978
 1050SOL     OW 4048   4.373   5.515   1.070
 1050SOL    HW1 4049   4.355   5.435   1.127
 1050SOL    HW2 4050   4.462   5.504   1.025
 1051SOL     OW 4051   2.362   6.190   0.905
 1051SOL    HW1 4052   2.415   6.113   0.869
 1051SOL    HW2 4053   2.424   6.253   0.952
 1052SOL     OW 4054   3.825   0.282   4.661
 1052SOL    HW1 4055   3.835   0.346   4.585
 1052SOL    HW2 4056   3.912   0.238   4.680
 1053SOL     OW 4057   5.707   4.901   3.149
 1053SOL    HW1 4058   5.649   4.855   3.217
 1053SOL    HW2 4059   5.789   4.846   3.132
 1054SOL     OW 4060   2.246   3.782   5.727
 1054SOL    HW1 4061   2.289   3.870   5.747
 1054SOL    HW2 4062   2.317   3.712   5.713
 1055SOL     OW 4063   5.353   6.707   3.737
 1055SOL    HW1 4064   5.325   6.799   3.763
 1055SOL    HW2 4065   5.432   6.712   3.676
 1056SOL     OW 4066   1.765   4.840   5.766
 1056SOL    HW1 4067   1.702   4.808   5.695
 1056SOL    HW2 4068   1.833   4.901   5.726
 1057SOL     OW 4069   3.293   3.341   2.635
 1057SOL    HW1 4070   3.279   3.293   2.548
 1057SOL    HW2 4071   3.209   3.391   2.658
 1058SOL     OW 4072   5.290   1.618   3.154
 1058SOL    HW1 4073   5.383   1.648   3.133
 1058SOL    HW2 4074   5.224   1.675   3.104
 1059SOL     OW 4075   2.239   0.369   1.326
 1059SOL    HW1 4076   2.294   0.419   1.393
 1059SOL    HW2 4077   2.300   0.316   1.266
 1060SOL     OW 4078   6.997   4.397   4.449
 1060SOL    HW1 4079   6.931   4.443   4.509
 1060SOL    HW2 4080   0.026   4.328   4.501
 1061SOL     OW 4081   5.699   3.699   1.337
 1061SOL    HW1 4082   5.640   3.644   1.396
 1061SOL    HW2 4083   5.647   3.776   1.301
 1062SOL     OW 4084   5.519   3.903   6.145
 1062SOL    HW1 4085   5.578   3.920   6.067
 1062SOL    HW2 4086   5.514   3.986   6.201
 1063SOL     OW 4087   2.012   4.855   1.351
 1063SOL    HW1 4088   2.093   4.875   1.296
 1063SOL    HW2 4089   2.009   4.917   1.430
 1064SOL     OW 4090   2.025   4.361   1.975
 1064SOL    HW1 4091   2.071   4.450   1.984
 1064SOL    HW2 4092   1.976   4.357   1.889
 1065SOL     OW 4093   4.361   6.938   4.034
 1065SOL    HW1 4094   4.414   6.858   4.005
 1065SOL    HW2 4095   4.278   6.907   4.080
 1066SOL     OW 4096   4.853   0.510   3.967
 1066SOL    HW1 4097   4.820   0.510   3.873
 1066SOL    HW2 4098   4.780   0.542   4.028
 1067SOL     OW 4099   0.979   3.085   0.526
 1067SOL    HW1 4100   1.074   3.114   0.539
 1067SOL    HW2 4101   0.951   3.101   0.432
 1068SOL     OW 4102   4.946   4.851   2.596
 1068SOL    HW1 4103   5.006   4.855   2.676
 1068SOL    HW2 4104   4.881   4.775   2.607
 1069SOL     OW 4105   4.753   4.614   0.800
 1069SOL    HW1 4106   4.787   4.649   0.888
 1069SOL    HW2 4107   4.767   4.683   0.729
 1070SOL     OW 4108   0.264   0.050   2.133
 1070SOL    HW1 4109   0.279   0.011   2.224
 1070SOL    HW2 4110   0.297   0.144   2.133
 1071SOL     OW 4111   1.992   0.361   3.074
 1071SOL    HW1 4112   1.989   0.261   3.077
 1071SOL    HW2 4113   2.028   0.391   2.986
 1072SOL     OW 4114   1.896   0.047   1.153
 1072SOL    HW1 4115   1.809   0.036   1.200
 1072SOL    HW2 4116   1.967   0.071   1.219
 1073SOL     OW 4117   4.379   6.767   1.853
 1073SOL    HW1 4118   4.393   6.763   1.754
 1073SOL    HW2 4119   4.369   6.863   1.881
 1074SOL     OW 4120   2.572   5.563   0.642
 1074SOL    HW1 4121   2.511   5.596   0.714
 1074SOL    HW2 4122   2.629   5.638   0.609
 1075SOL     OW 4123   4.122   6.674   3.956
 1075SOL    HW1 4124   4.090   6.768   3.956
 1075SOL    HW2 4125   4.062   6.618   4.014
 1076SOL     OW 4126   6.407   3.869   5.527
 1076SOL    HW1 4127   6.367   3.834   5.442
 1076SOL    HW2 4128   6.334   3.902   5.587
 1077SOL     OW 4129   5.534   0.192   1.186
 1077SOL    HW1 4130   5.472   0.116   1.204
 1077SOL    HW2 4131   5.567   0.187   1.091
 1078SOL     OW 4132   0.726   1.632   2.401
 1078SOL    HW1 4133   0.696   1.555   2.345
 1078SOL    HW2 4134   0.704   1.614   2.497
 1079SOL     OW 4135   2.076   5.899   1.898
 1079SOL    HW1 4136   2.049   5.974   1.958
 1079SOL    HW2 4137   2.050   5.920   1.803
 1080SOL     OW 4138   1.541   4.577   3.493
 1080SOL    HW1 4139   1.479   4.563   3.570
 1080SOL    HW2 4140   1.635   4.556   3.522
 1081SOL     OW 4141   0.375   6.202   6.261
 1081SOL    HW1 4142   0.295   6.159   6.303
 1081SOL    HW2 4143   0.351   6.295   6.232
 1082SOL     OW 4144   3.848   1.834   5.861
 1082SOL    HW1 4145   3.811   1.816   5.952
 1082SOL    HW2 4146   3.793   1.786   5.793
 1083SOL     OW 4147   3.845   3.798   1.121
 1083SOL    HW1 4148   3.943   3.782   1.126
 1083SOL    HW2 4149   3.822   3.840   1.033
 1084SOL     OW 4150   6.372   5.734   0.388
 1084SOL    HW1 4151   6.410   5.826   0.379
 1084SOL    HW2 4152   6.294   5.724   0.327
 1085SOL     OW 4153   1.290   3.960   3.794
 1085SOL    HW1 4154   1.354   3.883   3.782
 1085SOL    HW2 4155   1.298   4.022   3.716
 1086SOL     OW 4156   6.585   5.952   1.925
 1086SOL    HW1 4157   6.544   5.950   1.834
 1086SOL    HW2 4158   6.597   6.047   1.954
 1087SOL     OW 4159   6.071   2.737   5.643
 1087SOL    HW1 4160   6.001   2.776   5.583
 1087SOL    HW2 4161   6.035   2.655   5.688
 1088SOL     OW 4162   6.295   4.569   3.459
 1088SOL    HW1 4163   6.229   4.643   3.475
 1088SOL    HW2 4164   6.246   4.486   3.431
 1089SOL     OW 4165   1.414   6.513   4.859
 1089SOL    HW1 4166   1.454   6.421   4.854
 1089SOL    HW2 4167   1.471   6.571   4.918
 1090SOL     OW 4168   2.477   1.446   3.522
 1090SOL    HW1 4169   2.423   1.369   3.556
 1090SOL    HW2 4170   2.561   1.453   3.575
 1091SOL     OW 4171   2.553   2.753   5.595
 1091SOL    HW1 4172   2.478   2.756   5.661
 1091SOL    HW2 4173   2.518   2.774   5.503
 1092SOL     OW 4174   1.691   4.064   0.614
 1092SOL    HW1 4175   1.753   4.109   0.678
 1092SOL    HW2 4176   1.701   4.104   0.523
 1093SOL     OW 4177   1.337   1.722   2.127
 1093SOL    HW1 4178   1.402   1.763   2.192
 1093SOL    HW2 4179   1.248   1.711   2.172
 1094SOL     OW 4180   0.785   5.988   3.979
 1094SOL    HW1 4181   0.823   5.988   3.886
 1094SOL    HW2 4182   0.834   5.921   4.035
 1095SOL     OW 4183   0.753   2.700   6.120
 1095SOL    HW1 4184   0.746   2.693   6.219
 1095SOL    HW2 4185   0.774   2.794   6.094
 1096SOL     OW 4186   3.283   4.593   1.707
 1096SOL    HW1 4187   3.347   4.646   1.763
 1096SOL    HW2 4188   3.193   4.595   1.750
 1097SOL     OW 4189   1.783   4.061   3.914
 1097SOL    HW1 4190   1.844   4.015   3.979
 1097SOL    HW2 4191   1.768   4.155   3.944
 1098SOL     OW 4192   4.516   3.240   1.020
 1098SOL    HW1 4193   4.505   3.242   0.920
 1098SOL    HW2 4194   4.611   3.221   1.043
 1099SOL     OW 4195   4.257   1.621   5.280
 1099SOL    HW1 4196   4.241   1.534   5.234
 1099SOL    HW2 4197   4.336   1.666   5.239
 1100SOL     OW 4198   3.243   1.964   5.863
 1100SOL    HW1 4199   3.316   2.032   5.867
 1100SOL    HW2 4200   3.160   2.005   5.825
 1101SOL     OW 4201   6.088   2.249   0.299
 1101SOL    HW1 4202   6.086   2.347   0.282
 1101SOL    HW2 4203   6.003   2.221   0.344
 1102SOL     OW 4204   1.072   5.861   4.466
 1102SOL    HW1 4205   1.013   5.792   4.508
 1102SOL    HW2 4206   1.113   5.917   4.537
 1103SOL     OW 4207   3.568   1.783   0.966
 1103SOL    HW1 4208   3.515   1.699   0.950
 1103SOL    HW2 4209   3.530   1.857   0.911
 1104SOL     OW 4210   2.314   3.322   5.438
 1104SOL    HW1 4211   2.401   3.370   5.438
 1104SOL    HW2 4212   2.241   3.386   5.462
 1105SOL     OW 4213   6.027   3.893   4.568
 1105SOL    HW1 4214   6.088   3.814   4.570
 1105SOL    HW2 4215   5.998   3.910   4.474
 1106SOL     OW 4216   0.894   2.015   0.927
 1106SOL    HW1 4217   0.814   1.996   0.871
 1106SOL    HW2 4218   0.910   1.939   0.991
 1107SOL     OW 4219   1.939   0.361   6.544
 1107SOL    HW1 4220   1.993   0.277   6.548
 1107SOL    HW2 4221   2.000   0.440   6.549
 1108SOL     OW 4222   3.214   1.108   5.935
 1108SOL    HW1 4223   3.220   1.049   5.854
 1108SOL    HW2 4224   3.143   1.177   5.921
 1109SOL     OW 4225   4.608   6.809   4.769
 1109SOL    HW1 4226   4.524   6.855   4.797
 1109SOL    HW2 4227   4.686   6.870   4.786
 1110SOL     OW 4228   2.573   2.119   3.174
 1110SOL    HW1 4229   2.666   2.083   3.181
 1110SOL    HW2 4230   2.513   2.069   3.237
 1111SOL     OW 4231   5.019   4.757   6.712
 1111SOL    HW1 4232   4.994   4.749   6.616
 1111SOL    HW2 4233   5.083   4.684   6.736
 1112SOL     OW 4234   5.045   1.241   2.387
 1112SOL    HW1 4235   5.115   1.307   2.413
 1112SOL    HW2 4236   4.977   1.235   2.460
 1113SOL     OW 4237   0.166   3.296   2.880
 1113SOL    HW1 4238   0.101   3.349   2.935
 1113SOL    HW2 4239   0.255   3.296   2.925
 1114SOL     OW 4240   4.276   1.644   6.496
 1114SOL    HW1 4241   4.325   1.564   6.461
 1114SOL    HW2 4242   4.184   1.646   6.457
 1115SOL     OW 4243   4.298   3.117   0.234
 1115SOL    HW1 4244   4.238   3.101   0.312
 1115SOL    HW2 4245   4.390   3.082   0.254
 1116SOL     OW 4246   5.538   6.064   5.295
 1116SOL    HW1 4247   5.573   6.089   5.385
 1116SOL    HW2 4248   5.592   6.109   5.224
 1117SOL     OW 4249   1.526   2.209   1.490
 1117SOL    HW1 4250   1.609   2.172   1.531
 1117SOL    HW2 4251   1.487   2.142   1.427
 1118SOL     OW 4252   2.624   4.242   1.455
 1118SOL    HW1 4253   2.641   4.314   1.523
 1118SOL    HW2 4254   2.671   4.265   1.370
 1119SOL     OW 4255   4.455   4.173   0.372
 1119SOL    HW1 4256   4.408   4.260   0.386
 1119SOL    HW2 4257   4.551   4.190   0.349
 1120SOL     OW 4258   5.906   0.051   5.052
 1120SOL    HW1 4259   5.838   0.104   5.001
 1120SOL    HW2 4260   5.886   0.057   5.149
 1121SOL     OW 4261   5.094   5.224   2.436
 1121SOL    HW1 4262   5.019   5.269   2.484
 1121SOL    HW2 4263   5.063   5.134   2.403
 1122SOL     OW 4264   4.457   3.615   0.232
 1122SOL    HW1 4265   4.497   3.563   0.308
 1122SOL    HW2 4266   4.445   3.710   0.260
 1123SOL     OW 4267   5.339   1.455   3.613
 1123SOL    HW1 4268   5.243   1.471   3.632
 1123SOL    HW2 4269   5.359   1.357   3.624
 1124SOL     OW 4270   6.381   4.235   4.695
 1124SOL    HW1 4271   6.326   4.318   4.680
 1124SOL    HW2 4272   6.477   4.256   4.681
 1125SOL     OW 4273   3.172   1.399   4.814
 1125SOL    HW1 4274   3.208   1.489   4.790
 1125SOL    HW2 4275   3.081   1.388   4.774
 1126SOL     OW 4276   5.209   5.344   6.966
 1126SOL    HW1 4277   5.186   5.363   0.040
 1126SOL    HW2 4278   5.126   5.334   6.912
 1127SOL     OW 4279   4.708   5.086   5.026
 1127SOL    HW1 4280   4.626   5.119   4.977
 1127SOL    HW2 4281   4.735   4.998   4.989
 1128SOL     OW 4282   5.327   2.080   5.574
 1128SOL    HW1 4283   5.388   2.007   5.605
 1128SOL    HW2 4284   5.255   2.041   5.516
 1129SOL     OW 4285   3.276   0.677   6.834
 1129SOL    HW1 4286   3.334   0.625   6.896
 1129SOL    HW2 4287   3.245   0.619   6.759
 1130SOL     OW 4288   1.509   4.811   0.960
 1130SOL    HW1 4289   1.584   4.772   1.015
 1130SOL    HW2 4290   1.548   4.858   0.881
 1131SOL     OW 4291   7.010   6.306   6.194
 1131SOL    HW1 4292   6.961   6.389   6.166
 1131SOL    HW2 4293   6.997   6.234   6.126
 1132SOL     OW 4294   4.934   7.012   1.424
 1132SOL    HW1 4295   4.926   0.037   1.336
 1132SOL    HW2 4296   5.027   6.977   1.435
 1133SOL     OW 4297   1.034   0.408   1.126
 1133SOL    HW1 4298   0.970   0.343   1.086
 1133SOL    HW2 4299   0.988   0.496   1.140
 1134SOL     OW 4300   4.768   1.598   1.443
 1134SOL    HW1 4301   4.781   1.676   1.382
 1134SOL    HW2 4302   4.672   1.572   1.445
 1135SOL     OW 4303   1.991   1.263   2.595
 1135SOL    HW1 4304   1.918   1.325   2.625
 1135SOL    HW2 4305   1.967   1.226   2.505
 1136SOL     OW 4306   3.115   4.891   4.758
 1136SOL    HW1 4307   3.197   4.856   4.803
 1136SOL    HW2 4308   3.128   4.892   4.659
 1137SOL     OW 4309   1.338   1.763   5.930
 1137SOL    HW1 4310   1.257   1.754   5.872
 1137SOL    HW2 4311   1.397   1.835   5.894
 1138SOL     OW 4312   0.391   1.377   6.683
 1138SOL    HW1 4313   0.456   1.329   6.624
 1138SOL    HW2 4314   0.326   1.428   6.626
 1139SOL     OW 4315   3.154   5.561   1.424
 1139SOL    HW1 4316   3.138   5.491   1.354
 1139SOL    HW2 4317   3.150   5.652   1.381
 1140SOL     OW 4318   3.398   1.067   2.026
 1140SOL    HW1 4319   3.450   0.996   2.075
 1140SOL    HW2 4320   3.339   1.024   1.959
 1141SOL     OW 4321   0.392   6.888   6.555
 1141SOL    HW1 4322   0.443   6.943   6.489
 1141SOL    HW2 4323   0.386   6.794   6.523
 1142SOL     OW 4324   3.040   0.377   4.200
 1142SOL    HW1 4325   3.021   0.314   4.125
 1142SOL    HW2 4326   2.976   0.454   4.196
 1143SOL     OW 4327   1.584   3.563   1.712
 1143SOL    HW1 4328   1.547   3.541   1.803
 1143SOL    HW2 4329   1.684   3.563   1.715
 1144SOL     OW 4330   6.373   4.921   5.417
 1144SOL    HW1 4331   6.435   4.942   5.492
 1144SOL    HW2 4332   6.280   4.907   5.453
 1145SOL     OW 4333   0.314   4.113   2.134
 1145SOL    HW1 4334   0.241   4.087   2.071
 1145SOL    HW2 4335   0.402   4.111   2.087
 1146SOL     OW 4336   6.120   0.786   1.626
 1146SOL    HW1 4337   6.215   0.797   1.597
 1146SOL    HW2 4338   6.104   0.843   1.707
 1147SOL     OW 4339   1.419   5.162   0.876
 1147SOL    HW1 4340   1.379   5.073   0.900
 1147SOL    HW2 4341   1.478   5.193   0.951
 1148SOL     OW 4342   4.942   6.779   6.719
 1148SOL    HW1 4343   4.869   6.838   6.683
 1148SOL    HW2 4344   4.901   6.705   6.772
 1149SOL     OW 4345   6.380   4.033   2.539
 1149SOL    HW1 4346   6.343   4.068   2.453
 1149SOL    HW2 4347   6.304   4.013   2.601
 1150SOL     OW 4348   2.815   3.865   0.938
 1150SOL    HW1 4349   2.740   3.929   0.923
 1150SOL    HW2 4350   2.779   3.774   0.955
 1151SOL     OW 4351   4.623   4.994   6.791
 1151SOL    HW1 4352   4.664   4.905   6.810
 1151SOL    HW2 4353   4.683   5.047   6.731
 1152SOL     OW 4354   6.845   5.846   5.890
 1152SOL    HW1 4355   6.888   5.756   5.881
 1152SOL    HW2 4356   6.798   5.851   5.979
 1153SOL     OW 4357   2.369   6.986   2.235
 1153SOL    HW1 4358   2.292   6.925   2.216
 1153SOL    HW2 4359   2.336   0.041   2.292
 1154SOL     OW 4360   0.768   4.169   1.811
 1154SOL    HW1 4361   0.826   4.238   1.768
 1154SOL    HW2 4362   0.797   4.078   1.781
 1155SOL     OW 4363   2.531   5.119   6.896
 1155SOL    HW1 4364   2.559   5.171   6.815
 1155SOL    HW2 4365   2.506   5.182   6.969
 1156SOL     OW 4366   2.713   1.133   4.914
 1156SOL    HW1 4367   2.678   1.109   5.004
 1156SOL    HW2 4368   2.639   1.131   4.847
 1157SOL     OW 4369   5.911   0.601   5.071
 1157SOL    HW1 4370   5.950   0.669   5.132
 1157SOL    HW2 4371   5.838   0.551   5.118
 1158SOL     OW 4372   7.009   6.093   5.520
 1158SOL    HW1 4373   0.039   6.010   5.496
 1158SOL    HW2 4374   0.049   6.158   5.566
 1159SOL     OW 4375   5.997   6.521   3.871
 1159SOL    HW1 4376   5.926   6.464   3.831
 1159SOL    HW2 4377   5.958   6.609   3.899
 1160SOL     OW 4378   3.757   3.227   0.880
 1160SOL    HW1 4379   3.827   3.191   0.818
 1160SOL    HW2 4380   3.678   3.166   0.880
 1161SOL     OW 4381   5.793   0.446   6.783
 1161SOL    HW1 4382   5.814   0.371   6.721
 1161SOL    HW2 4383   5.825   0.424   6.875
 1162SOL     OW 4384   3.073   2.118   6.690
 1162SOL    HW1 4385   3.132   2.057   6.638
 1162SOL    HW2 4386   3.003   2.065   6.738
 1163SOL     OW 4387   7.021   3.270   1.536
 1163SOL    HW1 4388   0.011   3.320   1.450
 1163SOL    HW2 4389   6.932   3.292   1.575
 1164SOL     OW 4390   5.471   2.532   4.748
 1164SOL    HW1 4391   5.469   2.456   4.684
 1164SOL    HW2 4392   5.390   2.529   4.807
 1165SOL     OW 4393   2.281   4.695   4.104
 1165SOL    HW1 4394   2.291   4.617   4.166
 1165SOL    HW2 4395   2.344   4.767   4.130
 1166SOL     OW 4396   3.848   6.740   0.636
 1166SOL    HW1 4397   3.775   6.725   0.569
 1166SOL    HW2 4398   3.926   6.783   0.591
 1167SOL     OW 4399   4.154   6.436   6.351
 1167SOL    HW1 4400   4.217   6.492   6.405
 1167SOL    HW2 4401   4.060   6.460   6.373
 1168SOL     OW 4402   5.626   1.920   3.574
 1168SOL    HW1 4403   5.624   1.910   3.673
 1168SOL    HW2 4404   5.628   1.830   3.531
 1169SOL     OW 4405   5.495   2.535   6.336
 1169SOL    HW1 4406   5.595   2.540   6.335
 1169SOL    HW2 4407   5.460   2.552   6.244
 1170SOL     OW 4408   5.237   1.432   2.751
 1170SOL    HW1 4409   5.317   1.485   2.724
 1170SOL    HW2 4410   5.259   1.335   2.752
 1171SOL     OW 4411   2.968   6.731   0.167
 1171SOL    HW1 4412   3.006   6.819   0.194
 1171SOL    HW2 4413   2.974   6.667   0.244
 1172SOL     OW 4414   3.277   3.882   2.111
 1172SOL    HW1 4415   3.263   3.787   2.140
 1172SOL    HW2 4416   3.316   3.934   2.186
 1173SOL     OW 4417   3.129   0.150   5.904
 1173SOL    HW1 4418   3.192   0.207   5.852
 1173SOL    HW2 4419   3.108   0.193   5.992
 1174SOL     OW 4420   3.121   4.201   6.952
 1174SOL    HW1 4421   3.173   4.115   6.952
 1174SOL    HW2 4422   3.122   4.240   0.023
 1175SOL     OW 4423   4.246   3.027   6.911
 1175SOL    HW1 4424   4.167   3.056   6.965
 1175SOL    HW2 4425   4.262   3.094   6.838
 1176SOL     OW 4426   5.865   4.152   0.339
 1176SOL    HW1 4427   5.772   4.177   0.313
 1176SOL    HW2 4428   5.870   4.054   0.355
 1177SOL     OW 4429   6.799   1.350   6.088
 1177SOL    HW1 4430   6.762   1.265   6.125
 1177SOL    HW2 4431   6.725   1.403   6.047
 1178SOL     OW 4432   3.503   3.656   1.067
 1178SOL    HW1 4433   3.470   3.567   1.036
 1178SOL    HW2 4434   3.525   3.713   0.987
 1179SOL     OW 4435   3.212   6.135   0.519
 1179SOL    HW1 4436   3.128   6.083   0.539
 1179SOL    HW2 4437   3.241   6.184   0.601
 1180SOL     OW 4438   2.451   6.215   3.869
 1180SOL    HW1 4439   2.372   6.226   3.930
 1180SOL    HW2 4440   2.443   6.280   3.793
 1181SOL     OW 4441   6.613   2.536   4.912
 1181SOL    HW1 4442   6.646   2.470   4.980
 1181SOL    HW2 4443   6.526   2.503   4.874
 1182SOL     OW 4444   2.962   5.355   3.821
 1182SOL    HW1 4445   2.919   5.384   3.907
 1182SOL    HW2 4446   2.902   5.289   3.775
 1183SOL     OW 4447   3.721   6.126   1.881
 1183SOL    HW1 4448   3.763   6.209   1.843
 1183SOL    HW2 4449   3.726   6.129   1.980
 1184SOL     OW 4450   4.691   6.658   6.495
 1184SOL    HW1 4451   4.643   6.629   6.413
 1184SOL    HW2 4452   4.758   6.728   6.471
 1185SOL     OW 4453   1.270   0.399   0.647
 1185SOL    HW1 4454   1.364   0.366   0.659
 1185SOL    HW2 4455   1.260   0.488   0.691
 1186SOL     OW 4456   5.999   5.872   6.408
 1186SOL    HW1 4457   5.912   5.840   6.369
 1186SOL    HW2 4458   6.066   5.881   6.334
 1187SOL     OW 4459   5.655   0.207   5.312
 1187SOL    HW1 4460   5.640   0.112   5.337
 1187SOL    HW2 4461   5.583   0.264   5.352
 1188SOL     OW 4462   3.579   6.275   6.712
 1188SOL    HW1 4463   3.480   6.266   6.719
 1188SOL    HW2 4464   3.617   6.291   6.803
 1189SOL     OW 4465   6.206   0.998   2.157
 1189SOL    HW1 4466   6.234   1.057   2.081
 1189SOL    HW2 4467   6.239   1.037   2.243
 1190SOL     OW 4468   3.382   5.108   3.978
 1190SOL    HW1 4469   3.332   5.190   3.950
 1190SOL    HW2 4470   3.479   5.130   3.986
 1191SOL     OW 4471   2.943   6.641   4.650
 1191SOL    HW1 4472   2.940   6.740   4.669
 1191SOL    HW2 4473   2.974   6.626   4.557
 1192SOL     OW 4474   5.444   6.291   3.096
 1192SOL    HW1 4475   5.477   6.378   3.134
 1192SOL    HW2 4476   5.439   6.297   2.997
 1193SOL     OW 4477   0.550   0.814   5.309
 1193SOL    HW1 4478   0.584   0.878   5.377
 1193SOL    HW2 4479   0.591   0.835   5.220
 1194SOL     OW 4480   0.323   1.456   1.156
 1194SOL    HW1 4481   0.234   1.485   1.120
 1194SOL    HW2 4482   0.314   1.365   1.197
 1195SOL     OW 4483   6.877   3.528   1.047
 1195SOL    HW1 4484   6.908   3.617   1.079
 1195SOL    HW2 4485   6.790   3.537   0.999
 1196SOL     OW 4486   6.209   4.992   2.133
 1196SOL    HW1 4487   6.137   5.018   2.197
 1196SOL    HW2 4488   6.298   5.012   2.172
 1197SOL     OW 4489   4.631   6.524   4.002
 1197SOL    HW1 4490   4.697   6.506   3.929
 1197SOL    HW2 4491   4.629   6.446   4.065
 1198SOL     OW 4492   1.313   3.865   2.528
 1198SOL    HW1 4493   1.401   3.912   2.525
 1198SOL    HW2 4494   1.247   3.914   2.473
 1199SOL     OW 4495   3.840   3.324   2.691
 1199SOL    HW1 4496   3.885   3.395   2.746
 1199SOL    HW2 4497   3.792   3.367   2.615
 1200SOL     OW 4498   4.009   3.884   4.237
 1200SOL    HW1 4499   4.020   3.823   4.158
 1200SOL    HW2 4500   4.097   3.895   4.283
 1201SOL     OW 4501   6.951   1.123   4.167
 1201SOL    HW1 4502   6.908   1.038   4.134
 1201SOL    HW2 4503   6.932   1.134   4.265
 1202SOL     OW 4504   6.139   0.905   5.866
 1202SOL    HW1 4505   6.227   0.948   5.888
 1202SOL    HW2 4506   6.135   0.814   5.908
 1203SOL     OW 4507   0.292   6.750   1.270
 1203SOL    HW1 4508   0.348   6.826   1.239
 1203SOL    HW2 4509   0.335   6.664   1.242
 1204SOL     OW 4510   4.500   1.824   1.970
 1204SOL    HW1 4511   4.407   1.808   1.937
 1204SOL    HW2 4512   4.565   1.790   1.902
 1205SOL     OW 4513   3.647   3.155   0.282
 1205SOL    HW1 4514   3.673   3.251   0.285
 1205SOL    HW2 4515   3.578   3.141   0.211
 1206SOL     OW 4516   1.505   2.629   4.433
 1206SOL    HW1 4517   1.446   2.589   4.504
 1206SOL    HW2 4518   1.585   2.671   4.476
 1207SOL     OW 4519   0.192   0.470   0.128
 1207SOL    HW1 4520   0.283   0.507   0.114
 1207SOL    HW2 4521   0.160   0.493   0.220
 1208SOL     OW 4522   3.482   3.644   1.395
 1208SOL    HW1 4523   3.480   3.548   1.423
 1208SOL    HW2 4524   3.409   3.661   1.328
 1209SOL     OW 4525   5.537   0.483   4.264
 1209SOL    HW1 4526   5.468   0.486   4.192
 1209SOL    HW2 4527   5.576   0.574   4.278
 1210SOL     OW 4528   4.938   6.964   3.485
 1210SOL    HW1 4529   4.947   6.925   3.393
 1210SOL    HW2 4530   4.994   6.910   3.549
 1211SOL     OW 4531   0.964   3.677   2.919
 1211SOL    HW1 4532   0.937   3.633   2.833
 1211SOL    HW2 4533   0.890   3.736   2.952
 1212SOL     OW 4534   6.410   0.714   6.391
 1212SOL    HW1 4535   6.443   0.738   6.300
 1212SOL    HW2 4536   6.482   0.733   6.458
 1213SOL     OW 4537   5.585   2.125   2.357
 1213SOL    HW1 4538   5.502   2.159   2.313
 1213SOL    HW2 4539   5.572   2.030   2.385
 1214SOL     OW 4540   0.662   2.452   6.349
 1214SOL    HW1 4541   0.630   2.362   6.316
 1214SOL    HW2 4542   0.750   2.441   6.395
 1215SOL     OW 4543   2.418   5.054   2.710
 1215SOL    HW1 4544   2.387   5.149   2.716
 1215SOL    HW2 4545   2.470   5.031   2.792
 1216SOL     OW 4546   7.020   0.948   0.507
 1216SOL    HW1 4547   0.033   0.901   0.588
 1216SOL    HW2 4548   6.921   0.960   0.515
 1217SOL     OW 4549   2.802   4.795   0.650
 1217SOL    HW1 4550   2.780   4.708   0.605
 1217SOL    HW2 4551   2.832   4.861   0.582
 1218SOL     OW 4552   1.475   3.916   5.831
 1218SOL    HW1 4553   1.563   3.911   5.879
 1218SOL    HW2 4554   1.418   3.839   5.858
 1219SOL     OW 4555   5.194   5.424   1.537
 1219SOL    HW1 4556   5.143   5.396   1.618
 1219SOL    HW2 4557   5.188   5.352   1.468
 1220SOL     OW 4558   6.943   3.843   2.469
 1220SOL    HW1 4559   6.884   3.810   2.542
 1220SOL    HW2 4560   0.017   3.840   2.499
 1221SOL     OW 4561   5.524   3.471   6.217
 1221SOL    HW1 4562   5.545   3.565   6.242
 1221SOL    HW2 4563   5.493   3.467   6.122
 1222SOL     OW 4564   0.648   0.539   0.270
 1222SOL    HW1 4565   0.632   0.583   0.181
 1222SOL    HW2 4566   0.734   0.573   0.308
 1223SOL     OW 4567   3.412   1.538   0.210
 1223SOL    HW1 4568   3.316   1.564   0.221
 1223SOL    HW2 4569   3.432   1.461   0.270
 1224SOL     OW 4570   2.980   5.717   6.978
 1224SOL    HW1 4571   3.006   5.731   6.883
 1224SOL    HW2 4572   2.899   5.772   6.999
 1225SOL     OW 4573   3.932   2.419   0.321
 1225SOL    HW1 4574   3.962   2.337   0.273
 1225SOL    HW2 4575   3.889   2.393   0.407
 1226SOL     OW 4576   4.420   6.276   0.689
 1226SOL    HW1 4577   4.460   6.188   0.663
 1226SOL    HW2 4578   4.327   6.282   0.652
 1227SOL     OW 4579   5.109   5.187   6.221
 1227SOL    HW1 4580   5.068   5.147   6.139
 1227SOL    HW2 4581   5.131   5.283   6.205
 1228SOL     OW 4582   3.291   2.541   0.062
 1228SOL    HW1 4583   3.247   2.455   0.037
 1228SOL    HW2 4584   3.221   2.613   0.067
 1229SOL     OW 4585   1.704   5.472   0.121
 1229SOL    HW1 4586   1.690   5.377   0.146
 1229SOL    HW2 4587   1.751   5.478   0.033
 1230SOL     OW 4588   5.855   5.614   2.356
 1230SOL    HW1 4589   5.939   5.634   2.408
 1230SOL    HW2 4590   5.855   5.518   2.330
 1231SOL     OW 4591   1.783   1.773   5.611
 1231SOL    HW1 4592   1.730   1.848   5.570
 1231SOL    HW2 4593   1.812   1.800   5.703
 1232SOL     OW 4594   5.888   1.414   4.768
 1232SOL    HW1 4595   5.919   1.342   4.830
 1232SOL    HW2 4596   5.810   1.462   4.810
 1233SOL     OW 4597   0.465   6.019   4.777
 1233SOL    HW1 4598   0.397   6.022   4.851
 1233SOL    HW2 4599   0.519   6.103   4.778
 1234SOL     OW 4600   6.145   2.163   5.634
 1234SOL    HW1 4601   6.153   2.258   5.604
 1234SOL    HW2 4602   6.230   2.135   5.679
 1235SOL     OW 4603   6.336   5.059   1.431
 1235SOL    HW1 4604   6.274   5.062   1.509
 1235SOL    HW2 4605   6.284   5.072   1.346
 1236SOL     OW 4606   3.543   1.335   2.024
 1236SOL    HW1 4607   3.485   1.390   1.964
 1236SOL    HW2 4608   3.492   1.256   2.056
 1237SOL     OW 4609   0.742   4.940   5.246
 1237SOL    HW1 4610   0.759   4.908   5.153
 1237SOL    HW2 4611   0.801   4.892   5.310
 1238SOL     OW 4612   1.428   0.642   5.494
 1238SOL    HW1 4613   1.461   0.626   5.587
 1238SOL    HW2 4614   1.330   0.624   5.491
 1239SOL     OW 4615   0.301   0.128   5.886
 1239SOL    HW1 4616   0.288   0.030   5.871
 1239SOL    HW2 4617   0.346   0.168   5.806
 1240SOL     OW 4618   5.995   5.783   1.156
 1240SOL    HW1 4619   5.990   5.863   1.097
 1240SOL    HW2 4620   5.934   5.796   1.235
 1241SOL     OW 4621   5.909   4.639   5.716
 1241SOL    HW1 4622   5.834   4.705   5.711
 1241SOL    HW2 4623   5.902   4.575   5.640
 1242SOL     OW 4624   2.120   4.474   0.502
 1242SOL    HW1 4625   2.024   4.481   0.531
 1242SOL    HW2 4626   2.123   4.468   0.402
 1243SOL     OW 4627   0.700   1.503   4.794
 1243SOL    HW1 4628   0.793   1.494   4.758
 1243SOL    HW2 4629   0.701   1.486   4.893
 1244SOL     OW 4630   5.263   5.822   5.003
 1244SOL    HW1 4631   5.343   5.771   5.032
 1244SOL    HW2 4632   5.183   5.762   5.006
 1245SOL     OW 4633   5.507   4.295   6.710
 1245SOL    HW1 4634   5.529   4.378   6.762
 1245SOL    HW2 4635   5.451   4.235   6.767
 1246SOL     OW 4636   3.366   1.827   2.644
 1246SOL    HW1 4637   3.329   1.920   2.649
 1246SOL    HW2 4638   3.445   1.819   2.706
 1247SOL     OW 4639   6.570   6.980   6.147
 1247SOL    HW1 4640   6.537   6.887   6.128
 1247SOL    HW2 4641   6.501   0.025   6.119
 1248SOL     OW 4642   1.817   6.017   3.740
 1248SOL    HW1 4643   1.874   6.099   3.746
 1248SOL    HW2 4644   1.723   6.044   3.719
 1249SOL     OW 4645   0.524   3.050   1.899
 1249SOL    HW1 4646   0.608   3.016   1.942
 1249SOL    HW2 4647   0.529   3.150   1.890
 1250SOL     OW 4648   5.690   4.911   3.519
 1250SOL    HW1 4649   5.618   4.860   3.472
 1250SOL    HW2 4650   5.651   4.992   3.564
 1251SOL     OW 4651   1.893   0.782   3.049
 1251SOL    HW1 4652   1.957   0.731   3.106
 1251SOL    HW2 4653   1.937   0.806   2.962
 1252SOL     OW 4654   3.761   4.638   6.417
 1252SOL    HW1 4655   3.815   4.722   6.419
 1252SOL    HW2 4656   3.667   4.658   6.390
 1253SOL     OW 4657   3.245   6.846   2.776
 1253SOL    HW1 4658   3.324   6.786   2.764
 1253SOL    HW2 4659   3.223   6.890   2.689
 1254SOL     OW 4660   0.261   2.263   4.062
 1254SOL    HW1 4661   0.347   2.258   4.012
 1254SOL    HW2 4662   0.193   2.203   4.019
 1255SOL     OW 4663   5.302   1.711   6.109
 1255SOL    HW1 4664   5.253   1.797   6.125
 1255SOL    HW2 4665   5.243   1.634   6.134
 1256SOL     OW 4666   0.576   6.253   3.769
 1256SOL    HW1 4667   0.592   6.235   3.672
 1256SOL    HW2 4668   0.488   6.215   3.796
 1257SOL     OW 4669   7.004   5.008   4.419
 1257SOL    HW1 4670   6.921   4.964   4.453
 1257SOL    HW2 4671   0.062   4.971   4.467
 1258SOL     OW 4672   1.744   5.004   2.763
 1258SOL    HW1 4673   1.776   5.084   2.814
 1258SOL    HW2 4674   1.659   5.028   2.716
 1259SOL     OW 4675   3.612   6.756   4.864
 1259SOL    HW1 4676   3.689   6.693   4.855
 1259SOL    HW2 4677   3.646   6.847   4.887
 1260SOL     OW 4678   3.290   1.612   0.535
 1260SOL    HW1 4679   3.379   1.578   0.566
 1260SOL    HW2 4680   3.264   1.691   0.591
 1261SOL     OW 4681   6.721   5.110   6.554
 1261SOL    HW1 4682   6.771   5.101   6.640
 1261SOL    HW2 4683   6.665   5.029   6.539
 1262SOL     OW 4684   5.239   4.959   1.443
 1262SOL    HW1 4685   5.154   4.911   1.423
 1262SOL    HW2 4686   5.311   4.893   1.464
 1263SOL     OW 4687   7.005   1.724   1.429
 1263SOL    HW1 4688   6.973   1.723   1.334
 1263SOL    HW2 4689   6.929   1.709   1.491
 1264SOL     OW 4690   0.194   3.844   1.264
 1264SOL    HW1 4691   0.237   3.917   1.317
 1264SOL    HW2 4692   0.141   3.786   1.325
 1265SOL     OW 4693   5.158   5.615   3.632
 1265SOL    HW1 4694   5.166   5.558   3.714
 1265SOL    HW2 4695   5.078   5.673   3.640
 1266SOL     OW 4696   0.787   1.168   3.989
 1266SOL    HW1 4697   0.832   1.245   4.035
 1266SOL    HW2 4698   0.846   1.132   3.917
 1267SOL     OW 4699   5.743   6.433   1.270
 1267SOL    HW1 4700   5.650   6.443   1.235
 1267SOL    HW2 4701   5.807   6.478   1.207
 1268SOL     OW 4702   4.098   2.748   0.272
 1268SOL    HW1 4703   4.145   2.835   0.255
 1268SOL    HW2 4704   4.064   2.747   0.366
 1269SOL     OW 4705   5.653   6.417   5.888
 1269SOL    HW1 4706   5.694   6.332   5.922
 1269SOL    HW2 4707   5.726   6.479   5.860
 1270SOL     OW 4708   2.126   4.065   3.824
 1270SOL    HW1 4709   2.028   4.074   3.843
 1270SOL    HW2 4710   2.177   4.102   3.902
 1271SOL     OW 4711   3.167   2.084   3.706
 1271SOL    HW1 4712   3.089   2.088   3.768
 1271SOL    HW2 4713   3.154   2.011   3.639
 1272SOL     OW 4714   5.538   5.572   0.119
 1272SOL    HW1 4715   5.476   5.502   0.156
 1272SOL    HW2 4716   5.616   5.527   0.074
 1273SOL     OW 4717   0.784   4.516   6.677
 1273SOL    HW1 4718   0.871   4.467   6.683
 1273SOL    HW2 4719   0.720   4.461   6.622
 1274SOL     OW 4720   6.186   3.344   1.853
 1274SOL    HW1 4721   6.222   3.437   1.839
 1274SOL    HW2 4722   6.249   3.292   1.910
 1275SOL     OW 4723   3.259   1.259   4.470
 1275SOL    HW1 4724   3.332   1.272   4.538
 1275SOL    HW2 4725   3.226   1.349   4.440
 1276SOL     OW 4726   6.743   0.546   4.723
 1276SOL    HW1 4727   6.686   0.628   4.715
 1276SOL    HW2 4728   6.839   0.572   4.726
 1277SOL     OW 4729   1.220   6.568   5.986
 1277SOL    HW1 4730   1.165   6.609   6.058
 1277SOL    HW2 4731   1.289   6.633   5.955
 1278SOL     OW 4732   1.189   0.214   5.261
 1278SOL    HW1 4733   1.151   0.130   5.224
 1278SOL    HW2 4734   1.186   0.286   5.191
 1279SOL     OW 4735   3.484   6.077   0.876
 1279SOL    HW1 4736   3.516   6.116   0.962
 1279SOL    HW2 4737   3.542   6.109   0.801
 1280SOL     OW 4738   3.043   6.564   4.362
 1280SOL    HW1 4739   3.110   6.636   4.379
 1280SOL    HW2 4740   3.087   6.489   4.313
 1281SOL     OW 4741   1.546   6.143   3.116
 1281SOL    HW1 4742   1.604   6.131   3.035
 1281SOL    HW2 4743   1.450   6.134   3.089
 1282SOL     OW 4744   0.798   1.815   6.203
 1282SOL    HW1 4745   0.839   1.729   6.233
 1282SOL    HW2 4746   0.831   1.890   6.261
 1283SOL     OW 4747   6.792   2.870   5.071
 1283SOL    HW1 4748   6.815   2.964   5.098
 1283SOL    HW2 4749   6.786   2.865   4.971
 1284SOL     OW 4750   4.649   1.213   2.410
 1284SOL    HW1 4751   4.701   1.181   2.331
 1284SOL    HW2 4752   4.571   1.153   2.426
 1285SOL     OW 4753   4.758   2.407   6.752
 1285SOL    HW1 4754   4.750   2.391   6.654
 1285SOL    HW2 4755   4.718   2.496   6.775
 1286SOL     OW 4756   4.880   3.648   2.240
 1286SOL    HW1 4757   4.856   3.744   2.251
 1286SOL    HW2 4758   4.845   3.614   2.153
 1287SOL     OW 4759   5.329   4.732   5.484
 1287SOL    HW1 4760   5.248   4.674   5.479
 1287SOL    HW2 4761   5.344   4.761   5.579
 1288SOL     OW 4762   4.731   3.510   0.175
 1288SOL    HW1 4763   4.687   3.504   0.265
 1288SOL    HW2 4764   4.661   3.522   0.105
 1289SOL     OW 4765   1.208   6.106   1.937
 1289SOL    HW1 4766   1.133   6.106   2.003
 1289SOL    HW2 4767   1.249   6.197   1.933
 1290SOL     OW 4768   1.289   0.067   6.976
 1290SOL    HW1 4769   1.248   0.091   0.042
 1290SOL    HW2 4770   1.314   0.150   6.926
 1291SOL     OW 4771   0.226   4.030   5.466
 1291SOL    HW1 4772   0.279   4.041   5.549
 1291SOL    HW2 4773   0.188   3.938   5.461
 1292SOL     OW 4774   0.174   5.951   2.494
 1292SOL    HW1 4775   0.169   5.948   2.394
 1292SOL    HW2 4776   0.267   5.928   2.524
 1293SOL     OW 4777   1.377   1.823   0.052
 1293SOL    HW1 4778   1.295   1.873   0.021
 1293SOL    HW2 4779   1.350   1.736   0.093
 1294SOL     OW 4780   1.197   3.904   6.810
 1294SOL    HW1 4781   1.109   3.952   6.822
 1294SOL    HW2 4782   1.190   3.844   6.730
 1295SOL     OW 4783   0.023   3.486   2.623
 1295SOL    HW1 4784   0.065   3.564   2.670
 1295SOL    HW2 4785   7.016   3.515   2.531
 1296SOL     OW 4786   3.511   0.324   5.469
 1296SOL    HW1 4787   3.577   0.341   5.542
 1296SOL    HW2 4788   3.430   0.382   5.484
 1297SOL     OW 4789   5.866   0.999   1.224
 1297SOL    HW1 4790   5.893   0.922   1.282
 1297SOL    HW2 4791   5.787   0.972   1.168
 1298SOL     OW 4792   5.991   4.733   2.757
 1298SOL    HW1 4793   5.904   4.777   2.779
 1298SOL    HW2 4794   6.038   4.785   2.686
 1299SOL     OW 4795   0.965   3.550   3.336
 1299SOL    HW1 4796   1.039   3.530   3.400
 1299SOL    HW2 4797   0.983   3.508   3.248
 1300SOL     OW 4798   3.243   2.868   1.620
 1300SOL    HW1 4799   3.291   2.809   1.556
 1300SOL    HW2 4800   3.309   2.907   1.685
 1301SOL     OW 4801   0.657   5.749   1.477
 1301SOL    HW1 4802   0.618   5.829   1.432
 1301SOL    HW2 4803   0.639   5.667   1.422
 1302SOL     OW 4804   4.524   0.391   5.255
 1302SOL    HW1 4805   4.548   0.487   5.269
 1302SOL    HW2 4806   4.566   0.335   5.327
 1303SOL     OW 4807   4.407   1.583   2.378
 1303SOL    HW1 4808   4.307   1.578   2.376
 1303SOL    HW2 4809   4.444   1.500   2.419
 1304SOL     OW 4810   1.650   0.777   6.595
 1304SOL    HW1 4811   1.722   0.825   6.546
 1304SOL    HW2 4812   1.567   0.777   6.539
 1305SOL     OW 4813   4.966   3.024   0.167
 1305SOL    HW1 4814   4.885   2.965   0.170
 1305SOL    HW2 4815   5.012   3.014   0.079
 1306SOL     OW 4816   0.333   4.354   5.067
 1306SOL    HW1 4817   0.259   4.315   5.011
 1306SOL    HW2 4818   0.347   4.297   5.148
 1307SOL     OW 4819   1.029   3.666   4.826
 1307SOL    HW1 4820   1.105   3.688   4.887
 1307SOL    HW2 4821   1.024   3.567   4.814
 1308SOL     OW 4822   5.553   6.425   4.446
 1308SOL    HW1 4823   5.511   6.495   4.504
 1308SOL    HW2 4824   5.627   6.466   4.392
 1309SOL     OW 4825   4.904   3.077   5.235
 1309SOL    HW1 4826   4.832   3.083   5.304
 1309SOL    HW2 4827   4.872   3.022   5.158
 1310SOL     OW 4828   0.655   3.836   4.622
 1310SOL    HW1 4829   0.734   3.786   4.587
 1310SOL    HW2 4830   0.588   3.771   4.658
 1311SOL     OW 4831   0.711   0.004   4.679
 1311SOL    HW1 4832   0.632   0.055   4.647
 1311SOL    HW2 4833   0.723   6.943   4.624
 1312SOL     OW 4834   1.455   0.421   6.408
 1312SOL    HW1 4835   1.402   0.342   6.438
 1312SOL    HW2 4836   1.513   0.453   6.484
 1313SOL     OW 4837   0.954   4.173   3.983
 1313SOL    HW1 4838   0.874   4.172   3.923
 1313SOL    HW2 4839   0.947   4.249   4.047
 1314SOL     OW 4840   4.082   0.841   5.527
 1314SOL    HW1 4841   4.023   0.768   5.562
 1314SOL    HW2 4842   4.126   0.810   5.442
 1315SOL     OW 4843   6.862   0.972   1.061
 1315SOL    HW1 4844   6.846   0.875   1.040
 1315SOL    HW2 4845   6.861   0.986   1.160
 1316SOL     OW 4846   2.065   6.746   4.827
 1316SOL    HW1 4847   2.092   6.728   4.732
 1316SOL    HW2 4848   1.967   6.729   4.837
 1317SOL     OW 4849   2.179   4.158   5.712
 1317SOL    HW1 4850   2.243   4.100   5.762
 1317SOL    HW2 4851   2.202   4.254   5.729
 1318SOL     OW 4852   1.126   0.522   0.854
 1318SOL    HW1 4853   1.172   0.527   0.942
 1318SOL    HW2 4854   1.071   0.439   0.850
 1319SOL     OW 4855   0.171   1.079   6.613
 1319SOL    HW1 4856   0.134   0.996   6.572
 1319SOL    HW2 4857   0.102   1.122   6.671
 1320SOL     OW 4858   5.351   3.628   0.396
 1320SOL    HW1 4859   5.396   3.555   0.345
 1320SOL    HW2 4860   5.256   3.602   0.416
 1321SOL     OW 4861   5.234   1.990   5.855
 1321SOL    HW1 4862   5.196   2.073   5.896
 1321SOL    HW2 4863   5.334   1.993   5.859
 1322SOL     OW 4864   4.089   0.635   3.870
 1322SOL    HW1 4865   4.005   0.619   3.818
 1322SOL    HW2 4866   4.153   0.561   3.853
 1323SOL     OW 4867   4.748   1.635   5.655
 1323SOL    HW1 4868   4.771   1.590   5.569
 1323SOL    HW2 4869   4.697   1.572   5.713
 1324SOL     OW 4870   1.223   3.265   0.053
 1324SOL    HW1 4871   1.195   3.304   6.987
 1324SOL    HW2 4872   1.277   3.333   0.105
 1325SOL     OW 4873   2.298   6.527   2.241
 1325SOL    HW1 4874   2.385   6.564   2.274
 1325SOL    HW2 4875   2.261   6.463   2.309
 1326SOL     OW 4876   4.913   3.346   4.976
 1326SOL    HW1 4877   4.868   3.435   4.968
 1326SOL    HW2 4878   4.922   3.322   5.073
 1327SOL     OW 4879   1.653   4.962   1.635
 1327SOL    HW1 4880   1.617   4.877   1.597
 1327SOL    HW2 4881   1.724   4.998   1.575
 1328SOL     OW 4882   1.514   3.151   1.154
 1328SOL    HW1 4883   1.514   3.241   1.197
 1328SOL    HW2 4884   1.587   3.146   1.086
 1329SOL     OW 4885   0.723   2.537   1.296
 1329SOL    HW1 4886   0.658   2.516   1.222
 1329SOL    HW2 4887   0.736   2.456   1.353
 1330SOL     OW 4888   0.175   1.156   1.802
 1330SOL    HW1 4889   0.097   1.142   1.864
 1330SOL    HW2 4890   0.158   1.234   1.743
 1331SOL     OW 4891   5.070   2.734   3.371
 1331SOL    HW1 4892   5.141   2.741   3.301
 1331SOL    HW2 4893   5.006   2.810   3.362
 1332SOL     OW 4894   3.004   7.006   0.224
 1332SOL    HW1 4895   2.917   0.009   0.181
 1332SOL    HW2 4896   3.079   0.018   0.168
 1333SOL     OW 4897   3.379   3.531   5.341
 1333SOL    HW1 4898   3.468   3.498   5.309
 1333SOL    HW2 4899   3.369   3.628   5.319
 1334SOL     OW 4900   6.195   2.032   4.403
 1334SOL    HW1 4901   6.111   2.085   4.404
 1334SOL    HW2 4902   6.268   2.084   4.448
 1335SOL     OW 4903   2.827   1.362   3.227
 1335SOL    HW1 4904   2.830   1.462   3.225
 1335SOL    HW2 4905   2.733   1.332   3.214
 1336SOL     OW 4906   1.929   2.179   5.704
 1336SOL    HW1 4907   1.984   2.096   5.694
 1336SOL    HW2 4908   1.838   2.155   5.736
 1337SOL     OW 4909   2.019   1.882   5.425
 1337SOL    HW1 4910   1.947   1.945   5.394
 1337SOL    HW2 4911   1.989   1.836   5.509
 1338SOL     OW 4912   5.970   2.157   5.992
 1338SOL    HW1 4913   5.942   2.148   5.897
 1338SOL    HW2 4914   5.892   2.141   6.052
 1339SOL     OW 4915   0.875   1.547   6.254
 1339SOL    HW1 4916   0.833   1.503   6.175
 1339SOL    HW2 4917   0.932   1.481   6.303
 1340SOL     OW 4918   0.584   2.028   2.485
 1340SOL    HW1 4919   0.679   2.043   2.514
 1340SOL    HW2 4920   0.532   2.112   2.497
 1341SOL     OW 4921   5.238   0.182   5.954
 1341SOL    HW1 4922   5.241   0.183   6.054
 1341SOL    HW2 4923   5.292   0.258   5.918
 1342SOL     OW 4924   2.013   5.042   6.069
 1342SOL    HW1 4925   1.929   5.002   6.034
 1342SOL    HW2 4926   2.010   5.142   6.059
 1343SOL     OW 4927   4.771   6.134   2.895
 1343SOL    HW1 4928   4.722   6.150   2.981
 1343SOL    HW2 4929   4.802   6.039   2.891
 1344SOL     OW 4930   6.838   4.540   4.066
 1344SOL    HW1 4931   6.838   4.441   4.082
 1344SOL    HW2 4932   6.932   4.574   4.071
 1345SOL     OW 4933   2.078   0.839   2.822
 1345SOL    HW1 4934   2.064   0.769   2.752
 1345SOL    HW2 4935   2.153   0.812   2.882
 1346SOL     OW 4936   0.632   6.191   4.252
 1346SOL    HW1 4937   0.707   6.132   4.282
 1346SOL    HW2 4938   0.552   6.175   4.309
 1347SOL     OW 4939   6.416   5.677   4.521
 1347SOL    HW1 4940   6.504   5.653   4.564
 1347SOL    HW2 4941   6.369   5.594   4.492
 1348SOL     OW 4942   5.032   4.942   2.336
 1348SOL    HW1 4943   5.131   4.945   2.318
 1348SOL    HW2 4944   5.017   4.915   2.431
 1349SOL     OW 4945   4.629   2.114   6.000
 1349SOL    HW1 4946   4.551   2.132   5.940
 1349SOL    HW2 4947   4.702   2.178   5.979
 1350SOL     OW 4948   4.845   4.189   6.907
 1350SOL    HW1 4949   4.881   4.099   6.886
 1350SOL    HW2 4950   4.888   4.257   6.848
 1351SOL     OW 4951   6.762   1.312   3.594
 1351SOL    HW1 4952   6.762   1.358   3.683
 1351SOL    HW2 4953   6.674   1.329   3.549
 1352SOL     OW 4954   6.645   6.808   3.089
 1352SOL    HW1 4955   6.671   6.867   3.165
 1352SOL    HW2 4956   6.565   6.846   3.043
 1353SOL     OW 4957   6.672   3.807   6.164
 1353SOL    HW1 4958   6.683   3.875   6.236
 1353SOL    HW2 4959   6.724   3.833   6.083
 1354SOL     OW 4960   1.074   2.669   0.727
 1354SOL    HW1 4961   0.991   2.613   0.727
 1354SOL    HW2 4962   1.052   2.761   0.761
 1355SOL     OW 4963   0.032   2.823   5.463
 1355SOL    HW1 4964   0.065   2.781   5.548
 1355SOL    HW2 4965   0.057   2.919   5.462
 1356SOL     OW 4966   2.996   3.677   2.969
 1356SOL    HW1 4967   2.950   3.592   2.943
 1356SOL    HW2 4968   3.055   3.661   3.048
 1357SOL     OW 4969   1.488   3.832   5.071
 1357SOL    HW1 4970   1.537   3.847   5.157
 1357SOL    HW2 4971   1.487   3.917   5.018
 1358SOL     OW 4972   4.032   1.207   6.034
 1358SOL    HW1 4973   4.126   1.220   6.064
 1358SOL    HW2 4974   4.000   1.116   6.063
 1359SOL     OW 4975   5.914   4.843   1.906
 1359SOL    HW1 4976   5.951   4.818   1.817
 1359SOL    HW2 4977   5.946   4.779   1.975
 1360SOL     OW 4978   3.923   2.835   0.734
 1360SOL    HW1 4979   3.929   2.935   0.730
 1360SOL    HW2 4980   3.998   2.800   0.790
 1361SOL     OW 4981   0.535   5.830   5.514
 1361SOL    HW1 4982   0.449   5.838   5.465
 1361SOL    HW2 4983   0.608   5.807   5.450
 1362SOL     OW 4984   3.095   3.880   4.347
 1362SOL    HW1 4985   3.080   3.908   4.442
 1362SOL    HW2 4986   3.166   3.938   4.306
 1363SOL     OW 4987   6.899   5.934   3.532
 1363SOL    HW1 4988   6.830   5.892   3.472
 1363SOL    HW2 4989   6.858   5.955   3.620
 1364SOL     OW 4990   6.623   2.165   1.309
 1364SOL    HW1 4991   6.603   2.070   1.336
 1364SOL    HW2 4992   6.720   2.184   1.324
 1365SOL     OW 4993   1.191   2.811   5.745
 1365SOL    HW1 4994   1.205   2.716   5.773
 1365SOL    HW2 4995   1.275   2.863   5.760
 1366SOL     OW 4996   0.316   4.577   0.335
 1366SOL    HW1 4997   0.397   4.554   0.282
 1366SOL    HW2 4998   0.322   4.532   0.425
 1367SOL     OW 4999   1.761   6.091   2.531
 1367SOL    HW1 5000   1.786   6.110   2.436
 1367SOL    HW2 5001   1.843   6.093   2.588
 1368SOL     OW 5002   0.102   0.320   4.189
 1368SOL    HW1 5003   0.096   0.296   4.092
 1368SOL    HW2 5004   0.181   0.275   4.230
 1369SOL     OW 5005   2.738   0.070   2.526
 1369SOL    HW1 5006   2.711   0.167   2.529
 1369SOL    HW2 5007   2.838   0.065   2.523
 1370SOL     OW 5008   4.128   1.554   2.438
 1370SOL    HW1 5009   4.099   1.649   2.425
 1370SOL    HW2 5010   4.059   1.493   2.399
 1371SOL     OW 5011   6.311   1.806   4.609
 1371SOL    HW1 5012   6.211   1.813   4.611
 1371SOL    HW2 5013   6.347   1.868   4.538
 1372SOL     OW 5014   1.320   2.904   0.783
 1372SOL    HW1 5015   1.256   2.905   0.859
 1372SOL    HW2 5016   1.372   2.989   0.781
 1373SOL     OW 5017   4.341   2.627   0.156
 1373SOL    HW1 5018   4.349   2.677   0.070
 1373SOL    HW2 5019   4.291   2.683   0.223
 1374SOL     OW 5020   4.264   2.226   0.992
 1374SOL    HW1 5021   4.259   2.129   1.016
 1374SOL    HW2 5022   4.172   2.266   0.997
 1375SOL     OW 5023   0.101   5.677   6.450
 1375SOL    HW1 5024   0.127   5.741   6.378
 1375SOL    HW2 5025   0.175   5.612   6.466
 1376SOL     OW 5026   4.490   4.691   5.266
 1376SOL    HW1 5027   4.545   4.773   5.249
 1376SOL    HW2 5028   4.528   4.642   5.345
 1377SOL     OW 5029   0.701   3.165   5.546
 1377SOL    HW1 5030   0.646   3.240   5.583
 1377SOL    HW2 5031   0.727   3.187   5.452
 1378SOL     OW 5032   5.942   1.377   4.507
 1378SOL    HW1 5033   5.915   1.453   4.448
 1378SOL    HW2 5034   5.933   1.404   4.603
 1379SOL     OW 5035   4.180   6.434   3.240
 1379SOL    HW1 5036   4.133   6.515   3.204
 1379SOL    HW2 5037   4.278   6.441   3.222
 1380SOL     OW 5038   0.564   6.973   3.717
 1380SOL    HW1 5039   0.598   0.006   3.794
 1380SOL    HW2 5040   0.464   6.980   3.713
 1381SOL     OW 5041   5.991   1.786   0.150
 1381SOL    HW1 5042   6.064   1.824   0.093
 1381SOL    HW2 5043   6.001   1.819   0.243
 1382SOL     OW 5044   5.121   3.278   0.793
 1382SOL    HW1 5045   5.205   3.266   0.846
 1382SOL    HW2 5046   5.050   3.318   0.851
 1383SOL     OW 5047   0.627   0.413   2.224
 1383SOL    HW1 5048   0.675   0.463   2.152
 1383SOL    HW2 5049   0.651   0.452   2.313
 1384SOL     OW 5050   4.519   0.731   2.153
 1384SOL    HW1 5051   4.436   0.747   2.207
 1384SOL    HW2 5052   4.501   0.754   2.057
 1385SOL     OW 5053   2.462   4.469   3.307
 1385SOL    HW1 5054   2.531   4.540   3.320
 1385SOL    HW2 5055   2.469   4.401   3.380
 1386SOL     OW 5056   3.000   0.713   4.043
 1386SOL    HW1 5057   2.927   0.650   4.068
 1386SOL    HW2 5058   3.031   0.761   4.125
 1387SOL     OW 5059   3.026   5.882   2.754
 1387SOL    HW1 5060   3.072   5.900   2.667
 1387SOL    HW2 5061   2.928   5.874   2.738
 1388SOL     OW 5062   0.411   0.611   3.039
 1388SOL    HW1 5063   0.393   0.648   2.948
 1388SOL    HW2 5064   0.506   0.630   3.064
 1389SOL     OW 5065   6.955   1.674   4.261
 1389SOL    HW1 5066   6.906   1.714   4.183
 1389SOL    HW2 5067   0.021   1.720   4.272
 1390SOL     OW 5068   6.393   2.951   6.191
 1390SOL    HW1 5069   6.363   2.993   6.105
 1390SOL    HW2 5070   6.492   2.935   6.187
 1391SOL     OW 5071   6.163   0.179   5.496
 1391SOL    HW1 5072   6.139   0.126   5.415
 1391SOL    HW2 5073   6.153   0.277   5.476
 1392SOL     OW 5074   6.127   6.527   5.546
 1392SOL    HW1 5075   6.060   6.545   5.474
 1392SOL    HW2 5076   6.092   6.457   5.608
 1393SOL     OW 5077   6.500   4.365   6.003
 1393SOL    HW1 5078   6.444   4.292   5.965
 1393SOL    HW2 5079   6.597   4.341   5.992
 1394SOL     OW 5080   3.341   5.940   5.530
 1394SOL    HW1 5081   3.340   5.840   5.526
 1394SOL    HW2 5082   3.314   5.969   5.622
 1395SOL     OW 5083   1.659   4.403   4.906
 1395SOL    HW1 5084   1.745   4.428   4.863
 1395SOL    HW2 5085   1.598   4.483   4.909
 1396SOL     OW 5086   0.069   1.320   5.178
 1396SOL    HW1 5087   0.019   1.380   5.115
 1396SOL    HW2 5088   0.009   1.291   5.252
 1397SOL     OW 5089   0.402   6.391   4.719
 1397SOL    HW1 5090   0.368   6.464   4.660
 1397SOL    HW2 5091   0.329   6.362   4.781
 1398SOL     OW 5092   2.809   0.835   6.366
 1398SOL    HW1 5093   2.819   0.766   6.438
 1398SOL    HW2 5094   2.894   0.888   6.359
 1399SOL     OW 5095   4.160   5.729   0.538
 1399SOL    HW1 5096   4.214   5.737   0.455
 1399SOL    HW2 5097   4.069   5.768   0.523
 1400SOL     OW 5098   0.485   1.960   4.191
 1400SOL    HW1 5099   0.399   1.930   4.231
 1400SOL    HW2 5100   0.511   1.899   4.116
 1401SOL     OW 5101   6.054   0.166   3.945
 1401SOL    HW1 5102   6.060   0.155   3.845
 1401SOL    HW2 5103   6.102   0.090   3.989
 1402SOL     OW 5104   5.226   3.969   6.270
 1402SOL    HW1 5105   5.266   4.053   6.308
 1402SOL    HW2 5106   5.129   3.986   6.249
 1403SOL     OW 5107   2.569   1.955   0.697
 1403SOL    HW1 5108   2.471   1.958   0.680
 1403SOL    HW2 5109   2.607   2.047   0.691
 1404SOL     OW 5110   6.617   0.409   6.538
 1404SOL    HW1 5111   6.608   0.392   6.636
 1404SOL    HW2 5112   6.561   0.488   6.513
 1405SOL     OW 5113   2.825   3.298   0.739
 1405SOL    HW1 5114   2.870   3.245   0.667
 1405SOL    HW2 5115   2.774   3.373   0.698
 1406SOL     OW 5116   1.129   5.825   0.688
 1406SOL    HW1 5117   1.194   5.891   0.725
 1406SOL    HW2 5118   1.053   5.814   0.753
 1407SOL     OW 5119   0.690   3.728   3.895
 1407SOL    HW1 5120   0.680   3.668   3.816
 1407SOL    HW2 5121   0.606   3.781   3.908
 1408SOL     OW 5122   4.595   1.095   6.437
 1408SOL    HW1 5123   4.574   1.183   6.479
 1408SOL    HW2 5124   4.642   1.036   6.503
 1409SOL     OW 5125   0.254   0.600   5.118
 1409SOL    HW1 5126   0.302   0.687   5.131
 1409SOL    HW2 5127   0.302   0.528   5.168
 1410SOL     OW 5128   1.283   4.238   6.127
 1410SOL    HW1 5129   1.265   4.259   6.224
 1410SOL    HW2 5130   1.371   4.277   6.101
 1411SOL     OW 5131   2.931   6.307   0.194
 1411SOL    HW1 5132   2.850   6.282   0.142
 1411SOL    HW2 5133   3.007   6.323   0.131
 1412SOL     OW 5134   1.027   3.584   1.078
 1412SOL    HW1 5135   0.960   3.647   1.118
 1412SOL    HW2 5136   1.103   3.571   1.141
 1413SOL     OW 5137   2.402   1.047   4.226
 1413SOL    HW1 5138   2.499   1.036   4.201
 1413SOL    HW2 5139   2.381   0.989   4.304
 1414SOL     OW 5140   2.188   1.652   1.857
 1414SOL    HW1 5141   2.147   1.696   1.937
 1414SOL    HW2 5142   2.179   1.552   1.867
 1415SOL     OW 5143   2.469   1.402   3.935
 1415SOL    HW1 5144   2.435   1.495   3.948
 1415SOL    HW2 5145   2.545   1.403   3.870
 1416SOL     OW 5146   4.404   6.060   4.618
 1416SOL    HW1 5147   4.453   6.119   4.683
 1416SOL    HW2 5148   4.460   5.979   4.600
 1417SOL     OW 5149   2.996   2.745   0.351
 1417SOL    HW1 5150   3.070   2.743   0.417
 1417SOL    HW2 5151   2.925   2.809   0.382
 1418SOL     OW 5152   3.242   3.619   2.156
 1418SOL    HW1 5153   3.238   3.606   2.255
 1418SOL    HW2 5154   3.269   3.533   2.112
 1419SOL     OW 5155   3.307   6.107   4.242
 1419SOL    HW1 5156   3.215   6.069   4.237
 1419SOL    HW2 5157   3.303   6.204   4.263
 1420SOL     OW 5158   3.335   6.154   3.114
 1420SOL    HW1 5159   3.342   6.106   3.026
 1420SOL    HW2 5160   3.242   6.189   3.125
 1421SOL     OW 5161   1.826   4.550   4.095
 1421SOL    HW1 5162   1.727   4.564   4.096
 1421SOL    HW2 5163   1.863   4.567   4.187
 1422SOL     OW 5164   1.728   4.647   6.156
 1422SOL    HW1 5165   1.707   4.587   6.234
 1422SOL    HW2 5166   1.708   4.599   6.071
 1423SOL     OW 5167   4.631   6.658   4.530
 1423SOL    HW1 5168   4.667   6.725   4.465
 1423SOL    HW2 5169   4.627   6.699   4.621
 1424SOL     OW 5170   6.673   3.389   6.456
 1424SOL    HW1 5171   6.714   3.363   6.543
 1424SOL    HW2 5172   6.674   3.488   6.447
 1425SOL     OW 5173   1.870   5.518   5.889
 1425SOL    HW1 5174   1.820   5.544   5.972
 1425SOL    HW2 5175   1.805   5.484   5.820
 1426SOL     OW 5176   2.729   2.414   6.873
 1426SOL    HW1 5177   2.658   2.469   6.829
 1426SOL    HW2 5178   2.784   2.473   6.933
 1427SOL     OW 5179   6.830   6.882   4.499
 1427SOL    HW1 5180   6.815   6.901   4.596
 1427SOL    HW2 5181   6.821   6.783   4.483
 1428SOL     OW 5182   0.443   2.107   0.357
 1428SOL    HW1 5183   0.462   2.195   0.401
 1428SOL    HW2 5184   0.453   2.034   0.424
 1429SOL     OW 5185   4.748   1.615   0.523
 1429SOL    HW1 5186   4.707   1.524   0.533
 1429SOL    HW2 5187   4.799   1.618   0.437
 1430SOL     OW 5188   1.680   5.120   3.933
 1430SOL    HW1 5189   1.639   5.085   4.018
 1430SOL    HW2 5190   1.613   5.175   3.884
 1431SOL     OW 5191   2.535   2.310   0.045
 1431SOL    HW1 5192   2.612   2.287   7.007
 1431SOL    HW2 5193   2.504   2.227   0.093
 1432SOL     OW 5194   2.940   1.397   1.151
 1432SOL    HW1 5195   2.962   1.435   1.241
 1432SOL    HW2 5196   3.022   1.359   1.110
 1433SOL     OW 5197   4.974   0.499   5.206
 1433SOL    HW1 5198   4.929   0.436   5.142
 1433SOL    HW2 5199   4.948   0.593   5.185
 1434SOL     OW 5200   0.937   0.414   5.988
 1434SOL    HW1 5201   1.037   0.411   5.997
 1434SOL    HW2 5202   0.911   0.366   5.904
 1435SOL     OW 5203   6.871   6.714   2.927
 1435SOL    HW1 5204   6.884   6.794   2.869
 1435SOL    HW2 5205   6.797   6.732   2.992
 1436SOL     OW 5206   4.952   4.417   6.797
 1436SOL    HW1 5207   5.031   4.462   6.840
 1436SOL    HW2 5208   4.917   4.475   6.723
 1437SOL     OW 5209   3.263   1.932   5.497
 1437SOL    HW1 5210   3.251   1.978   5.585
 1437SOL    HW2 5211   3.323   1.987   5.439
 1438SOL     OW 5212   3.030   6.965   1.913
 1438SOL    HW1 5213   3.027   0.006   1.991
 1438SOL    HW2 5214   2.965   6.996   1.844
 1439SOL     OW 5215   6.725   4.534   0.847
 1439SOL    HW1 5216   6.772   4.529   0.936
 1439SOL    HW2 5217   6.754   4.458   0.790
 1440SOL     OW 5218   3.456   3.035   5.999
 1440SOL    HW1 5219   3.421   2.942   5.990
 1440SOL    HW2 5220   3.511   3.043   6.082
 1441SOL     OW 5221   6.109   2.103   3.968
 1441SOL    HW1 5222   6.126   2.036   3.896
 1441SOL    HW2 5223   6.091   2.193   3.926
 1442SOL     OW 5224   6.112   5.141   6.539
 1442SOL    HW1 5225   6.106   5.239   6.558
 1442SOL    HW2 5226   6.175   5.126   6.463
 1443SOL     OW 5227   0.915   3.137   4.196
 1443SOL    HW1 5228   0.945   3.134   4.101
 1443SOL    HW2 5229   0.859   3.218   4.211
 1444SOL     OW 5230   4.136   6.052   0.984
 1444SOL    HW1 5231   4.157   6.149   0.969
 1444SOL    HW2 5232   4.167   6.026   1.076
 1445SOL     OW 5233   0.669   3.140   2.235
 1445SOL    HW1 5234   0.621   3.172   2.316
 1445SOL    HW2 5235   0.702   3.218   2.182
 1446SOL     OW 5236   4.618   2.328   0.377
 1446SOL    HW1 5237   4.714   2.355   0.383
 1446SOL    HW2 5238   4.597   2.264   0.451
 1447SOL     OW 5239   6.124   6.885   5.634
 1447SOL    HW1 5240   6.134   6.955   5.705
 1447SOL    HW2 5241   6.214   6.861   5.598
 1448SOL     OW 5242   6.553   2.767   6.830
 1448SOL    HW1 5243   6.595   2.745   6.743
 1448SOL    HW2 5244   6.619   2.814   6.888
 1449SOL     OW 5245   0.594   0.947   0.586
 1449SOL    HW1 5246   0.609   0.971   0.681
 1449SOL    HW2 5247   0.641   1.013   0.527
 1450SOL     OW 5248   0.779   2.285   1.425
 1450SOL    HW1 5249   0.855   2.293   1.489
 1450SOL    HW2 5250   0.801   2.217   1.355
 1451SOL     OW 5251   2.489   0.452   2.366
 1451SOL    HW1 5252   2.404   0.478   2.412
 1451SOL    HW2 5253   2.535   0.535   2.333
 1452SOL     OW 5254   4.491   0.394   4.967
 1452SOL    HW1 5255   4.482   0.370   5.063
 1452SOL    HW2 5256   4.435   0.475   4.948
 1453SOL     OW 5257   0.101   3.780   4.994
 1453SOL    HW1 5258   0.166   3.840   5.041
 1453SOL    HW2 5259   0.093   3.808   4.898
 1454SOL     OW 5260   0.241   3.126   2.435
 1454SOL    HW1 5261   0.244   3.221   2.403
 1454SOL    HW2 5262   0.244   3.065   2.357
 1455SOL     OW 5263   1.003   0.433   1.788
 1455SOL    HW1 5264   1.041   0.444   1.879
 1455SOL    HW2 5265   0.929   0.366   1.790
 1456SOL     OW 5266   6.759   6.359   5.496
 1456SOL    HW1 5267   6.701   6.441   5.486
 1456SOL    HW2 5268   6.829   6.360   5.425
 1457SOL     OW 5269   1.351   6.601   1.488
 1457SOL    HW1 5270   1.293   6.535   1.440
 1457SOL    HW2 5271   1.429   6.554   1.528
 1458SOL     OW 5272   5.644   5.396   3.461
 1458SOL    HW1 5273   5.632   5.487   3.501
 1458SOL    HW2 5274   5.726   5.396   3.403
 1459SOL     OW 5275   2.837   5.324   5.728
 1459SOL    HW1 5276   2.771   5.285   5.664
 1459SOL    HW2 5277   2.921   5.346   5.680
 1460SOL     OW 5278   0.630   5.666   5.275
 1460SOL    HW1 5279   0.534   5.648   5.254
 1460SOL    HW2 5280   0.656   5.755   5.237
 1461SOL     OW 5281   6.885   5.154   3.834
 1461SOL    HW1 5282   6.865   5.056   3.829
 1461SOL    HW2 5283   6.861   5.189   3.924
 1462SOL     OW 5284   0.947   0.481   6.510
 1462SOL    HW1 5285   0.922   0.523   6.597
 1462SOL    HW2 5286   0.895   0.396   6.498
 1463SOL     OW 5287   0.283   5.740   6.709
 1463SOL    HW1 5288   0.291   5.671   6.637
 1463SOL    HW2 5289   0.336   5.710   6.789
 1464SOL     OW 5290   6.134   0.396   1.093
 1464SOL    HW1 5291   6.089   0.309   1.115
 1464SOL    HW2 5292   6.152   0.400   0.995
 1465SOL     OW 5293   1.929   1.115   3.459
 1465SOL    HW1 5294   1.856   1.101   3.391
 1465SOL    HW2 5295   1.890   1.109   3.551
 1466SOL     OW 5296   0.982   1.686   2.255
 1466SOL    HW1 5297   1.004   1.601   2.206
 1466SOL    HW2 5298   0.891   1.679   2.295
 1467SOL     OW 5299   1.700   2.202   2.808
 1467SOL    HW1 5300   1.628   2.193   2.876
 1467SOL    HW2 5301   1.716   2.114   2.763
 1468SOL     OW 5302   5.147   5.775   2.864
 1468SOL    HW1 5303   5.131   5.774   2.963
 1468SOL    HW2 5304   5.093   5.848   2.823
 1469SOL     OW 5305   0.611   0.799   2.110
 1469SOL    HW1 5306   0.607   0.839   2.201
 1469SOL    HW2 5307   0.706   0.797   2.079
 1470SOL     OW 5308   1.553   1.884   2.332
 1470SOL    HW1 5309   1.592   1.972   2.357
 1470SOL    HW2 5310   1.473   1.865   2.389
 1471SOL     OW 5311   0.750   6.955   0.711
 1471SOL    HW1 5312   0.712   6.877   0.663
 1471SOL    HW2 5313   0.776   0.005   0.646
 1472SOL     OW 5314   4.035   6.299   5.535
 1472SOL    HW1 5315   4.067   6.382   5.489
 1472SOL    HW2 5316   3.975   6.324   5.611
 1473SOL     OW 5317   5.053   6.248   4.732
 1473SOL    HW1 5318   4.988   6.317   4.762
 1473SOL    HW2 5319   5.111   6.221   4.809
 1474SOL     OW 5320   5.650   5.785   2.431
 1474SOL    HW1 5321   5.665   5.807   2.527
 1474SOL    HW2 5322   5.724   5.727   2.397
 1475SOL     OW 5323   6.485   6.819   2.123
 1475SOL    HW1 5324   6.435   6.773   2.196
 1475SOL    HW2 5325   6.428   6.821   2.040
 1476SOL     OW 5326   2.656   1.268   1.384
 1476SOL    HW1 5327   2.703   1.185   1.354
 1476SOL    HW2 5328   2.576   1.243   1.439
 1477SOL     OW 5329   3.377   0.413   6.625
 1477SOL    HW1 5330   3.473   0.394   6.604
 1477SOL    HW2 5331   3.346   0.489   6.569
 1478SOL     OW 5332   6.094   5.401   0.283
 1478SOL    HW1 5333   6.091   5.306   0.253
 1478SOL    HW2 5334   6.158   5.452   0.225
 1479SOL     OW 5335   1.829   3.104   6.831
 1479SOL    HW1 5336   1.888   3.129   6.907
 1479SOL    HW2 5337   1.767   3.030   6.859
 1480SOL     OW 5338   3.375   0.781   5.994
 1480SOL    HW1 5339   3.457   0.838   5.988
 1480SOL    HW2 5340   3.306   0.814   5.930
 1481SOL     OW 5341   6.361   2.369   5.764
 1481SOL    HW1 5342   6.324   2.392   5.675
 1481SOL    HW2 5343   6.324   2.282   5.795
 1482SOL     OW 5344   4.806   2.294   1.410
 1482SOL    HW1 5345   4.802   2.341   1.498
 1482SOL    HW2 5346   4.809   2.195   1.425
 1483SOL     OW 5347   4.964   2.052   6.493
 1483SOL    HW1 5348   5.055   2.089   6.510
 1483SOL    HW2 5349   4.972   1.960   6.456
 1484SOL     OW 5350   6.071   4.763   4.295
 1484SOL    HW1 5351   6.055   4.860   4.313
 1484SOL    HW2 5352   6.037   4.709   4.372
 1485SOL     OW 5353   3.734   1.472   3.368
 1485SOL    HW1 5354   3.726   1.406   3.443
 1485SOL    HW2 5355   3.779   1.555   3.400
 1486SOL     OW 5356   5.514   1.715   3.050
 1486SOL    HW1 5357   5.454   1.748   2.977
 1486SOL    HW2 5358   5.565   1.635   3.018
 1487SOL     OW 5359   6.207   2.657   6.398
 1487SOL    HW1 5360   6.137   2.726   6.380
 1487SOL    HW2 5361   6.185   2.609   6.483
 1488SOL     OW 5362   5.256   1.510   3.940
 1488SOL    HW1 5363   5.352   1.507   3.912
 1488SOL    HW2 5364   5.225   1.418   3.965
 1489SOL     OW 5365   3.815   5.151   4.484
 1489SOL    HW1 5366   3.844   5.199   4.401
 1489SOL    HW2 5367   3.877   5.174   4.559
 1490SOL     OW 5368   1.214   2.693   1.941
 1490SOL    HW1 5369   1.148   2.743   1.885
 1490SOL    HW2 5370   1.165   2.639   2.010
 1491SOL     OW 5371   6.072   3.948   3.702
 1491SOL    HW1 5372   6.163   3.916   3.678
 1491SOL    HW2 5373   6.004   3.878   3.680
 1492SOL     OW 5374   5.452   0.769   2.363
 1492SOL    HW1 5375   5.459   0.670   2.369
 1492SOL    HW2 5376   5.411   0.794   2.276
 1493SOL     OW 5377   4.171   6.496   4.637
 1493SOL    HW1 5378   4.131   6.407   4.657
 1493SOL    HW2 5379   4.132   6.532   4.552
 1494SOL     OW 5380   5.419   2.023   6.171
 1494SOL    HW1 5381   5.326   1.992   6.190
 1494SOL    HW2 5382   5.428   2.044   6.074
 1495SOL     OW 5383   6.917   2.507   4.333
 1495SOL    HW1 5384   6.832   2.520   4.383
 1495SOL    HW2 5385   6.948   2.595   4.297
 1496SOL     OW 5386   0.579   1.204   1.515
 1496SOL    HW1 5387   0.521   1.124   1.525
 1496SOL    HW2 5388   0.576   1.257   1.600
 1497SOL     OW 5389   6.412   2.894   3.133
 1497SOL    HW1 5390   6.448   2.807   3.167
 1497SOL    HW2 5391   6.403   2.890   3.034
 1498SOL     OW 5392   1.911   5.157   6.459
 1498SOL    HW1 5393   1.887   5.147   6.363
 1498SOL    HW2 5394   1.897   5.071   6.507
 1499SOL     OW 5395   1.551   3.311   6.489
 1499SOL    HW1 5396   1.560   3.275   6.397
 1499SOL    HW2 5397   1.478   3.379   6.492
 1500SOL     OW 5398   6.609   6.491   0.368
 1500SOL    HW1 5399   6.563   6.578   0.384
 1500SOL    HW2 5400   6.674   6.501   0.292
 1501SOL     OW 5401   5.456   2.128   6.428
 1501SOL    HW1 5402   5.530   2.195   6.428
 1501SOL    HW2 5403   5.445   2.090   6.336
 1502SOL     OW 5404   4.779   0.292   0.578
 1502SOL    HW1 5405   4.687   0.259   0.557
 1502SOL    HW2 5406   4.778   0.392   0.583
 1503SOL     OW 5407   1.051   3.315   1.576
 1503SOL    HW1 5408   1.039   3.405   1.534
 1503SOL    HW2 5409   1.126   3.319   1.642
 1504SOL     OW 5410   0.663   0.405   5.179
 1504SOL    HW1 5411   0.745   0.356   5.207
 1504SOL    HW2 5412   0.688   0.482   5.121
 1505SOL     OW 5413   5.878   1.105   5.646
 1505SOL    HW1 5414   5.807   1.172   5.670
 1505SOL    HW2 5415   5.956   1.115   5.708
 1506SOL     OW 5416   0.999   5.642   0.925
 1506SOL    HW1 5417   0.949   5.721   0.889
 1506SOL    HW2 5418   0.988   5.565   0.862
 1507SOL     OW 5419   1.204   1.980   5.562
 1507SOL    HW1 5420   1.155   2.061   5.596
 1507SOL    HW2 5421   1.144   1.901   5.565
 1508SOL     OW 5422   6.898   1.077   2.203
 1508SOL    HW1 5423   6.802   1.087   2.227
 1508SOL    HW2 5424   6.952   1.055   2.284
 1509SOL     OW 5425   4.214   1.955   6.062
 1509SOL    HW1 5426   4.170   1.946   6.151
 1509SOL    HW2 5427   4.250   2.047   6.051
 1510SOL     OW 5428   4.757   2.300   4.819
 1510SOL    HW1 5429   4.786   2.214   4.779
 1510SOL    HW2 5430   4.724   2.285   4.912
 1511SOL     OW 5431   3.420   3.050   1.756
 1511SOL    HW1 5432   3.434   3.131   1.812
 1511SOL    HW2 5433   3.507   3.004   1.741
 1512SOL     OW 5434   0.815   5.251   1.297
 1512SOL    HW1 5435   0.870   5.259   1.213
 1512SOL    HW2 5436   0.728   5.206   1.276
 1513SOL     OW 5437   3.681   0.544   3.946
 1513SOL    HW1 5438   3.653   0.454   3.980
 1513SOL    HW2 5439   3.676   0.544   3.846
 1514SOL     OW 5440   4.293   1.767   5.863
 1514SOL    HW1 5441   4.243   1.813   5.936
 1514SOL    HW2 5442   4.228   1.718   5.805
 1515SOL     OW 5443   5.403   2.194   3.770
 1515SOL    HW1 5444   5.352   2.203   3.856
 1515SOL    HW2 5445   5.369   2.116   3.718
 1516SOL     OW 5446   6.387   0.189   0.383
 1516SOL    HW1 5447   6.415   0.277   0.419
 1516SOL    HW2 5448   6.313   0.152   0.439
 1517SOL     OW 5449   4.852   6.271   3.764
 1517SOL    HW1 5450   4.906   6.209   3.707
 1517SOL    HW2 5451   4.864   6.247   3.860
 1518SOL     OW 5452   0.810   3.255   0.123
 1518SOL    HW1 5453   0.867   3.310   0.062
 1518SOL    HW2 5454   0.835   3.159   0.114
 1519SOL     OW 5455   6.255   4.984   1.696
 1519SOL    HW1 5456   6.177   4.922   1.705
 1519SOL    HW2 5457   6.340   4.931   1.700
 1520SOL     OW 5458   0.576   3.687   2.243
 1520SOL    HW1 5459   0.493   3.732   2.276
 1520SOL    HW2 5460   0.582   3.698   2.144
 1521SOL     OW 5461   1.707   4.211   6.573
 1521SOL    HW1 5462   1.752   4.223   6.484
 1521SOL    HW2 5463   1.770   4.240   6.646
 1522SOL     OW 5464   6.496   0.056   5.421
 1522SOL    HW1 5465   6.430   0.116   5.468
 1522SOL    HW2 5466   6.532   0.103   5.341
 1523SOL     OW 5467   5.488   5.254   1.284
 1523SOL    HW1 5468   5.394   5.252   1.252
 1523SOL    HW2 5469   5.496   5.320   1.360
 1524SOL     OW 5470   1.714   2.022   1.842
 1524SOL    HW1 5471   1.793   1.962   1.842
 1524SOL    HW2 5472   1.730   2.099   1.905
 1525SOL     OW 5473   6.808   2.417   0.027
 1525SOL    HW1 5474   6.718   2.375   0.035
 1525SOL    HW2 5475   6.818   2.487   0.098
 1526SOL     OW 5476   6.906   0.185   0.015
 1526SOL    HW1 5477   6.977   0.116   0.029
 1526SOL    HW2 5478   6.820   0.139   7.014
 1527SOL     OW 5479   3.379   1.602   5.162
 1527SOL    HW1 5480   3.313   1.538   5.123
 1527SOL    HW2 5481   3.336   1.691   5.175
 1528SOL     OW 5482   5.145   6.163   2.590
 1528SOL    HW1 5483   5.078   6.158   2.516
 1528SOL    HW2 5484   5.237   6.152   2.553
 1529SOL     OW 5485   3.679   0.590   0.193
 1529SOL    HW1 5486   3.609   0.658   0.214
 1529SOL    HW2 5487   3.767   0.636   0.180
 1530SOL     OW 5488   3.303   1.578   2.118
 1530SOL    HW1 5489   3.396   1.615   2.119
 1530SOL    HW2 5490   3.293   1.511   2.191
 1531SOL     OW 5491   4.513   0.853   4.697
 1531SOL    HW1 5492   4.510   0.936   4.642
 1531SOL    HW2 5493   4.549   0.873   4.788
 1532SOL     OW 5494   2.613   3.771   5.998
 1532SOL    HW1 5495   2.673   3.732   6.068
 1532SOL    HW2 5496   2.576   3.698   5.942
 1533SOL     OW 5497   6.919   3.148   0.234
 1533SOL    HW1 5498   6.906   3.214   0.159
 1533SOL    HW2 5499   6.834   3.139   0.286
 1534SOL     OW 5500   1.858   4.846   6.495
 1534SOL    HW1 5501   1.773   4.860   6.444
 1534SOL    HW2 5502   1.921   4.792   6.440
 1535SOL     OW 5503   5.082   6.439   3.857
 1535SOL    HW1 5504   5.012   6.377   3.821
 1535SOL    HW2 5505   5.148   6.387   3.911
 1536SOL     OW 5506   4.124   4.299   5.368
 1536SOL    HW1 5507   4.199   4.237   5.393
 1536SOL    HW2 5508   4.150   4.352   5.287
 1537SOL     OW 5509   4.730   6.307   3.402
 1537SOL    HW1 5510   4.807   6.342   3.455
 1537SOL    HW2 5511   4.761   6.282   3.310
 1538SOL     OW 5512   4.280   6.364   5.705
 1538SOL    HW1 5513   4.257   6.430   5.777
 1538SOL    HW2 5514   4.211   6.293   5.702
 1539SOL     OW 5515   4.109   3.867   1.841
 1539SOL    HW1 5516   4.173   3.930   1.798
 1539SOL    HW2 5517   4.017   3.908   1.841
 1540SOL     OW 5518   2.077   6.368   5.933
 1540SOL    HW1 5519   2.063   6.441   6.000
 1540SOL    HW2 5520   2.026   6.287   5.961
 1541SOL     OW 5521   3.617   2.900   2.371
 1541SOL    HW1 5522   3.557   2.887   2.450
 1541SOL    HW2 5523   3.564   2.939   2.295
 1542SOL     OW 5524   6.182   5.550   2.212
 1542SOL    HW1 5525   6.197   5.553   2.311
 1542SOL    HW2 5526   6.259   5.593   2.165
 1543SOL     OW 5527   3.484   4.403   5.298
 1543SOL    HW1 5528   3.452   4.353   5.379
 1543SOL    HW2 5529   3.575   4.438   5.315
 1544SOL     OW 5530   3.233   3.673   3.126
 1544SOL    HW1 5531   3.164   3.671   3.199
 1544SOL    HW2 5532   3.313   3.724   3.158
 1545SOL     OW 5533   4.967   1.026   4.141
 1545SOL    HW1 5534   4.973   0.965   4.220
 1545SOL    HW2 5535   4.889   0.999   4.084
 1546SOL     OW 5536   4.150   6.561   5.877
 1546SOL    HW1 5537   4.067   6.528   5.832
 1546SOL    HW2 5538   4.126   6.603   5.964
 1547SOL     OW 5539   1.437   3.751   2.851
 1547SOL    HW1 5540   1.509   3.689   2.820
 1547SOL    HW2 5541   1.370   3.699   2.905
 1548SOL     OW 5542   4.854   4.019   5.697
 1548SOL    HW1 5543   4.879   3.928   5.729
 1548SOL    HW2 5544   4.880   4.087   5.765
 1549SOL     OW 5545   4.379   1.006   3.435
 1549SOL    HW1 5546   4.328   1.057   3.366
 1549SOL    HW2 5547   4.455   0.957   3.391
 1550SOL     OW 5548   2.622   4.710   6.531
 1550SOL    HW1 5549   2.696   4.771   6.561
 1550SOL    HW2 5550   2.633   4.621   6.575
 1551SOL     OW 5551   1.982   4.143   6.112
 1551SOL    HW1 5552   2.072   4.100   6.117
 1551SOL    HW2 5553   1.918   4.082   6.066
 1552SOL     OW 5554   6.902   6.696   0.374
 1552SOL    HW1 5555   6.812   6.735   0.355
 1552SOL    HW2 5556   6.945   6.667   0.288
 1553SOL     OW 5557   0.234   1.228   5.625
 1553SOL    HW1 5558   0.306   1.251   5.559
 1553SOL    HW2 5559   0.149   1.274   5.598
 1554SOL     OW 5560   4.518   1.296   3.262
 1554SOL    HW1 5561   4.432   1.247   3.268
 1554SOL    HW2 5562   4.594   1.232   3.272
 1555SOL     OW 5563   4.899   2.175   0.628
 1555SOL    HW1 5564   4.800   2.160   0.625
 1555SOL    HW2 5565   4.941   2.139   0.545
 1556SOL     OW 5566   2.583   1.038   0.766
 1556SOL    HW1 5567   2.659   0.973   0.759
 1556SOL    HW2 5568   2.554   1.046   0.861
 1557SOL     OW 5569   1.944   1.237   6.703
 1557SOL    HW1 5570   1.953   1.273   6.611
 1557SOL    HW2 5571   1.995   1.294   6.767
 1558SOL     OW 5572   5.680   0.965   4.652
 1558SOL    HW1 5573   5.741   0.937   4.727
 1558SOL    HW2 5574   5.726   1.034   4.596
 1559SOL     OW 5575   0.580   2.548   0.031
 1559SOL    HW1 5576   0.490   2.567   0.072
 1559SOL    HW2 5577   0.568   2.488   6.973
 1560SOL     OW 5578   2.626   2.111   6.246
 1560SOL    HW1 5579   2.570   2.170   6.188
 1560SOL    HW2 5580   2.696   2.066   6.191
 1561SOL     OW 5581   6.862   6.022   3.100
 1561SOL    HW1 5582   6.922   6.082   3.047
 1561SOL    HW2 5583   6.787   5.991   3.042
 1562SOL     OW 5584   3.856   5.710   2.422
 1562SOL    HW1 5585   3.787   5.650   2.383
 1562SOL    HW2 5586   3.835   5.725   2.519
 1563SOL     OW 5587   2.154   0.785   5.885
 1563SOL    HW1 5588   2.238   0.730   5.889
 1563SOL    HW2 5589   2.075   0.724   5.882
 1564SOL     OW 5590   1.246   3.227   2.865
 1564SOL    HW1 5591   1.268   3.132   2.885
 1564SOL    HW2 5592   1.205   3.270   2.945
 1565SOL     OW 5593   4.345   5.329   4.540
 1565SOL    HW1 5594   4.346   5.408   4.478
 1565SOL    HW2 5595   4.420   5.336   4.605
 1566SOL     OW 5596   5.482   4.784   4.211
 1566SOL    HW1 5597   5.513   4.812   4.120
 1566SOL    HW2 5598   5.538   4.708   4.243
 1567SOL     OW 5599   6.352   6.307   7.001
 1567SOL    HW1 5600   6.416   6.232   6.986
 1567SOL    HW2 5601   6.267   6.288   6.951
 1568SOL     OW 5602   2.033   5.574   1.312
 1568SOL    HW1 5603   1.938   5.547   1.331
 1568SOL    HW2 5604   2.048   5.577   1.214
 1569SOL     OW 5605   2.983   7.014   3.598
 1569SOL    HW1 5606   3.019   0.083   3.624
 1569SOL    HW2 5607   2.914   0.003   3.527
 1570SOL     OW 5608   2.164   6.806   0.569
 1570SOL    HW1 5609   2.161   6.853   0.658
 1570SOL    HW2 5610   2.259   6.791   0.542
 1571SOL     OW 5611   6.079   1.610   2.464
 1571SOL    HW1 5612   6.164   1.559   2.473
 1571SOL    HW2 5613   6.005   1.548   2.438
 1572SOL     OW 5614   0.772   6.232   0.362
 1572SOL    HW1 5615   0.738   6.138   0.368
 1572SOL    HW2 5616   0.791   6.255   0.267
 1573SOL     OW 5617   5.946   3.320   1.963
 1573SOL    HW1 5618   6.037   3.341   1.927
 1573SOL    HW2 5619   5.937   3.359   2.055
 1574SOL     OW 5620   6.836   1.133   2.917
 1574SOL    HW1 5621   6.836   1.034   2.926
 1574SOL    HW2 5622   6.930   1.168   2.927
 1575SOL     OW 5623   2.652   2.168   1.116
 1575SOL    HW1 5624   2.564   2.212   1.097
 1575SOL    HW2 5625   2.637   2.070   1.133
 1576SOL     OW 5626   0.799   0.995   3.044
 1576SOL    HW1 5627   0.836   1.076   2.998
 1576SOL    HW2 5628   0.807   0.916   2.983
 1577SOL     OW 5629   2.793   0.528   5.441
 1577SOL    HW1 5630   2.829   0.575   5.360
 1577SOL    HW2 5631   2.749   0.594   5.501
 1578SOL     OW 5632   5.501   2.776   6.158
 1578SOL    HW1 5633   5.501   2.843   6.232
 1578SOL    HW2 5634   5.423   2.792   6.098
 1579SOL     OW 5635   0.851   2.047   2.484
 1579SOL    HW1 5636   0.839   2.031   2.386
 1579SOL    HW2 5637   0.930   2.107   2.498
 1580SOL     OW 5638   3.215   4.123   3.929
 1580SOL    HW1 5639   3.174   4.213   3.919
 1580SOL    HW2 5640   3.152   4.054   3.893
 1581SOL     OW 5641   6.710   4.383   5.013
 1581SOL    HW1 5642   6.762   4.325   4.950
 1581SOL    HW2 5643   6.645   4.438   4.961
 1582SOL     OW 5644   2.672   6.985   3.982
 1582SOL    HW1 5645   2.643   0.008   4.066
 1582SOL    HW2 5646   2.617   6.903   3.967
 1583SOL     OW 5647   0.905   5.357   3.305
 1583SOL    HW1 5648   0.905   5.258   3.323
 1583SOL    HW2 5649   0.968   5.402   3.368
 1584SOL     OW 5650   0.738   6.132   6.480
 1584SOL    HW1 5651   0.726   6.120   6.579
 1584SOL    HW2 5652   0.739   6.230   6.459
 1585SOL     OW 5653   4.848   1.679   3.403
 1585SOL    HW1 5654   4.789   1.609   3.444
 1585SOL    HW2 5655   4.922   1.635   3.353
 1586SOL     OW 5656   3.345   4.867   1.947
 1586SOL    HW1 5657   3.419   4.803   1.924
 1586SOL    HW2 5658   3.381   4.939   2.005
 1587SOL     OW 5659   3.153   5.848   6.133
 1587SOL    HW1 5660   3.127   5.848   6.229
 1587SOL    HW2 5661   3.169   5.754   6.103
 1588SOL     OW 5662   3.891   0.476   2.823
 1588SOL    HW1 5663   3.924   0.569   2.839
 1588SOL    HW2 5664   3.807   0.461   2.875
 1589SOL     OW 5665   6.659   3.112   2.135
 1589SOL    HW1 5666   6.679   3.028   2.187
 1589SOL    HW2 5667   6.595   3.091   2.062
 1590SOL     OW 5668   4.033   6.834   5.339
 1590SOL    HW1 5669   4.060   6.737   5.333
 1590SOL    HW2 5670   4.114   6.891   5.325
 1591SOL     OW 5671   0.016   5.261   1.910
 1591SOL    HW1 5672   0.018   5.186   1.845
 1591SOL    HW2 5673   0.002   5.225   2.003
 1592SOL     OW 5674   1.782   3.993   6.957
 1592SOL    HW1 5675   1.816   4.005   0.028
 1592SOL    HW2 5676   1.688   3.959   6.960
 1593SOL     OW 5677   1.357   6.209   5.444
 1593SOL    HW1 5678   1.361   6.309   5.449
 1593SOL    HW2 5679   1.268   6.178   5.477
 1594SOL     OW 5680   0.437   6.275   1.625
 1594SOL    HW1 5681   0.452   6.353   1.565
 1594SOL    HW2 5682   0.416   6.307   1.717
 1595SOL     OW 5683   1.663   5.188   0.167
 1595SOL    HW1 5684   1.615   5.151   0.088
 1595SOL    HW2 5685   1.597   5.216   0.236
 1596SOL     OW 5686   0.319   2.608   3.699
 1596SOL    HW1 5687   0.243   2.654   3.654
 1596SOL    HW2 5688   0.291   2.579   3.791
 1597SOL     OW 5689   1.543   6.203   0.150
 1597SOL    HW1 5690   1.612   6.216   0.079
 1597SOL    HW2 5691   1.512   6.292   0.183
 1598SOL     OW 5692   6.837   4.204   5.742
 1598SOL    HW1 5693   6.881   4.223   5.655
 1598SOL    HW2 5694   6.761   4.140   5.729
 1599SOL     OW 5695   4.898   5.295   5.005
 1599SOL    HW1 5696   4.859   5.362   5.068
 1599SOL    HW2 5697   4.845   5.210   5.010
 1600SOL     OW 5698   4.270   1.171   3.261
 1600SOL    HW1 5699   4.248   1.138   3.169
 1600SOL    HW2 5700   4.219   1.255   3.279
 1601SOL     OW 5701   6.996   5.956   4.732
 1601SOL    HW1 5702   0.011   5.915   4.815
 1601SOL    HW2 5703   6.969   5.884   4.668
 1602SOL     OW 5704   4.057   5.973   3.201
 1602SOL    HW1 5705   4.010   5.961   3.289
 1602SOL    HW2 5706   4.088   5.885   3.167
 1603SOL     OW 5707   1.073   6.237   3.391
 1603SOL    HW1 5708   1.088   6.288   3.306
 1603SOL    HW2 5709   1.076   6.139   3.372
 1604SOL     OW 5710   6.271   4.547   1.690
 1604SOL    HW1 5711   6.273   4.559   1.591
 1604SOL    HW2 5712   6.332   4.613   1.733
 1605SOL     OW 5713   6.386   5.502   1.383
 1605SOL    HW1 5714   6.386   5.449   1.467
 1605SOL    HW2 5715   6.349   5.593   1.400
 1606SOL     OW 5716   3.691   0.705   5.729
 1606SOL    HW1 5717   3.692   0.782   5.793
 1606SOL    HW2 5718   3.722   0.735   5.639
 1607SOL     OW 5719   4.123   1.308   0.983
 1607SOL    HW1 5720   4.212   1.282   1.021
 1607SOL    HW2 5721   4.050   1.269   1.040
 1608SOL     OW 5722   1.158   0.972   3.590
 1608SOL    HW1 5723   1.085   0.903   3.590
 1608SOL    HW2 5724   1.128   1.052   3.537
 1609SOL     OW 5725   4.238   0.213   0.396
 1609SOL    HW1 5726   4.286   0.128   0.419
 1609SOL    HW2 5727   4.210   0.210   0.300
 1610SOL     OW 5728   6.114   4.762   6.333
 1610SOL    HW1 5729   6.023   4.765   6.374
 1610SOL    HW2 5730   6.110   4.711   6.247
 1611SOL     OW 5731   2.425   3.754   1.039
 1611SOL    HW1 5732   2.425   3.849   1.006
 1611SOL    HW2 5733   2.507   3.708   1.007
 1612SOL     OW 5734   2.867   6.769   6.427
 1612SOL    HW1 5735   2.957   6.737   6.398
 1612SOL    HW2 5736   2.859   6.762   6.526
 1613SOL     OW 5737   1.369   5.484   1.818
 1613SOL    HW1 5738   1.396   5.551   1.886
 1613SOL    HW2 5739   1.433   5.407   1.818
 1614SOL     OW 5740   5.388   3.064   7.007
 1614SOL    HW1 5741   5.467   3.003   6.996
 1614SOL    HW2 5742   5.323   3.048   6.933
 1615SOL     OW 5743   5.513   5.270   0.648
 1615SOL    HW1 5744   5.599   5.264   0.597
 1615SOL    HW2 5745   5.452   5.197   0.618
 1616SOL     OW 5746   3.174   1.447   5.078
 1616SOL    HW1 5747   3.167   1.401   4.990
 1616SOL    HW2 5748   3.087   1.490   5.101
 1617SOL     OW 5749   6.125   6.807   2.731
 1617SOL    HW1 5750   6.067   6.826   2.652
 1617SOL    HW2 5751   6.084   6.846   2.813
 1618SOL     OW 5752   1.707   4.577   1.899
 1618SOL    HW1 5753   1.788   4.602   1.845
 1618SOL    HW2 5754   1.636   4.542   1.839
 1619SOL     OW 5755   1.318   4.188   2.328
 1619SOL    HW1 5756   1.237   4.129   2.337
 1619SOL    HW2 5757   1.332   4.210   2.231
 1620SOL     OW 5758   2.692   4.726   1.814
 1620SOL    HW1 5759   2.764   4.771   1.761
 1620SOL    HW2 5760   2.727   4.704   1.905
 1621SOL     OW 5761   0.286   0.964   0.492
 1621SOL    HW1 5762   0.189   0.942   0.481
 1621SOL    HW2 5763   0.301   0.999   0.584
 1622SOL     OW 5764   0.684   3.121   4.963
 1622SOL    HW1 5765   0.599   3.069   4.970
 1622SOL    HW2 5766   0.748   3.088   5.033
 1623SOL     OW 5767   2.189   3.201   5.231
 1623SOL    HW1 5768   2.244   3.223   5.312
 1623SOL    HW2 5769   2.249   3.164   5.159
 1624SOL     OW 5770   3.136   1.007   5.172
 1624SOL    HW1 5771   3.171   1.096   5.199
 1624SOL    HW2 5772   3.067   1.018   5.101
 1625SOL     OW 5773   0.784   4.887   0.200
 1625SOL    HW1 5774   0.867   4.870   0.254
 1625SOL    HW2 5775   0.745   4.975   0.228
 1626SOL     OW 5776   3.938   1.956   0.130
 1626SOL    HW1 5777   3.872   1.921   0.063
 1626SOL    HW2 5778   3.912   1.927   0.222
 1627SOL     OW 5779   5.921   3.529   3.319
 1627SOL    HW1 5780   5.902   3.490   3.229
 1627SOL    HW2 5781   5.933   3.455   3.385
 1628SOL     OW 5782   4.845   4.396   0.111
 1628SOL    HW1 5783   4.944   4.408   0.109
 1628SOL    HW2 5784   4.815   4.349   0.028
 1629SOL     OW 5785   3.090   0.836   4.323
 1629SOL    HW1 5786   3.081   0.935   4.330
 1629SOL    HW2 5787   3.152   0.804   4.395
 1630SOL     OW 5788   0.951   4.936   5.463
 1630SOL    HW1 5789   1.010   4.874   5.516
 1630SOL    HW2 5790   1.008   5.001   5.413
 1631SOL     OW 5791   1.535   3.175   6.815
 1631SOL    HW1 5792   1.588   3.208   6.736
 1631SOL    HW2 5793   1.490   3.252   6.860
 1632SOL     OW 5794   6.554   2.302   0.645
 1632SOL    HW1 5795   6.514   2.258   0.565
 1632SOL    HW2 5796   6.653   2.312   0.632
 1633SOL     OW 5797   5.169   3.583   4.396
 1633SOL    HW1 5798   5.155   3.656   4.463
 1633SOL    HW2 5799   5.227   3.512   4.437
 1634SOL     OW 5800   4.336   5.539   5.051
 1634SOL    HW1 5801   4.293   5.544   5.141
 1634SOL    HW2 5802   4.311   5.620   4.998
 1635SOL     OW 5803   7.021   4.983   6.095
 1635SOL    HW1 5804   6.998   5.079   6.110
 1635SOL    HW2 5805   7.003   4.931   6.178
 1636SOL     OW 5806   2.987   4.313   1.671
 1636SOL    HW1 5807   2.940   4.376   1.733
 1636SOL    HW2 5808   2.963   4.219   1.693
 1637SOL     OW 5809   0.983   0.160   2.687
 1637SOL    HW1 5810   0.918   0.091   2.657
 1637SOL    HW2 5811   1.055   0.116   2.742
 1638SOL     OW 5812   0.108   4.256   3.312
 1638SOL    HW1 5813   0.079   4.179   3.256
 1638SOL    HW2 5814   0.094   4.341   3.262
 1639SOL     OW 5815   4.847   6.978   2.113
 1639SOL    HW1 5816   4.893   6.892   2.133
 1639SOL    HW2 5817   4.881   7.016   2.027
 1640SOL     OW 5818   5.987   0.773   0.024
 1640SOL    HW1 5819   6.061   0.723   7.000
 1640SOL    HW2 5820   6.015   0.868   0.039
 1641SOL     OW 5821   4.922   2.497   3.410
 1641SOL    HW1 5822   4.832   2.540   3.397
 1641SOL    HW2 5823   4.992   2.568   3.420
 1642SOL     OW 5824   6.011   3.444   6.436
 1642SOL    HW1 5825   6.006   3.372   6.505
 1642SOL    HW2 5826   6.085   3.423   6.372
 1643SOL     OW 5827   2.871   4.869   5.190
 1643SOL    HW1 5828   2.948   4.841   5.248
 1643SOL    HW2 5829   2.805   4.794   5.183
 1644SOL     OW 5830   6.255   3.584   0.363
 1644SOL    HW1 5831   6.248   3.653   0.435
 1644SOL    HW2 5832   6.299   3.624   0.282
 1645SOL     OW 5833   3.178   5.379   5.433
 1645SOL    HW1 5834   3.270   5.413   5.452
 1645SOL    HW2 5835   3.120   5.391   5.514
 1646SOL     OW 5836   2.841   6.126   0.387
 1646SOL    HW1 5837   2.880   6.187   0.318
 1646SOL    HW2 5838   2.782   6.059   0.343
 1647SOL     OW 5839   5.752   2.919   4.766
 1647SOL    HW1 5840   5.764   3.011   4.803
 1647SOL    HW2 5841   5.732   2.926   4.668
 1648SOL     OW 5842   5.315   5.048   0.579
 1648SOL    HW1 5843   5.248   5.090   0.640
 1648SOL    HW2 5844   5.319   5.099   0.493
 1649SOL     OW 5845   3.070   0.708   4.631
 1649SOL    HW1 5846   3.087   0.723   4.729
 1649SOL    HW2 5847   3.157   0.689   4.585
 1650SOL     OW 5848   1.798   6.231   5.753
 1650SOL    HW1 5849   1.890   6.203   5.777
 1650SOL    HW2 5850   1.740   6.150   5.741
 1651SOL     OW 5851   0.532   2.004   1.267
 1651SOL    HW1 5852   0.523   2.039   1.360
 1651SOL    HW2 5853   0.607   2.052   1.221
 1652SOL     OW 5854   1.136   3.935   2.734
 1652SOL    HW1 5855   1.232   3.964   2.740
 1652SOL    HW2 5856   1.129   3.857   2.672
 1653SOL     OW 5857   1.039   6.772   1.013
 1653SOL    HW1 5858   1.034   6.762   1.113
 1653SOL    HW2 5859   1.054   6.683   0.971
 1654SOL     OW 5860   0.812   3.740   1.204
 1654SOL    HW1 5861   0.745   3.692   1.147
 1654SOL    HW2 5862   0.784   3.835   1.214
 1655SOL     OW 5863   0.183   2.404   5.224
 1655SOL    HW1 5864   0.275   2.413   5.262
 1655SOL    HW2 5865   0.148   2.313   5.246
 1656SOL     OW 5866   2.723   4.659   2.263
 1656SOL    HW1 5867   2.645   4.711   2.229
 1656SOL    HW2 5868   2.765   4.610   2.187
 1657SOL     OW 5869   0.173   0.923   3.163
 1657SOL    HW1 5870   0.143   0.896   3.071
 1657SOL    HW2 5871   0.093   0.933   3.222
 1658SOL     OW 5872   0.302   6.101   1.104
 1658SOL    HW1 5873   0.258   6.164   1.168
 1658SOL    HW2 5874   0.286   6.007   1.134
 1659SOL     OW 5875   3.801   0.271   6.015
 1659SOL    HW1 5876   3.730   0.305   6.076
 1659SOL    HW2 5877   3.891   0.285   6.057
 1660SOL     OW 5878   0.879   4.984   3.844
 1660SOL    HW1 5879   0.874   5.078   3.879
 1660SOL    HW2 5880   0.960   4.939   3.882
 1661SOL     OW 5881   2.621   0.313   1.736
 1661SOL    HW1 5882   2.674   0.370   1.798
 1661SOL    HW2 5883   2.619   0.355   1.645
 1662SOL     OW 5884   6.697   0.843   4.587
 1662SOL    HW1 5885   6.644   0.826   4.670
 1662SOL    HW2 5886   6.672   0.933   4.550
 1663SOL     OW 5887   4.673   6.118   2.630
 1663SOL    HW1 5888   4.649   6.021   2.635
 1663SOL    HW2 5889   4.720   6.144   2.714
 1664SOL     OW 5890   2.141   0.462   4.545
 1664SOL    HW1 5891   2.126   0.551   4.502
 1664SOL    HW2 5892   2.070   0.399   4.515
 1665SOL     OW 5893   0.021   1.780   2.969
 1665SOL    HW1 5894   0.064   1.693   2.989
 1665SOL    HW2 5895   6.975   1.802   3.040
 1666SOL     OW 5896   5.403   2.339   6.913
 1666SOL    HW1 5897   5.422   2.309   7.006
 1666SOL    HW2 5898   5.304   2.335   6.896
 1667SOL     OW 5899   6.904   5.741   1.724
 1667SOL    HW1 5900   6.924   5.645   1.743
 1667SOL    HW2 5901   6.871   5.749   1.630
 1668SOL     OW 5902   5.315   6.452   5.274
 1668SOL    HW1 5903   5.250   6.486   5.206
 1668SOL    HW2 5904   5.406   6.450   5.234
 1669SOL     OW 5905   6.707   5.520   6.442
 1669SOL    HW1 5906   6.659   5.516   6.529
 1669SOL    HW2 5907   6.784   5.455   6.443
 1670SOL     OW 5908   0.148   3.805   5.593
 1670SOL    HW1 5909   0.237   3.759   5.597
 1670SOL    HW2 5910   0.084   3.757   5.653
 1671SOL     OW 5911   5.238   1.329   1.386
 1671SOL    HW1 5912   5.302   1.403   1.364
 1671SOL    HW2 5913   5.281   1.265   1.450
 1672SOL     OW 5914   1.742   3.136   1.004
 1672SOL    HW1 5915   1.719   3.202   0.932
 1672SOL    HW2 5916   1.840   3.141   1.023
 1673SOL     OW 5917   0.913   1.733   4.384
 1673SOL    HW1 5918   0.970   1.740   4.302
 1673SOL    HW2 5919   0.832   1.791   4.374
 1674SOL     OW 5920   1.016   3.718   2.580
 1674SOL    HW1 5921   0.962   3.692   2.500
 1674SOL    HW2 5922   1.090   3.652   2.593
 1675SOL     OW 5923   4.929   0.069   6.509
 1675SOL    HW1 5924   4.884   0.158   6.510
 1675SOL    HW2 5925   5.021   0.077   6.547
 1676SOL     OW 5926   2.087   2.527   1.720
 1676SOL    HW1 5927   2.167   2.489   1.768
 1676SOL    HW2 5928   2.114   2.557   1.629
 1677SOL     OW 5929   2.901   3.792   4.778
 1677SOL    HW1 5930   2.805   3.761   4.780
 1677SOL    HW2 5931   2.960   3.716   4.805
 1678SOL     OW 5932   4.873   4.004   4.263
 1678SOL    HW1 5933   4.971   4.007   4.241
 1678SOL    HW2 5934   4.839   3.911   4.252
 1679SOL     OW 5935   2.081   2.464   4.278
 1679SOL    HW1 5936   2.009   2.500   4.338
 1679SOL    HW2 5937   2.044   2.452   4.185
 1680SOL     OW 5938   0.181   2.877   4.682
 1680SOL    HW1 5939   0.242   2.948   4.647
 1680SOL    HW2 5940   0.206   2.789   4.643
 1681SOL     OW 5941   6.630   5.795   0.204
 1681SOL    HW1 5942   6.572   5.743   0.140
 1681SOL    HW2 5943   6.712   5.825   0.156
 1682SOL     OW 5944   1.235   0.900   4.491
 1682SOL    HW1 5945   1.208   0.989   4.456
 1682SOL    HW2 5946   1.239   0.834   4.415
 1683SOL     OW 5947   4.712   5.249   1.472
 1683SOL    HW1 5948   4.761   5.216   1.552
 1683SOL    HW2 5949   4.631   5.193   1.457
 1684SOL     OW 5950   1.677   5.688   2.171
 1684SOL    HW1 5951   1.747   5.670   2.240
 1684SOL    HW2 5952   1.717   5.738   2.095
 1685SOL     OW 5953   2.896   0.740   4.996
 1685SOL    HW1 5954   2.836   0.671   4.956
 1685SOL    HW2 5955   2.884   0.827   4.948
 1686SOL     OW 5956   2.848   5.862   5.203
 1686SOL    HW1 5957   2.780   5.792   5.180
 1686SOL    HW2 5958   2.854   5.929   5.129
 1687SOL     OW 5959   2.092   3.746   1.417
 1687SOL    HW1 5960   2.106   3.665   1.474
 1687SOL    HW2 5961   2.146   3.736   1.333
 1688SOL     OW 5962   2.036   2.910   4.295
 1688SOL    HW1 5963   2.013   2.871   4.206
 1688SOL    HW2 5964   1.954   2.946   4.338
 1689SOL     OW 5965   5.976   1.572   2.755
 1689SOL    HW1 5966   6.024   1.628   2.688
 1689SOL    HW2 5967   5.948   1.628   2.832
 1690SOL     OW 5968   1.423   2.762   3.399
 1690SOL    HW1 5969   1.353   2.805   3.456
 1690SOL    HW2 5970   1.504   2.743   3.454
 1691SOL     OW 5971   5.790   3.692   3.597
 1691SOL    HW1 5972   5.876   3.705   3.548
 1691SOL    HW2 5973   5.782   3.597   3.625
 1692SOL     OW 5974   5.707   6.812   1.525
 1692SOL    HW1 5975   5.653   6.891   1.498
 1692SOL    HW2 5976   5.730   6.758   1.443
 1693SOL     OW 5977   0.362   2.032   1.979
 1693SOL    HW1 5978   0.285   2.051   1.919
 1693SOL    HW2 5979   0.347   1.945   2.027
 1694SOL     OW 5980   5.462   0.422   2.674
 1694SOL    HW1 5981   5.432   0.327   2.682
 1694SOL    HW2 5982   5.546   0.436   2.727
 1695SOL     OW 5983   3.467   1.197   5.384
 1695SOL    HW1 5984   3.384   1.212   5.331
 1695SOL    HW2 5985   3.545   1.188   5.322
 1696SOL     OW 5986   4.503   4.175   0.710
 1696SOL    HW1 5987   4.502   4.181   0.810
 1696SOL    HW2 5988   4.516   4.266   0.672
 1697SOL     OW 5989   5.548   0.133   0.884
 1697SOL    HW1 5990   5.615   0.198   0.848
 1697SOL    HW2 5991   5.546   0.052   0.826
 1698SOL     OW 5992   4.239   0.440   0.493
 1698SOL    HW1 5993   4.145   0.473   0.498
 1698SOL    HW2 5994   4.243   0.356   0.440
 1699SOL     OW 5995   1.542   0.318   0.692
 1699SOL    HW1 5996   1.523   0.317   0.790
 1699SOL    HW2 5997   1.618   0.256   0.672
 1700SOL     OW 5998   5.585   2.626   3.590
 1700SOL    HW1 5999   5.630   2.565   3.525
 1700SOL    HW2 6000   5.489   2.598   3.601
 1701SOL     OW 6001   4.468   4.413   6.448
 1701SOL    HW1 6002   4.466   4.509   6.476
 1701SOL    HW2 6003   4.374   4.379   6.437
 1702SOL     OW 6004   6.800   2.342   0.500
 1702SOL    HW1 6005   6.884   2.305   0.461
 1702SOL    HW2 6006   6.735   2.362   0.427
 1703SOL     OW 6007   2.938   2.587   1.665
 1703SOL    HW1 6008   2.927   2.570   1.763
 1703SOL    HW2 6009   2.849   2.582   1.620
 1704SOL     OW 6010   1.239   2.414   0.778
 1704SOL    HW1 6011   1.179   2.470   0.721
 1704SOL    HW2 6012   1.220   2.432   0.875
 1705SOL     OW 6013   3.343   1.900   1.531
 1705SOL    HW1 6014   3.284   1.835   1.483
 1705SOL    HW2 6015   3.288   1.975   1.568
 1706SOL     OW 6016   4.542   1.035   2.015
 1706SOL    HW1 6017   4.520   1.115   2.071
 1706SOL    HW2 6018   4.458   0.984   1.996
 1707SOL     OW 6019   5.288   2.054   1.968
 1707SOL    HW1 6020   5.347   2.028   1.891
 1707SOL    HW2 6021   5.263   1.972   2.020
 1708SOL     OW 6022   5.198   5.052   1.701
 1708SOL    HW1 6023   5.221   4.999   1.620
 1708SOL    HW2 6024   5.282   5.074   1.752
 1709SOL     OW 6025   3.342   5.673   2.066
 1709SOL    HW1 6026   3.266   5.608   2.056
 1709SOL    HW2 6027   3.330   5.750   2.004
 1710SOL     OW 6028   5.216   5.473   4.099
 1710SOL    HW1 6029   5.173   5.555   4.061
 1710SOL    HW2 6030   5.147   5.417   4.145
 1711SOL     OW 6031   1.168   4.705   4.273
 1711SOL    HW1 6032   1.187   4.626   4.215
 1711SOL    HW2 6033   1.070   4.716   4.283
 1712SOL     OW 6034   6.930   2.568   5.391
 1712SOL    HW1 6035   7.000   2.575   5.462
 1712SOL    HW2 6036   6.974   2.551   5.303
 1713SOL     OW 6037   4.798   2.556   1.792
 1713SOL    HW1 6038   4.820   2.568   1.889
 1713SOL    HW2 6039   4.844   2.627   1.739
 1714SOL     OW 6040   3.133   1.708   5.539
 1714SOL    HW1 6041   3.037   1.732   5.538
 1714SOL    HW2 6042   3.189   1.790   5.530
 1715SOL     OW 6043   6.891   5.668   3.292
 1715SOL    HW1 6044   6.820   5.737   3.287
 1715SOL    HW2 6045   6.981   5.712   3.297
 1716SOL     OW 6046   4.964   6.769   2.894
 1716SOL    HW1 6047   4.972   6.762   2.994
 1716SOL    HW2 6048   5.033   6.831   2.859
 1717SOL     OW 6049   2.484   6.588   5.904
 1717SOL    HW1 6050   2.460   6.647   5.981
 1717SOL    HW2 6051   2.450   6.495   5.922
 1718SOL     OW 6052   2.110   2.100   1.071
 1718SOL    HW1 6053   2.047   2.048   1.012
 1718SOL    HW2 6054   2.075   2.100   1.165
 1719SOL     OW 6055   1.698   3.326   0.826
 1719SOL    HW1 6056   1.610   3.370   0.841
 1719SOL    HW2 6057   1.771   3.384   0.861
 1720SOL     OW 6058   0.551   2.943   6.824
 1720SOL    HW1 6059   0.497   2.995   6.758
 1720SOL    HW2 6060   0.630   2.903   6.778
 1721SOL     OW 6061   1.496   6.170   1.234
 1721SOL    HW1 6062   1.520   6.095   1.172
 1721SOL    HW2 6063   1.556   6.168   1.314
 1722SOL     OW 6064   3.867   1.515   3.842
 1722SOL    HW1 6065   3.842   1.610   3.829
 1722SOL    HW2 6066   3.866   1.492   3.939
 1723SOL     OW 6067   6.174   2.344   2.747
 1723SOL    HW1 6068   6.227   2.270   2.789
 1723SOL    HW2 6069   6.079   2.314   2.735
 1724SOL     OW 6070   6.719   2.866   1.531
 1724SOL    HW1 6071   6.694   2.779   1.573
 1724SOL    HW2 6072   6.756   2.927   1.600
 1725SOL     OW 6073   1.533   4.739   6.411
 1725SOL    HW1 6074   1.506   4.647   6.384
 1725SOL    HW2 6075   1.547   4.742   6.510
 1726SOL     OW 6076   5.750   4.738   5.161
 1726SOL    HW1 6077   5.838   4.776   5.131
 1726SOL    HW2 6078   5.693   4.718   5.080
 1727SOL     OW 6079   3.345   2.871   3.949
 1727SOL    HW1 6080   3.263   2.818   3.970
 1727SOL    HW2 6081   3.347   2.952   4.008
 1728SOL     OW 6082   4.841   4.638   5.561
 1728SOL    HW1 6083   4.839   4.556   5.619
 1728SOL    HW2 6084   4.760   4.640   5.503
 1729SOL     OW 6085   2.394   4.410   3.007
 1729SOL    HW1 6086   2.421   4.396   3.103
 1729SOL    HW2 6087   2.434   4.495   2.973
 1730SOL     OW 6088   0.976   6.984   5.825
 1730SOL    HW1 6089   1.075   6.979   5.810
 1730SOL    HW2 6090   0.929   6.950   5.743
 1731SOL     OW 6091   6.845   3.712   2.721
 1731SOL    HW1 6092   6.864   3.715   2.819
 1731SOL    HW2 6093   6.862   3.620   2.686
 1732SOL     OW 6094   2.321   5.447   5.632
 1732SOL    HW1 6095   2.332   5.350   5.612
 1732SOL    HW2 6096   2.233   5.479   5.596
 1733SOL     OW 6097   1.699   4.446   1.377
 1733SOL    HW1 6098   1.674   4.536   1.411
 1733SOL    HW2 6099   1.717   4.385   1.454
 1734SOL     OW 6100   4.280   3.092   1.138
 1734SOL    HW1 6101   4.269   3.067   1.042
 1734SOL    HW2 6102   4.334   3.177   1.144
 1735SOL     OW 6103   4.968   6.112   0.539
 1735SOL    HW1 6104   4.988   6.153   0.628
 1735SOL    HW2 6105   4.871   6.124   0.517
 1736SOL     OW 6106   3.233   3.197   0.303
 1736SOL    HW1 6107   3.151   3.140   0.301
 1736SOL    HW2 6108   3.253   3.223   0.397
 1737SOL     OW 6109   2.792   1.141   4.279
 1737SOL    HW1 6110   2.890   1.122   4.291
 1737SOL    HW2 6111   2.747   1.058   4.245
 1738SOL     OW 6112   2.100   2.214   3.974
 1738SOL    HW1 6113   2.032   2.269   3.925
 1738SOL    HW2 6114   2.164   2.275   4.020
 1739SOL     OW 6115   0.422   1.962   5.690
 1739SOL    HW1 6116   0.484   1.895   5.649
 1739SOL    HW2 6117   0.468   2.051   5.693
 1740SOL     OW 6118   6.944   1.830   5.705
 1740SOL    HW1 6119   0.021   1.812   5.707
 1740SOL    HW2 6120   6.907   1.819   5.797
 1741SOL     OW 6121   2.615   0.854   3.654
 1741SOL    HW1 6122   2.656   0.819   3.570
 1741SOL    HW2 6123   2.687   0.872   3.721
 1742SOL     OW 6124   5.613   0.536   6.141
 1742SOL    HW1 6125   5.654   0.571   6.057
 1742SOL    HW2 6126   5.685   0.503   6.202
 1743SOL     OW 6127   1.393   2.504   1.183
 1743SOL    HW1 6128   1.315   2.442   1.193
 1743SOL    HW2 6129   1.362   2.589   1.139
 1744SOL     OW 6130   6.744   1.656   2.691
 1744SOL    HW1 6131   6.654   1.633   2.727
 1744SOL    HW2 6132   6.814   1.604   2.740
 1745SOL     OW 6133   6.193   6.139   2.790
 1745SOL    HW1 6134   6.181   6.050   2.745
 1745SOL    HW2 6135   6.285   6.173   2.771
 1746SOL     OW 6136   1.407   4.551   4.892
 1746SOL    HW1 6137   1.317   4.542   4.935
 1746SOL    HW2 6138   1.429   4.648   4.882
 1747SOL     OW 6139   5.605   1.817   2.728
 1747SOL    HW1 6140   5.511   1.794   2.753
 1747SOL    HW2 6141   5.654   1.734   2.700
 1748SOL     OW 6142   1.022   0.764   5.100
 1748SOL    HW1 6143   1.042   0.724   5.011
 1748SOL    HW2 6144   1.107   0.797   5.142
 1749SOL     OW 6145   2.613   0.592   5.031
 1749SOL    HW1 6146   2.537   0.539   5.068
 1749SOL    HW2 6147   2.635   0.667   5.094
 1750SOL     OW 6148   5.291   6.475   4.598
 1750SOL    HW1 6149   5.320   6.570   4.609
 1750SOL    HW2 6150   5.206   6.472   4.545
 1751SOL     OW 6151   4.029   6.196   5.059
 1751SOL    HW1 6152   4.123   6.192   5.024
 1751SOL    HW2 6153   4.031   6.193   5.159
 1752SOL     OW 6154   0.242   2.010   1.420
 1752SOL    HW1 6155   0.214   1.922   1.459
 1752SOL    HW2 6156   0.260   2.075   1.493
 1753SOL     OW 6157   0.269   1.069   0.747
 1753SOL    HW1 6158   0.357   1.024   0.761
 1753SOL    HW2 6159   0.222   1.078   0.835
 1754SOL     OW 6160   2.114   4.521   0.226
 1754SOL    HW1 6161   2.208   4.519   0.191
 1754SOL    HW2 6162   2.054   4.474   0.161
 1755SOL     OW 6163   0.136   5.939   2.231
 1755SOL    HW1 6164   0.159   5.936   2.133
 1755SOL    HW2 6165   0.082   5.858   2.255
 1756SOL     OW 6166   4.100   5.924   5.934
 1756SOL    HW1 6167   4.134   5.866   5.860
 1756SOL    HW2 6168   4.149   5.902   6.019
 1757SOL     OW 6169   2.845   5.450   4.901
 1757SOL    HW1 6170   2.763   5.425   4.952
 1757SOL    HW2 6171   2.904   5.506   4.959
 1758SOL     OW 6172   1.928   0.059   3.953
 1758SOL    HW1 6173   1.945   0.119   3.875
 1758SOL    HW2 6174   1.848   0.090   4.004
 1759SOL     OW 6175   1.669   5.652   6.504
 1759SOL    HW1 6176   1.634   5.631   6.413
 1759SOL    HW2 6177   1.692   5.567   6.552
 1760SOL     OW 6178   5.530   1.523   2.750
 1760SOL    HW1 6179   5.510   1.443   2.693
 1760SOL    HW2 6180   5.625   1.520   2.779
 1761SOL     OW 6181   0.168   0.154   1.070
 1761SOL    HW1 6182   0.263   0.124   1.065
 1761SOL    HW2 6183   0.133   0.171   0.978
 1762SOL     OW 6184   0.291   1.125   5.090
 1762SOL    HW1 6185   0.222   1.197   5.089
 1762SOL    HW2 6186   0.278   1.066   5.169
 1763SOL     OW 6187   1.188   3.371   3.476
 1763SOL    HW1 6188   1.230   3.450   3.430
 1763SOL    HW2 6189   1.162   3.303   3.407
 1764SOL     OW 6190   2.110   3.867   2.477
 1764SOL    HW1 6191   2.018   3.903   2.494
 1764SOL    HW2 6192   2.169   3.886   2.555
 1765SOL     OW 6193   3.567   1.198   0.947
 1765SOL    HW1 6194   3.652   1.192   0.894
 1765SOL    HW2 6195   3.588   1.193   1.044
 1766SOL     OW 6196   4.866   4.053   2.699
 1766SOL    HW1 6197   4.959   4.038   2.664
 1766SOL    HW2 6198   4.870   4.116   2.776
 1767SOL     OW 6199   0.324   3.168   2.707
 1767SOL    HW1 6200   0.319   3.153   2.608
 1767SOL    HW2 6201   0.249   3.228   2.736
 1768SOL     OW 6202   4.582   1.447   5.837
 1768SOL    HW1 6203   4.636   1.364   5.849
 1768SOL    HW2 6204   4.488   1.422   5.814
 1769SOL     OW 6205   4.061   2.039   5.849
 1769SOL    HW1 6206   4.121   2.005   5.922
 1769SOL    HW2 6207   3.981   1.979   5.841
 1770SOL     OW 6208   6.967   4.041   4.436
 1770SOL    HW1 6209   6.876   4.050   4.476
 1770SOL    HW2 6210   0.012   4.088   4.495
 1771SOL     OW 6211   1.859   5.005   0.160
 1771SOL    HW1 6212   1.811   4.945   0.096
 1771SOL    HW2 6213   1.811   5.092   0.166
 1772SOL     OW 6214   3.379   0.126   3.454
 1772SOL    HW1 6215   3.317   0.052   3.427
 1772SOL    HW2 6216   3.466   0.116   3.406
 1773SOL     OW 6217   3.265   3.966   6.939
 1773SOL    HW1 6218   3.202   3.956   6.862
 1773SOL    HW2 6219   3.325   3.887   6.944
 1774SOL     OW 6220   4.457   0.756   1.886
 1774SOL    HW1 6221   4.397   0.678   1.897
 1774SOL    HW2 6222   4.416   0.822   1.822
 1775SOL     OW 6223   1.755   5.943   4.650
 1775SOL    HW1 6224   1.687   5.933   4.722
 1775SOL    HW2 6225   1.759   6.038   4.620
 1776SOL     OW 6226   4.463   0.783   5.813
 1776SOL    HW1 6227   4.398   0.740   5.876
 1776SOL    HW2 6228   4.461   0.736   5.725
 1777SOL     OW 6229   2.978   5.916   5.577
 1777SOL    HW1 6230   2.973   5.951   5.483
 1777SOL    HW2 6231   2.990   5.817   5.574
 1778SOL     OW 6232   4.238   2.059   4.470
 1778SOL    HW1 6233   4.148   2.085   4.504
 1778SOL    HW2 6234   4.308   2.109   4.520
 1779SOL     OW 6235   4.251   1.948   4.207
 1779SOL    HW1 6236   4.251   1.991   4.297
 1779SOL    HW2 6237   4.185   1.995   4.148
 1780SOL     OW 6238   1.998   4.643   5.623
 1780SOL    HW1 6239   1.937   4.667   5.547
 1780SOL    HW2 6240   2.067   4.714   5.634
 1781SOL     OW 6241   4.865   5.503   3.447
 1781SOL    HW1 6242   4.820   5.533   3.532
 1781SOL    HW2 6243   4.949   5.454   3.470
 1782SOL     OW 6244   3.237   1.801   3.167
 1782SOL    HW1 6245   3.250   1.887   3.215
 1782SOL    HW2 6246   3.175   1.814   3.090
 1783SOL     OW 6247   2.267   2.985   6.450
 1783SOL    HW1 6248   2.175   2.960   6.422
 1783SOL    HW2 6249   2.291   3.073   6.408
 1784SOL     OW 6250   3.047   0.643   2.722
 1784SOL    HW1 6251   3.010   0.736   2.728
 1784SOL    HW2 6252   3.060   0.606   2.814
 1785SOL     OW 6253   5.096   5.377   3.517
 1785SOL    HW1 6254   5.160   5.320   3.568
 1785SOL    HW2 6255   5.113   5.474   3.537
 1786SOL     OW 6256   1.206   3.241   0.638
 1786SOL    HW1 6257   1.272   3.166   0.630
 1786SOL    HW2 6258   1.199   3.270   0.733
 1787SOL     OW 6259   1.980   0.792   4.948
 1787SOL    HW1 6260   1.975   0.716   5.012
 1787SOL    HW2 6261   1.888   0.813   4.914
 1788SOL     OW 6262   3.431   3.969   0.313
 1788SOL    HW1 6263   3.427   3.870   0.298
 1788SOL    HW2 6264   3.473   4.013   0.234
 1789SOL     OW 6265   6.425   2.379   2.030
 1789SOL    HW1 6266   6.333   2.409   2.051
 1789SOL    HW2 6267   6.434   2.281   2.049
 1790SOL     OW 6268   3.932   6.296   4.639
 1790SOL    HW1 6269   4.008   6.242   4.675
 1790SOL    HW2 6270   3.868   6.316   4.713
 1791SOL     OW 6271   0.714   1.790   4.739
 1791SOL    HW1 6272   0.630   1.838   4.763
 1791SOL    HW2 6273   0.707   1.694   4.766
 1792SOL     OW 6274   0.705   1.227   4.418
 1792SOL    HW1 6275   0.636   1.205   4.349
 1792SOL    HW2 6276   0.663   1.279   4.492
 1793SOL     OW 6277   0.019   0.145   3.547
 1793SOL    HW1 6278   0.025   0.059   3.497
 1793SOL    HW2 6279   0.010   0.221   3.482
 1794SOL     OW 6280   5.402   6.531   6.568
 1794SOL    HW1 6281   5.452   6.446   6.587
 1794SOL    HW2 6282   5.441   6.574   6.487
 1795SOL     OW 6283   0.033   5.015   2.437
 1795SOL    HW1 6284   0.087   5.098   2.451
 1795SOL    HW2 6285   0.086   4.949   2.384
 1796SOL     OW 6286   2.368   1.319   4.216
 1796SOL    HW1 6287   2.391   1.359   4.127
 1796SOL    HW2 6288   2.355   1.221   4.206
 1797SOL     OW 6289   1.539   0.372   5.956
 1797SOL    HW1 6290   1.568   0.306   6.026
 1797SOL    HW2 6291   1.579   0.346   5.868
 1798SOL     OW 6292   4.778   2.624   5.584
 1798SOL    HW1 6293   4.842   2.680   5.532
 1798SOL    HW2 6294   4.747   2.547   5.529
 1799SOL     OW 6295   6.072   1.794   6.527
 1799SOL    HW1 6296   6.100   1.887   6.506
 1799SOL    HW2 6297   6.043   1.789   6.623
 1800SOL     OW 6298   5.120   4.303   3.659
 1800SOL    HW1 6299   5.184   4.379   3.668
 1800SOL    HW2 6300   5.102   4.285   3.562
 1801SOL     OW 6301   1.148   1.482   2.829
 1801SOL    HW1 6302   1.154   1.521   2.921
 1801SOL    HW2 6303   1.187   1.390   2.829
 1802SOL     OW 6304   5.315   5.322   2.517
 1802SOL    HW1 6305   5.227   5.279   2.499
 1802SOL    HW2 6306   5.340   5.309   2.613
 1803SOL     OW 6307   6.528   6.267   1.080
 1803SOL    HW1 6308   6.593   6.333   1.042
 1803SOL    HW2 6309   6.577   6.193   1.126
 1804SOL     OW 6310   3.183   3.325   5.280
 1804SOL    HW1 6311   3.215   3.306   5.187
 1804SOL    HW2 6312   3.242   3.395   5.321
 1805SOL     OW 6313   0.779   4.089   5.763
 1805SOL    HW1 6314   0.758   3.992   5.760
 1805SOL    HW2 6315   0.856   4.109   5.702
 1806SOL     OW 6316   1.754   2.075   1.594
 1806SOL    HW1 6317   1.739   2.057   1.692
 1806SOL    HW2 6318   1.850   2.097   1.579
 1807SOL     OW 6319   6.212   2.090   6.652
 1807SOL    HW1 6320   6.288   2.142   6.691
 1807SOL    HW2 6321   6.135   2.090   6.716
 1808SOL     OW 6322   6.104   4.251   4.855
 1808SOL    HW1 6323   6.178   4.244   4.920
 1808SOL    HW2 6324   6.128   4.317   4.784
 1809SOL     OW 6325   2.491   2.459   4.530
 1809SOL    HW1 6326   2.440   2.461   4.444
 1809SOL    HW2 6327   2.578   2.411   4.516
 1810SOL     OW 6328   2.095   0.099   5.469
 1810SOL    HW1 6329   2.184   0.068   5.505
 1810SOL    HW2 6330   2.091   0.080   5.371
 1811SOL     OW 6331   4.276   4.809   3.318
 1811SOL    HW1 6332   4.227   4.841   3.399
 1811SOL    HW2 6333   4.239   4.855   3.237
 1812SOL     OW 6334   4.932   0.154   5.718
 1812SOL    HW1 6335   4.963   0.155   5.623
 1812SOL    HW2 6336   4.886   0.067   5.737
 1813SOL     OW 6337   4.141   4.874   1.430
 1813SOL    HW1 6338   4.204   4.881   1.507
 1813SOL    HW2 6339   4.192   4.882   1.345
 1814SOL     OW 6340   6.366   0.739   0.696
 1814SOL    HW1 6341   6.294   0.670   0.705
 1814SOL    HW2 6342   6.452   0.703   0.732
 1815SOL     OW 6343   6.045   1.317   2.255
 1815SOL    HW1 6344   6.109   1.250   2.294
 1815SOL    HW2 6345   6.006   1.280   2.171
 1816SOL     OW 6346   1.706   4.669   0.657
 1816SOL    HW1 6347   1.755   4.621   0.584
 1816SOL    HW2 6348   1.770   4.728   0.706
 1817SOL     OW 6349   3.860   6.838   3.297
 1817SOL    HW1 6350   3.774   6.795   3.325
 1817SOL    HW2 6351   3.873   6.923   3.348
 1818SOL     OW 6352   2.298   5.856   1.260
 1818SOL    HW1 6353   2.214   5.857   1.205
 1818SOL    HW2 6354   2.358   5.783   1.228
 1819SOL     OW 6355   1.389   6.024   1.759
 1819SOL    HW1 6356   1.366   5.949   1.698
 1819SOL    HW2 6357   1.316   6.035   1.827
 1820SOL     OW 6358   3.214   0.275   2.010
 1820SOL    HW1 6359   3.146   0.222   2.061
 1820SOL    HW2 6360   3.242   0.353   2.066
 1821SOL     OW 6361   2.407   1.073   1.889
 1821SOL    HW1 6362   2.383   1.068   1.792
 1821SOL    HW2 6363   2.343   1.135   1.935
 1822SOL     OW 6364   1.129   3.106   1.333
 1822SOL    HW1 6365   1.128   3.166   1.414
 1822SOL    HW2 6366   1.046   3.122   1.280
 1823SOL     OW 6367   3.228   5.822   3.129
 1823SOL    HW1 6368   3.213   5.753   3.058
 1823SOL    HW2 6369   3.188   5.909   3.100
 1824SOL     OW 6370   3.691   3.446   0.269
 1824SOL    HW1 6371   3.729   3.526   0.315
 1824SOL    HW2 6372   3.718   3.446   0.173
 1825SOL     OW 6373   1.972   2.063   4.778
 1825SOL    HW1 6374   2.066   2.069   4.747
 1825SOL    HW2 6375   1.910   2.074   4.700
 1826SOL     OW 6376   3.327   1.480   1.468
 1826SOL    HW1 6377   3.369   1.469   1.378
 1826SOL    HW2 6378   3.398   1.473   1.538
 1827SOL     OW 6379   6.811   5.523   1.196
 1827SOL    HW1 6380   6.713   5.506   1.185
 1827SOL    HW2 6381   6.848   5.563   1.113
 1828SOL     OW 6382   1.918   2.510   0.280
 1828SOL    HW1 6383   1.889   2.469   0.367
 1828SOL    HW2 6384   1.850   2.578   0.252
 1829SOL     OW 6385   3.264   0.679   2.953
 1829SOL    HW1 6386   3.238   0.586   2.929
 1829SOL    HW2 6387   3.357   0.680   2.989
 1830SOL     OW 6388   5.452   6.197   4.162
 1830SOL    HW1 6389   5.479   6.191   4.259
 1830SOL    HW2 6390   5.532   6.177   4.105
 1831SOL     OW 6391   5.864   0.093   1.636
 1831SOL    HW1 6392   5.945   0.037   1.620
 1831SOL    HW2 6393   5.797   0.042   1.689
 1832SOL     OW 6394   4.351   2.049   1.409
 1832SOL    HW1 6395   4.422   2.118   1.400
 1832SOL    HW2 6396   4.263   2.088   1.382
 1833SOL     OW 6397   5.293   0.790   0.865
 1833SOL    HW1 6398   5.255   0.815   0.776
 1833SOL    HW2 6399   5.274   0.862   0.931
 1834SOL     OW 6400   2.316   3.751   0.755
 1834SOL    HW1 6401   2.242   3.815   0.736
 1834SOL    HW2 6402   2.330   3.745   0.854
 1835SOL     OW 6403   0.549   4.565   2.090
 1835SOL    HW1 6404   0.513   4.482   2.048
 1835SOL    HW2 6405   0.495   4.644   2.061
 1836SOL     OW 6406   5.171   2.085   1.362
 1836SOL    HW1 6407   5.100   2.046   1.421
 1836SOL    HW2 6408   5.139   2.084   1.267
 1837SOL     OW 6409   1.208   0.072   4.549
 1837SOL    HW1 6410   1.137   0.095   4.482
 1837SOL    HW2 6411   1.165   0.054   4.637
 1838SOL     OW 6412   6.555   1.098   5.776
 1838SOL    HW1 6413   6.604   1.169   5.725
 1838SOL    HW2 6414   6.508   1.037   5.711
 1839SOL     OW 6415   0.241   1.899   5.180
 1839SOL    HW1 6416   0.278   1.960   5.250
 1839SOL    HW2 6417   0.306   1.892   5.105
 1840SOL     OW 6418   3.847   0.360   1.412
 1840SOL    HW1 6419   3.901   0.442   1.435
 1840SOL    HW2 6420   3.871   0.286   1.474
 1841SOL     OW 6421   2.106   1.384   3.617
 1841SOL    HW1 6422   2.150   1.310   3.566
 1841SOL    HW2 6423   2.111   1.365   3.715
 1842SOL     OW 6424   1.271   5.781   0.108
 1842SOL    HW1 6425   1.301   5.876   0.114
 1842SOL    HW2 6426   1.351   5.721   0.099
 1843SOL     OW 6427   6.127   1.435   3.722
 1843SOL    HW1 6428   6.225   1.453   3.723
 1843SOL    HW2 6429   6.112   1.336   3.720
 1844SOL     OW 6430   3.174   6.340   5.264
 1844SOL    HW1 6431   3.203   6.272   5.331
 1844SOL    HW2 6432   3.157   6.427   5.310
 1845SOL     OW 6433   3.121   6.430   4.706
 1845SOL    HW1 6434   3.046   6.494   4.691
 1845SOL    HW2 6435   3.129   6.412   4.804
 1846SOL     OW 6436   3.216   1.276   1.829
 1846SOL    HW1 6437   3.222   1.178   1.845
 1846SOL    HW2 6438   3.191   1.323   1.914
 1847SOL     OW 6439   1.381   0.730   6.561
 1847SOL    HW1 6440   1.332   0.660   6.510
 1847SOL    HW2 6441   1.316   0.792   6.604
 1848SOL     OW 6442   1.949   5.993   3.455
 1848SOL    HW1 6443   1.918   5.977   3.549
 1848SOL    HW2 6444   1.871   5.987   3.393
 1849SOL     OW 6445   4.086   2.714   1.685
 1849SOL    HW1 6446   4.176   2.729   1.643
 1849SOL    HW2 6447   4.076   2.617   1.708
 1850SOL     OW 6448   0.433   2.700   2.408
 1850SOL    HW1 6449   0.365   2.657   2.348
 1850SOL    HW2 6450   0.511   2.731   2.353
 1851SOL     OW 6451   0.541   3.374   6.799
 1851SOL    HW1 6452   0.551   3.382   6.899
 1851SOL    HW2 6453   0.496   3.456   6.764
 1852SOL     OW 6454   6.676   4.101   2.141
 1852SOL    HW1 6455   6.618   4.020   2.152
 1852SOL    HW2 6456   6.727   4.117   2.226
 1853SOL     OW 6457   0.482   2.521   3.232
 1853SOL    HW1 6458   0.478   2.456   3.156
 1853SOL    HW2 6459   0.436   2.482   3.312
 1854SOL     OW 6460   2.273   5.490   3.076
 1854SOL    HW1 6461   2.200   5.558   3.077
 1854SOL    HW2 6462   2.362   5.537   3.078
 1855SOL     OW 6463   5.231   3.384   5.497
 1855SOL    HW1 6464   5.277   3.395   5.585
 1855SOL    HW2 6465   5.271   3.447   5.431
 1856SOL     OW 6466   5.148   4.195   6.015
 1856SOL    HW1 6467   5.240   4.203   5.977
 1856SOL    HW2 6468   5.140   4.108   6.064
 1857SOL     OW 6469   4.086   1.975   6.307
 1857SOL    HW1 6470   4.108   2.072   6.312
 1857SOL    HW2 6471   4.073   1.938   6.399
 1858SOL     OW 6472   5.531   3.646   3.077
 1858SOL    HW1 6473   5.468   3.722   3.060
 1858SOL    HW2 6474   5.540   3.631   3.175
 1859SOL     OW 6475   4.780   1.804   4.124
 1859SOL    HW1 6476   4.695   1.851   4.150
 1859SOL    HW2 6477   4.758   1.715   4.085
 1860SOL     OW 6478   0.445   1.254   5.447
 1860SOL    HW1 6479   0.543   1.259   5.426
 1860SOL    HW2 6480   0.411   1.163   5.422
 1861SOL     OW 6481   6.686   6.631   2.062
 1861SOL    HW1 6482   6.655   6.545   2.100
 1861SOL    HW2 6483   6.631   6.706   2.097
 1862SOL     OW 6484   3.567   0.170   6.866
 1862SOL    HW1 6485   3.471   0.197   6.870
 1862SOL    HW2 6486   3.616   0.209   6.944
 1863SOL     OW 6487   0.313   2.734   3.223
 1863SOL    HW1 6488   0.367   2.650   3.218
 1863SOL    HW2 6489   0.375   2.813   3.232
 1864SOL     OW 6490   1.603   6.393   5.251
 1864SOL    HW1 6491   1.674   6.462   5.265
 1864SOL    HW2 6492   1.638   6.303   5.278
 1865SOL     OW 6493   4.039   6.940   0.244
 1865SOL    HW1 6494   4.045   6.845   0.214
 1865SOL    HW2 6495   4.046   6.944   0.344
 1866SOL     OW 6496   5.913   4.843   3.385
 1866SOL    HW1 6497   5.892   4.780   3.311
 1866SOL    HW2 6498   5.838   4.843   3.451
 1867SOL     OW 6499   0.751   4.030   0.134
 1867SOL    HW1 6500   0.791   4.049   0.224
 1867SOL    HW2 6501   0.661   3.989   0.145
 1868SOL     OW 6502   4.595   3.469   6.502
 1868SOL    HW1 6503   4.510   3.464   6.449
 1868SOL    HW2 6504   4.581   3.527   6.582
 1869SOL     OW 6505   6.878   3.132   4.735
 1869SOL    HW1 6506   6.942   3.207   4.718
 1869SOL    HW2 6507   6.786   3.169   4.749
 1870SOL     OW 6508   1.711   2.936   4.779
 1870SOL    HW1 6509   1.658   3.021   4.782
 1870SOL    HW2 6510   1.649   2.859   4.762
 1871SOL     OW 6511   0.568   0.908   6.794
 1871SOL    HW1 6512   0.641   0.955   6.745
 1871SOL    HW2 6513   0.555   0.950   6.884
 1872SOL     OW 6514   4.354   1.974   0.124
 1872SOL    HW1 6515   4.267   2.001   0.084
 1872SOL    HW2 6516   4.406   2.056   0.148
 1873SOL     OW 6517   6.066   1.163   5.831
 1873SOL    HW1 6518   6.093   1.069   5.853
 1873SOL    HW2 6519   6.100   1.224   5.902
 1874SOL     OW 6520   2.231   1.035   0.212
 1874SOL    HW1 6521   2.314   1.006   0.260
 1874SOL    HW2 6522   2.255   1.064   0.119
 1875SOL     OW 6523   0.250   0.759   0.829
 1875SOL    HW1 6524   0.262   0.841   0.885
 1875SOL    HW2 6525   0.158   0.759   0.789
 1876SOL     OW 6526   3.382   6.355   6.063
 1876SOL    HW1 6527   3.382   6.321   5.969
 1876SOL    HW2 6528   3.460   6.417   6.075
 1877SOL     OW 6529   0.316   1.604   3.262
 1877SOL    HW1 6530   0.340   1.653   3.179
 1877SOL    HW2 6531   0.343   1.658   3.342
 1878SOL     OW 6532   6.296   3.063   4.277
 1878SOL    HW1 6533   6.311   3.117   4.194
 1878SOL    HW2 6534   6.379   3.065   4.333
 1879SOL     OW 6535   1.855   5.322   3.472
 1879SOL    HW1 6536   1.825   5.382   3.398
 1879SOL    HW2 6537   1.879   5.232   3.435
 1880SOL     OW 6538   0.355   1.626   4.106
 1880SOL    HW1 6539   0.435   1.647   4.050
 1880SOL    HW2 6540   0.383   1.617   4.202
 1881SOL     OW 6541   0.960   2.606   2.860
 1881SOL    HW1 6542   0.890   2.623   2.929
 1881SOL    HW2 6543   0.921   2.550   2.786
 1882SOL     OW 6544   0.853   3.892   6.965
 1882SOL    HW1 6545   0.837   3.949   0.025
 1882SOL    HW2 6546   0.883   3.951   6.890
 1883SOL     OW 6547   1.407   3.131   3.572
 1883SOL    HW1 6548   1.419   3.073   3.653
 1883SOL    HW2 6549   1.496   3.160   3.538
 1884SOL     OW 6550   5.863   2.797   6.820
 1884SOL    HW1 6551   5.922   2.867   6.779
 1884SOL    HW2 6552   5.824   2.740   6.748
 1885SOL     OW 6553   0.479   2.186   6.448
 1885SOL    HW1 6554   0.464   2.127   6.527
 1885SOL    HW2 6555   0.469   2.281   6.475
 1886SOL     OW 6556   2.169   1.351   1.393
 1886SOL    HW1 6557   2.109   1.285   1.349
 1886SOL    HW2 6558   2.204   1.415   1.324
 1887SOL     OW 6559   0.900   5.853   6.438
 1887SOL    HW1 6560   0.856   5.942   6.448
 1887SOL    HW2 6561   0.831   5.785   6.413
 1888SOL     OW 6562   2.885   2.330   6.602
 1888SOL    HW1 6563   2.934   2.257   6.650
 1888SOL    HW2 6564   2.859   2.401   6.668
 1889SOL     OW 6565   5.455   2.762   6.646
 1889SOL    HW1 6566   5.554   2.766   6.629
 1889SOL    HW2 6567   5.417   2.681   6.602
 1890SOL     OW 6568   1.555   5.730   5.139
 1890SOL    HW1 6569   1.486   5.790   5.179
 1890SOL    HW2 6570   1.510   5.655   5.090
 1891SOL     OW 6571   5.548   2.382   3.394
 1891SOL    HW1 6572   5.473   2.372   3.460
 1891SOL    HW2 6573   5.595   2.294   3.384
 1892SOL     OW 6574   3.805   0.590   0.790
 1892SOL    HW1 6575   3.772   0.495   0.795
 1892SOL    HW2 6576   3.904   0.590   0.805
 1893SOL     OW 6577   3.313   2.773   6.492
 1893SOL    HW1 6578   3.413   2.765   6.486
 1893SOL    HW2 6579   3.272   2.722   6.417
 1894SOL     OW 6580   3.762   3.539   3.209
 1894SOL    HW1 6581   3.739   3.594   3.129
 1894SOL    HW2 6582   3.764   3.442   3.184
 1895SOL     OW 6583   6.054   0.816   2.348
 1895SOL    HW1 6584   5.971   0.799   2.295
 1895SOL    HW2 6585   6.117   0.872   2.294
 1896SOL     OW 6586   0.353   0.286   2.499
 1896SOL    HW1 6587   0.452   0.290   2.512
 1896SOL    HW2 6588   0.333   0.264   2.403
 1897SOL     OW 6589   1.132   4.625   2.287
 1897SOL    HW1 6590   1.062   4.692   2.261
 1897SOL    HW2 6591   1.148   4.630   2.385
 1898SOL     OW 6592   3.414   4.904   2.441
 1898SOL    HW1 6593   3.396   4.932   2.536
 1898SOL    HW2 6594   3.329   4.909   2.389
 1899SOL     OW 6595   0.984   1.855   2.658
 1899SOL    HW1 6596   0.931   1.926   2.612
 1899SOL    HW2 6597   1.008   1.886   2.750
 1900SOL     OW 6598   1.212   0.159   5.682
 1900SOL    HW1 6599   1.301   0.195   5.654
 1900SOL    HW2 6600   1.144   0.186   5.614
 1901SOL     OW 6601   2.049   1.335   1.683
 1901SOL    HW1 6602   1.963   1.373   1.716
 1901SOL    HW2 6603   2.067   1.368   1.590
 1902SOL     OW 6604   2.295   2.785   4.872
 1902SOL    HW1 6605   2.366   2.729   4.829
 1902SOL    HW2 6606   2.325   2.881   4.874
 1903SOL     OW 6607   6.320   3.083   3.376
 1903SOL    HW1 6608   6.306   3.160   3.438
 1903SOL    HW2 6609   6.417   3.058   3.376
 1904SOL     OW 6610   5.794   6.764   4.495
 1904SOL    HW1 6611   5.725   6.693   4.512
 1904SOL    HW2 6612   5.874   6.747   4.553
 1905SOL     OW 6613   1.991   1.032   4.020
 1905SOL    HW1 6614   1.919   1.101   4.031
 1905SOL    HW2 6615   2.074   1.075   3.985
 1906SOL     OW 6616   2.554   6.991   5.356
 1906SOL    HW1 6617   2.501   6.984   5.271
 1906SOL    HW2 6618   2.639   0.020   5.338
 1907SOL     OW 6619   3.382   6.482   3.147
 1907SOL    HW1 6620   3.417   6.535   3.225
 1907SOL    HW2 6621   3.459   6.448   3.093
 1908SOL     OW 6622   4.021   0.214   5.335
 1908SOL    HW1 6623   4.063   0.296   5.298
 1908SOL    HW2 6624   3.975   0.236   5.421
 1909SOL     OW 6625   0.898   4.096   2.512
 1909SOL    HW1 6626   0.886   4.176   2.571
 1909SOL    HW2 6627   0.851   4.017   2.553
 1910SOL     OW 6628   0.014   2.955   6.315
 1910SOL    HW1 6629   6.937   2.969   6.299
 1910SOL    HW2 6630   0.054   2.910   6.235
 1911SOL     OW 6631   5.580   3.777   5.217
 1911SOL    HW1 6632   5.488   3.746   5.192
 1911SOL    HW2 6633   5.615   3.838   5.146
 1912SOL     OW 6634   2.830   0.092   0.895
 1912SOL    HW1 6635   2.916   0.042   0.906
 1912SOL    HW2 6636   2.755   0.026   0.886
 1913SOL     OW 6637   1.273   5.876   5.262
 1913SOL    HW1 6638   1.192   5.902   5.209
 1913SOL    HW2 6639   1.249   5.866   5.358
 1914SOL     OW 6640   3.591   2.778   6.513
 1914SOL    HW1 6641   3.644   2.701   6.476
 1914SOL    HW2 6642   3.635   2.810   6.597
 1915SOL     OW 6643   3.550   1.995   5.013
 1915SOL    HW1 6644   3.457   2.031   5.007
 1915SOL    HW2 6645   3.577   1.985   5.109
 1916SOL     OW 6646   3.352   5.713   1.035
 1916SOL    HW1 6647   3.324   5.619   1.052
 1916SOL    HW2 6648   3.271   5.770   1.022
 1917SOL     OW 6649   2.895   3.225   5.044
 1917SOL    HW1 6650   2.808   3.233   5.092
 1917SOL    HW2 6651   2.961   3.178   5.102
 1918SOL     OW 6652   0.933   1.243   6.007
 1918SOL    HW1 6653   0.984   1.213   6.088
 1918SOL    HW2 6654   0.927   1.168   5.941
 1919SOL     OW 6655   2.469   0.862   1.508
 1919SOL    HW1 6656   2.421   0.792   1.561
 1919SOL    HW2 6657   2.445   0.953   1.542
 1920SOL     OW 6658   1.906   4.910   2.507
 1920SOL    HW1 6659   1.884   4.844   2.578
 1920SOL    HW2 6660   1.936   4.996   2.549
 1921SOL     OW 6661   1.098   4.667   0.178
 1921SOL    HW1 6662   1.077   4.730   0.252
 1921SOL    HW2 6663   1.047   4.694   0.096
 1922SOL     OW 6664   2.718   4.336   0.739
 1922SOL    HW1 6665   2.795   4.304   0.794
 1922SOL    HW2 6666   2.734   4.314   0.643
 1923SOL     OW 6667   3.004   0.554   5.801
 1923SOL    HW1 6668   3.002   0.460   5.767
 1923SOL    HW2 6669   2.980   0.616   5.727
 1924SOL     OW 6670   4.236   5.558   1.624
 1924SOL    HW1 6671   4.273   5.569   1.532
 1924SOL    HW2 6672   4.309   5.533   1.687
 1925SOL     OW 6673   1.575   4.380   0.506
 1925SOL    HW1 6674   1.595   4.296   0.454
 1925SOL    HW2 6675   1.530   4.356   0.592
 1926SOL     OW 6676   2.184   6.267   3.191
 1926SOL    HW1 6677   2.157   6.362   3.209
 1926SOL    HW2 6678   2.269   6.266   3.139
 1927SOL     OW 6679   3.349   4.041   6.133
 1927SOL    HW1 6680   3.295   4.051   6.216
 1927SOL    HW2 6681   3.379   4.131   6.102
 1928SOL     OW 6682   6.416   4.708   5.699
 1928SOL    HW1 6683   6.478   4.638   5.735
 1928SOL    HW2 6684   6.386   4.683   5.607
 1929SOL     OW 6685   0.995   5.305   1.074
 1929SOL    HW1 6686   1.046   5.382   1.113
 1929SOL    HW2 6687   1.047   5.266   0.998
 1930SOL     OW 6688   3.575   3.728   6.696
 1930SOL    HW1 6689   3.672   3.750   6.687
 1930SOL    HW2 6690   3.526   3.758   6.615
 1931SOL     OW 6691   0.545   3.306   2.752
 1931SOL    HW1 6692   0.468   3.246   2.733
 1931SOL    HW2 6693   0.608   3.259   2.814
 1932SOL     OW 6694   4.846   3.731   3.473
 1932SOL    HW1 6695   4.883   3.715   3.564
 1932SOL    HW2 6696   4.838   3.644   3.424
 1933SOL     OW 6697   2.195   4.289   0.709
 1933SOL    HW1 6698   2.177   4.344   0.628
 1933SOL    HW2 6699   2.265   4.333   0.765
 1934SOL     OW 6700   0.681   0.136   5.332
 1934SOL    HW1 6701   0.747   0.178   5.270
 1934SOL    HW2 6702   0.606   0.094   5.279
 1935SOL     OW 6703   4.452   6.190   3.646
 1935SOL    HW1 6704   4.372   6.139   3.613
 1935SOL    HW2 6705   4.535   6.146   3.614
 1936SOL     OW 6706   5.931   3.891   4.002
 1936SOL    HW1 6707   5.885   3.969   3.960
 1936SOL    HW2 6708   5.872   3.811   3.999
 1937SOL     OW 6709   3.700   0.076   1.139
 1937SOL    HW1 6710   3.789   0.055   1.178
 1937SOL    HW2 6711   3.642   0.119   1.208
 1938SOL     OW 6712   1.717   2.009   1.136
 1938SOL    HW1 6713   1.752   2.096   1.101
 1938SOL    HW2 6714   1.766   1.985   1.220
 1939SOL     OW 6715   6.865   0.218   4.942
 1939SOL    HW1 6716   6.781   0.166   4.958
 1939SOL    HW2 6717   6.857   0.308   4.985
 1940SOL     OW 6718   5.025   4.950   0.814
 1940SOL    HW1 6719   5.101   4.889   0.791
 1940SOL    HW2 6720   5.009   4.948   0.912
 1941SOL     OW 6721   0.264   3.950   3.536
 1941SOL    HW1 6722   0.349   4.003   3.526
 1941SOL    HW2 6723   0.286   3.861   3.576
 1942SOL     OW 6724   5.569   1.243   1.129
 1942SOL    HW1 6725   5.470   1.259   1.127
 1942SOL    HW2 6726   5.615   1.312   1.073
 1943SOL     OW 6727   2.692   6.477   3.123
 1943SOL    HW1 6728   2.631   6.488   3.202
 1943SOL    HW2 6729   2.732   6.565   3.100
 1944SOL     OW 6730   6.539   2.733   0.182
 1944SOL    HW1 6731   6.522   2.821   0.137
 1944SOL    HW2 6732   6.508   2.738   0.277
 1945SOL     OW 6733   3.954   5.760   0.973
 1945SOL    HW1 6734   3.923   5.736   1.065
 1945SOL    HW2 6735   4.053   5.753   0.968
 1946SOL     OW 6736   6.404   0.041   1.111
 1946SOL    HW1 6737   6.447   0.120   1.068
 1946SOL    HW2 6738   6.464   0.005   1.183
 1947SOL     OW 6739   4.982   6.312   5.023
 1947SOL    HW1 6740   5.056   6.377   5.038
 1947SOL    HW2 6741   4.992   6.235   5.086
 1948SOL     OW 6742   5.656   5.606   4.379
 1948SOL    HW1 6743   5.714   5.525   4.392
 1948SOL    HW2 6744   5.612   5.601   4.289
 1949SOL     OW 6745   3.270   4.538   6.354
 1949SOL    HW1 6746   3.182   4.584   6.354
 1949SOL    HW2 6747   3.258   4.442   6.377
 1950SOL     OW 6748   3.767   4.295   0.013
 1950SOL    HW1 6749   3.680   4.262   0.051
 1950SOL    HW2 6750   3.750   4.331   6.942
 1951SOL     OW 6751   6.094   2.959   0.130
 1951SOL    HW1 6752   6.111   2.872   0.084
 1951SOL    HW2 6753   6.152   3.030   0.091
 1952SOL     OW 6754   4.757   2.950   0.496
 1952SOL    HW1 6755   4.719   2.932   0.586
 1952SOL    HW2 6756   4.775   2.863   0.449
 1953SOL     OW 6757   6.650   1.627   5.797
 1953SOL    HW1 6758   6.564   1.679   5.794
 1953SOL    HW2 6759   6.725   1.687   5.820
 1954SOL     OW 6760   6.115   0.454   2.990
 1954SOL    HW1 6761   6.035   0.480   2.935
 1954SOL    HW2 6762   6.163   0.537   3.020
 1955SOL     OW 6763   0.805   1.063   2.747
 1955SOL    HW1 6764   0.883   1.085   2.806
 1955SOL    HW2 6765   0.826   1.089   2.653
 1956SOL     OW 6766   5.151   6.909   2.757
 1956SOL    HW1 6767   5.101   6.958   2.686
 1956SOL    HW2 6768   5.207   6.974   2.809
 1957SOL     OW 6769   5.808   4.685   4.149
 1957SOL    HW1 6770   5.902   4.697   4.179
 1957SOL    HW2 6771   5.773   4.597   4.179
 1958SOL     OW 6772   4.959   2.360   2.371
 1958SOL    HW1 6773   4.972   2.262   2.351
 1958SOL    HW2 6774   4.862   2.381   2.374
 1959SOL     OW 6775   1.020   0.659   4.852
 1959SOL    HW1 6776   1.059   0.699   4.769
 1959SOL    HW2 6777   1.047   0.563   4.858
 1960SOL     OW 6778   6.610   4.394   2.174
 1960SOL    HW1 6779   6.625   4.296   2.159
 1960SOL    HW2 6780   6.696   4.438   2.198
 1961SOL     OW 6781   5.926   4.169   3.554
 1961SOL    HW1 6782   5.956   4.264   3.551
 1961SOL    HW2 6783   5.973   4.122   3.629
 1962SOL     OW 6784   1.380   6.588   3.880
 1962SOL    HW1 6785   1.331   6.512   3.923
 1962SOL    HW2 6786   1.436   6.634   3.949
 1963SOL     OW 6787   0.794   2.189   1.153
 1963SOL    HW1 6788   0.852   2.145   1.084
 1963SOL    HW2 6789   0.797   2.288   1.142
 1964SOL     OW 6790   4.544   4.475   0.668
 1964SOL    HW1 6791   4.625   4.515   0.711
 1964SOL    HW2 6792   4.462   4.520   0.704
 1965SOL     OW 6793   1.606   3.182   4.616
 1965SOL    HW1 6794   1.638   3.215   4.705
 1965SOL    HW2 6795   1.648   3.237   4.543
 1966SOL     OW 6796   6.984   6.462   0.840
 1966SOL    HW1 6797   6.937   6.540   0.800
 1966SOL    HW2 6798   6.989   6.388   0.773
 1967SOL     OW 6799   5.619   2.302   5.969
 1967SOL    HW1 6800   5.536   2.354   5.989
 1967SOL    HW2 6801   5.667   2.344   5.892
 1968SOL     OW 6802   1.989   6.567   6.100
 1968SOL    HW1 6803   1.897   6.532   6.082
 1968SOL    HW2 6804   2.015   6.631   6.028
 1969SOL     OW 6805   0.508   1.613   1.286
 1969SOL    HW1 6806   0.421   1.573   1.257
 1969SOL    HW2 6807   0.491   1.701   1.330
 1970SOL     OW 6808   3.103   6.329   6.123
 1970SOL    HW1 6809   3.195   6.368   6.127
 1970SOL    HW2 6810   3.051   6.374   6.051
 1971SOL     OW 6811   0.387   0.179   5.498
 1971SOL    HW1 6812   0.485   0.177   5.477
 1971SOL    HW2 6813   0.358   0.089   5.531
 1972SOL     OW 6814   5.663   2.216   1.936
 1972SOL    HW1 6815   5.596   2.241   1.867
 1972SOL    HW2 6816   5.743   2.175   1.893
 1973SOL     OW 6817   3.259   2.948   0.055
 1973SOL    HW1 6818   3.214   2.859   0.051
 1973SOL    HW2 6819   3.199   3.018   0.017
 1974SOL     OW 6820   6.132   6.915   5.295
 1974SOL    HW1 6821   6.196   6.899   5.370
 1974SOL    HW2 6822   6.183   6.918   5.209
 1975SOL     OW 6823   2.133   1.371   3.891
 1975SOL    HW1 6824   2.106   1.408   3.980
 1975SOL    HW2 6825   2.177   1.282   3.904
 1976SOL     OW 6826   0.337   0.010   6.924
 1976SOL    HW1 6827   0.372   0.092   6.971
 1976SOL    HW2 6828   0.241   0.024   6.901
 1977SOL     OW 6829   1.253   3.121   4.916
 1977SOL    HW1 6830   1.268   3.211   4.956
 1977SOL    HW2 6831   1.179   3.126   4.849
 1978SOL     OW 6832   2.356   6.611   2.909
 1978SOL    HW1 6833   2.303   6.554   2.972
 1978SOL    HW2 6834   2.452   6.581   2.910
 1979SOL     OW 6835   5.888   4.048   6.105
 1979SOL    HW1 6836   5.974   4.060   6.154
 1979SOL    HW2 6837   5.864   3.950   6.102
 1980SOL     OW 6838   3.163   6.856   4.719
 1980SOL    HW1 6839   3.152   6.847   4.819
 1980SOL    HW2 6840   3.260   6.862   4.697
 1981SOL     OW 6841   7.010   2.340   2.645
 1981SOL    HW1 6842   0.011   2.436   2.628
 1981SOL    HW2 6843   0.073   2.288   2.658
 1982SOL     OW 6844   0.305   4.146   4.537
 1982SOL    HW1 6845   0.305   4.221   4.471
 1982SOL    HW2 6846   0.389   4.149   4.591
 1983SOL     OW 6847   1.194   0.946   2.777
 1983SOL    HW1 6848   1.165   0.927   2.683
 1983SOL    HW2 6849   1.241   0.866   2.814
 1984SOL     OW 6850   5.056   1.699   5.229
 1984SOL    HW1 6851   5.106   1.702   5.315
 1984SOL    HW2 6852   4.977   1.761   5.233
 1985SOL     OW 6853   1.481   6.115   2.490
 1985SOL    HW1 6854   1.445   6.027   2.522
 1985SOL    HW2 6855   1.578   6.121   2.514
 1986SOL     OW 6856   2.247   1.324   6.598
 1986SOL    HW1 6857   2.196   1.342   6.681
 1986SOL    HW2 6858   2.205   1.372   6.521
 1987SOL     OW 6859   2.056   2.422   2.456
 1987SOL    HW1 6860   1.978   2.470   2.496
 1987SOL    HW2 6861   2.065   2.332   2.499
 1988SOL     OW 6862   6.125   3.890   0.806
 1988SOL    HW1 6863   6.132   3.895   0.906
 1988SOL    HW2 6864   6.120   3.983   0.768
 1989SOL     OW 6865   2.056   5.377   5.181
 1989SOL    HW1 6866   1.970   5.420   5.206
 1989SOL    HW2 6867   2.121   5.447   5.150
 1990SOL     OW 6868   3.657   6.195   0.690
 1990SOL    HW1 6869   3.650   6.118   0.626
 1990SOL    HW2 6870   3.648   6.281   0.639
 1991SOL     OW 6871   3.406   5.489   6.654
 1991SOL    HW1 6872   3.445   5.398   6.643
 1991SOL    HW2 6873   3.444   5.533   6.736
 1992SOL     OW 6874   0.494   0.701   0.696
 1992SOL    HW1 6875   0.417   0.728   0.754
 1992SOL    HW2 6876   0.516   0.775   0.632
 1993SOL     OW 6877   3.470   2.313   5.337
 1993SOL    HW1 6878   3.530   2.393   5.339
 1993SOL    HW2 6879   3.388   2.335   5.283
 1994SOL     OW 6880   0.657   1.418   0.410
 1994SOL    HW1 6881   0.751   1.386   0.401
 1994SOL    HW2 6882   0.646   1.503   0.359
 1995SOL     OW 6883   4.974   2.496   3.871
 1995SOL    HW1 6884   4.980   2.431   3.795
 1995SOL    HW2 6885   4.903   2.564   3.851
 1996SOL     OW 6886   1.890   3.278   0.598
 1996SOL    HW1 6887   1.868   3.298   0.693
 1996SOL    HW2 6888   1.978   3.319   0.575
 1997SOL     OW 6889   3.271   1.648   4.681
 1997SOL    HW1 6890   3.295   1.620   4.588
 1997SOL    HW2 6891   3.353   1.682   4.727
 1998SOL     OW 6892   2.793   4.648   6.947
 1998SOL    HW1 6893   2.812   4.745   6.930
 1998SOL    HW2 6894   2.696   4.630   6.931
 1999SOL     OW 6895   2.232   6.186   6.682
 1999SOL    HW1 6896   2.159   6.251   6.702
 1999SOL    HW2 6897   2.213   6.140   6.595
 2000SOL     OW 6898   4.311   2.353   5.456
 2000SOL    HW1 6899   4.367   2.412   5.515
 2000SOL    HW2 6900   4.251   2.298   5.513
 2001SOL     OW 6901   3.078   0.406   1.344
 2001SOL    HW1 6902   3.039   0.445   1.427
 2001SOL    HW2 6903   3.176   0.423   1.342
 2002SOL     OW 6904   0.282   4.566   6.535
 2002SOL    HW1 6905   0.259   4.539   6.442
 2002SOL    HW2 6906   0.313   4.661   6.536
 2003SOL     OW 6907   6.070   5.614   2.530
 2003SOL    HW1 6908   6.035   5.633   2.621
 2003SOL    HW2 6909   6.118   5.526   2.531
 2004SOL     OW 6910   4.817   1.660   4.879
 2004SOL    HW1 6911   4.791   1.754   4.903
 2004SOL    HW2 6912   4.913   1.645   4.903
 2005SOL     OW 6913   0.112   5.222   0.167
 2005SOL    HW1 6914   0.088   5.319   0.172
 2005SOL    HW2 6915   0.057   5.170   0.233
 2006SOL     OW 6916   5.763   0.136   3.510
 2006SOL    HW1 6917   5.839   0.094   3.462
 2006SOL    HW2 6918   5.792   0.225   3.547
 2007SOL     OW 6919   4.619   4.734   1.070
 2007SOL    HW1 6920   4.570   4.671   1.131
 2007SOL    HW2 6921   4.716   4.709   1.068
 2008SOL     OW 6922   2.019   4.863   3.896
 2008SOL    HW1 6923   2.095   4.927   3.897
 2008SOL    HW2 6924   2.054   4.771   3.878
 2009SOL     OW 6925   5.227   0.757   2.551
 2009SOL    HW1 6926   5.172   0.802   2.480
 2009SOL    HW2 6927   5.309   0.716   2.509
 2010SOL     OW 6928   1.956   1.930   1.829
 2010SOL    HW1 6929   1.985   1.859   1.765
 2010SOL    HW2 6930   2.010   2.013   1.814
 2011SOL     OW 6931   6.556   6.436   5.014
 2011SOL    HW1 6932   6.549   6.493   4.932
 2011SOL    HW2 6933   6.468   6.390   5.031
 2012SOL     OW 6934   1.512   3.995   2.312
 2012SOL    HW1 6935   1.462   4.072   2.352
 2012SOL    HW2 6936   1.603   4.024   2.285
 2013SOL     OW 6937   6.162   2.538   3.125
 2013SOL    HW1 6938   6.168   2.601   3.203
 2013SOL    HW2 6939   6.144   2.446   3.158
 2014SOL     OW 6940   2.686   5.923   3.535
 2014SOL    HW1 6941   2.618   5.946   3.605
 2014SOL    HW2 6942   2.640   5.912   3.446
 2015SOL     OW 6943   2.073   0.598   0.012
 2015SOL    HW1 6944   2.121   0.574   0.096
 2015SOL    HW2 6945   1.997   0.660   0.034
 2016SOL     OW 6946   1.648   5.727   5.968
 2016SOL    HW1 6947   1.588   5.777   6.030
 2016SOL    HW2 6948   1.694   5.653   6.017
 2017SOL     OW 6949   3.467   6.833   4.401
 2017SOL    HW1 6950   3.547   6.777   4.423
 2017SOL    HW2 6951   3.458   6.840   4.301
 2018SOL     OW 6952   5.046   1.213   5.542
 2018SOL    HW1 6953   5.059   1.117   5.566
 2018SOL    HW2 6954   5.058   1.269   5.624
 2019SOL     OW 6955   5.219   2.905   6.501
 2019SOL    HW1 6956   5.223   2.806   6.498
 2019SOL    HW2 6957   5.256   2.938   6.587
 2020SOL     OW 6958   1.732   6.600   5.367
 2020SOL    HW1 6959   1.820   6.630   5.330
 2020SOL    HW2 6960   1.747   6.536   5.442
 2021SOL     OW 6961   0.610   6.244   4.833
 2021SOL    HW1 6962   0.532   6.306   4.837
 2021SOL    HW2 6963   0.683   6.277   4.893
 2022SOL     OW 6964   1.320   3.588   3.378
 2022SOL    HW1 6965   1.314   3.594   3.477
 2022SOL    HW2 6966   1.283   3.672   3.337
 2023SOL     OW 6967   6.707   0.597   6.822
 2023SOL    HW1 6968   6.744   0.579   6.731
 2023SOL    HW2 6969   6.638   0.669   6.816
 2024SOL     OW 6970   0.241   6.586   3.750
 2024SOL    HW1 6971   0.337   6.606   3.729
 2024SOL    HW2 6972   0.232   6.490   3.775
 2025SOL     OW 6973   2.978   1.228   3.390
 2025SOL    HW1 6974   2.910   1.260   3.324
 2025SOL    HW2 6975   3.041   1.164   3.346
 2026SOL     OW 6976   0.116   3.100   5.566
 2026SOL    HW1 6977   0.118   3.200   5.566
 2026SOL    HW2 6978   0.038   3.069   5.621
 2027SOL     OW 6979   1.367   0.020   0.480
 2027SOL    HW1 6980   1.417   0.106   0.488
 2027SOL    HW2 6981   1.292   0.018   0.546
 2028SOL     OW 6982   2.881   6.033   4.995
 2028SOL    HW1 6983   2.784   6.046   4.972
 2028SOL    HW2 6984   2.923   6.122   5.011
 2029SOL     OW 6985   7.013   0.958   0.236
 2029SOL    HW1 6986   0.001   0.951   0.335
 2029SOL    HW2 6987   6.963   0.878   0.201
 2030SOL     OW 6988   2.859   0.687   3.183
 2030SOL    HW1 6989   2.951   0.657   3.208
 2030SOL    HW2 6990   2.799   0.681   3.263
 2031SOL     OW 6991   6.536   6.004   1.295
 2031SOL    HW1 6992   6.512   5.954   1.378
 2031SOL    HW2 6993   6.455   6.016   1.238
 2032SOL     OW 6994   4.803   0.553   2.353
 2032SOL    HW1 6995   4.767   0.645   2.372
 2032SOL    HW2 6996   4.828   0.509   2.439
 2033SOL     OW 6997   3.442   3.375   5.592
 2033SOL    HW1 6998   3.509   3.304   5.573
 2033SOL    HW2 6999   3.419   3.423   5.507
 2034SOL     OW 7000   2.516   5.579   5.724
 2034SOL    HW1 7001   2.517   5.657   5.661
 2034SOL    HW2 7002   2.438   5.520   5.702
 2035SOL     OW 7003   6.648   6.243   3.894
 2035SOL    HW1 7004   6.716   6.248   3.967
 2035SOL    HW2 7005   6.656   6.323   3.835
 2036SOL     OW 7006   1.233   4.504   2.869
 2036SOL    HW1 7007   1.227   4.411   2.834
 2036SOL    HW2 7008   1.315   4.513   2.925
 2037SOL     OW 7009   6.447   3.057   5.537
 2037SOL    HW1 7010   6.542   3.047   5.509
 2037SOL    HW2 7011   6.402   2.967   5.536
 2038SOL     OW 7012   1.582   2.432   0.162
 2038SOL    HW1 7013   1.663   2.480   0.127
 2038SOL    HW2 7014   1.556   2.470   0.251
 2039SOL     OW 7015   0.134   5.300   4.075
 2039SOL    HW1 7016   0.155   5.387   4.032
 2039SOL    HW2 7017   0.040   5.274   4.055
 2040SOL     OW 7018   2.920   3.423   5.337
 2040SOL    HW1 7019   2.856   3.346   5.333
 2040SOL    HW2 7020   3.013   3.388   5.333
 2041SOL     OW 7021   1.224   6.148   5.980
 2041SOL    HW1 7022   1.283   6.073   5.950
 2041SOL    HW2 7023   1.161   6.172   5.906
 2042SOL     OW 7024   4.527   6.295   0.068
 2042SOL    HW1 7025   4.538   6.393   0.083
 2042SOL    HW2 7026   4.615   6.249   0.080
 2043SOL     OW 7027   6.115   3.999   3.309
 2043SOL    HW1 7028   6.177   4.074   3.285
 2043SOL    HW2 7029   6.055   3.979   3.232
 2044SOL     OW 7030   6.545   0.382   2.201
 2044SOL    HW1 7031   6.562   0.466   2.150
 2044SOL    HW2 7032   6.586   0.305   2.153
 2045SOL     OW 7033   1.213   5.233   3.993
 2045SOL    HW1 7034   1.177   5.142   3.972
 2045SOL    HW2 7035   1.148   5.281   4.052
 2046SOL     OW 7036   6.904   2.198   3.947
 2046SOL    HW1 7037   6.879   2.209   4.043
 2046SOL    HW2 7038   6.936   2.286   3.911
 2047SOL     OW 7039   0.111   2.700   7.002
 2047SOL    HW1 7040   0.052   2.757   0.038
 2047SOL    HW2 7041   0.152   2.757   6.931
 2048SOL     OW 7042   2.073   6.701   5.893
 2048SOL    HW1 7043   2.131   6.782   5.886
 2048SOL    HW2 7044   2.057   6.664   5.801
 2049SOL     OW 7045   6.036   1.695   4.847
 2049SOL    HW1 7046   6.105   1.718   4.916
 2049SOL    HW2 7047   6.082   1.677   4.760
 2050SOL     OW 7048   6.434   2.292   3.807
 2050SOL    HW1 7049   6.384   2.244   3.736
 2050SOL    HW2 7050   6.384   2.375   3.833
 2051SOL     OW 7051   0.727   5.925   6.913
 2051SOL    HW1 7052   0.697   5.877   6.831
 2051SOL    HW2 7053   0.720   6.024   6.898
 2052SOL     OW 7054   1.461   3.454   0.943
 2052SOL    HW1 7055   1.497   3.432   1.034
 2052SOL    HW2 7056   1.389   3.389   0.919
 2053SOL     OW 7057   6.478   6.083   4.054
 2053SOL    HW1 7058   6.529   6.000   4.077
 2053SOL    HW2 7059   6.539   6.149   4.011
 2054SOL     OW 7060   3.367   3.993   3.135
 2054SOL    HW1 7061   3.317   3.965   3.053
 2054SOL    HW2 7062   3.438   4.059   3.109
 2055SOL     OW 7063   5.636   3.831   4.183
 2055SOL    HW1 7064   5.557   3.888   4.207
 2055SOL    HW2 7065   5.605   3.752   4.131
 2056SOL     OW 7066   4.415   5.494   2.094
 2056SOL    HW1 7067   4.431   5.415   2.152
 2056SOL    HW2 7068   4.363   5.563   2.144
 2057SOL     OW 7069   5.038   4.382   6.184
 2057SOL    HW1 7070   5.092   4.326   6.121
 2057SOL    HW2 7071   5.020   4.329   6.268
 2058SOL     OW 7072   0.410   0.723   2.784
 2058SOL    HW1 7073   0.409   0.815   2.824
 2058SOL    HW2 7074   0.321   0.704   2.743
 2059SOL     OW 7075   1.922   6.071   6.745
 2059SOL    HW1 7076   1.961   6.158   6.775
 2059SOL    HW2 7077   1.823   6.077   6.743
 2060SOL     OW 7078   0.513   4.386   1.392
 2060SOL    HW1 7079   0.430   4.389   1.449
 2060SOL    HW2 7080   0.593   4.403   1.449
 2061SOL     OW 7081   1.361   1.836   2.527
 2061SOL    HW1 7082   1.268   1.851   2.493
 2061SOL    HW2 7083   1.360   1.833   2.627
 2062SOL     OW 7084   6.632   5.561   4.753
 2062SOL    HW1 7085   6.713   5.512   4.719
 2062SOL    HW2 7086   6.661   5.632   4.817
 2063SOL     OW 7087   1.494   6.506   5.690
 2063SOL    HW1 7088   1.413   6.449   5.703
 2063SOL    HW2 7089   1.551   6.502   5.772
 2064SOL     OW 7090   0.633   2.565   5.240
 2064SOL    HW1 7091   0.662   2.658   5.262
 2064SOL    HW2 7092   0.617   2.559   5.141
 2065SOL     OW 7093   5.758   2.373   5.756
 2065SOL    HW1 7094   5.752   2.402   5.660
 2065SOL    HW2 7095   5.799   2.283   5.762
 2066SOL     OW 7096   0.329   4.692   4.088
 2066SOL    HW1 7097   0.340   4.754   4.166
 2066SOL    HW2 7098   0.388   4.612   4.102
 2067SOL     OW 7099   6.704   5.929   1.032
 2067SOL    HW1 7100   6.664   5.919   1.123
 2067SOL    HW2 7101   6.631   5.945   0.966
 2068SOL     OW 7102   2.334   0.391   4.381
 2068SOL    HW1 7103   2.336   0.457   4.305
 2068SOL    HW2 7104   2.299   0.436   4.463
 2069SOL     OW 7105   6.368   2.565   3.863
 2069SOL    HW1 7106   6.389   2.593   3.957
 2069SOL    HW2 7107   6.449   2.575   3.806
 2070SOL     OW 7108   1.139   0.854   1.358
 2070SOL    HW1 7109   1.219   0.815   1.312
 2070SOL    HW2 7110   1.124   0.807   1.445
 2071SOL     OW 7111   6.034   0.317   5.890
 2071SOL    HW1 7112   5.946   0.298   5.934
 2071SOL    HW2 7113   6.095   0.361   5.957
 2072SOL     OW 7114   4.323   5.123   4.146
 2072SOL    HW1 7115   4.385   5.118   4.068
 2072SOL    HW2 7116   4.335   5.211   4.192
 2073SOL     OW 7117   4.469   6.475   4.985
 2073SOL    HW1 7118   4.563   6.506   4.991
 2073SOL    HW2 7119   4.466   6.383   4.947
 2074SOL     OW 7120   1.853   2.301   6.368
 2074SOL    HW1 7121   1.813   2.264   6.285
 2074SOL    HW2 7122   1.952   2.314   6.355
 2075SOL     OW 7123   6.754   2.632   3.330
 2075SOL    HW1 7124   6.795   2.717   3.295
 2075SOL    HW2 7125   6.826   2.573   3.365
 2076SOL     OW 7126   5.798   0.276   6.021
 2076SOL    HW1 7127   5.800   0.267   6.120
 2076SOL    HW2 7128   5.705   0.262   5.987
 2077SOL     OW 7129   6.228   1.841   3.335
 2077SOL    HW1 7130   6.318   1.835   3.380
 2077SOL    HW2 7131   6.241   1.865   3.238
 2078SOL     OW 7132   1.326   5.810   6.166
 2078SOL    HW1 7133   1.349   5.869   6.089
 2078SOL    HW2 7134   1.227   5.793   6.168
 2079SOL     OW 7135   6.090   1.959   2.848
 2079SOL    HW1 7136   6.147   1.942   2.928
 2079SOL    HW2 7137   6.015   2.021   2.873
 2080SOL     OW 7138   1.823   0.342   4.710
 2080SOL    HW1 7139   1.903   0.294   4.747
 2080SOL    HW2 7140   1.767   0.278   4.659
 2081SOL     OW 7141   0.812   6.242   4.538
 2081SOL    HW1 7142   0.763   6.321   4.578
 2081SOL    HW2 7143   0.881   6.275   4.474
 2082SOL     OW 7144   0.578   6.689   3.169
 2082SOL    HW1 7145   0.497   6.747   3.175
 2082SOL    HW2 7146   0.606   6.661   3.261
 2083SOL     OW 7147   0.597   4.966   5.755
 2083SOL    HW1 7148   0.624   4.873   5.731
 2083SOL    HW2 7149   0.644   5.031   5.696
 2084SOL     OW 7150   0.603   4.518   3.187
 2084SOL    HW1 7151   0.628   4.539   3.092
 2084SOL    HW2 7152   0.554   4.596   3.226
 2085SOL     OW 7153   4.886   0.867   0.200
 2085SOL    HW1 7154   4.923   0.941   0.258
 2085SOL    HW2 7155   4.793   0.847   0.228
 2086SOL     OW 7156   3.728   6.965   6.410
 2086SOL    HW1 7157   3.755   6.890   6.349
 2086SOL    HW2 7158   3.757   6.945   6.503
 2087SOL     OW 7159   4.921   1.051   1.411
 2087SOL    HW1 7160   4.969   0.996   1.342
 2087SOL    HW2 7161   4.945   1.147   1.399
 2088SOL     OW 7162   1.003   5.824   6.897
 2088SOL    HW1 7163   1.068   5.786   6.964
 2088SOL    HW2 7164   0.929   5.871   6.945
 2089SOL     OW 7165   4.996   3.058   6.008
 2089SOL    HW1 7166   4.994   3.040   6.107
 2089SOL    HW2 7167   4.916   3.016   5.965
 2090SOL     OW 7168   4.271   3.393   6.074
 2090SOL    HW1 7169   4.366   3.422   6.060
 2090SOL    HW2 7170   4.215   3.421   5.996
 2091SOL     OW 7171   6.909   5.146   0.591
 2091SOL    HW1 7172   6.910   5.103   0.501
 2091SOL    HW2 7173   7.002   5.173   0.616
 2092SOL     OW 7174   5.051   3.665   0.449
 2092SOL    HW1 7175   5.009   3.648   0.539
 2092SOL    HW2 7176   5.035   3.586   0.390
 2093SOL     OW 7177   2.912   1.855   1.282
 2093SOL    HW1 7178   2.913   1.767   1.329
 2093SOL    HW2 7179   3.002   1.898   1.290
 2094SOL     OW 7180   5.565   1.779   2.088
 2094SOL    HW1 7181   5.478   1.823   2.111
 2094SOL    HW2 7182   5.637   1.816   2.146
 2095SOL     OW 7183   6.813   6.906   4.758
 2095SOL    HW1 7184   6.884   6.976   4.768
 2095SOL    HW2 7185   6.814   6.847   4.839
 2096SOL     OW 7186   4.902   4.365   3.064
 2096SOL    HW1 7187   4.890   4.462   3.084
 2096SOL    HW2 7188   4.869   4.311   3.141
 2097SOL     OW 7189   3.040   2.786   6.358
 2097SOL    HW1 7190   3.003   2.849   6.426
 2097SOL    HW2 7191   2.969   2.722   6.329
 2098SOL     OW 7192   4.618   5.896   1.957
 2098SOL    HW1 7193   4.568   5.811   1.936
 2098SOL    HW2 7194   4.553   5.971   1.967
 2099SOL     OW 7195   3.470   1.894   6.167
 2099SOL    HW1 7196   3.553   1.875   6.114
 2099SOL    HW2 7197   3.390   1.868   6.113
 2100SOL     OW 7198   5.000   2.057   0.412
 2100SOL    HW1 7199   5.077   2.000   0.440
 2100SOL    HW2 7200   5.028   2.116   0.337
 2101SOL     OW 7201   0.480   6.536   1.224
 2101SOL    HW1 7202   0.535   6.543   1.140
 2101SOL    HW2 7203   0.456   6.440   1.240
 2102SOL     OW 7204   4.986   4.304   2.436
 2102SOL    HW1 7205   5.050   4.380   2.435
 2102SOL    HW2 7206   4.998   4.248   2.354
 2103SOL     OW 7207   3.605   3.950   6.886
 2103SOL    HW1 7208   3.580   3.859   6.852
 2103SOL    HW2 7209   3.588   4.018   6.816
 2104SOL     OW 7210   1.840   4.425   2.451
 2104SOL    HW1 7211   1.771   4.353   2.461
 2104SOL    HW2 7212   1.796   4.509   2.421
 2105SOL     OW 7213   4.988   4.711   0.064
 2105SOL    HW1 7214   5.055   4.773   0.023
 2105SOL    HW2 7215   5.031   4.622   0.081
 2106SOL     OW 7216   5.562   3.469   1.092
 2106SOL    HW1 7217   5.539   3.511   1.179
 2106SOL    HW2 7218   5.489   3.488   1.025
 2107SOL     OW 7219   6.687   2.205   5.532
 2107SOL    HW1 7220   6.670   2.164   5.442
 2107SOL    HW2 7221   6.678   2.304   5.525
 2108SOL     OW 7222   5.975   5.392   5.071
 2108SOL    HW1 7223   5.906   5.362   5.137
 2108SOL    HW2 7224   6.018   5.313   5.029
 2109SOL     OW 7225   4.307   6.002   2.356
 2109SOL    HW1 7226   4.333   6.098   2.351
 2109SOL    HW2 7227   4.327   5.966   2.446
 2110SOL     OW 7228   3.002   0.607   0.409
 2110SOL    HW1 7229   3.050   0.611   0.321
 2110SOL    HW2 7230   2.932   0.678   0.411
 2111SOL     OW 7231   1.972   3.112   0.045
 2111SOL    HW1 7232   2.038   3.181   0.075
 2111SOL    HW2 7233   1.885   3.127   0.092
 2112SOL     OW 7234   5.188   2.313   0.862
 2112SOL    HW1 7235   5.098   2.357   0.871
 2112SOL    HW2 7236   5.252   2.378   0.821
 2113SOL     OW 7237   2.537   1.188   4.679
 2113SOL    HW1 7238   2.625   1.169   4.637
 2113SOL    HW2 7239   2.471   1.213   4.608
 2114SOL     OW 7240   2.438   1.704   6.542
 2114SOL    HW1 7241   2.451   1.676   6.637
 2114SOL    HW2 7242   2.439   1.623   6.483
 2115SOL     OW 7243   0.612   4.443   2.376
 2115SOL    HW1 7244   0.568   4.471   2.461
 2115SOL    HW2 7245   0.669   4.517   2.341
 2116SOL     OW 7246   0.828   3.885   2.663
 2116SOL    HW1 7247   0.902   3.827   2.630
 2116SOL    HW2 7248   0.836   3.898   2.761
 2117SOL     OW 7249   6.471   4.642   1.282
 2117SOL    HW1 7250   6.478   4.546   1.254
 2117SOL    HW2 7251   6.532   4.698   1.226
 2118SOL     OW 7252   6.120   3.062   3.196
 2118SOL    HW1 7253   6.213   3.058   3.233
 2118SOL    HW2 7254   6.057   3.019   3.261
 2119SOL     OW 7255   1.500   0.333   1.580
 2119SOL    HW1 7256   1.473   0.241   1.550
 2119SOL    HW2 7257   1.478   0.344   1.677
 2120SOL     OW 7258   0.598   4.270   3.103
 2120SOL    HW1 7259   0.597   4.358   3.149
 2120SOL    HW2 7260   0.507   4.228   3.106
 2121SOL     OW 7261   1.494   3.198   5.679
 2121SOL    HW1 7262   1.557   3.221   5.753
 2121SOL    HW2 7263   1.546   3.179   5.596
 2122SOL     OW 7264   5.823   5.448   6.561
 2122SOL    HW1 7265   5.727   5.475   6.559
 2122SOL    HW2 7266   5.829   5.349   6.574
 2123SOL     OW 7267   6.492   5.502   2.176
 2123SOL    HW1 7268   6.450   5.553   2.101
 2123SOL    HW2 7269   6.467   5.544   2.263
 2124SOL     OW 7270   3.127   1.727   0.927
 2124SOL    HW1 7271   3.146   1.782   0.846
 2124SOL    HW2 7272   3.173   1.768   1.006
 2125SOL     OW 7273   1.711   6.424   2.055
 2125SOL    HW1 7274   1.746   6.378   2.136
 2125SOL    HW2 7275   1.709   6.522   2.070
 2126SOL     OW 7276   3.868   2.601   6.430
 2126SOL    HW1 7277   3.924   2.526   6.394
 2126SOL    HW2 7278   3.871   2.677   6.366
 2127SOL     OW 7279   1.238   1.968   6.153
 2127SOL    HW1 7280   1.334   1.979   6.128
 2127SOL    HW2 7281   1.216   1.870   6.158
 2128SOL     OW 7282   6.197   2.738   3.331
 2128SOL    HW1 7283   6.275   2.793   3.298
 2128SOL    HW2 7284   6.214   2.712   3.426
 2129SOL     OW 7285   5.074   3.576   5.087
 2129SOL    HW1 7286   5.077   3.501   5.153
 2129SOL    HW2 7287   4.987   3.573   5.037
 2130SOL     OW 7288   3.149   0.038   3.029
 2130SOL    HW1 7289   3.246   0.060   3.028
 2130SOL    HW2 7290   3.131   6.985   2.964
 2131SOL     OW 7291   4.650   1.851   0.865
 2131SOL    HW1 7292   4.684   1.783   0.800
 2131SOL    HW2 7293   4.550   1.856   0.859
 2132SOL     OW 7294   3.395   1.076   0.424
 2132SOL    HW1 7295   3.327   1.016   0.383
 2132SOL    HW2 7296   3.463   1.021   0.472
 2133SOL     OW 7297   3.519   2.484   1.317
 2133SOL    HW1 7298   3.465   2.400   1.315
 2133SOL    HW2 7299   3.600   2.470   1.374
 2134SOL     OW 7300   0.984   0.627   4.176
 2134SOL    HW1 7301   0.899   0.665   4.211
 2134SOL    HW2 7302   1.052   0.700   4.169
 2135SOL     OW 7303   0.898   2.045   3.975
 2135SOL    HW1 7304   0.909   2.111   3.901
 2135SOL    HW2 7305   0.853   2.089   4.052
 2136SOL     OW 7306   0.845   4.303   4.525
 2136SOL    HW1 7307   0.817   4.292   4.621
 2136SOL    HW2 7308   0.930   4.254   4.510
 2137SOL     OW 7309   0.056   5.894   4.199
 2137SOL    HW1 7310   0.033   5.814   4.144
 2137SOL    HW2 7311   0.046   5.977   4.142
 2138SOL     OW 7312   6.855   1.109   1.657
 2138SOL    HW1 7313   6.900   1.020   1.650
 2138SOL    HW2 7314   6.776   1.111   1.596
 2139SOL     OW 7315   3.555   0.719   2.927
 2139SOL    HW1 7316   3.577   0.782   2.853
 2139SOL    HW2 7317   3.582   0.759   3.015
 2140SOL     OW 7318   3.445   5.937   3.535
 2140SOL    HW1 7319   3.479   6.011   3.477
 2140SOL    HW2 7320   3.354   5.910   3.504
 2141SOL     OW 7321   6.408   4.807   0.863
 2141SOL    HW1 7322   6.427   4.742   0.937
 2141SOL    HW2 7323   6.458   4.779   0.781
 2142SOL     OW 7324   1.365   2.043   3.112
 2142SOL    HW1 7325   1.428   2.005   3.044
 2142SOL    HW2 7326   1.286   1.983   3.122
 2143SOL     OW 7327   3.204   4.547   1.183
 2143SOL    HW1 7328   3.159   4.619   1.130
 2143SOL    HW2 7329   3.147   4.465   1.183
 2144SOL     OW 7330   1.289   5.755   3.020
 2144SOL    HW1 7331   1.256   5.695   3.094
 2144SOL    HW2 7332   1.224   5.753   2.945
 2145SOL     OW 7333   3.568   6.200   4.186
 2145SOL    HW1 7334   3.478   6.156   4.185
 2145SOL    HW2 7335   3.557   6.299   4.192
 2146SOL     OW 7336   2.615   3.525   1.697
 2146SOL    HW1 7337   2.607   3.617   1.660
 2146SOL    HW2 7338   2.531   3.500   1.745
 2147SOL     OW 7339   0.393   1.137   6.450
 2147SOL    HW1 7340   0.319   1.137   6.517
 2147SOL    HW2 7341   0.427   1.231   6.439
 2148SOL     OW 7342   5.382   2.394   4.411
 2148SOL    HW1 7343   5.305   2.403   4.474
 2148SOL    HW2 7344   5.373   2.461   4.337
 2149SOL     OW 7345   3.694   1.415   1.163
 2149SOL    HW1 7346   3.772   1.456   1.117
 2149SOL    HW2 7347   3.696   1.437   1.260
 2150SOL     OW 7348   2.500   2.120   2.405
 2150SOL    HW1 7349   2.600   2.128   2.411
 2150SOL    HW2 7350   2.466   2.072   2.486
 2151SOL     OW 7351   1.797   1.193   4.114
 2151SOL    HW1 7352   1.734   1.115   4.116
 2151SOL    HW2 7353   1.774   1.256   4.189
 2152SOL     OW 7354   3.833   6.720   1.247
 2152SOL    HW1 7355   3.737   6.719   1.220
 2152SOL    HW2 7356   3.890   6.733   1.166
 2153SOL     OW 7357   3.763   0.185   3.067
 2153SOL    HW1 7358   3.843   0.242   3.047
 2153SOL    HW2 7359   3.773   0.096   3.025
 2154SOL     OW 7360   5.082   0.351   4.907
 2154SOL    HW1 7361   5.168   0.311   4.939
 2154SOL    HW2 7362   5.102   0.424   4.841
 2155SOL     OW 7363   2.033   5.368   0.111
 2155SOL    HW1 7364   2.055   5.274   0.087
 2155SOL    HW2 7365   2.026   5.423   0.028
 2156SOL     OW 7366   2.531   0.601   2.916
 2156SOL    HW1 7367   2.613   0.657   2.903
 2156SOL    HW2 7368   2.552   0.506   2.893
 2157SOL     OW 7369   5.634   0.753   3.300
 2157SOL    HW1 7370   5.658   0.802   3.216
 2157SOL    HW2 7371   5.577   0.811   3.358
 2158SOL     OW 7372   3.861   6.393   1.078
 2158SOL    HW1 7373   3.864   6.377   0.979
 2158SOL    HW2 7374   3.946   6.360   1.120
 2159SOL     OW 7375   2.465   6.270   5.588
 2159SOL    HW1 7376   2.499   6.259   5.682
 2159SOL    HW2 7377   2.515   6.345   5.544
 2160SOL     OW 7378   4.391   3.418   1.182
 2160SOL    HW1 7379   4.377   3.363   1.264
 2160SOL    HW2 7380   4.436   3.363   1.112
 2161SOL     OW 7381   5.275   4.012   3.654
 2161SOL    HW1 7382   5.257   4.060   3.568
 2161SOL    HW2 7383   5.352   4.057   3.701
 2162SOL     OW 7384   2.801   0.847   0.382
 2162SOL    HW1 7385   2.747   0.930   0.366
 2162SOL    HW2 7386   2.741   0.773   0.409
 2163SOL     OW 7387   6.805   4.500   6.533
 2163SOL    HW1 7388   6.884   4.525   6.589
 2163SOL    HW2 7389   6.766   4.582   6.491
 2164SOL     OW 7390   1.773   2.733   0.219
 2164SOL    HW1 7391   1.722   2.752   0.303
 2164SOL    HW2 7392   1.830   2.813   0.196
 2165SOL     OW 7393   1.322   1.787   2.801
 2165SOL    HW1 7394   1.248   1.822   2.858
 2165SOL    HW2 7395   1.298   1.697   2.767
 2166SOL     OW 7396   1.737   2.795   5.377
 2166SOL    HW1 7397   1.730   2.895   5.382
 2166SOL    HW2 7398   1.830   2.770   5.352
 2167SOL     OW 7399   1.564   0.864   3.667
 2167SOL    HW1 7400   1.580   0.963   3.669
 2167SOL    HW2 7401   1.481   0.844   3.615
 2168SOL     OW 7402   0.603   1.655   3.563
 2168SOL    HW1 7403   0.633   1.589   3.494
 2168SOL    HW2 7404   0.573   1.739   3.518
 2169SOL     OW 7405   5.316   2.322   5.699
 2169SOL    HW1 7406   5.332   2.227   5.673
 2169SOL    HW2 7407   5.225   2.350   5.668
 2170SOL     OW 7408   6.063   4.933   5.617
 2170SOL    HW1 7409   6.105   5.014   5.659
 2170SOL    HW2 7410   5.975   4.915   5.661
 2171SOL     OW 7411   6.711   3.334   2.235
 2171SOL    HW1 7412   6.632   3.392   2.214
 2171SOL    HW2 7413   6.692   3.240   2.205
 2172SOL     OW 7414   2.717   1.894   0.206
 2172SOL    HW1 7415   2.768   1.980   0.210
 2172SOL    HW2 7416   2.668   1.888   0.119
 2173SOL     OW 7417   4.210   7.009   5.644
 2173SOL    HW1 7418   4.248   6.928   5.689
 2173SOL    HW2 7419   4.284   0.053   5.627
 2174SOL     OW 7420   5.810   5.343   5.794
 2174SOL    HW1 7421   5.739   5.412   5.785
 2174SOL    HW2 7422   5.858   5.357   5.881
 2175SOL     OW 7423   2.971   2.098   3.894
 2175SOL    HW1 7424   2.903   2.170   3.904
 2175SOL    HW2 7425   2.925   2.012   3.873
 2176SOL     OW 7426   0.562   3.265   0.025
 2176SOL    HW1 7427   0.559   3.178   6.998
 2176SOL    HW2 7428   0.657   3.290   0.042
 2177SOL     OW 7429   6.717   0.977   3.668
 2177SOL    HW1 7430   6.748   0.900   3.613
 2177SOL    HW2 7431   6.794   1.014   3.720
 2178SOL     OW 7432   1.279   4.009   0.043
 2178SOL    HW1 7433   1.308   3.930   0.097
 2178SOL    HW2 7434   1.264   3.980   6.969
 2179SOL     OW 7435   1.433   5.590   4.911
 2179SOL    HW1 7436   1.473   5.552   4.828
 2179SOL    HW2 7437   1.385   5.518   4.961
 2180SOL     OW 7438   2.846   3.454   1.795
 2180SOL    HW1 7439   2.899   3.393   1.737
 2180SOL    HW2 7440   2.760   3.478   1.750
 2181SOL     OW 7441   5.297   4.134   5.664
 2181SOL    HW1 7442   5.208   4.172   5.691
 2181SOL    HW2 7443   5.354   4.119   5.745
 2182SOL     OW 7444   6.576   2.784   4.777
 2182SOL    HW1 7445   6.673   2.802   4.766
 2182SOL    HW2 7446   6.563   2.705   4.838
 2183SOL     OW 7447   3.366   3.292   6.349
 2183SOL    HW1 7448   3.403   3.343   6.427
 2183SOL    HW2 7449   3.325   3.355   6.284
 2184SOL     OW 7450   4.330   1.452   5.716
 2184SOL    HW1 7451   4.285   1.366   5.738
 2184SOL    HW2 7452   4.266   1.528   5.730
 2185SOL     OW 7453   1.483   2.106   0.770
 2185SOL    HW1 7454   1.527   2.120   0.859
 2185SOL    HW2 7455   1.499   2.012   0.739
 2186SOL     OW 7456   6.823   4.563   2.270
 2186SOL    HW1 7457   6.855   4.642   2.217
 2186SOL    HW2 7458   6.832   4.582   2.368
 2187SOL     OW 7459   0.249   1.809   2.099
 2187SOL    HW1 7460   0.257   1.880   2.170
 2187SOL    HW2 7461   0.263   1.719   2.141
 2188SOL     OW 7462   5.243   6.369   4.092
 2188SOL    HW1 7463   5.300   6.292   4.123
 2188SOL    HW2 7464   5.178   6.393   4.163
 2189SOL     OW 7465   1.601   6.676   6.970
 2189SOL    HW1 7466   1.511   6.715   6.949
 2189SOL    HW2 7467   1.589   6.583   7.005
 2190SOL     OW 7468   0.632   2.862   2.206
 2190SOL    HW1 7469   0.642   2.962   2.203
 2190SOL    HW2 7470   0.711   2.820   2.161
 2191SOL     OW 7471   3.007   1.519   6.541
 2191SOL    HW1 7472   2.933   1.463   6.505
 2191SOL    HW2 7473   3.057   1.467   6.611
 2192SOL     OW 7474   3.880   0.038   3.469
 2192SOL    HW1 7475   3.917   0.119   3.423
 2192SOL    HW2 7476   3.783   0.052   3.487
 2193SOL     OW 7477   0.142   6.092   6.366
 2193SOL    HW1 7478   0.133   6.002   6.324
 2193SOL    HW2 7479   0.086   6.159   6.316
 2194SOL     OW 7480   2.321   4.874   6.715
 2194SOL    HW1 7481   2.387   4.949   6.716
 2194SOL    HW2 7482   2.240   4.901   6.768
 2195SOL     OW 7483   6.910   6.867   3.876
 2195SOL    HW1 7484   6.940   6.870   3.971
 2195SOL    HW2 7485   6.811   6.857   3.872
 2196SOL     OW 7486   3.652   0.049   5.222
 2196SOL    HW1 7487   3.692   0.137   5.249
 2196SOL    HW2 7488   3.588   0.064   5.146
 2197SOL     OW 7489   3.689   3.743   1.545
 2197SOL    HW1 7490   3.598   3.728   1.506
 2197SOL    HW2 7491   3.759   3.723   1.476
 2198SOL     OW 7492   6.462   1.442   6.846
 2198SOL    HW1 7493   6.550   1.489   6.857
 2198SOL    HW2 7494   6.478   1.351   6.808
 2199SOL     OW 7495   4.659   0.747   2.631
 2199SOL    HW1 7496   4.659   0.814   2.556
 2199SOL    HW2 7497   4.753   0.733   2.663
 2200SOL     OW 7498   4.062   0.118   4.648
 2200SOL    HW1 7499   4.053   0.034   4.701
 2200SOL    HW2 7500   4.121   0.102   4.569
 2201SOL     OW 7501   6.582   2.749   2.512
 2201SOL    HW1 7502   6.677   2.746   2.543
 2201SOL    HW2 7503   6.521   2.761   2.590
 2202SOL     OW 7504   3.483   4.946   3.252
 2202SOL    HW1 7505   3.565   4.916   3.203
 2202SOL    HW2 7506   3.505   4.960   3.349
 2203SOL     OW 7507   2.089   2.607   1.444
 2203SOL    HW1 7508   2.155   2.673   1.409
 2203SOL    HW2 7509   2.001   2.652   1.462
 2204SOL     OW 7510   3.597   1.479   6.665
 2204SOL    HW1 7511   3.510   1.528   6.660
 2204SOL    HW2 7512   3.673   1.544   6.657
 2205SOL     OW 7513   1.850   0.023   6.057
 2205SOL    HW1 7514   1.855   0.015   5.957
 2205SOL    HW2 7515   1.783   0.092   6.082
 2206SOL     OW 7516   2.567   4.021   5.555
 2206SOL    HW1 7517   2.563   3.991   5.459
 2206SOL    HW2 7518   2.546   4.118   5.560
 2207SOL     OW 7519   2.283   3.956   0.088
 2207SOL    HW1 7520   2.276   3.904   0.003
 2207SOL    HW2 7521   2.352   4.027   0.077
 2208SOL     OW 7522   1.614   5.385   2.362
 2208SOL    HW1 7523   1.595   5.476   2.324
 2208SOL    HW2 7524   1.606   5.316   2.290
 2209SOL     OW 7525   1.392   5.405   5.776
 2209SOL    HW1 7526   1.339   5.390   5.859
 2209SOL    HW2 7527   1.359   5.344   5.704
 2210SOL     OW 7528   6.829   4.428   3.792
 2210SOL    HW1 7529   6.824   4.429   3.692
 2210SOL    HW2 7530   6.769   4.499   3.829
 2211SOL     OW 7531   5.222   0.632   0.012
 2211SOL    HW1 7532   5.167   0.622   0.094
 2211SOL    HW2 7533   5.317   0.650   0.037
 2212SOL     OW 7534   1.773   6.417   0.042
 2212SOL    HW1 7535   1.795   6.456   0.131
 2212SOL    HW2 7536   1.808   6.323   0.037
 2213SOL     OW 7537   4.050   2.729   5.336
 2213SOL    HW1 7538   4.081   2.660   5.271
 2213SOL    HW2 7539   3.954   2.751   5.317
 2214SOL     OW 7540   4.589   2.398   5.691
 2214SOL    HW1 7541   4.656   2.381   5.763
 2214SOL    HW2 7542   4.560   2.494   5.694
 2215SOL     OW 7543   6.509   1.742   0.181
 2215SOL    HW1 7544   6.481   1.646   0.190
 2215SOL    HW2 7545   6.466   1.796   0.253
 2216SOL     OW 7546   1.723   0.741   6.214
 2216SOL    HW1 7547   1.726   0.814   6.146
 2216SOL    HW2 7548   1.630   0.705   6.222
 2217SOL     OW 7549   3.589   0.278   1.320
 2217SOL    HW1 7550   3.540   0.206   1.370
 2217SOL    HW2 7551   3.673   0.302   1.370
 2218SOL     OW 7552   0.878   6.485   0.825
 2218SOL    HW1 7553   0.907   6.554   0.759
 2218SOL    HW2 7554   0.955   6.426   0.849
 2219SOL     OW 7555   0.532   3.320   2.468
 2219SOL    HW1 7556   0.597   3.384   2.425
 2219SOL    HW2 7557   0.551   3.314   2.566
 2220SOL     OW 7558   0.485   1.053   4.792
 2220SOL    HW1 7559   0.511   1.075   4.886
 2220SOL    HW2 7560   0.557   0.998   4.750
 2221SOL     OW 7561   6.460   0.753   6.100
 2221SOL    HW1 7562   6.399   0.689   6.053
 2221SOL    HW2 7563   6.436   0.847   6.076
 2222SOL     OW 7564   3.617   0.657   0.997
 2222SOL    HW1 7565   3.698   0.663   0.938
 2222SOL    HW2 7566   3.610   0.564   1.033
 2223SOL     OW 7567   6.196   6.924   3.955
 2223SOL    HW1 7568   6.282   6.911   4.005
 2223SOL    HW2 7569   6.215   6.927   3.857
 2224SOL     OW 7570   2.127   4.604   2.041
 2224SOL    HW1 7571   2.100   4.698   2.061
 2224SOL    HW2 7572   2.224   4.602   2.019
 2225SOL     OW 7573   6.272   5.642   3.260
 2225SOL    HW1 7574   6.243   5.553   3.225
 2225SOL    HW2 7575   6.259   5.644   3.360
 2226SOL     OW 7576   4.226   4.159   0.609
 2226SOL    HW1 7577   4.235   4.230   0.539
 2226SOL    HW2 7578   4.317   4.125   0.634
 2227SOL     OW 7579   5.165   3.383   0.065
 2227SOL    HW1 7580   5.233   3.455   0.076
 2227SOL    HW2 7581   5.204   3.296   0.096
 2228SOL     OW 7582   2.735   5.530   1.178
 2228SOL    HW1 7583   2.813   5.580   1.217
 2228SOL    HW2 7584   2.698   5.467   1.247
 2229SOL     OW 7585   4.060   1.570   4.892
 2229SOL    HW1 7586   4.083   1.499   4.825
 2229SOL    HW2 7587   4.069   1.660   4.850
 2230SOL     OW 7588   6.994   5.544   5.839
 2230SOL    HW1 7589   6.905   5.555   5.884
 2230SOL    HW2 7590   0.002   5.449   5.848
 2231SOL     OW 7591   1.566   0.851   1.405
 2231SOL    HW1 7592   1.500   0.920   1.376
 2231SOL    HW2 7593   1.536   0.761   1.371
 2232SOL     OW 7594   1.467   2.154   3.991
 2232SOL    HW1 7595   1.464   2.100   4.075
 2232SOL    HW2 7596   1.486   2.095   3.913
 2233SOL     OW 7597   2.290   4.583   1.489
 2233SOL    HW1 7598   2.239   4.641   1.425
 2233SOL    HW2 7599   2.254   4.490   1.486
 2234SOL     OW 7600   4.901   2.199   2.056
 2234SOL    HW1 7601   4.832   2.129   2.038
 2234SOL    HW2 7602   4.856   2.287   2.069
 2235SOL     OW 7603   1.825   0.366   1.049
 2235SOL    HW1 7604   1.805   0.285   1.105
 2235SOL    HW2 7605   1.861   0.337   0.961
 2236SOL     OW 7606   0.704   4.139   6.711
 2236SOL    HW1 7607   0.701   4.180   6.802
 2236SOL    HW2 7608   0.683   4.209   6.642
 2237SOL     OW 7609   5.407   4.280   4.572
 2237SOL    HW1 7610   5.380   4.309   4.480
 2237SOL    HW2 7611   5.481   4.214   4.565
 2238SOL     OW 7612   5.622   5.383   1.741
 2238SOL    HW1 7613   5.719   5.363   1.749
 2238SOL    HW2 7614   5.594   5.441   1.818
 2239SOL     OW 7615   3.629   5.267   3.698
 2239SOL    HW1 7616   3.564   5.269   3.622
 2239SOL    HW2 7617   3.588   5.311   3.778
 2240SOL     OW 7618   5.466   5.821   3.904
 2240SOL    HW1 7619   5.545   5.862   3.858
 2240SOL    HW2 7620   5.449   5.730   3.865
 2241SOL     OW 7621   0.522   6.725   2.309
 2241SOL    HW1 7622   0.579   6.728   2.227
 2241SOL    HW2 7623   0.457   6.650   2.303
 2242SOL     OW 7624   4.834   2.483   2.737
 2242SOL    HW1 7625   4.753   2.504   2.682
 2242SOL    HW2 7626   4.915   2.490   2.679
 2243SOL     OW 7627   2.687   6.294   5.175
 2243SOL    HW1 7628   2.780   6.269   5.147
 2243SOL    HW2 7629   2.691   6.351   5.258
 2244SOL     OW 7630   3.222   0.413   2.903
 2244SOL    HW1 7631   3.135   0.364   2.905
 2244SOL    HW2 7632   3.289   0.360   2.851
 2245SOL     OW 7633   0.527   2.114   2.179
 2245SOL    HW1 7634   0.473   2.115   2.094
 2245SOL    HW2 7635   0.494   2.042   2.239
 2246SOL     OW 7636   1.149   1.357   4.964
 2246SOL    HW1 7637   1.051   1.348   4.983
 2246SOL    HW2 7638   1.162   1.409   4.880
 2247SOL     OW 7639   2.840   2.951   5.636
 2247SOL    HW1 7640   2.783   3.032   5.622
 2247SOL    HW2 7641   2.832   2.891   5.557
 2248SOL     OW 7642   3.935   4.043   6.463
 2248SOL    HW1 7643   3.966   4.055   6.557
 2248SOL    HW2 7644   4.013   4.024   6.404
 2249SOL     OW 7645   6.634   5.914   2.550
 2249SOL    HW1 7646   6.604   5.986   2.613
 2249SOL    HW2 7647   6.558   5.889   2.490
 2250SOL     OW 7648   5.146   3.605   0.783
 2250SOL    HW1 7649   5.147   3.528   0.719
 2250SOL    HW2 7650   5.059   3.608   0.832
 2251SOL     OW 7651   5.294   1.576   0.173
 2251SOL    HW1 7652   5.310   1.536   0.083
 2251SOL    HW2 7653   5.328   1.514   0.243
 2252SOL     OW 7654   6.474   2.165   3.427
 2252SOL    HW1 7655   6.564   2.186   3.465
 2252SOL    HW2 7656   6.431   2.250   3.397
 2253SOL     OW 7657   0.760   3.496   0.241
 2253SOL    HW1 7658   0.828   3.567   0.225
 2253SOL    HW2 7659   0.781   3.416   0.185
 2254SOL     OW 7660   2.309   3.260   5.795
 2254SOL    HW1 7661   2.229   3.303   5.836
 2254SOL    HW2 7662   2.281   3.211   5.712
 2255SOL     OW 7663   4.888   2.432   0.367
 2255SOL    HW1 7664   4.925   2.433   0.460
 2255SOL    HW2 7665   4.963   2.442   0.301
 2256SOL     OW 7666   4.041   6.430   1.766
 2256SOL    HW1 7667   4.014   6.398   1.856
 2256SOL    HW2 7668   4.003   6.521   1.750
 2257SOL     OW 7669   0.243   2.516   3.985
 2257SOL    HW1 7670   0.325   2.547   4.033
 2257SOL    HW2 7671   0.226   2.420   4.007
 2258SOL     OW 7672   0.996   5.379   5.370
 2258SOL    HW1 7673   0.918   5.327   5.335
 2258SOL    HW2 7674   1.033   5.334   5.451
 2259SOL     OW 7675   4.589   3.947   6.789
 2259SOL    HW1 7676   4.568   4.038   6.825
 2259SOL    HW2 7677   4.593   3.882   6.865
 2260SOL     OW 7678   5.567   4.586   2.821
 2260SOL    HW1 7679   5.510   4.596   2.902
 2260SOL    HW2 7680   5.656   4.547   2.847
 2261SOL     OW 7681   6.360   6.653   1.227
 2261SOL    HW1 7682   6.373   6.702   1.142
 2261SOL    HW2 7683   6.430   6.681   1.293
 2262SOL     OW 7684   5.603   2.377   2.450
 2262SOL    HW1 7685   5.610   2.286   2.409
 2262SOL    HW2 7686   5.509   2.410   2.441
 2263SOL     OW 7687   2.865   5.939   6.124
 2263SOL    HW1 7688   2.940   5.986   6.078
 2263SOL    HW2 7689   2.834   5.994   6.202
 2264SOL     OW 7690   3.326   3.330   1.448
 2264SOL    HW1 7691   3.422   3.312   1.472
 2264SOL    HW2 7692   3.272   3.248   1.464
 2265SOL     OW 7693   0.431   0.421   4.020
 2265SOL    HW1 7694   0.387   0.511   4.022
 2265SOL    HW2 7695   0.394   0.367   3.945
 2266SOL     OW 7696   5.870   1.697   1.189
 2266SOL    HW1 7697   5.847   1.612   1.236
 2266SOL    HW2 7698   5.795   1.721   1.127
 2267SOL     OW 7699   5.115   2.340   5.076
 2267SOL    HW1 7700   5.190   2.398   5.042
 2267SOL    HW2 7701   5.027   2.379   5.046
 2268SOL     OW 7702   6.193   3.781   6.302
 2268SOL    HW1 7703   6.211   3.865   6.249
 2268SOL    HW2 7704   6.174   3.806   6.397
 2269SOL     OW 7705   5.841   5.881   4.671
 2269SOL    HW1 7706   5.831   5.906   4.575
 2269SOL    HW2 7707   5.779   5.805   4.692
 2270SOL     OW 7708   3.397   2.932   6.834
 2270SOL    HW1 7709   3.360   2.926   6.926
 2270SOL    HW2 7710   3.328   2.972   6.773
 2271SOL     OW 7711   6.030   3.871   0.369
 2271SOL    HW1 7712   6.105   3.838   0.426
 2271SOL    HW2 7713   5.948   3.818   0.387
 2272SOL     OW 7714   5.811   2.071   5.478
 2272SOL    HW1 7715   5.734   2.009   5.463
 2272SOL    HW2 7716   5.878   2.059   5.405
 2273SOL     OW 7717   1.257   0.904   1.952
 2273SOL    HW1 7718   1.314   0.822   1.944
 2273SOL    HW2 7719   1.235   0.939   1.861
 2274SOL     OW 7720   1.491   2.459   5.932
 2274SOL    HW1 7721   1.533   2.478   6.021
 2274SOL    HW2 7722   1.418   2.392   5.943
 2275SOL     OW 7723   5.589   0.489   4.603
 2275SOL    HW1 7724   5.678   0.525   4.577
 2275SOL    HW2 7725   5.595   0.389   4.613
 2276SOL     OW 7726   3.147   4.879   1.150
 2276SOL    HW1 7727   3.208   4.942   1.102
 2276SOL    HW2 7728   3.077   4.845   1.087
 2277SOL     OW 7729   3.430   4.117   4.476
 2277SOL    HW1 7730   3.501   4.047   4.477
 2277SOL    HW2 7731   3.443   4.180   4.553
 2278SOL     OW 7732   5.749   6.224   4.509
 2278SOL    HW1 7733   5.726   6.128   4.494
 2278SOL    HW2 7734   5.684   6.282   4.460
 2279SOL     OW 7735   5.132   5.740   4.504
 2279SOL    HW1 7736   5.121   5.828   4.550
 2279SOL    HW2 7737   5.116   5.666   4.569
 2280SOL     OW 7738   6.852   6.330   4.983
 2280SOL    HW1 7739   6.757   6.340   5.013
 2280SOL    HW2 7740   6.853   6.283   4.895
 2281SOL     OW 7741   3.305   1.001   1.744
 2281SOL    HW1 7742   3.271   0.965   1.658
 2281SOL    HW2 7743   3.275   0.942   1.819
 2282SOL     OW 7744   5.357   0.303   4.820
 2282SOL    HW1 7745   5.382   0.218   4.867
 2282SOL    HW2 7746   5.417   0.377   4.850
 2283SOL     OW 7747   6.732   4.300   1.170
 2283SOL    HW1 7748   6.723   4.253   1.082
 2283SOL    HW2 7749   6.776   4.388   1.156
 2284SOL     OW 7750   2.097   2.013   0.269
 2284SOL    HW1 7751   2.031   1.954   0.222
 2284SOL    HW2 7752   2.143   1.961   0.341
 2285SOL     OW 7753   1.434   3.023   0.079
 2285SOL    HW1 7754   1.364   3.057   0.016
 2285SOL    HW2 7755   1.416   2.928   0.101
 2286SOL     OW 7756   0.058   0.027   4.238
 2286SOL    HW1 7757   0.091   0.090   4.168
 2286SOL    HW2 7758   7.000   0.066   4.284
 2287SOL     OW 7759   2.229   2.836   1.920
 2287SOL    HW1 7760   2.313   2.799   1.958
 2287SOL    HW2 7761   2.238   2.843   1.820
 2288SOL     OW 7762   6.828   4.561   4.661
 2288SOL    HW1 7763   6.735   4.586   4.634
 2288SOL    HW2 7764   6.849   4.600   4.751
 2289SOL     OW 7765   6.233   4.285   2.693
 2289SOL    HW1 7766   6.277   4.214   2.748
 2289SOL    HW2 7767   6.183   4.243   2.617
 2290SOL     OW 7768   2.043   3.797   1.942
 2290SOL    HW1 7769   2.090   3.754   2.019
 2290SOL    HW2 7770   2.108   3.814   1.868
 2291SOL     OW 7771   2.222   2.290   0.268
 2291SOL    HW1 7772   2.182   2.327   0.184
 2291SOL    HW2 7773   2.186   2.198   0.284
 2292SOL     OW 7774   5.255   2.261   2.955
 2292SOL    HW1 7775   5.283   2.192   3.022
 2292SOL    HW2 7776   5.233   2.346   3.001
 2293SOL     OW 7777   6.815   0.168   1.030
 2293SOL    HW1 7778   6.865   0.244   0.988
 2293SOL    HW2 7779   6.817   0.089   0.969
 2294SOL     OW 7780   3.036   1.285   5.858
 2294SOL    HW1 7781   2.996   1.336   5.782
 2294SOL    HW2 7782   2.963   1.248   5.915
 2295SOL     OW 7783   0.534   1.283   2.894
 2295SOL    HW1 7784   0.530   1.333   2.981
 2295SOL    HW2 7785   0.558   1.188   2.912
 2296SOL     OW 7786   3.555   5.654   2.466
 2296SOL    HW1 7787   3.635   5.599   2.490
 2296SOL    HW2 7788   3.534   5.642   2.369
 2297SOL     OW 7789   4.875   4.583   5.972
 2297SOL    HW1 7790   4.892   4.532   5.887
 2297SOL    HW2 7791   4.799   4.541   6.021
 2298SOL     OW 7792   3.906   3.511   2.885
 2298SOL    HW1 7793   3.942   3.508   2.979
 2298SOL    HW2 7794   3.817   3.556   2.886
 2299SOL     OW 7795   4.803   4.373   5.377
 2299SOL    HW1 7796   4.790   4.321   5.292
 2299SOL    HW2 7797   4.881   4.335   5.427
 2300SOL     OW 7798   2.958   6.500   3.332
 2300SOL    HW1 7799   2.925   6.542   3.247
 2300SOL    HW2 7800   2.904   6.534   3.409
 2301SOL     OW 7801   3.896   3.019   3.475
 2301SOL    HW1 7802   3.942   3.108   3.466
 2301SOL    HW2 7803   3.903   2.988   3.569
 2302SOL     OW 7804   3.635   0.399   1.087
 2302SOL    HW1 7805   3.730   0.424   1.106
 2302SOL    HW2 7806   3.599   0.346   1.164
 2303SOL     OW 7807   2.638   3.240   0.967
 2303SOL    HW1 7808   2.655   3.288   1.053
 2303SOL    HW2 7809   2.716   3.254   0.906
 2304SOL     OW 7810   5.672   5.978   4.455
 2304SOL    HW1 7811   5.579   5.952   4.481
 2304SOL    HW2 7812   5.709   5.912   4.390
 2305SOL     OW 7813   2.328   0.340   2.873
 2305SOL    HW1 7814   2.369   0.384   2.953
 2305SOL    HW2 7815   2.391   0.272   2.836
 2306SOL     OW 7816   2.326   5.194   1.695
 2306SOL    HW1 7817   2.294   5.251   1.770
 2306SOL    HW2 7818   2.250   5.142   1.658
 2307SOL     OW 7819   0.419   3.204   5.434
 2307SOL    HW1 7820   0.388   3.115   5.402
 2307SOL    HW2 7821   0.383   3.276   5.373
 2308SOL     OW 7822   2.978   4.677   1.029
 2308SOL    HW1 7823   2.946   4.623   0.951
 2308SOL    HW2 7824   2.909   4.674   1.101
 2309SOL     OW 7825   2.157   0.852   5.234
 2309SOL    HW1 7826   2.148   0.891   5.142
 2309SOL    HW2 7827   2.079   0.878   5.290
 2310SOL     OW 7828   6.143   5.684   1.821
 2310SOL    HW1 7829   6.143   5.585   1.809
 2310SOL    HW2 7830   6.083   5.726   1.753
 2311SOL     OW 7831   2.314   6.603   0.892
 2311SOL    HW1 7832   2.291   6.565   0.981
 2311SOL    HW2 7833   2.266   6.552   0.821
 2312SOL     OW 7834   4.576   5.425   3.355
 2312SOL    HW1 7835   4.663   5.468   3.381
 2312SOL    HW2 7836   4.560   5.344   3.411
 2313SOL     OW 7837   4.754   5.844   2.838
 2313SOL    HW1 7838   4.839   5.841   2.785
 2313SOL    HW2 7839   4.676   5.837   2.776
 2314SOL     OW 7840   5.034   6.105   3.005
 2314SOL    HW1 7841   5.003   6.154   3.087
 2314SOL    HW2 7842   5.046   6.170   2.930
 2315SOL     OW 7843   5.024   3.028   6.278
 2315SOL    HW1 7844   4.939   2.982   6.302
 2315SOL    HW2 7845   5.088   3.021   6.355
 2316SOL     OW 7846   4.534   1.900   3.831
 2316SOL    HW1 7847   4.515   1.844   3.911
 2316SOL    HW2 7848   4.606   1.857   3.776
 2317SOL     OW 7849   0.181   5.977   3.078
 2317SOL    HW1 7850   0.122   6.051   3.045
 2317SOL    HW2 7851   0.201   5.914   3.002
 2318SOL     OW 7852   0.745   2.618   3.323
 2318SOL    HW1 7853   0.645   2.612   3.327
 2318SOL    HW2 7854   0.774   2.701   3.370
 2319SOL     OW 7855   1.467   5.285   3.889
 2319SOL    HW1 7856   1.371   5.267   3.908
 2319SOL    HW2 7857   1.486   5.265   3.793
 2320SOL     OW 7858   0.879   2.510   3.604
 2320SOL    HW1 7859   0.803   2.534   3.664
 2320SOL    HW2 7860   0.849   2.513   3.509
 2321SOL     OW 7861   3.429   0.742   5.641
 2321SOL    HW1 7862   3.444   0.791   5.555
 2321SOL    HW2 7863   3.516   0.710   5.678
 2322SOL     OW 7864   2.347   1.959   5.092
 2322SOL    HW1 7865   2.443   1.929   5.092
 2322SOL    HW2 7866   2.324   1.994   5.183
 2323SOL     OW 7867   3.139   4.825   2.117
 2323SOL    HW1 7868   3.213   4.833   2.050
 2323SOL    HW2 7869   3.053   4.805   2.070
 2324SOL     OW 7870   0.441   6.347   2.759
 2324SOL    HW1 7871   0.365   6.363   2.823
 2324SOL    HW2 7872   0.440   6.252   2.730
 2325SOL     OW 7873   0.342   4.542   1.195
 2325SOL    HW1 7874   0.424   4.505   1.238
 2325SOL    HW2 7875   0.329   4.637   1.224
 2326SOL     OW 7876   3.623   4.274   5.903
 2326SOL    HW1 7877   3.533   4.319   5.901
 2326SOL    HW2 7878   3.687   4.329   5.956
 2327SOL     OW 7879   5.924   2.730   4.701
 2327SOL    HW1 7880   5.895   2.640   4.735
 2327SOL    HW2 7881   5.865   2.801   4.740
 2328SOL     OW 7882   4.350   1.959   3.366
 2328SOL    HW1 7883   4.331   1.900   3.444
 2328SOL    HW2 7884   4.447   1.951   3.340
 2329SOL     OW 7885   1.730   5.129   4.894
 2329SOL    HW1 7886   1.690   5.148   4.804
 2329SOL    HW2 7887   1.708   5.203   4.957
 2330SOL     OW 7888   6.870   4.103   2.345
 2330SOL    HW1 7889   6.900   4.013   2.376
 2330SOL    HW2 7890   6.945   4.169   2.358
 2331SOL     OW 7891   6.485   4.691   6.665
 2331SOL    HW1 7892   6.446   4.697   6.573
 2331SOL    HW2 7893   6.483   4.596   6.696
 2332SOL     OW 7894   3.989   1.912   5.126
 2332SOL    HW1 7895   4.025   1.928   5.218
 2332SOL    HW2 7896   4.062   1.927   5.059
 2333SOL     OW 7897   6.455   4.836   2.983
 2333SOL    HW1 7898   6.426   4.743   3.001
 2333SOL    HW2 7899   6.494   4.876   3.066
 2334SOL     OW 7900   2.695   0.517   0.163
 2334SOL    HW1 7901   2.766   0.554   0.104
 2334SOL    HW2 7902   2.694   0.569   0.249
 2335SOL     OW 7903   5.694   0.947   3.119
 2335SOL    HW1 7904   5.681   0.953   3.020
 2335SOL    HW2 7905   5.788   0.973   3.142
 2336SOL     OW 7906   4.364   2.025   5.498
 2336SOL    HW1 7907   4.397   1.947   5.551
 2336SOL    HW2 7908   4.302   2.080   5.553
 2337SOL     OW 7909   4.626   1.224   3.609
 2337SOL    HW1 7910   4.539   1.176   3.617
 2337SOL    HW2 7911   4.698   1.160   3.583
 2338SOL     OW 7912   1.005   0.312   0.323
 2338SOL    HW1 7913   0.924   0.288   0.271
 2338SOL    HW2 7914   1.032   0.406   0.302
 2339SOL     OW 7915   3.666   3.865   4.998
 2339SOL    HW1 7916   3.690   3.920   4.918
 2339SOL    HW2 7917   3.566   3.857   5.004
 2340SOL     OW 7918   4.992   6.476   5.993
 2340SOL    HW1 7919   5.022   6.472   5.898
 2340SOL    HW2 7920   4.908   6.531   5.999
 2341SOL     OW 7921   4.832   3.342   0.789
 2341SOL    HW1 7922   4.808   3.309   0.880
 2341SOL    HW2 7923   4.826   3.267   0.723
 2342SOL     OW 7924   1.016   6.218   5.808
 2342SOL    HW1 7925   0.979   6.311   5.802
 2342SOL    HW2 7926   0.941   6.152   5.811
 2343SOL     OW 7927   1.796   6.632   1.388
 2343SOL    HW1 7928   1.810   6.593   1.296
 2343SOL    HW2 7929   1.884   6.665   1.423
 2344SOL     OW 7930   1.422   1.082   1.353
 2344SOL    HW1 7931   1.341   1.095   1.411
 2344SOL    HW2 7932   1.393   1.065   1.259
 2345SOL     OW 7933   2.084   6.195   5.339
 2345SOL    HW1 7934   2.115   6.157   5.426
 2345SOL    HW2 7935   2.163   6.228   5.287
 2346SOL     OW 7936   4.876   3.151   4.748
 2346SOL    HW1 7937   4.849   3.207   4.826
 2346SOL    HW2 7938   4.845   3.057   4.762
 2347SOL     OW 7939   2.228   4.170   1.667
 2347SOL    HW1 7940   2.136   4.166   1.705
 2347SOL    HW2 7941   2.295   4.179   1.740
 2348SOL     OW 7942   3.161   5.846   3.428
 2348SOL    HW1 7943   3.105   5.924   3.453
 2348SOL    HW2 7944   3.185   5.851   3.331
 2349SOL     OW 7945   0.660   6.179   6.903
 2349SOL    HW1 7946   0.606   6.209   6.825
 2349SOL    HW2 7947   0.602   6.174   6.984
 2350SOL     OW 7948   4.388   6.783   6.083
 2350SOL    HW1 7949   4.398   6.882   6.069
 2350SOL    HW2 7950   4.299   6.764   6.124
 2351SOL     OW 7951   3.045   5.326   3.294
 2351SOL    HW1 7952   3.138   5.363   3.291
 2351SOL    HW2 7953   3.041   5.249   3.357
 2352SOL     OW 7954   0.605   4.743   2.538
 2352SOL    HW1 7955   0.704   4.748   2.550
 2352SOL    HW2 7956   0.568   4.667   2.593
 2353SOL     OW 7957   2.566   4.646   4.331
 2353SOL    HW1 7958   2.551   4.733   4.376
 2353SOL    HW2 7959   2.522   4.573   4.383
 2354SOL     OW 7960   3.892   2.363   6.256
 2354SOL    HW1 7961   3.872   2.289   6.192
 2354SOL    HW2 7962   3.817   2.429   6.255
 2355SOL     OW 7963   0.467   5.534   0.283
 2355SOL    HW1 7964   0.478   5.627   0.249
 2355SOL    HW2 7965   0.373   5.520   0.314
 2356SOL     OW 7966   2.317   4.182   1.164
 2356SOL    HW1 7967   2.322   4.159   1.261
 2356SOL    HW2 7968   2.318   4.281   1.153
 2357SOL     OW 7969   3.665   5.102   4.142
 2357SOL    HW1 7970   3.729   5.167   4.183
 2357SOL    HW2 7971   3.715   5.040   4.082
 2358SOL     OW 7972   2.793   5.813   4.650
 2358SOL    HW1 7973   2.696   5.816   4.675
 2358SOL    HW2 7974   2.813   5.725   4.607
 2359SOL     OW 7975   1.908   1.026   5.929
 2359SOL    HW1 7976   1.918   1.093   5.855
 2359SOL    HW2 7977   1.983   1.037   5.995
 2360SOL     OW 7978   4.806   5.772   5.364
 2360SOL    HW1 7979   4.792   5.810   5.456
 2360SOL    HW2 7980   4.894   5.803   5.329
 2361SOL     OW 7981   2.662   0.270   4.105
 2361SOL    HW1 7982   2.639   0.229   4.193
 2361SOL    HW2 7983   2.580   0.279   4.049
 2362SOL     OW 7984   4.763   6.614   4.891
 2362SOL    HW1 7985   4.708   6.693   4.865
 2362SOL    HW2 7986   4.805   6.631   4.980
 2363SOL     OW 7987   4.865   2.355   5.424
 2363SOL    HW1 7988   4.800   2.388   5.355
 2363SOL    HW2 7989   4.877   2.256   5.414
 2364SOL     OW 7990   5.992   1.733   2.184
 2364SOL    HW1 7991   6.055   1.778   2.121
 2364SOL    HW2 7992   6.042   1.702   2.265
 2365SOL     OW 7993   5.536   3.672   5.614
 2365SOL    HW1 7994   5.560   3.749   5.555
 2365SOL    HW2 7995   5.547   3.587   5.562
 2366SOL     OW 7996   1.203   3.995   5.565
 2366SOL    HW1 7997   1.296   4.018   5.594
 2366SOL    HW2 7998   1.183   3.901   5.592
 2367SOL     OW 7999   1.837   3.813   6.601
 2367SOL    HW1 8000   1.808   3.854   6.515
 2367SOL    HW2 8001   1.910   3.869   6.641
 2368SOL     OW 8002   5.030   1.012   4.880
 2368SOL    HW1 8003   4.985   1.101   4.866
 2368SOL    HW2 8004   5.020   0.956   4.799
 2369SOL     OW 8005   2.243   2.456   4.022
 2369SOL    HW1 8006   2.269   2.484   4.115
 2369SOL    HW2 8007   2.315   2.483   3.958
 2370SOL     OW 8008   4.242   3.840   6.781
 2370SOL    HW1 8009   4.201   3.824   6.870
 2370SOL    HW2 8010   4.341   3.849   6.790
 2371SOL     OW 8011   1.734   5.443   2.038
 2371SOL    HW1 8012   1.693   5.373   2.096
 2371SOL    HW2 8013   1.722   5.533   2.082
 2372SOL     OW 8014   0.651   1.867   0.137
 2372SOL    HW1 8015   0.742   1.907   0.124
 2372SOL    HW2 8016   0.613   1.839   0.049
 2373SOL     OW 8017   6.168   1.262   6.742
 2373SOL    HW1 8018   6.217   1.186   6.785
 2373SOL    HW2 8019   6.164   1.340   6.805
 2374SOL     OW 8020   6.025   5.381   3.596
 2374SOL    HW1 8021   6.124   5.373   3.585
 2374SOL    HW2 8022   6.001   5.384   3.693
 2375SOL     OW 8023   0.738   6.759   4.550
 2375SOL    HW1 8024   0.781   6.702   4.620
 2375SOL    HW2 8025   0.670   6.705   4.500
 2376SOL     OW 8026   5.647   2.933   3.397
 2376SOL    HW1 8027   5.628   2.854   3.455
 2376SOL    HW2 8028   5.744   2.931   3.370
 2377SOL     OW 8029   3.349   3.542   4.442
 2377SOL    HW1 8030   3.354   3.586   4.532
 2377SOL    HW2 8031   3.383   3.448   4.450
 2378SOL     OW 8032   5.355   2.035   0.235
 2378SOL    HW1 8033   5.412   1.968   0.186
 2378SOL    HW2 8034   5.275   2.058   0.179
 2379SOL     OW 8035   6.884   2.555   0.260
 2379SOL    HW1 8036   6.893   2.651   0.236
 2379SOL    HW2 8037   6.824   2.546   0.339
 2380SOL     OW 8038   6.954   0.768   5.565
 2380SOL    HW1 8039   7.003   0.738   5.647
 2380SOL    HW2 8040   6.979   0.709   5.489
 2381SOL     OW 8041   1.621   4.432   4.416
 2381SOL    HW1 8042   1.526   4.456   4.395
 2381SOL    HW2 8043   1.658   4.498   4.481
 2382SOL     OW 8044   2.058   5.431   2.645
 2382SOL    HW1 8045   2.065   5.507   2.581
 2382SOL    HW2 8046   1.970   5.434   2.691
 2383SOL     OW 8047   5.630   6.356   6.646
 2383SOL    HW1 8048   5.658   6.416   6.720
 2383SOL    HW2 8049   5.562   6.291   6.679
 2384SOL     OW 8050   1.131   1.637   1.644
 2384SOL    HW1 8051   1.098   1.544   1.628
 2384SOL    HW2 8052   1.224   1.646   1.609
 2385SOL     OW 8053   0.110   0.374   1.221
 2385SOL    HW1 8054   0.137   0.293   1.169
 2385SOL    HW2 8055   0.191   0.416   1.261
 2386SOL     OW 8056   3.093   5.132   4.572
 2386SOL    HW1 8057   3.048   5.136   4.661
 2386SOL    HW2 8058   3.132   5.222   4.551
 2387SOL     OW 8059   6.611   2.837   4.354
 2387SOL    HW1 8060   6.546   2.835   4.430
 2387SOL    HW2 8061   6.692   2.889   4.380
 2388SOL     OW 8062   1.486   1.724   5.653
 2388SOL    HW1 8063   1.461   1.820   5.667
 2388SOL    HW2 8064   1.577   1.708   5.691
 2389SOL     OW 8065   4.398   4.661   4.091
 2389SOL    HW1 8066   4.447   4.574   4.100
 2389SOL    HW2 8067   4.363   4.688   4.181
 2390SOL     OW 8068   3.742   4.005   4.746
 2390SOL    HW1 8069   3.840   4.024   4.753
 2390SOL    HW2 8070   3.725   3.944   4.669
 2391SOL     OW 8071   3.419   4.481   6.132
 2391SOL    HW1 8072   3.368   4.499   6.216
 2391SOL    HW2 8073   3.516   4.468   6.154
 2392SOL     OW 8074   2.911   4.881   6.274
 2392SOL    HW1 8075   2.930   4.961   6.331
 2392SOL    HW2 8076   2.868   4.911   6.189
 2393SOL     OW 8077   4.022   5.260   1.394
 2393SOL    HW1 8078   3.971   5.313   1.326
 2393SOL    HW2 8079   3.984   5.168   1.400
 2394SOL     OW 8080   1.246   3.972   4.282
 2394SOL    HW1 8081   1.213   4.003   4.193
 2394SOL    HW2 8082   1.313   3.899   4.268
 2395SOL     OW 8083   0.136   2.475   6.838
 2395SOL    HW1 8084   0.116   2.543   6.907
 2395SOL    HW2 8085   0.126   2.515   6.747
 2396SOL     OW 8086   6.066   6.365   0.653
 2396SOL    HW1 8087   6.008   6.364   0.572
 2396SOL    HW2 8088   6.012   6.393   0.733
 2397SOL     OW 8089   6.479   4.778   0.126
 2397SOL    HW1 8090   6.460   4.779   0.224
 2397SOL    HW2 8091   6.557   4.719   0.107
 2398SOL     OW 8092   2.395   4.945   4.709
 2398SOL    HW1 8093   2.350   4.860   4.681
 2398SOL    HW2 8094   2.453   4.927   4.788
 2399SOL     OW 8095   4.258   1.465   2.817
 2399SOL    HW1 8096   4.170   1.419   2.813
 2399SOL    HW2 8097   4.244   1.564   2.820
 2400SOL     OW 8098   2.994   3.645   0.688
 2400SOL    HW1 8099   2.901   3.680   0.679
 2400SOL    HW2 8100   3.019   3.642   0.785
 2401SOL     OW 8101   3.089   0.212   4.907
 2401SOL    HW1 8102   3.153   0.177   4.975
 2401SOL    HW2 8103   3.084   0.312   4.914
 2402SOL     OW 8104   0.079   1.992   4.009
 2402SOL    HW1 8105   0.023   2.071   3.984
 2402SOL    HW2 8106   0.102   1.940   3.927
 2403SOL     OW 8107   3.225   3.215   0.591
 2403SOL    HW1 8108   3.305   3.156   0.598
 2403SOL    HW2 8109   3.219   3.272   0.672
 2404SOL     OW 8110   5.401   1.593   1.979
 2404SOL    HW1 8111   5.335   1.665   1.959
 2404SOL    HW2 8112   5.475   1.631   2.035
 2405SOL     OW 8113   3.606   4.043   5.248
 2405SOL    HW1 8114   3.506   4.043   5.247
 2405SOL    HW2 8115   3.640   3.997   5.167
 2406SOL     OW 8116   2.280   0.756   2.985
 2406SOL    HW1 8117   2.358   0.693   2.987
 2406SOL    HW2 8118   2.312   0.848   3.008
 2407SOL     OW 8119   4.529   2.154   2.985
 2407SOL    HW1 8120   4.584   2.196   3.056
 2407SOL    HW2 8121   4.577   2.074   2.948
 2408SOL     OW 8122   3.258   5.145   3.157
 2408SOL    HW1 8123   3.281   5.131   3.253
 2408SOL    HW2 8124   3.277   5.061   3.106
 2409SOL     OW 8125   1.806   2.411   1.612
 2409SOL    HW1 8126   1.898   2.427   1.649
 2409SOL    HW2 8127   1.765   2.499   1.587
 2410SOL     OW 8128   6.537   3.525   5.511
 2410SOL    HW1 8129   6.540   3.505   5.609
 2410SOL    HW2 8130   6.445   3.505   5.476
 2411SOL     OW 8131   3.432   4.237   5.504
 2411SOL    HW1 8132   3.386   4.169   5.447
 2411SOL    HW2 8133   3.463   4.194   5.589
 2412SOL     OW 8134   2.732   3.445   0.402
 2412SOL    HW1 8135   2.687   3.411   0.320
 2412SOL    HW2 8136   2.816   3.493   0.376
 2413SOL     OW 8137   6.390   3.338   6.571
 2413SOL    HW1 8138   6.448   3.283   6.631
 2413SOL    HW2 8139   6.446   3.379   6.499
 2414SOL     OW 8140   5.667   3.465   2.804
 2414SOL    HW1 8141   5.732   3.390   2.789
 2414SOL    HW2 8142   5.706   3.530   2.870
 2415SOL     OW 8143   2.115   0.616   1.274
 2415SOL    HW1 8144   2.162   0.529   1.290
 2415SOL    HW2 8145   2.074   0.616   1.183
 2416SOL     OW 8146   1.911   1.418   4.796
 2416SOL    HW1 8147   1.941   1.509   4.768
 2416SOL    HW2 8148   1.984   1.374   4.849
 2417SOL     OW 8149   5.595   2.057   0.365
 2417SOL    HW1 8150   5.577   2.133   0.427
 2417SOL    HW2 8151   5.511   2.030   0.319
 2418SOL     OW 8152   3.393   3.666   5.051
 2418SOL    HW1 8153   3.331   3.671   5.130
 2418SOL    HW2 8154   3.382   3.747   4.995
 2419SOL     OW 8155   0.895   6.922   5.175
 2419SOL    HW1 8156   0.977   6.978   5.186
 2419SOL    HW2 8157   0.846   6.952   5.094
 2420SOL     OW 8158   3.960   0.001   2.304
 2420SOL    HW1 8159   3.959   6.958   2.380
 2420SOL    HW2 8160   3.895   6.992   2.234
 2421SOL     OW 8161   2.775   0.539   4.827
 2421SOL    HW1 8162   2.741   0.524   4.735
 2421SOL    HW2 8163   2.698   0.557   4.889
 2422SOL     OW 8164   5.004   0.888   0.674
 2422SOL    HW1 8165   5.001   0.904   0.772
 2422SOL    HW2 8166   5.099   0.878   0.644
 2423SOL     OW 8167   2.272   5.792   2.293
 2423SOL    HW1 8168   2.298   5.704   2.332
 2423SOL    HW2 8169   2.346   5.827   2.236
 2424SOL     OW 8170   5.446   6.199   6.735
 2424SOL    HW1 8171   5.471   6.105   6.711
 2424SOL    HW2 8172   5.354   6.200   6.774
 2425SOL     OW 8173   6.574   6.644   4.829
 2425SOL    HW1 8174   6.656   6.690   4.863
 2425SOL    HW2 8175   6.572   6.648   4.729
 2426SOL     OW 8176   1.107   5.810   4.807
 2426SOL    HW1 8177   1.202   5.818   4.776
 2426SOL    HW2 8178   1.099   5.852   4.898
 2427SOL     OW 8179   5.568   5.204   6.804
 2427SOL    HW1 8180   5.515   5.254   6.736
 2427SOL    HW2 8181   5.616   5.128   6.761
 2428SOL     OW 8182   0.712   0.588   3.954
 2428SOL    HW1 8183   0.749   0.639   3.876
 2428SOL    HW2 8184   0.617   0.617   3.971
 2429SOL     OW 8185   5.782   5.145   3.202
 2429SOL    HW1 8186   5.752   5.051   3.186
 2429SOL    HW2 8187   5.810   5.155   3.298
 2430SOL     OW 8188   5.284   2.852   0.709
 2430SOL    HW1 8189   5.236   2.929   0.666
 2430SOL    HW2 8190   5.226   2.771   0.706
 2431SOL     OW 8191   4.207   0.713   1.171
 2431SOL    HW1 8192   4.271   0.643   1.140
 2431SOL    HW2 8193   4.165   0.684   1.257
 2432SOL     OW 8194   4.023   6.590   2.901
 2432SOL    HW1 8195   3.975   6.657   2.845
 2432SOL    HW2 8196   4.037   6.627   2.993
 2433SOL     OW 8197   2.756   0.054   0.077
 2433SOL    HW1 8198   2.695   0.047   0.156
 2433SOL    HW2 8199   2.714   0.007   7.020
 2434SOL     OW 8200   5.064   1.534   3.356
 2434SOL    HW1 8201   5.133   1.558   3.288
 2434SOL    HW2 8202   5.045   1.436   3.352
 2435SOL     OW 8203   4.924   4.825   0.449
 2435SOL    HW1 8204   4.886   4.745   0.402
 2435SOL    HW2 8205   4.862   4.853   0.522
 2436SOL     OW 8206   1.698   6.871   1.226
 2436SOL    HW1 8207   1.770   6.807   1.252
 2436SOL    HW2 8208   1.618   6.858   1.285
 2437SOL     OW 8209   5.323   5.537   1.245
 2437SOL    HW1 8210   5.234   5.514   1.285
 2437SOL    HW2 8211   5.369   5.605   1.302
 2438SOL     OW 8212   4.277   0.719   4.802
 2438SOL    HW1 8213   4.341   0.792   4.779
 2438SOL    HW2 8214   4.192   0.760   4.837
 2439SOL     OW 8215   0.674   3.983   0.594
 2439SOL    HW1 8216   0.720   4.013   0.510
 2439SOL    HW2 8217   0.620   3.901   0.575
 2440SOL     OW 8218   3.780   6.760   5.249
 2440SOL    HW1 8219   3.780   6.770   5.149
 2440SOL    HW2 8220   3.865   6.797   5.286
 2441SOL     OW 8221   5.588   0.555   0.247
 2441SOL    HW1 8222   5.684   0.578   0.236
 2441SOL    HW2 8223   5.580   0.459   0.274
 2442SOL     OW 8224   5.719   5.284   2.819
 2442SOL    HW1 8225   5.789   5.302   2.888
 2442SOL    HW2 8226   5.685   5.371   2.783
 2443SOL     OW 8227   2.871   0.531   6.472
 2443SOL    HW1 8228   2.912   0.506   6.385
 2443SOL    HW2 8229   2.832   0.449   6.515
 2444SOL     OW 8230   3.527   4.126   0.079
 2444SOL    HW1 8231   3.529   4.056   0.008
 2444SOL    HW2 8232   3.470   4.203   0.050
 2445SOL     OW 8233   6.714   1.498   2.296
 2445SOL    HW1 8234   6.699   1.447   2.211
 2445SOL    HW2 8235   6.666   1.452   2.371
 2446SOL     OW 8236   0.840   2.818   4.662
 2446SOL    HW1 8237   0.752   2.853   4.631
 2446SOL    HW2 8238   0.878   2.757   4.593
 2447SOL     OW 8239   2.420   1.696   0.915
 2447SOL    HW1 8240   2.493   1.669   0.978
 2447SOL    HW2 8241   2.414   1.796   0.913
 2448SOL     OW 8242   6.691   1.242   4.231
 2448SOL    HW1 8243   6.615   1.177   4.239
 2448SOL    HW2 8244   6.738   1.228   4.144
 2449SOL     OW 8245   0.171   3.685   2.714
 2449SOL    HW1 8246   0.193   3.754   2.646
 2449SOL    HW2 8247   0.242   3.614   2.714
 2450SOL     OW 8248   3.185   5.414   5.773
 2450SOL    HW1 8249   3.179   5.359   5.856
 2450SOL    HW2 8250   3.118   5.488   5.777
 2451SOL     OW 8251   1.483   0.293   3.558
 2451SOL    HW1 8252   1.573   0.293   3.601
 2451SOL    HW2 8253   1.439   0.204   3.572
 2452SOL     OW 8254   3.169   1.931   3.482
 2452SOL    HW1 8255   3.213   1.990   3.414
 2452SOL    HW2 8256   3.219   1.845   3.488
 2453SOL     OW 8257   6.845   3.692   0.387
 2453SOL    HW1 8258   6.886   3.603   0.364
 2453SOL    HW2 8259   6.749   3.679   0.412
 2454SOL     OW 8260   3.524   0.592   6.254
 2454SOL    HW1 8261   3.457   0.666   6.262
 2454SOL    HW2 8262   3.566   0.594   6.163
 2455SOL     OW 8263   4.257   0.439   0.788
 2455SOL    HW1 8264   4.275   0.402   0.697
 2455SOL    HW2 8265   4.305   0.385   0.856
 2456SOL     OW 8266   6.373   2.500   0.127
 2456SOL    HW1 8267   6.409   2.590   0.150
 2456SOL    HW2 8268   6.297   2.478   0.188
 2457SOL     OW 8269   6.240   0.222   6.977
 2457SOL    HW1 8270   6.285   0.273   0.028
 2457SOL    HW2 8271   6.205   0.285   6.909
 2458SOL     OW 8272   1.763   6.117   4.071
 2458SOL    HW1 8273   1.758   6.214   4.095
 2458SOL    HW2 8274   1.816   6.106   3.986
 2459SOL     OW 8275   2.462   6.096   6.070
 2459SOL    HW1 8276   2.518   6.103   5.988
 2459SOL    HW2 8277   2.492   6.165   6.136
 2460SOL     OW 8278   1.424   1.537   1.303
 2460SOL    HW1 8279   1.393   1.457   1.252
 2460SOL    HW2 8280   1.523   1.535   1.312
 2461SOL     OW 8281   4.545   0.859   3.257
 2461SOL    HW1 8282   4.619   0.921   3.230
 2461SOL    HW2 8283   4.480   0.849   3.182
 2462SOL     OW 8284   1.432   5.141   6.627
 2462SOL    HW1 8285   1.441   5.204   6.550
 2462SOL    HW2 8286   1.519   5.137   6.677
 2463SOL     OW 8287   6.561   1.701   6.188
 2463SOL    HW1 8288   6.616   1.785   6.197
 2463SOL    HW2 8289   6.471   1.716   6.228
 2464SOL     OW 8290   2.231   4.137   2.502
 2464SOL    HW1 8291   2.212   4.093   2.590
 2464SOL    HW2 8292   2.206   4.075   2.427
 2465SOL     OW 8293   0.666   0.199   0.863
 2465SOL    HW1 8294   0.642   0.290   0.830
 2465SOL    HW2 8295   0.689   0.140   0.785
 2466SOL     OW 8296   2.624   1.596   2.942
 2466SOL    HW1 8297   2.549   1.657   2.920
 2466SOL    HW2 8298   2.663   1.621   3.031
 2467SOL     OW 8299   4.936   1.270   5.305
 2467SOL    HW1 8300   4.856   1.221   5.270
 2467SOL    HW2 8301   4.953   1.243   5.400
 2468SOL     OW 8302   4.266   6.501   1.921
 2468SOL    HW1 8303   4.293   6.596   1.904
 2468SOL    HW2 8304   4.188   6.478   1.863
 2469SOL     OW 8305   4.336   3.699   5.761
 2469SOL    HW1 8306   4.382   3.648   5.688
 2469SOL    HW2 8307   4.405   3.742   5.819
 2470SOL     OW 8308   4.243   4.291   6.363
 2470SOL    HW1 8309   4.151   4.321   6.387
 2470SOL    HW2 8310   4.244   4.258   6.268
 2471SOL     OW 8311   2.471   6.023   0.488
 2471SOL    HW1 8312   2.528   6.104   0.497
 2471SOL    HW2 8313   2.403   6.038   0.417
 2472SOL     OW 8314   4.978   2.520   4.276
 2472SOL    HW1 8315   4.888   2.549   4.310
 2472SOL    HW2 8316   5.048   2.548   4.341
 2473SOL     OW 8317   1.871   4.027   4.804
 2473SOL    HW1 8318   1.907   3.968   4.878
 2473SOL    HW2 8319   1.945   4.084   4.769
 2474SOL     OW 8320   0.408   5.497   0.916
 2474SOL    HW1 8321   0.430   5.498   1.014
 2474SOL    HW2 8322   0.492   5.514   0.864
 2475SOL     OW 8323   4.447   1.054   2.463
 2475SOL    HW1 8324   4.427   0.981   2.398
 2475SOL    HW2 8325   4.373   1.121   2.462
 2476SOL     OW 8326   6.956   1.459   3.282
 2476SOL    HW1 8327   6.995   1.525   3.346
 2476SOL    HW2 8328   0.005   1.429   3.217
 2477SOL     OW 8329   4.521   1.267   2.123
 2477SOL    HW1 8330   4.618   1.282   2.140
 2477SOL    HW2 8331   4.484   1.345   2.073
 2478SOL     OW 8332   6.323   1.185   1.989
 2478SOL    HW1 8333   6.248   1.206   1.927
 2478SOL    HW2 8334   6.392   1.131   1.941
 2479SOL     OW 8335   1.594   3.932   1.259
 2479SOL    HW1 8336   1.660   3.934   1.183
 2479SOL    HW2 8337   1.503   3.915   1.222
 2480SOL     OW 8338   4.723   4.330   1.040
 2480SOL    HW1 8339   4.741   4.360   0.946
 2480SOL    HW2 8340   4.644   4.380   1.077
 2481SOL     OW 8341   2.370   0.722   0.543
 2481SOL    HW1 8342   2.347   0.726   0.640
 2481SOL    HW2 8343   2.343   0.807   0.498
 2482SOL     OW 8344   4.763   3.578   6.280
 2482SOL    HW1 8345   4.723   3.573   6.372
 2482SOL    HW2 8346   4.776   3.485   6.245
 2483SOL     OW 8347   2.279   1.679   6.861
 2483SOL    HW1 8348   2.204   1.650   6.921
 2483SOL    HW2 8349   2.342   1.738   6.911
 2484SOL     OW 8350   3.514   0.948   0.075
 2484SOL    HW1 8351   3.477   0.882   0.141
 2484SOL    HW2 8352   3.574   0.901   0.011
 2485SOL     OW 8353   6.251   3.863   1.304
 2485SOL    HW1 8354   6.294   3.939   1.353
 2485SOL    HW2 8355   6.301   3.779   1.322
 2486SOL     OW 8356   1.883   4.950   4.101
 2486SOL    HW1 8357   1.935   4.903   4.030
 2486SOL    HW2 8358   1.805   4.996   4.060
 2487SOL     OW 8359   4.007   5.870   0.188
 2487SOL    HW1 8360   3.918   5.892   0.229
 2487SOL    HW2 8361   4.001   5.782   0.141
 2488SOL     OW 8362   2.146   4.438   2.594
 2488SOL    HW1 8363   2.088   4.441   2.675
 2488SOL    HW2 8364   2.242   4.450   2.620
 2489SOL     OW 8365   1.277   5.712   2.385
 2489SOL    HW1 8366   1.278   5.625   2.337
 2489SOL    HW2 8367   1.189   5.724   2.431
 2490SOL     OW 8368   6.579   4.899   1.453
 2490SOL    HW1 8369   6.573   4.811   1.501
 2490SOL    HW2 8370   6.487   4.936   1.440
 2491SOL     OW 8371   2.807   5.497   0.917
 2491SOL    HW1 8372   2.799   5.588   0.877
 2491SOL    HW2 8373   2.796   5.504   1.017
 2492SOL     OW 8374   4.112   2.162   1.351
 2492SOL    HW1 8375   4.051   2.210   1.414
 2492SOL    HW2 8376   4.078   2.172   1.257
 2493SOL     OW 8377   5.786   0.955   1.821
 2493SOL    HW1 8378   5.735   0.878   1.784
 2493SOL    HW2 8379   5.884   0.943   1.802
 2494SOL     OW 8380   5.648   3.692   1.825
 2494SOL    HW1 8381   5.627   3.615   1.885
 2494SOL    HW2 8382   5.564   3.741   1.802
 2495SOL     OW 8383   5.386   0.280   4.406
 2495SOL    HW1 8384   5.435   0.353   4.359
 2495SOL    HW2 8385   5.444   0.241   4.477
 2496SOL     OW 8386   0.402   3.794   5.773
 2496SOL    HW1 8387   0.349   3.792   5.858
 2496SOL    HW2 8388   0.434   3.702   5.752
 2497SOL     OW 8389   0.626   0.475   0.811
 2497SOL    HW1 8390   0.555   0.479   0.881
 2497SOL    HW2 8391   0.616   0.553   0.749
 2498SOL     OW 8392   3.029   1.095   4.681
 2498SOL    HW1 8393   3.117   1.105   4.636
 2498SOL    HW2 8394   2.958   1.141   4.627
 2499SOL     OW 8395   5.586   2.114   3.390
 2499SOL    HW1 8396   5.538   2.077   3.310
 2499SOL    HW2 8397   5.598   2.041   3.457
 2500SOL     OW 8398   4.608   2.880   0.152
 2500SOL    HW1 8399   4.670   2.802   0.143
 2500SOL    HW2 8400   4.550   2.885   0.070
 2501SOL     OW 8401   5.860   5.189   6.912
 2501SOL    HW1 8402   5.889   5.148   6.825
 2501SOL    HW2 8403   5.775   5.146   6.942
 2502SOL     OW 8404   1.792   5.441   3.217
 2502SOL    HW1 8405   1.722   5.445   3.146
 2502SOL    HW2 8406   1.881   5.425   3.175
 2503SOL     OW 8407   3.463   5.667   4.635
 2503SOL    HW1 8408   3.411   5.642   4.716
 2503SOL    HW2 8409   3.406   5.721   4.573
 2504SOL     OW 8410   3.411   5.090   4.861
 2504SOL    HW1 8411   3.376   5.057   4.773
 2504SOL    HW2 8412   3.493   5.144   4.846
 2505SOL     OW 8413   1.355   6.297   3.580
 2505SOL    HW1 8414   1.257   6.311   3.594
 2505SOL    HW2 8415   1.402   6.386   3.587
 2506SOL     OW 8416   6.722   3.646   5.352
 2506SOL    HW1 8417   6.771   3.695   5.425
 2506SOL    HW2 8418   6.631   3.620   5.385
 2507SOL     OW 8419   0.969   4.546   0.924
 2507SOL    HW1 8420   1.018   4.458   0.926
 2507SOL    HW2 8421   1.012   4.609   0.990
 2508SOL     OW 8422   2.333   1.644   2.428
 2508SOL    HW1 8423   2.316   1.559   2.377
 2508SOL    HW2 8424   2.301   1.722   2.375
 2509SOL     OW 8425   6.870   2.539   2.101
 2509SOL    HW1 8426   6.813   2.502   2.028
 2509SOL    HW2 8427   6.937   2.602   2.063
 2510SOL     OW 8428   3.381   4.415   1.465
 2510SOL    HW1 8429   3.414   4.343   1.403
 2510SOL    HW2 8430   3.427   4.407   1.553
 2511SOL     OW 8431   2.696   1.409   3.800
 2511SOL    HW1 8432   2.768   1.452   3.856
 2511SOL    HW2 8433   2.729   1.399   3.706
 2512SOL     OW 8434   4.824   4.590   5.172
 2512SOL    HW1 8435   4.801   4.557   5.264
 2512SOL    HW2 8436   4.855   4.513   5.116
 2513SOL     OW 8437   0.986   3.917   4.432
 2513SOL    HW1 8438   1.064   3.908   4.369
 2513SOL    HW2 8439   0.903   3.934   4.379
 2514SOL     OW 8440   6.402   3.756   4.100
 2514SOL    HW1 8441   6.320   3.762   4.043
 2514SOL    HW2 8442   6.376   3.730   4.193
 2515SOL     OW 8443   1.351   6.236   0.589
 2515SOL    HW1 8444   1.288   6.242   0.667
 2515SOL    HW2 8445   1.434   6.188   0.616
 2516SOL     OW 8446   6.215   0.749   3.028
 2516SOL    HW1 8447   6.255   0.800   3.103
 2516SOL    HW2 8448   6.200   0.810   2.950
 2517SOL     OW 8449   0.748   5.281   5.905
 2517SOL    HW1 8450   0.650   5.259   5.897
 2517SOL    HW2 8451   0.789   5.223   5.976
 2518SOL     OW 8452   1.062   4.195   0.165
 2518SOL    HW1 8453   0.975   4.147   0.176
 2518SOL    HW2 8454   1.135   4.143   0.209
 2519SOL     OW 8455   5.261   6.972   3.821
 2519SOL    HW1 8456   5.283   6.978   3.918
 2519SOL    HW2 8457   5.256   0.043   3.782
 2520SOL     OW 8458   2.225   2.348   6.737
 2520SOL    HW1 8459   2.178   2.392   6.660
 2520SOL    HW2 8460   2.197   2.252   6.742
 2521SOL     OW 8461   1.154   7.000   5.141
 2521SOL    HW1 8462   1.130   6.929   5.075
 2521SOL    HW2 8463   1.253   7.014   5.142
 2522SOL     OW 8464   0.425   3.228   5.707
 2522SOL    HW1 8465   0.416   3.324   5.733
 2522SOL    HW2 8466   0.409   3.218   5.609
 2523SOL     OW 8467   0.360   2.821   1.870
 2523SOL    HW1 8468   0.441   2.870   1.902
 2523SOL    HW2 8469   0.388   2.732   1.832
 2524SOL     OW 8470   0.653   6.109   5.568
 2524SOL    HW1 8471   0.709   6.077   5.645
 2524SOL    HW2 8472   0.578   6.045   5.552
 2525SOL     OW 8473   1.060   2.473   4.385
 2525SOL    HW1 8474   1.001   2.393   4.382
 2525SOL    HW2 8475   1.003   2.556   4.385
 2526SOL     OW 8476   1.381   4.366   5.459
 2526SOL    HW1 8477   1.420   4.298   5.522
 2526SOL    HW2 8478   1.454   4.421   5.420
 2527SOL     OW 8479   5.376   5.968   4.768
 2527SOL    HW1 8480   5.376   5.940   4.672
 2527SOL    HW2 8481   5.294   5.934   4.813
 2528SOL     OW 8482   5.369   4.836   0.988
 2528SOL    HW1 8483   5.425   4.822   1.069
 2528SOL    HW2 8484   5.427   4.865   0.911
 2529SOL     OW 8485   6.622   6.757   6.559
 2529SOL    HW1 8486   6.703   6.814   6.546
 2529SOL    HW2 8487   6.601   6.709   6.473
 2530SOL     OW 8488   2.255   0.012   4.650
 2530SOL    HW1 8489   2.265   0.038   4.554
 2530SOL    HW2 8490   2.163   6.998   4.665
 2531SOL     OW 8491   4.923   5.853   4.193
 2531SOL    HW1 8492   4.882   5.790   4.259
 2531SOL    HW2 8493   5.000   5.900   4.235
 2532SOL     OW 8494   0.609   6.443   0.372
 2532SOL    HW1 8495   0.660   6.364   0.339
 2532SOL    HW2 8496   0.612   6.515   0.303
 2533SOL     OW 8497   2.626   0.066   3.012
 2533SOL    HW1 8498   2.670   0.103   3.094
 2533SOL    HW2 8499   2.695   0.034   2.948
 2534SOL     OW 8500   3.199   0.943   2.957
 2534SOL    HW1 8501   3.205   0.844   2.967
 2534SOL    HW2 8502   3.193   0.985   3.047
 2535SOL     OW 8503   3.322   2.799   6.001
 2535SOL    HW1 8504   3.307   2.757   6.091
 2535SOL    HW2 8505   3.252   2.768   5.937
 2536SOL     OW 8506   0.137   1.886   4.744
 2536SOL    HW1 8507   0.040   1.893   4.767
 2536SOL    HW2 8508   0.157   1.948   4.669
 2537SOL     OW 8509   4.705   7.013   6.207
 2537SOL    HW1 8510   4.620   6.991   6.159
 2537SOL    HW2 8511   4.727   6.940   6.271
 2538SOL     OW 8512   1.405   5.071   4.888
 2538SOL    HW1 8513   1.331   5.113   4.836
 2538SOL    HW2 8514   1.380   5.067   4.985
 2539SOL     OW 8515   5.076   0.979   5.673
 2539SOL    HW1 8516   5.006   1.005   5.739
 2539SOL    HW2 8517   5.062   0.885   5.643
 2540SOL     OW 8518   3.803   1.139   2.380
 2540SOL    HW1 8519   3.809   1.174   2.474
 2540SOL    HW2 8520   3.842   1.047   2.376
 2541SOL     OW 8521   2.030   6.849   5.294
 2541SOL    HW1 8522   2.057   6.753   5.299
 2541SOL    HW2 8523   2.004   6.881   5.385
 2542SOL     OW 8524   4.433   1.064   5.985
 2542SOL    HW1 8525   4.401   0.985   5.933
 2542SOL    HW2 8526   4.514   1.102   5.940
 2543SOL     OW 8527   1.771   1.904   2.830
 2543SOL    HW1 8528   1.804   1.934   2.741
 2543SOL    HW2 8529   1.845   1.858   2.880
 2544SOL     OW 8530   0.405   5.457   1.195
 2544SOL    HW1 8531   0.358   5.535   1.236
 2544SOL    HW2 8532   0.497   5.450   1.233
 2545SOL     OW 8533   1.934   0.796   1.573
 2545SOL    HW1 8534   1.869   0.870   1.588
 2545SOL    HW2 8535   1.895   0.729   1.509
 2546SOL     OW 8536   0.504   1.858   1.823
 2546SOL    HW1 8537   0.445   1.911   1.883
 2546SOL    HW2 8538   0.599   1.886   1.836
 2547SOL     OW 8539   5.959   3.542   0.118
 2547SOL    HW1 8540   5.947   3.495   0.205
 2547SOL    HW2 8541   5.959   3.641   0.132
 2548SOL     OW 8542   2.708   6.442   5.794
 2548SOL    HW1 8543   2.627   6.483   5.837
 2548SOL    HW2 8544   2.738   6.499   5.718
 2549SOL     OW 8545   1.764   0.520   1.305
 2549SOL    HW1 8546   1.797   0.472   1.224
 2549SOL    HW2 8547   1.765   0.619   1.289
 2550SOL     OW 8548   6.698   0.606   6.083
 2550SOL    HW1 8549   6.733   0.641   5.996
 2550SOL    HW2 8550   6.621   0.662   6.113
 2551SOL     OW 8551   3.521   5.342   0.033
 2551SOL    HW1 8552   3.443   5.343   0.096
 2551SOL    HW2 8553   3.605   5.324   0.083
 2552SOL     OW 8554   1.746   5.377   6.581
 2552SOL    HW1 8555   1.746   5.410   6.675
 2552SOL    HW2 8556   1.807   5.298   6.574
 2553SOL     OW 8557   4.065   3.116   0.055
 2553SOL    HW1 8558   3.975   3.074   0.057
 2553SOL    HW2 8559   4.120   3.081   0.130
 2554SOL     OW 8560   1.583   6.350   6.872
 2554SOL    HW1 8561   1.610   6.402   6.791
 2554SOL    HW2 8562   1.658   6.349   6.938
 2555SOL     OW 8563   6.098   6.422   6.700
 2555SOL    HW1 8564   6.103   6.339   6.754
 2555SOL    HW2 8565   6.149   6.410   6.615
 2556SOL     OW 8566   4.416   5.260   0.413
 2556SOL    HW1 8567   4.399   5.290   0.319
 2556SOL    HW2 8568   4.514   5.241   0.425
 2557SOL     OW 8569   2.820   2.600   6.521
 2557SOL    HW1 8570   2.916   2.598   6.548
 2557SOL    HW2 8571   2.813   2.627   6.425
 2558SOL     OW 8572   4.379   2.905   5.706
 2558SOL    HW1 8573   4.358   2.910   5.608
 2558SOL    HW2 8574   4.301   2.867   5.755
 2559SOL     OW 8575   6.436   3.469   4.297
 2559SOL    HW1 8576   6.336   3.469   4.292
 2559SOL    HW2 8577   6.468   3.559   4.324
 2560SOL     OW 8578   5.848   3.184   4.146
 2560SOL    HW1 8579   5.795   3.249   4.200
 2560SOL    HW2 8580   5.928   3.230   4.107
 2561SOL     OW 8581   2.563   0.036   4.209
 2561SOL    HW1 8582   2.533   0.097   4.282
 2561SOL    HW2 8583   2.559   6.963   4.241
 2562SOL     OW 8584   1.671   5.803   2.580
 2562SOL    HW1 8585   1.731   5.754   2.517
 2562SOL    HW2 8586   1.697   5.899   2.583
 2563SOL     OW 8587   4.066   2.127   6.718
 2563SOL    HW1 8588   4.106   2.134   6.809
 2563SOL    HW2 8589   4.077   2.214   6.670
 2564SOL     OW 8590   1.477   6.608   6.255
 2564SOL    HW1 8591   1.479   6.706   6.275
 2564SOL    HW2 8592   1.399   6.588   6.196
 2565SOL     OW 8593   0.023   0.727   0.697
 2565SOL    HW1 8594   6.952   0.751   0.727
 2565SOL    HW2 8595   0.017   0.664   0.619
 2566SOL     OW 8596   1.396   0.008   1.313
 2566SOL    HW1 8597   1.372   0.041   1.404
 2566SOL    HW2 8598   1.361   6.937   1.301
 2567SOL     OW 8599   0.942   1.056   1.781
 2567SOL    HW1 8600   0.916   1.147   1.813
 2567SOL    HW2 8601   0.873   0.989   1.811
 2568SOL     OW 8602   3.647   6.796   0.019
 2568SOL    HW1 8603   3.714   6.747   6.986
 2568SOL    HW2 8604   3.568   6.819   6.984
 2569SOL     OW 8605   2.605   1.253   1.851
 2569SOL    HW1 8606   2.536   1.181   1.838
 2569SOL    HW2 8607   2.560   1.341   1.861
 2570SOL     OW 8608   5.620   1.122   6.755
 2570SOL    HW1 8609   5.585   1.097   6.664
 2570SOL    HW2 8610   5.710   1.080   6.768
 2571SOL     OW 8611   1.932   4.235   5.515
 2571SOL    HW1 8612   1.934   4.282   5.426
 2571SOL    HW2 8613   2.015   4.257   5.566
 2572SOL     OW 8614   2.242   5.508   0.230
 2572SOL    HW1 8615   2.292   5.584   0.190
 2572SOL    HW2 8616   2.156   5.495   0.180
 2573SOL     OW 8617   6.497   1.927   1.738
 2573SOL    HW1 8618   6.527   2.007   1.789
 2573SOL    HW2 8619   6.406   1.899   1.769
 2574SOL     OW 8620   6.329   3.323   0.144
 2574SOL    HW1 8621   6.253   3.340   0.081
 2574SOL    HW2 8622   6.312   3.239   0.195
 2575SOL     OW 8623   4.670   5.349   6.919
 2575SOL    HW1 8624   4.643   5.276   6.983
 2575SOL    HW2 8625   4.588   5.392   6.882
 2576SOL     OW 8626   3.855   6.683   4.542
 2576SOL    HW1 8627   3.763   6.703   4.510
 2576SOL    HW2 8628   3.850   6.639   4.631
 2577SOL     OW 8629   3.883   6.658   1.719
 2577SOL    HW1 8630   3.866   6.749   1.756
 2577SOL    HW2 8631   3.810   6.635   1.654
 2578SOL     OW 8632   4.910   1.947   3.916
 2578SOL    HW1 8633   5.008   1.965   3.926
 2578SOL    HW2 8634   4.874   1.907   4.000
 2579SOL     OW 8635   1.693   6.336   2.709
 2579SOL    HW1 8636   1.599   6.349   2.740
 2579SOL    HW2 8637   1.716   6.239   2.708
 2580SOL     OW 8638   2.837   3.264   6.603
 2580SOL    HW1 8639   2.902   3.264   6.679
 2580SOL    HW2 8640   2.752   3.309   6.631
 2581SOL     OW 8641   0.333   4.136   1.001
 2581SOL    HW1 8642   0.376   4.199   0.937
 2581SOL    HW2 8643   0.356   4.042   0.976
 2582SOL     OW 8644   0.891   4.255   2.057
 2582SOL    HW1 8645   0.823   4.219   1.993
 2582SOL    HW2 8646   0.904   4.190   2.132
 2583SOL     OW 8647   0.725   1.666   1.043
 2583SOL    HW1 8648   0.792   1.596   1.068
 2583SOL    HW2 8649   0.658   1.677   1.116
 2584SOL     OW 8650   4.388   5.648   0.161
 2584SOL    HW1 8651   4.301   5.612   0.194
 2584SOL    HW2 8652   4.383   5.664   0.062
 2585SOL     OW 8653   4.936   2.402   1.001
 2585SOL    HW1 8654   4.976   2.494   1.007
 2585SOL    HW2 8655   4.985   2.341   1.063
 2586SOL     OW 8656   3.452   1.357   3.631
 2586SOL    HW1 8657   3.550   1.357   3.652
 2586SOL    HW2 8658   3.439   1.345   3.533
 2587SOL     OW 8659   0.786   0.920   3.480
 2587SOL    HW1 8660   0.750   0.846   3.422
 2587SOL    HW2 8661   0.813   0.882   3.569
 2588SOL     OW 8662   4.361   0.516   6.154
 2588SOL    HW1 8663   4.429   0.444   6.156
 2588SOL    HW2 8664   4.379   0.581   6.228
 2589SOL     OW 8665   6.872   6.286   6.703
 2589SOL    HW1 8666   6.887   6.244   6.793
 2589SOL    HW2 8667   6.831   6.220   6.641
 2590SOL     OW 8668   3.221   6.105   0.961
 2590SOL    HW1 8669   3.232   6.194   1.006
 2590SOL    HW2 8670   3.303   6.085   0.908
 2591SOL     OW 8671   6.826   5.813   2.723
 2591SOL    HW1 8672   6.758   5.869   2.675
 2591SOL    HW2 8673   6.808   5.717   2.705
 2592SOL     OW 8674   3.613   6.477   1.109
 2592SOL    HW1 8675   3.603   6.378   1.118
 2592SOL    HW2 8676   3.708   6.499   1.087
 2593SOL     OW 8677   2.968   5.873   0.858
 2593SOL    HW1 8678   2.913   5.825   0.789
 2593SOL    HW2 8679   2.947   5.970   0.854
 2594SOL     OW 8680   0.848   5.137   6.102
 2594SOL    HW1 8681   0.894   5.167   6.186
 2594SOL    HW2 8682   0.778   5.070   6.125
 2595SOL     OW 8683   6.571   1.740   3.893
 2595SOL    HW1 8684   6.606   1.831   3.917
 2595SOL    HW2 8685   6.588   1.723   3.796
 2596SOL     OW 8686   4.005   1.821   1.811
 2596SOL    HW1 8687   4.021   1.893   1.744
 2596SOL    HW2 8688   3.908   1.816   1.833
 2597SOL     OW 8689   1.559   4.272   5.953
 2597SOL    HW1 8690   1.611   4.357   5.955
 2597SOL    HW2 8691   1.491   4.276   5.880
 2598SOL     OW 8692   6.130   1.155   3.751
 2598SOL    HW1 8693   6.216   1.160   3.701
 2598SOL    HW2 8694   6.080   1.073   3.724
 2599SOL     OW 8695   1.950   6.837   1.015
 2599SOL    HW1 8696   1.936   6.929   1.053
 2599SOL    HW2 8697   1.862   6.791   1.005
 2600SOL     OW 8698   4.907   3.278   4.303
 2600SOL    HW1 8699   4.890   3.187   4.266
 2600SOL    HW2 8700   4.963   3.270   4.386
 2601SOL     OW 8701   1.934   2.066   0.818
 2601SOL    HW1 8702   1.855   2.117   0.852
 2601SOL    HW2 8703   1.932   2.065   0.718
 2602SOL     OW 8704   0.495   4.193   4.141
 2602SOL    HW1 8705   0.436   4.117   4.112
 2602SOL    HW2 8706   0.585   4.157   4.164
 2603SOL     OW 8707   2.677   1.232   2.675
 2603SOL    HW1 8708   2.630   1.320   2.667
 2603SOL    HW2 8709   2.688   1.208   2.771
 2604SOL     OW 8710   5.115   1.629   2.880
 2604SOL    HW1 8711   5.046   1.680   2.829
 2604SOL    HW2 8712   5.144   1.550   2.827
 2605SOL     OW 8713   2.021   4.198   2.966
 2605SOL    HW1 8714   2.119   4.220   2.956
 2605SOL    HW2 8715   1.987   4.237   3.052
 2606SOL     OW 8716   6.258   4.440   1.968
 2606SOL    HW1 8717   6.275   4.468   1.874
 2606SOL    HW2 8718   6.309   4.499   2.031
 2607SOL     OW 8719   1.205   1.001   0.896
 2607SOL    HW1 8720   1.289   0.995   0.951
 2607SOL    HW2 8721   1.198   0.920   0.838
 2608SOL     OW 8722   4.763   4.745   1.493
 2608SOL    HW1 8723   4.675   4.698   1.502
 2608SOL    HW2 8724   4.770   4.817   1.562
 2609SOL     OW 8725   6.626   1.817   1.092
 2609SOL    HW1 8726   6.600   1.738   1.037
 2609SOL    HW2 8727   6.726   1.825   1.094
 2610SOL     OW 8728   0.739   4.509   4.821
 2610SOL    HW1 8729   0.687   4.444   4.876
 2610SOL    HW2 8730   0.681   4.586   4.794
 2611SOL     OW 8731   4.733   6.286   1.040
 2611SOL    HW1 8732   4.762   6.229   1.117
 2611SOL    HW2 8733   4.638   6.263   1.016
 2612SOL     OW 8734   6.952   0.013   5.951
 2612SOL    HW1 8735   0.007   6.986   5.909
 2612SOL    HW2 8736   6.917   0.082   5.887
 2613SOL     OW 8737   2.593   6.152   6.489
 2613SOL    HW1 8738   2.545   6.145   6.577
 2613SOL    HW2 8739   2.533   6.195   6.422
 2614SOL     OW 8740   6.975   0.975   5.897
 2614SOL    HW1 8741   7.018   0.988   5.987
 2614SOL    HW2 8742   6.958   1.064   5.855
 2615SOL     OW 8743   0.046   2.564   3.327
 2615SOL    HW1 8744   0.068   2.629   3.254
 2615SOL    HW2 8745   0.105   2.581   3.406
 2616SOL     OW 8746   3.032   3.604   5.158
 2616SOL    HW1 8747   3.105   3.656   5.203
 2616SOL    HW2 8748   2.987   3.544   5.224
 2617SOL     OW 8749   3.576   6.404   0.556
 2617SOL    HW1 8750   3.556   6.401   0.458
 2617SOL    HW2 8751   3.560   6.497   0.590
 2618SOL     OW 8752   0.015   0.554   4.415
 2618SOL    HW1 8753   6.963   0.622   4.415
 2618SOL    HW2 8754   0.001   0.490   4.339
 2619SOL     OW 8755   4.225   1.935   3.123
 2619SOL    HW1 8756   4.278   1.926   3.208
 2619SOL    HW2 8757   4.167   2.016   3.128
 2620SOL     OW 8758   6.960   0.227   3.058
 2620SOL    HW1 8759   6.962   0.253   3.155
 2620SOL    HW2 8760   6.970   0.309   3.002
 2621SOL     OW 8761   1.563   5.803   3.024
 2621SOL    HW1 8762   1.465   5.788   3.011
 2621SOL    HW2 8763   1.592   5.759   3.109
 2622SOL     OW 8764   1.669   3.512   5.462
 2622SOL    HW1 8765   1.707   3.421   5.448
 2622SOL    HW2 8766   1.740   3.581   5.448
 2623SOL     OW 8767   1.678   1.053   5.434
 2623SOL    HW1 8768   1.591   1.058   5.385
 2623SOL    HW2 8769   1.665   1.004   5.520
 2624SOL     OW 8770   6.675   1.468   5.571
 2624SOL    HW1 8771   6.578   1.473   5.549
 2624SOL    HW2 8772   6.700   1.547   5.628
 2625SOL     OW 8773   1.932   3.034   5.294
 2625SOL    HW1 8774   2.026   3.061   5.273
 2625SOL    HW2 8775   1.907   2.955   5.238
 2626SOL     OW 8776   0.556   0.408   5.678
 2626SOL    HW1 8777   0.602   0.323   5.654
 2626SOL    HW2 8778   0.519   0.451   5.596
 2627SOL     OW 8779   1.425   0.889   5.828
 2627SOL    HW1 8780   1.401   0.987   5.832
 2627SOL    HW2 8781   1.342   0.834   5.841
 2628SOL     OW 8782   1.627   4.733   5.531
 2628SOL    HW1 8783   1.711   4.770   5.491
 2628SOL    HW2 8784   1.608   4.643   5.491
 2629SOL     OW 8785   3.141   3.111   1.459
 2629SOL    HW1 8786   3.182   3.059   1.534
 2629SOL    HW2 8787   3.046   3.080   1.445
 2630SOL     OW 8788   3.280   2.081   2.607
 2630SOL    HW1 8789   3.196   2.093   2.556
 2630SOL    HW2 8790   3.344   2.155   2.585
 2631SOL     OW 8791   5.535   1.137   5.601
 2631SOL    HW1 8792   5.592   1.095   5.530
 2631SOL    HW2 8793   5.440   1.140   5.570
 2632SOL     OW 8794   4.557   2.852   6.581
 2632SOL    HW1 8795   4.607   2.798   6.514
 2632SOL    HW2 8796   4.464   2.869   6.548
 2633SOL     OW 8797   0.479   2.149   4.684
 2633SOL    HW1 8798   0.529   2.096   4.753
 2633SOL    HW2 8799   0.541   2.174   4.609
 2634SOL     OW 8800   0.433   4.701   3.326
 2634SOL    HW1 8801   0.450   4.797   3.350
 2634SOL    HW2 8802   0.350   4.669   3.373
 2635SOL     OW 8803   6.845   5.586   5.504
 2635SOL    HW1 8804   6.830   5.672   5.554
 2635SOL    HW2 8805   6.756   5.547   5.478
 2636SOL     OW 8806   4.198   0.794   5.278
 2636SOL    HW1 8807   4.136   0.861   5.236
 2636SOL    HW2 8808   4.162   0.702   5.263
 2637SOL     OW 8809   5.044   1.828   3.494
 2637SOL    HW1 8810   5.053   1.827   3.594
 2637SOL    HW2 8811   4.965   1.773   3.467
 2638SOL     OW 8812   6.934   0.133   3.789
 2638SOL    HW1 8813   6.904   0.040   3.812
 2638SOL    HW2 8814   6.953   0.138   3.691
 2639SOL     OW 8815   0.317   5.682   0.710
 2639SOL    HW1 8816   0.331   5.592   0.752
 2639SOL    HW2 8817   0.305   5.751   0.782
 2640SOL     OW 8818   0.608   6.320   5.406
 2640SOL    HW1 8819   0.641   6.248   5.467
 2640SOL    HW2 8820   0.683   6.384   5.387
 2641SOL     OW 8821   5.510   3.085   2.583
 2641SOL    HW1 8822   5.467   3.014   2.638
 2641SOL    HW2 8823   5.529   3.051   2.492
 2642SOL     OW 8824   4.715   6.482   3.724
 2642SOL    HW1 8825   4.754   6.390   3.727
 2642SOL    HW2 8826   4.749   6.529   3.643
 2643SOL     OW 8827   0.337   3.696   3.588
 2643SOL    HW1 8828   0.437   3.694   3.581
 2643SOL    HW2 8829   0.298   3.683   3.497
 2644SOL     OW 8830   5.815   6.639   5.810
 2644SOL    HW1 8831   5.797   6.684   5.723
 2644SOL    HW2 8832   5.901   6.589   5.804
 2645SOL     OW 8833   4.448   5.801   4.308
 2645SOL    HW1 8834   4.521   5.835   4.247
 2645SOL    HW2 8835   4.359   5.831   4.273
 2646SOL     OW 8836   6.268   0.944   6.499
 2646SOL    HW1 8837   6.170   0.926   6.507
 2646SOL    HW2 8838   6.310   0.877   6.438
 2647SOL     OW 8839   6.388   0.072   2.098
 2647SOL    HW1 8840   6.443   7.011   2.110
 2647SOL    HW2 8841   6.405   0.111   2.008
 2648SOL     OW 8842   0.562   0.432   4.466
 2648SOL    HW1 8843   0.476   0.483   4.469
 2648SOL    HW2 8844   0.604   0.442   4.376
 2649SOL     OW 8845   5.618   2.944   6.935
 2649SOL    HW1 8846   5.655   2.856   6.965
 2649SOL    HW2 8847   5.665   2.974   6.852
 2650SOL     OW 8848   1.563   4.573   4.122
 2650SOL    HW1 8849   1.522   4.626   4.197
 2650SOL    HW2 8850   1.508   4.491   4.106
 2651SOL     OW 8851   1.334   1.356   1.133
 2651SOL    HW1 8852   1.236   1.367   1.117
 2651SOL    HW2 8853   1.364   1.267   1.097
 2652SOL     OW 8854   4.029   3.610   4.764
 2652SOL    HW1 8855   4.052   3.619   4.667
 2652SOL    HW2 8856   4.049   3.517   4.794
 2653SOL     OW 8857   5.154   6.536   5.107
 2653SOL    HW1 8858   5.106   6.624   5.101
 2653SOL    HW2 8859   5.235   6.539   5.048
 2654SOL     OW 8860   4.376   6.288   2.367
 2654SOL    HW1 8861   4.460   6.336   2.392
 2654SOL    HW2 8862   4.334   6.333   2.288
 2655SOL     OW 8863   4.687   6.040   4.369
 2655SOL    HW1 8864   4.607   6.098   4.387
 2655SOL    HW2 8865   4.673   5.990   4.283
 2656SOL     OW 8866   3.821   5.250   5.010
 2656SOL    HW1 8867   3.812   5.151   5.000
 2656SOL    HW2 8868   3.809   5.275   5.107
 2657SOL     OW 8869   1.112   3.947   6.525
 2657SOL    HW1 8870   1.114   3.890   6.443
 2657SOL    HW2 8871   1.059   4.030   6.506
 2658SOL     OW 8872   5.019   4.347   1.094
 2658SOL    HW1 8873   5.070   4.317   1.013
 2658SOL    HW2 8874   4.921   4.341   1.076
 2659SOL     OW 8875   5.446   3.091   4.280
 2659SOL    HW1 8876   5.527   3.094   4.339
 2659SOL    HW2 8877   5.366   3.066   4.334
 2660SOL     OW 8878   1.886   0.173   1.598
 2660SOL    HW1 8879   1.950   0.148   1.671
 2660SOL    HW2 8880   1.872   0.272   1.600
 2661SOL     OW 8881   2.588   0.289   1.013
 2661SOL    HW1 8882   2.526   0.236   0.954
 2661SOL    HW2 8883   2.681   0.255   1.001
 2662SOL     OW 8884   5.323   6.747   4.759
 2662SOL    HW1 8885   5.384   6.702   4.824
 2662SOL    HW2 8886   5.229   6.745   4.795
 2663SOL     OW 8887   2.775   4.037   6.789
 2663SOL    HW1 8888   2.811   4.030   6.882
 2663SOL    HW2 8889   2.745   3.946   6.758
 2664SOL     OW 8890   4.304   3.627   5.265
 2664SOL    HW1 8891   4.287   3.528   5.259
 2664SOL    HW2 8892   4.394   3.643   5.305
 2665SOL     OW 8893   2.545   2.782   5.294
 2665SOL    HW1 8894   2.575   2.723   5.220
 2665SOL    HW2 8895   2.551   2.878   5.265
 2666SOL     OW 8896   5.811   4.918   1.233
 2666SOL    HW1 8897   5.822   4.828   1.191
 2666SOL    HW2 8898   5.901   4.954   1.258
 2667SOL     OW 8899   0.086   6.022   4.447
 2667SOL    HW1 8900   0.064   5.990   4.354
 2667SOL    HW2 8901   0.157   5.963   4.486
 2668SOL     OW 8902   7.011   3.120   4.973
 2668SOL    HW1 8903   0.090   3.121   4.978
 2668SOL    HW2 8904   6.983   3.091   4.881
 2669SOL     OW 8905   2.799   4.345   5.332
 2669SOL    HW1 8906   2.835   4.423   5.281
 2669SOL    HW2 8907   2.707   4.323   5.300
 2670SOL     OW 8908   5.542   3.169   6.078
 2670SOL    HW1 8909   5.454   3.199   6.115
 2670SOL    HW2 8910   5.529   3.135   5.985
 2671SOL     OW 8911   4.382   5.528   6.072
 2671SOL    HW1 8912   4.393   5.596   6.145
 2671SOL    HW2 8913   4.385   5.436   6.112
 2672SOL     OW 8914   1.658   5.151   0.534
 2672SOL    HW1 8915   1.758   5.149   0.528
 2672SOL    HW2 8916   1.630   5.214   0.606
 2673SOL     OW 8917   5.807   0.964   2.511
 2673SOL    HW1 8918   5.762   1.032   2.454
 2673SOL    HW2 8919   5.888   0.928   2.464
 2674SOL     OW 8920   1.241   4.285   3.765
 2674SOL    HW1 8921   1.300   4.259   3.842
 2674SOL    HW2 8922   1.279   4.248   3.680
 2675SOL     OW 8923   6.194   5.058   3.958
 2675SOL    HW1 8924   6.121   4.989   3.957
 2675SOL    HW2 8925   6.197   5.100   4.048
 2676SOL     OW 8926   3.455   2.435   0.859
 2676SOL    HW1 8927   3.542   2.400   0.824
 2676SOL    HW2 8928   3.441   2.528   0.824
 2677SOL     OW 8929   2.723   3.748   0.622
 2677SOL    HW1 8930   2.678   3.665   0.654
 2677SOL    HW2 8931   2.665   3.827   0.638
 2678SOL     OW 8932   0.301   2.860   1.481
 2678SOL    HW1 8933   0.253   2.891   1.563
 2678SOL    HW2 8934   0.365   2.787   1.505
 2679SOL     OW 8935   2.381   4.099   1.466
 2679SOL    HW1 8936   2.463   4.156   1.472
 2679SOL    HW2 8937   2.326   4.111   1.548
 2680SOL     OW 8938   1.340   1.528   0.060
 2680SOL    HW1 8939   1.253   1.535   0.012
 2680SOL    HW2 8940   1.325   1.536   0.158
 2681SOL     OW 8941   1.156   2.827   4.227
 2681SOL    HW1 8942   1.059   2.827   4.206
 2681SOL    HW2 8943   1.171   2.864   4.319
 2682SOL     OW 8944   4.731   4.213   2.913
 2682SOL    HW1 8945   4.731   4.119   2.948
 2682SOL    HW2 8946   4.782   4.272   2.975
 2683SOL     OW 8947   2.695   5.354   1.414
 2683SOL    HW1 8948   2.691   5.265   1.369
 2683SOL    HW2 8949   2.638   5.352   1.496
 2684SOL     OW 8950   4.420   5.440   1.779
 2684SOL    HW1 8951   4.519   5.457   1.777
 2684SOL    HW2 8952   4.399   5.368   1.844
 2685SOL     OW 8953   5.801   6.521   6.465
 2685SOL    HW1 8954   5.869   6.576   6.514
 2685SOL    HW2 8955   5.729   6.492   6.528
 2686SOL     OW 8956   1.832   1.911   5.838
 2686SOL    HW1 8957   1.836   1.901   5.937
 2686SOL    HW2 8958   1.924   1.926   5.802
 2687SOL     OW 8959   5.040   4.779   1.354
 2687SOL    HW1 8960   5.071   4.692   1.315
 2687SOL    HW2 8961   4.959   4.763   1.409
 2688SOL     OW 8962   3.757   3.816   0.295
 2688SOL    HW1 8963   3.837   3.760   0.272
 2688SOL    HW2 8964   3.680   3.756   0.319
 2689SOL     OW 8965   1.323   4.040   3.526
 2689SOL    HW1 8966   1.300   4.066   3.432
 2689SOL    HW2 8967   1.417   4.006   3.529
 2690SOL     OW 8968   3.870   3.027   4.458
 2690SOL    HW1 8969   3.894   3.049   4.553
 2690SOL    HW2 8970   3.789   2.969   4.457
 2691SOL     OW 8971   1.807   5.465   2.784
 2691SOL    HW1 8972   1.801   5.394   2.854
 2691SOL    HW2 8973   1.717   5.505   2.769
 2692SOL     OW 8974   3.051   5.201   2.799
 2692SOL    HW1 8975   3.057   5.300   2.796
 2692SOL    HW2 8976   3.033   5.165   2.707
 2693SOL     OW 8977   2.189   5.291   3.511
 2693SOL    HW1 8978   2.108   5.241   3.543
 2693SOL    HW2 8979   2.169   5.389   3.508
 2694SOL     OW 8980   3.577   5.930   3.123
 2694SOL    HW1 8981   3.616   5.873   3.051
 2694SOL    HW2 8982   3.491   5.969   3.092
 2695SOL     OW 8983   5.563   0.287   1.977
 2695SOL    HW1 8984   5.589   0.362   1.916
 2695SOL    HW2 8985   5.641   0.227   1.992
 2696SOL     OW 8986   3.981   3.008   5.653
 2696SOL    HW1 8987   4.035   3.092   5.651
 2696SOL    HW2 8988   3.917   3.007   5.576
 2697SOL     OW 8989   3.562   1.244   2.831
 2697SOL    HW1 8990   3.501   1.255   2.910
 2697SOL    HW2 8991   3.559   1.326   2.774
 2698SOL     OW 8992   1.978   6.146   0.356
 2698SOL    HW1 8993   1.938   6.105   0.273
 2698SOL    HW2 8994   2.023   6.074   0.410
 2699SOL     OW 8995   2.282   6.146   0.293
 2699SOL    HW1 8996   2.213   6.081   0.262
 2699SOL    HW2 8997   2.240   6.236   0.307
 2700SOL     OW 8998   2.356   3.391   6.950
 2700SOL    HW1 8999   2.455   3.376   6.938
 2700SOL    HW2 9000   2.341   3.484   6.983
 2701SOL     OW 9001   5.546   1.350   5.754
 2701SOL    HW1 9002   5.471   1.347   5.820
 2701SOL    HW2 9003   5.536   1.275   5.688
 2702SOL     OW 9004   0.554   2.877   3.287
 2702SOL    HW1 9005   0.550   2.912   3.381
 2702SOL    HW2 9006   0.621   2.929   3.235
 2703SOL     OW 9007   1.048   6.664   1.268
 2703SOL    HW1 9008   0.990   6.719   1.328
 2703SOL    HW2 9009   1.043   6.568   1.295
 2704SOL     OW 9010   6.932   5.474   1.737
 2704SOL    HW1 9011   6.977   5.392   1.774
 2704SOL    HW2 9012   6.863   5.447   1.671
 2705SOL     OW 9013   7.003   5.617   4.918
 2705SOL    HW1 9014   0.081   5.611   4.914
 2705SOL    HW2 9015   6.970   5.573   5.002
 2706SOL     OW 9016   6.786   5.397   2.285
 2706SOL    HW1 9017   6.696   5.433   2.260
 2706SOL    HW2 9018   6.777   5.330   2.358
 2707SOL     OW 9019   3.826   0.042   4.061
 2707SOL    HW1 9020   3.742   0.067   4.109
 2707SOL    HW2 9021   3.837   0.101   3.981
 2708SOL     OW 9022   0.696   2.576   0.266
 2708SOL    HW1 9023   0.650   2.555   0.180
 2708SOL    HW2 9024   0.631   2.620   0.328
 2709SOL     OW 9025   5.367   0.081   6.931
 2709SOL    HW1 9026   5.281   0.130   6.917
 2709SOL    HW2 9027   5.348   7.015   6.977
 2710SOL     OW 9028   0.627   3.820   3.563
 2710SOL    HW1 9029   0.650   3.807   3.467
 2710SOL    HW2 9030   0.588   3.911   3.576
 2711SOL     OW 9031   2.369   0.707   3.609
 2711SOL    HW1 9032   2.455   0.759   3.612
 2711SOL    HW2 9033   2.380   0.622   3.661
 2712SOL     OW 9034   3.000   4.372   1.200
 2712SOL    HW1 9035   2.981   4.275   1.212
 2712SOL    HW2 9036   2.974   4.422   1.283
 2713SOL     OW 9037   2.508   2.630   4.769
 2713SOL    HW1 9038   2.582   2.696   4.779
 2713SOL    HW2 9039   2.501   2.603   4.673
 2714SOL     OW 9040   3.560   2.530   0.008
 2714SOL    HW1 9041   3.581   2.434   0.020
 2714SOL    HW2 9042   3.462   2.546   0.025
 2715SOL     OW 9043   5.024   1.691   0.975
 2715SOL    HW1 9044   4.988   1.784   0.970
 2715SOL    HW2 9045   5.000   1.651   1.064
 2716SOL     OW 9046   5.106   3.731   2.316
 2716SOL    HW1 9047   5.024   3.692   2.274
 2716SOL    HW2 9048   5.103   3.717   2.415
 2717SOL     OW 9049   0.855   6.514   2.721
 2717SOL    HW1 9050   0.931   6.490   2.661
 2717SOL    HW2 9051   0.823   6.432   2.770
 2718SOL     OW 9052   1.308   1.768   5.109
 2718SOL    HW1 9053   1.362   1.734   5.032
 2718SOL    HW2 9054   1.262   1.691   5.154
 2719SOL     OW 9055   0.312   5.027   1.730
 2719SOL    HW1 9056   0.218   5.015   1.696
 2719SOL    HW2 9057   0.321   5.119   1.770
 2720SOL     OW 9058   2.033   5.412   2.093
 2720SOL    HW1 9059   1.936   5.396   2.073
 2720SOL    HW2 9060   2.057   5.506   2.068
 2721SOL     OW 9061   2.742   0.093   3.469
 2721SOL    HW1 9062   2.740   0.120   3.372
 2721SOL    HW2 9063   2.744   0.176   3.526
 2722SOL     OW 9064   6.777   5.407   0.628
 2722SOL    HW1 9065   6.704   5.431   0.564
 2722SOL    HW2 9066   6.823   5.324   0.596
 2723SOL     OW 9067   0.664   0.397   6.305
 2723SOL    HW1 9068   0.750   0.351   6.324
 2723SOL    HW2 9069   0.625   0.361   6.220
 2724SOL     OW 9070   1.947   6.880   0.046
 2724SOL    HW1 9071   1.942   6.980   0.050
 2724SOL    HW2 9072   1.908   6.848   6.981
 2725SOL     OW 9073   5.088   4.202   4.410
 2725SOL    HW1 9074   5.082   4.194   4.510
 2725SOL    HW2 9075   5.003   4.240   4.374
 2726SOL     OW 9076   0.612   2.495   0.732
 2726SOL    HW1 9077   0.550   2.570   0.755
 2726SOL    HW2 9078   0.573   2.409   0.764
 2727SOL     OW 9079   0.013   5.241   2.884
 2727SOL    HW1 9080   0.039   5.335   2.908
 2727SOL    HW2 9081   6.969   5.244   2.809
 2728SOL     OW 9082   4.797   6.652   5.958
 2728SOL    HW1 9083   4.740   6.620   5.881
 2728SOL    HW2 9084   4.869   6.712   5.923
 2729SOL     OW 9085   7.008   6.282   0.602
 2729SOL    HW1 9086   6.932   6.327   0.555
 2729SOL    HW2 9087   0.070   6.336   0.588
 2730SOL     OW 9088   1.914   5.837   1.342
 2730SOL    HW1 9089   1.840   5.854   1.407
 2730SOL    HW2 9090   1.957   5.749   1.363
 2731SOL     OW 9091   3.554   4.177   3.064
 2731SOL    HW1 9092   3.616   4.210   2.992
 2731SOL    HW2 9093   3.588   4.207   3.153
 2732SOL     OW 9094   5.317   2.625   1.551
 2732SOL    HW1 9095   5.264   2.710   1.546
 2732SOL    HW2 9096   5.261   2.553   1.592
 2733SOL     OW 9097   6.594   1.558   4.547
 2733SOL    HW1 9098   6.617   1.558   4.450
 2733SOL    HW2 9099   6.629   1.641   4.590
 2734SOL     OW 9100   3.090   5.813   1.085
 2734SOL    HW1 9101   3.044   5.851   1.006
 2734SOL    HW2 9102   3.023   5.768   1.144
 2735SOL     OW 9103   1.262   3.699   1.658
 2735SOL    HW1 9104   1.298   3.734   1.745
 2735SOL    HW2 9105   1.336   3.656   1.606
 2736SOL     OW 9106   5.988   6.702   4.670
 2736SOL    HW1 9107   6.084   6.723   4.688
 2736SOL    HW2 9108   5.965   6.613   4.710
 2737SOL     OW 9109   3.260   3.430   5.962
 2737SOL    HW1 9110   3.230   3.508   6.018
 2737SOL    HW2 9111   3.184   3.397   5.906
 2738SOL     OW 9112   5.112   6.457   1.694
 2738SOL    HW1 9113   5.082   6.407   1.775
 2738SOL    HW2 9114   5.074   6.549   1.696
 2739SOL     OW 9115   0.771   4.417   1.487
 2739SOL    HW1 9116   0.732   4.434   1.578
 2739SOL    HW2 9117   0.836   4.340   1.493
 2740SOL     OW 9118   0.221   3.892   2.534
 2740SOL    HW1 9119   0.237   3.990   2.547
 2740SOL    HW2 9120   0.277   3.860   2.457
 2741SOL     OW 9121   6.167   0.642   4.878
 2741SOL    HW1 9122   6.144   0.668   4.784
 2741SOL    HW2 9123   6.087   0.601   4.922
 2742SOL     OW 9124   2.184   5.266   0.336
 2742SOL    HW1 9125   2.124   5.233   0.263
 2742SOL    HW2 9126   2.220   5.356   0.311
 2743SOL     OW 9127   6.343   4.728   2.533
 2743SOL    HW1 9128   6.306   4.669   2.462
 2743SOL    HW2 9129   6.274   4.795   2.560
 2744SOL     OW 9130   4.820   2.126   6.712
 2744SOL    HW1 9131   4.882   2.104   6.636
 2744SOL    HW2 9132   4.802   2.224   6.712
 2745SOL     OW 9133   6.895   0.445   5.571
 2745SOL    HW1 9134   6.907   0.462   5.669
 2745SOL    HW2 9135   6.974   0.393   5.537
 2746SOL     OW 9136   2.736   1.408   4.160
 2746SOL    HW1 9137   2.638   1.419   4.140
 2746SOL    HW2 9138   2.748   1.333   4.224
 2747SOL     OW 9139   5.834   3.643   6.526
 2747SOL    HW1 9140   5.814   3.637   6.624
 2747SOL    HW2 9141   5.912   3.584   6.505
 2748SOL     OW 9142   4.865   1.533   1.698
 2748SOL    HW1 9143   4.965   1.529   1.696
 2748SOL    HW2 9144   4.832   1.567   1.610
 2749SOL     OW 9145   0.211   4.597   2.182
 2749SOL    HW1 9146   0.257   4.528   2.238
 2749SOL    HW2 9147   0.208   4.684   2.231
 2750SOL     OW 9148   0.528   5.131   1.410
 2750SOL    HW1 9149   0.534   5.176   1.499
 2750SOL    HW2 9150   0.479   5.044   1.420
 2751SOL     OW 9151   0.914   4.895   1.330
 2751SOL    HW1 9152   0.914   4.805   1.372
 2751SOL    HW2 9153   0.876   4.962   1.393
 2752SOL     OW 9154   3.914   5.501   5.517
 2752SOL    HW1 9155   3.888   5.550   5.434
 2752SOL    HW2 9156   3.860   5.535   5.595
 2753SOL     OW 9157   0.521   6.450   5.669
 2753SOL    HW1 9158   0.576   6.371   5.640
 2753SOL    HW2 9159   0.501   6.508   5.590
 2754SOL     OW 9160   0.378   0.289   2.204
 2754SOL    HW1 9161   0.299   0.336   2.164
 2754SOL    HW2 9162   0.450   0.356   2.223
 2755SOL     OW 9163   2.369   6.877   2.861
 2755SOL    HW1 9164   2.314   6.896   2.780
 2755SOL    HW2 9165   2.361   6.780   2.884
 2756SOL     OW 9166   5.864   4.714   6.461
 2756SOL    HW1 9167   5.860   4.640   6.529
 2756SOL    HW2 9168   5.836   4.800   6.504
 2757SOL     OW 9169   3.051   0.297   6.920
 2757SOL    HW1 9170   3.012   0.291   7.012
 2757SOL    HW2 9171   2.986   0.343   6.859
 2758SOL     OW 9172   4.012   6.226   3.905
 2758SOL    HW1 9173   4.092   6.280   3.930
 2758SOL    HW2 9174   3.945   6.284   3.860
 2759SOL     OW 9175   5.946   6.560   5.337
 2759SOL    HW1 9176   5.901   6.471   5.323
 2759SOL    HW2 9177   5.979   6.594   5.249
 2760SOL     OW 9178   0.960   5.781   2.130
 2760SOL    HW1 9179   0.955   5.715   2.206
 2760SOL    HW2 9180   0.918   5.742   2.049
 2761SOL     OW 9181   1.957   5.197   5.366
 2761SOL    HW1 9182   1.970   5.110   5.320
 2761SOL    HW2 9183   1.995   5.271   5.309
 2762SOL     OW 9184   1.443   0.816   4.794
 2762SOL    HW1 9185   1.427   0.793   4.890
 2762SOL    HW2 9186   1.441   0.916   4.783
 2763SOL     OW 9187   4.604   2.074   3.607
 2763SOL    HW1 9188   4.648   2.146   3.553
 2763SOL    HW2 9189   4.571   2.113   3.693
 2764SOL     OW 9190   5.894   0.780   1.410
 2764SOL    HW1 9191   5.964   0.781   1.481
 2764SOL    HW2 9192   5.812   0.734   1.444
 2765SOL     OW 9193   6.211   0.091   0.560
 2765SOL    HW1 9194   6.216   0.169   0.622
 2765SOL    HW2 9195   6.129   0.038   0.579
 2766SOL     OW 9196   4.883   2.999   0.920
 2766SOL    HW1 9197   4.843   2.912   0.891
 2766SOL    HW2 9198   4.981   2.988   0.934
 2767SOL     OW 9199   6.508   5.476   6.641
 2767SOL    HW1 9200   6.517   5.522   6.730
 2767SOL    HW2 9201   6.472   5.384   6.655
 2768SOL     OW 9202   4.378   0.490   1.089
 2768SOL    HW1 9203   4.430   0.559   1.038
 2768SOL    HW2 9204   4.426   0.403   1.084
 2769SOL     OW 9205   2.164   4.887   4.820
 2769SOL    HW1 9206   2.157   4.823   4.743
 2769SOL    HW2 9207   2.244   4.946   4.808
 2770SOL     OW 9208   4.006   5.966   6.293
 2770SOL    HW1 9209   3.956   6.024   6.229
 2770SOL    HW2 9210   3.952   5.953   6.376
 2771SOL     OW 9211   6.303   0.872   3.655
 2771SOL    HW1 9212   6.355   0.880   3.740
 2771SOL    HW2 9213   6.244   0.791   3.659
 2772SOL     OW 9214   3.787   1.865   1.064
 2772SOL    HW1 9215   3.698   1.842   1.023
 2772SOL    HW2 9216   3.781   1.953   1.110
 2773SOL     OW 9217   6.254   2.026   5.211
 2773SOL    HW1 9218   6.294   2.107   5.255
 2773SOL    HW2 9219   6.186   1.985   5.272
 2774SOL     OW 9220   5.830   2.679   2.802
 2774SOL    HW1 9221   5.870   2.712   2.888
 2774SOL    HW2 9222   5.761   2.744   2.770
 2775SOL     OW 9223   6.548   4.928   5.617
 2775SOL    HW1 9224   6.519   4.841   5.658
 2775SOL    HW2 9225   6.646   4.924   5.596
 2776SOL     OW 9226   4.503   4.844   5.774
 2776SOL    HW1 9227   4.452   4.766   5.737
 2776SOL    HW2 9228   4.588   4.855   5.723
 2777SOL     OW 9229   2.936   1.632   1.464
 2777SOL    HW1 9230   2.925   1.710   1.526
 2777SOL    HW2 9231   2.859   1.569   1.475
 2778SOL     OW 9232   1.808   0.166   5.463
 2778SOL    HW1 9233   1.801   0.218   5.548
 2778SOL    HW2 9234   1.898   0.122   5.458
 2779SOL     OW 9235   4.980   6.744   1.635
 2779SOL    HW1 9236   4.913   6.790   1.694
 2779SOL    HW2 9237   4.948   6.744   1.541
 2780SOL     OW 9238   0.094   6.756   0.001
 2780SOL    HW1 9239   0.138   6.706   6.947
 2780SOL    HW2 9240   0.059   6.691   0.068
 2781SOL     OW 9241   5.464   6.860   1.812
 2781SOL    HW1 9242   5.526   6.817   1.747
 2781SOL    HW2 9243   5.486   6.957   1.820
 2782SOL     OW 9244   5.069   2.186   5.957
 2782SOL    HW1 9245   5.021   2.195   6.044
 2782SOL    HW2 9246   5.073   2.276   5.912
 2783SOL     OW 9247   5.154   4.357   2.967
 2783SOL    HW1 9248   5.170   4.259   2.957
 2783SOL    HW2 9249   5.059   4.374   2.992
 2784SOL     OW 9250   3.195   1.450   2.331
 2784SOL    HW1 9251   3.230   1.357   2.341
 2784SOL    HW2 9252   3.221   1.504   2.411
 2785SOL     OW 9253   5.008   2.640   1.037
 2785SOL    HW1 9254   4.967   2.721   1.079
 2785SOL    HW2 9255   5.025   2.657   0.940
 2786SOL     OW 9256   4.955   7.018   2.517
 2786SOL    HW1 9257   4.989   0.046   2.437
 2786SOL    HW2 9258   4.873   6.967   2.492
 2787SOL     OW 9259   5.191   0.708   6.121
 2787SOL    HW1 9260   5.135   0.751   6.191
 2787SOL    HW2 9261   5.222   0.778   6.055
 2788SOL     OW 9262   2.060   5.314   5.969
 2788SOL    HW1 9263   2.118   5.383   6.012
 2788SOL    HW2 9264   2.007   5.356   5.896
 2789SOL     OW 9265   1.651   2.395   3.642
 2789SOL    HW1 9266   1.635   2.483   3.596
 2789SOL    HW2 9267   1.750   2.379   3.648
 2790SOL     OW 9268   3.563   5.993   2.435
 2790SOL    HW1 9269   3.617   5.938   2.372
 2790SOL    HW2 9270   3.544   6.082   2.394
 2791SOL     OW 9271   0.033   2.989   2.973
 2791SOL    HW1 9272   0.030   2.901   3.020
 2791SOL    HW2 9273   0.123   3.030   2.985
 2792SOL     OW 9274   1.612   6.739   4.006
 2792SOL    HW1 9275   1.680   6.794   3.958
 2792SOL    HW2 9276   1.641   6.643   4.008
 2793SOL     OW 9277   5.911   4.150   1.473
 2793SOL    HW1 9278   5.880   4.056   1.485
 2793SOL    HW2 9279   5.952   4.184   1.558
 2794SOL     OW 9280   0.148   2.611   6.580
 2794SOL    HW1 9281   0.189   2.688   6.627
 2794SOL    HW2 9282   0.081   2.644   6.513
 2795SOL     OW 9283   0.782   2.723   0.607
 2795SOL    HW1 9284   0.723   2.665   0.662
 2795SOL    HW2 9285   0.810   2.803   0.661
 2796SOL     OW 9286   0.165   6.259   3.478
 2796SOL    HW1 9287   0.154   6.262   3.577
 2796SOL    HW2 9288   0.213   6.342   3.447
 2797SOL     OW 9289   4.746   5.202   5.319
 2797SOL    HW1 9290   4.797   5.137   5.261
 2797SOL    HW2 9291   4.661   5.227   5.273
 2798SOL     OW 9292   0.565   5.266   2.135
 2798SOL    HW1 9293   0.583   5.218   2.221
 2798SOL    HW2 9294   0.487   5.327   2.148
 2799SOL     OW 9295   5.935   5.530   6.279
 2799SOL    HW1 9296   5.882   5.614   6.274
 2799SOL    HW2 9297   5.930   5.492   6.372
 2800SOL     OW 9298   4.704   6.529   7.015
 2800SOL    HW1 9299   4.757   6.449   0.020
 2800SOL    HW2 9300   4.682   6.524   6.918
 2801SOL     OW 9301   6.852   6.054   5.733
 2801SOL    HW1 9302   6.912   6.065   5.654
 2801SOL    HW2 9303   6.873   5.967   5.779
 2802SOL     OW 9304   5.254   0.178   5.125
 2802SOL    HW1 9305   5.245   0.266   5.172
 2802SOL    HW2 9306   5.265   0.105   5.193
 2803SOL     OW 9307   4.239   5.892   6.160
 2803SOL    HW1 9308   4.300   5.815   6.177
 2803SOL    HW2 9309   4.156   5.882   6.214
 2804SOL     OW 9310   0.282   4.397   5.488
 2804SOL    HW1 9311   0.340   4.452   5.429
 2804SOL    HW2 9312   0.332   4.374   5.571
 2805SOL     OW 9313   5.959   3.428   2.236
 2805SOL    HW1 9314   6.002   3.517   2.223
 2805SOL    HW2 9315   6.019   3.369   2.290
 2806SOL     OW 9316   0.295   4.045   5.978
 2806SOL    HW1 9317   0.384   4.077   5.945
 2806SOL    HW2 9318   0.225   4.112   5.958
 2807SOL     OW 9319   3.698   6.493   3.929
 2807SOL    HW1 9320   3.736   6.582   3.957
 2807SOL    HW2 9321   3.763   6.447   3.868
 2808SOL     OW 9322   6.507   4.786   2.119
 2808SOL    HW1 9323   6.467   4.864   2.168
 2808SOL    HW2 9324   6.460   4.702   2.147
 2809SOL     OW 9325   5.669   2.825   1.200
 2809SOL    HW1 9326   5.726   2.783   1.130
 2809SOL    HW2 9327   5.573   2.814   1.175
 2810SOL     OW 9328   2.964   5.580   3.657
 2810SOL    HW1 9329   3.041   5.621   3.609
 2810SOL    HW2 9330   2.992   5.494   3.700
 2811SOL     OW 9331   1.040   1.938   3.559
 2811SOL    HW1 9332   1.052   1.969   3.654
 2811SOL    HW2 9333   1.090   2.001   3.498
 2812SOL     OW 9334   5.410   2.608   6.980
 2812SOL    HW1 9335   5.495   2.653   6.952
 2812SOL    HW2 9336   5.414   2.511   6.958
 2813SOL     OW 9337   0.453   0.314   6.482
 2813SOL    HW1 9338   0.542   0.353   6.458
 2813SOL    HW2 9339   0.456   0.277   6.575
 2814SOL     OW 9340   3.757   3.710   5.215
 2814SOL    HW1 9341   3.712   3.758   5.140
 2814SOL    HW2 9342   3.848   3.748   5.230
 2815SOL     OW 9343   6.518   6.591   6.339
 2815SOL    HW1 9344   6.545   6.542   6.256
 2815SOL    HW2 9345   6.550   6.542   6.419
 2816SOL     OW 9346   6.306   4.922   3.723
 2816SOL    HW1 9347   6.276   4.977   3.800
 2816SOL    HW2 9348   6.382   4.968   3.676
 2817SOL     OW 9349   3.318   0.074   1.843
 2817SOL    HW1 9350   3.266   0.136   1.901
 2817SOL    HW2 9351   3.257   0.031   1.776
 2818SOL     OW 9352   0.441   0.481   1.882
 2818SOL    HW1 9353   0.429   0.560   1.822
 2818SOL    HW2 9354   0.416   0.506   1.976
 2819SOL     OW 9355   1.423   0.690   1.903
 2819SOL    HW1 9356   1.513   0.656   1.929
 2819SOL    HW2 9357   1.416   0.692   1.803
 2820SOL     OW 9358   0.670   2.413   3.019
 2820SOL    HW1 9359   0.695   2.504   3.052
 2820SOL    HW2 9360   0.649   2.418   2.921
 2821SOL     OW 9361   3.877   4.213   6.190
 2821SOL    HW1 9362   3.894   4.116   6.205
 2821SOL    HW2 9363   3.918   4.266   6.265
 2822SOL     OW 9364   4.080   2.479   0.933
 2822SOL    HW1 9365   4.096   2.576   0.948
 2822SOL    HW2 9366   4.026   2.467   0.850
 2823SOL     OW 9367   4.469   0.699   0.952
 2823SOL    HW1 9368   4.466   0.707   0.852
 2823SOL    HW2 9369   4.496   0.787   0.991
 2824SOL     OW 9370   1.803   1.680   3.475
 2824SOL    HW1 9371   1.817   1.705   3.571
 2824SOL    HW2 9372   1.810   1.581   3.466
 2825SOL     OW 9373   5.445   6.732   6.778
 2825SOL    HW1 9374   5.375   6.803   6.785
 2825SOL    HW2 9375   5.405   6.650   6.735
 2826SOL     OW 9376   4.940   1.283   0.075
 2826SOL    HW1 9377   4.873   1.269   0.002
 2826SOL    HW2 9378   4.892   1.306   0.160
 2827SOL     OW 9379   1.066   1.715   6.451
 2827SOL    HW1 9380   1.091   1.659   6.372
 2827SOL    HW2 9381   1.005   1.662   6.511
 2828SOL     OW 9382   2.428   1.680   0.618
 2828SOL    HW1 9383   2.467   1.639   0.701
 2828SOL    HW2 9384   2.489   1.751   0.584
 2829SOL     OW 9385   2.868   3.450   4.523
 2829SOL    HW1 9386   2.782   3.437   4.572
 2829SOL    HW2 9387   2.886   3.548   4.513
 2830SOL     OW 9388   2.298   3.537   6.039
 2830SOL    HW1 9389   2.391   3.516   6.007
 2830SOL    HW2 9390   2.271   3.627   6.006
 2831SOL     OW 9391   0.726   4.686   3.770
 2831SOL    HW1 9392   0.630   4.662   3.756
 2831SOL    HW2 9393   0.753   4.758   3.705
 2832SOL     OW 9394   1.243   3.541   2.076
 2832SOL    HW1 9395   1.297   3.471   2.121
 2832SOL    HW2 9396   1.177   3.499   2.014
 2833SOL     OW 9397   2.795   2.039   2.423
 2833SOL    HW1 9398   2.799   2.084   2.512
 2833SOL    HW2 9399   2.835   2.098   2.354
 2834SOL     OW 9400   4.454   6.069   5.927
 2834SOL    HW1 9401   4.367   6.075   5.976
 2834SOL    HW2 9402   4.436   6.051   5.830
 2835SOL     OW 9403   0.689   6.155   1.639
 2835SOL    HW1 9404   0.592   6.175   1.653
 2835SOL    HW2 9405   0.721   6.201   1.556
 2836SOL     OW 9406   0.240   6.360   2.538
 2836SOL    HW1 9407   0.324   6.312   2.513
 2836SOL    HW2 9408   0.263   6.447   2.583
 2837SOL     OW 9409   4.613   4.905   2.375
 2837SOL    HW1 9410   4.544   4.834   2.387
 2837SOL    HW2 9411   4.702   4.864   2.358
 2838SOL     OW 9412   3.889   3.598   0.448
 2838SOL    HW1 9413   3.924   3.606   0.542
 2838SOL    HW2 9414   3.949   3.648   0.386
 2839SOL     OW 9415   6.668   2.246   3.177
 2839SOL    HW1 9416   6.698   2.178   3.244
 2839SOL    HW2 9417   6.584   2.289   3.209
 2840SOL     OW 9418   1.431   0.458   2.807
 2840SOL    HW1 9419   1.480   0.452   2.894
 2840SOL    HW2 9420   1.495   0.448   2.731
 2841SOL     OW 9421   6.940   1.455   6.271
 2841SOL    HW1 9422   7.001   1.377   6.281
 2841SOL    HW2 9423   6.874   1.437   6.197
 2842SOL     OW 9424   0.143   4.177   3.566
 2842SOL    HW1 9425   0.136   4.192   3.467
 2842SOL    HW2 9426   0.183   4.087   3.583
 2843SOL     OW 9427   2.078   2.133   2.958
 2843SOL    HW1 9428   2.014   2.192   3.008
 2843SOL    HW2 9429   2.170   2.145   2.996
 2844SOL     OW 9430   6.390   5.247   6.722
 2844SOL    HW1 9431   6.426   5.165   6.677
 2844SOL    HW2 9432   6.292   5.254   6.707
 2845SOL     OW 9433   5.672   3.375   1.876
 2845SOL    HW1 9434   5.605   3.379   1.950
 2845SOL    HW2 9435   5.761   3.347   1.913
 2846SOL     OW 9436   4.255   1.146   0.358
 2846SOL    HW1 9437   4.208   1.216   0.303
 2846SOL    HW2 9438   4.345   1.128   0.319
 2847SOL     OW 9439   5.296   4.124   3.401
 2847SOL    HW1 9440   5.209   4.171   3.414
 2847SOL    HW2 9441   5.371   4.189   3.409
 2848SOL     OW 9442   1.791   3.227   5.447
 2848SOL    HW1 9443   1.784   3.157   5.517
 2848SOL    HW2 9444   1.857   3.199   5.377
 2849SOL     OW 9445   4.521   0.236   0.515
 2849SOL    HW1 9446   4.471   0.149   0.521
 2849SOL    HW2 9447   4.485   0.290   0.440
 2850SOL     OW 9448   1.987   6.679   2.829
 2850SOL    HW1 9449   2.052   6.603   2.824
 2850SOL    HW2 9450   2.007   6.745   2.756
 2851SOL     OW 9451   5.706   1.847   5.887
 2851SOL    HW1 9452   5.763   1.803   5.817
 2851SOL    HW2 9453   5.747   1.832   5.977
 2852SOL     OW 9454   6.452   3.695   6.810
 2852SOL    HW1 9455   6.394   3.669   6.734
 2852SOL    HW2 9456   6.477   3.614   6.862
 2853SOL     OW 9457   2.244   1.147   6.373
 2853SOL    HW1 9458   2.167   1.097   6.413
 2853SOL    HW2 9459   2.302   1.182   6.446
 2854SOL     OW 9460   4.780   0.607   5.014
 2854SOL    HW1 9461   4.683   0.610   5.039
 2854SOL    HW2 9462   4.829   0.676   5.067
 2855SOL     OW 9463   2.029   2.071   6.063
 2855SOL    HW1 9464   2.072   2.110   6.145
 2855SOL    HW2 9465   1.992   2.144   6.007
 2856SOL     OW 9466   0.356   3.636   5.452
 2856SOL    HW1 9467   0.421   3.711   5.465
 2856SOL    HW2 9468   0.329   3.631   5.356
 2857SOL     OW 9469   2.168   3.101   1.914
 2857SOL    HW1 9470   2.184   3.002   1.921
 2857SOL    HW2 9471   2.157   3.139   2.006
 2858SOL     OW 9472   4.572   4.470   1.806
 2858SOL    HW1 9473   4.569   4.410   1.887
 2858SOL    HW2 9474   4.609   4.419   1.729
 2859SOL     OW 9475   5.432   0.744   6.631
 2859SOL    HW1 9476   5.358   0.806   6.659
 2859SOL    HW2 9477   5.492   0.727   6.709
 2860SOL     OW 9478   2.267   2.376   1.865
 2860SOL    HW1 9479   2.251   2.378   1.963
 2860SOL    HW2 9480   2.359   2.341   1.846
 2861SOL     OW 9481   3.540   5.199   5.643
 2861SOL    HW1 9482   3.575   5.213   5.550
 2861SOL    HW2 9483   3.488   5.114   5.647
 2862SOL     OW 9484   5.007   1.974   2.329
 2862SOL    HW1 9485   5.016   1.939   2.422
 2862SOL    HW2 9486   4.911   1.989   2.307
 2863SOL     OW 9487   4.288   1.577   0.031
 2863SOL    HW1 9488   4.378   1.534   0.024
 2863SOL    HW2 9489   4.275   1.641   6.977
 2864SOL     OW 9490   4.193   1.577   1.879
 2864SOL    HW1 9491   4.108   1.612   1.840
 2864SOL    HW2 9492   4.209   1.620   1.967
 2865SOL     OW 9493   3.933   6.447   5.780
 2865SOL    HW1 9494   3.856   6.415   5.835
 2865SOL    HW2 9495   3.898   6.503   5.705
 2866SOL     OW 9496   6.151   5.419   6.566
 2866SOL    HW1 9497   6.210   5.492   6.531
 2866SOL    HW2 9498   6.075   5.459   6.617
 2867SOL     OW 9499   6.789   6.183   3.443
 2867SOL    HW1 9500   6.697   6.154   3.417
 2867SOL    HW2 9501   6.844   6.102   3.465
 2868SOL     OW 9502   1.756   1.200   5.163
 2868SOL    HW1 9503   1.661   1.230   5.164
 2868SOL    HW2 9504   1.800   1.225   5.249
 2869SOL     OW 9505   6.993   0.956   3.346
 2869SOL    HW1 9506   6.927   0.899   3.395
 2869SOL    HW2 9507   6.959   1.050   3.341
 2870SOL     OW 9508   0.739   1.496   5.373
 2870SOL    HW1 9509   0.811   1.563   5.355
 2870SOL    HW2 9510   0.652   1.530   5.337
 2871SOL     OW 9511   6.981   1.429   6.551
 2871SOL    HW1 9512   6.935   1.461   6.468
 2871SOL    HW2 9513   6.931   1.352   6.590
 2872SOL     OW 9514   2.470   2.181   2.148
 2872SOL    HW1 9515   2.479   2.160   2.246
 2872SOL    HW2 9516   2.521   2.113   2.095
 2873SOL     OW 9517   6.883   5.414   3.201
 2873SOL    HW1 9518   6.918   5.330   3.242
 2873SOL    HW2 9519   6.900   5.491   3.263
 2874SOL     OW 9520   5.174   0.131   3.385
 2874SOL    HW1 9521   5.108   0.069   3.427
 2874SOL    HW2 9522   5.139   0.162   3.297
 2875SOL     OW 9523   5.193   0.462   1.293
 2875SOL    HW1 9524   5.157   0.453   1.200
 2875SOL    HW2 9525   5.193   0.372   1.337
 2876SOL     OW 9526   2.213   6.780   2.200
 2876SOL    HW1 9527   2.119   6.779   2.165
 2876SOL    HW2 9528   2.246   6.686   2.208
 2877SOL     OW 9529   2.349   1.824   5.615
 2877SOL    HW1 9530   2.405   1.756   5.567
 2877SOL    HW2 9531   2.383   1.915   5.595
 2878SOL     OW 9532   3.898   4.311   5.498
 2878SOL    HW1 9533   3.861   4.219   5.497
 2878SOL    HW2 9534   3.984   4.313   5.446
 2879SOL     OW 9535   5.046   5.133   0.197
 2879SOL    HW1 9536   4.967   5.143   0.136
 2879SOL    HW2 9537   5.041   5.045   0.243
 2880SOL     OW 9538   0.223   1.179   2.383
 2880SOL    HW1 9539   0.300   1.200   2.443
 2880SOL    HW2 9540   0.152   1.249   2.395
 2881SOL     OW 9541   4.239   5.528   6.638
 2881SOL    HW1 9542   4.224   5.626   6.634
 2881SOL    HW2 9543   4.152   5.480   6.644
 2882SOL     OW 9544   6.776   5.317   2.562
 2882SOL    HW1 9545   6.735   5.398   2.605
 2882SOL    HW2 9546   6.743   5.235   2.607
 2883SOL     OW 9547   6.001   0.086   3.306
 2883SOL    HW1 9548   5.972   0.178   3.281
 2883SOL    HW2 9549   6.090   0.066   3.264
 2884SOL     OW 9550   1.349   6.982   2.914
 2884SOL    HW1 9551   1.257   7.018   2.895
 2884SOL    HW2 9552   1.375   7.005   3.007
 2885SOL     OW 9553   1.512   3.810   3.742
 2885SOL    HW1 9554   1.547   3.836   3.653
 2885SOL    HW2 9555   1.572   3.741   3.784
 2886SOL     OW 9556   0.629   3.667   5.949
 2886SOL    HW1 9557   0.587   3.696   6.035
 2886SOL    HW2 9558   0.613   3.569   5.937
 2887SOL     OW 9559   0.669   0.964   5.515
 2887SOL    HW1 9560   0.752   0.939   5.465
 2887SOL    HW2 9561   0.692   1.029   5.587
 2888SOL     OW 9562   7.010   4.249   6.824
 2888SOL    HW1 9563   7.004   4.345   6.852
 2888SOL    HW2 9564   6.926   4.201   6.850
 2889SOL     OW 9565   3.176   6.487   2.421
 2889SOL    HW1 9566   3.132   6.537   2.347
 2889SOL    HW2 9567   3.167   6.388   2.405
 2890SOL     OW 9568   1.127   6.335   6.947
 2890SOL    HW1 9569   1.184   6.289   6.879
 2890SOL    HW2 9570   1.037   6.291   6.950
 2891SOL     OW 9571   1.211   4.761   3.524
 2891SOL    HW1 9572   1.224   4.831   3.594
 2891SOL    HW2 9573   1.281   4.770   3.453
 2892SOL     OW 9574   5.747   3.893   0.378
 2892SOL    HW1 9575   5.745   3.794   0.390
 2892SOL    HW2 9576   5.734   3.938   0.467
 2893SOL     OW 9577   6.846   5.282   4.083
 2893SOL    HW1 9578   6.841   5.259   4.180
 2893SOL    HW2 9579   6.779   5.354   4.063
 2894SOL     OW 9580   0.662   3.677   1.988
 2894SOL    HW1 9581   0.602   3.611   1.944
 2894SOL    HW2 9582   0.758   3.654   1.970
 2895SOL     OW 9583   4.988   2.434   5.832
 2895SOL    HW1 9584   5.020   2.443   5.737
 2895SOL    HW2 9585   5.029   2.507   5.887
 2896SOL     OW 9586   4.543   5.786   5.244
 2896SOL    HW1 9587   4.619   5.788   5.309
 2896SOL    HW2 9588   4.461   5.750   5.289
 2897SOL     OW 9589   3.777   5.073   3.312
 2897SOL    HW1 9590   3.715   5.078   3.390
 2897SOL    HW2 9591   3.786   4.977   3.283
 2898SOL     OW 9592   4.272   4.741   4.545
 2898SOL    HW1 9593   4.218   4.825   4.549
 2898SOL    HW2 9594   4.309   4.721   4.635
 2899SOL     OW 9595   0.900   2.028   0.149
 2899SOL    HW1 9596   0.920   2.100   0.215
 2899SOL    HW2 9597   0.921   2.061   0.056
 2900SOL     OW 9598   2.006   3.515   6.021
 2900SOL    HW1 9599   2.020   3.547   5.928
 2900SOL    HW2 9600   2.092   3.516   6.071
 2901SOL     OW 9601   2.751   5.119   3.154
 2901SOL    HW1 9602   2.843   5.116   3.114
 2901SOL    HW2 9603   2.741   5.205   3.205
 2902SOL     OW 9604   5.620   5.798   3.121
 2902SOL    HW1 9605   5.627   5.850   3.035
 2902SOL    HW2 9606   5.531   5.817   3.163
 2903SOL     OW 9607   3.253   0.147   0.684
 2903SOL    HW1 9608   3.175   0.108   0.635
 2903SOL    HW2 9609   3.220   0.211   0.753
 2904SOL     OW 9610   2.236   4.817   4.376
 2904SOL    HW1 9611   2.155   4.823   4.318
 2904SOL    HW2 9612   2.302   4.887   4.348
 2905SOL     OW 9613   1.377   2.174   4.635
 2905SOL    HW1 9614   1.314   2.118   4.582
 2905SOL    HW2 9615   1.379   2.142   4.730
 2906SOL     OW 9616   4.714   5.221   1.959
 2906SOL    HW1 9617   4.782   5.211   2.032
 2906SOL    HW2 9618   4.632   5.167   1.982
 2907SOL     OW 9619   0.978   0.981   3.290
 2907SOL    HW1 9620   0.916   0.994   3.212
 2907SOL    HW2 9621   0.925   0.949   3.369
 2908SOL     OW 9622   5.597   6.649   3.622
 2908SOL    HW1 9623   5.639   6.559   3.632
 2908SOL    HW2 9624   5.653   6.718   3.669
 2909SOL     OW 9625   1.487   5.696   3.841
 2909SOL    HW1 9626   1.573   5.659   3.874
 2909SOL    HW2 9627   1.414   5.629   3.856
 2910SOL     OW 9628   4.540   0.873   4.319
 2910SOL    HW1 9629   4.484   0.790   4.319
 2910SOL    HW2 9630   4.613   0.864   4.386
 2911SOL     OW 9631   0.919   5.669   3.534
 2911SOL    HW1 9632   0.830   5.638   3.501
 2911SOL    HW2 9633   0.986   5.596   3.524
 2912SOL     OW 9634   5.523   0.404   6.480
 2912SOL    HW1 9635   5.523   0.322   6.424
 2912SOL    HW2 9636   5.495   0.381   6.574
 2913SOL     OW 9637   2.998   5.105   1.913
 2913SOL    HW1 9638   2.982   5.026   1.973
 2913SOL    HW2 9639   3.094   5.108   1.886
 2914SOL     OW 9640   6.679   6.255   6.310
 2914SOL    HW1 9641   6.696   6.339   6.362
 2914SOL    HW2 9642   6.713   6.267   6.217
 2915SOL     OW 9643   4.295   1.901   3.697
 2915SOL    HW1 9644   4.294   1.814   3.648
 2915SOL    HW2 9645   4.381   1.910   3.747
 2916SOL     OW 9646   0.626   6.130   0.927
 2916SOL    HW1 9647   0.534   6.104   0.899
 2916SOL    HW2 9648   0.657   6.069   1.001
 2917SOL     OW 9649   2.483   0.890   3.344
 2917SOL    HW1 9650   2.482   0.932   3.253
 2917SOL    HW2 9651   2.390   0.867   3.372
 2918SOL     OW 9652   5.905   4.883   4.930
 2918SOL    HW1 9653   5.826   4.831   4.897
 2918SOL    HW2 9654   5.978   4.820   4.956
 2919SOL     OW 9655   5.548   0.871   2.585
 2919SOL    HW1 9656   5.634   0.921   2.597
 2919SOL    HW2 9657   5.540   0.840   2.490
 2920SOL     OW 9658   2.930   1.460   1.727
 2920SOL    HW1 9659   2.965   1.367   1.741
 2920SOL    HW2 9660   2.877   1.463   1.642
 2921SOL     OW 9661   0.993   0.018   4.747
 2921SOL    HW1 9662   0.906   7.013   4.705
 2921SOL    HW2 9663   1.019   6.972   4.817
 2922SOL     OW 9664   4.892   0.681   1.152
 2922SOL    HW1 9665   4.847   0.665   1.064
 2922SOL    HW2 9666   4.968   0.744   1.140
 2923SOL     OW 9667   6.163   4.937   2.603
 2923SOL    HW1 9668   6.212   4.965   2.685
 2923SOL    HW2 9669   6.088   5.001   2.585
 2924SOL     OW 9670   6.984   2.251   6.153
 2924SOL    HW1 9671   7.005   2.237   6.056
 2924SOL    HW2 9672   6.989   2.348   6.174
 2925SOL     OW 9673   4.806   1.033   2.271
 2925SOL    HW1 9674   4.805   0.974   2.190
 2925SOL    HW2 9675   4.893   1.083   2.274
 2926SOL     OW 9676   6.550   1.860   4.361
 2926SOL    HW1 9677   6.616   1.785   4.356
 2926SOL    HW2 9678   6.465   1.832   4.316
 2927SOL     OW 9679   1.495   4.150   1.108
 2927SOL    HW1 9680   1.483   4.245   1.139
 2927SOL    HW2 9681   1.593   4.133   1.094
 2928SOL     OW 9682   6.978   0.914   6.794
 2928SOL    HW1 9683   6.989   0.892   6.697
 2928SOL    HW2 9684   6.992   0.832   6.848
 2929SOL     OW 9685   0.917   2.494   6.982
 2929SOL    HW1 9686   0.969   2.555   0.019
 2929SOL    HW2 9687   0.888   2.542   6.900
 2930SOL     OW 9688   4.850   0.336   5.028
 2930SOL    HW1 9689   4.787   0.405   4.991
 2930SOL    HW2 9690   4.937   0.340   4.979
 2931SOL     OW 9691   5.356   4.560   7.004
 2931SOL    HW1 9692   5.350   4.633   0.051
 2931SOL    HW2 9693   5.451   4.532   6.993
 2932SOL     OW 9694   1.111   5.456   1.939
 2932SOL    HW1 9695   1.206   5.486   1.927
 2932SOL    HW2 9696   1.055   5.490   1.864
 2933SOL     OW 9697   0.266   5.391   3.171
 2933SOL    HW1 9698   0.199   5.445   3.120
 2933SOL    HW2 9699   0.306   5.322   3.111
 2934SOL     OW 9700   4.584   1.869   0.459
 2934SOL    HW1 9701   4.628   1.792   0.505
 2934SOL    HW2 9702   4.649   1.912   0.396
 2935SOL     OW 9703   6.791   2.945   6.942
 2935SOL    HW1 9704   6.852   2.932   7.020
 2935SOL    HW2 9705   6.844   2.971   6.862
 2936SOL     OW 9706   4.384   6.749   0.449
 2936SOL    HW1 9707   4.481   6.733   0.429
 2936SOL    HW2 9708   4.349   6.677   0.509
 2937SOL     OW 9709   4.898   4.677   1.073
 2937SOL    HW1 9710   4.987   4.723   1.078
 2937SOL    HW2 9711   4.893   4.607   1.144
 2938SOL     OW 9712   4.483   5.056   6.284
 2938SOL    HW1 9713   4.426   4.974   6.271
 2938SOL    HW2 9714   4.568   5.030   6.331
 2939SOL     OW 9715   1.980   0.583   2.633
 2939SOL    HW1 9716   2.008   0.502   2.685
 2939SOL    HW2 9717   1.880   0.584   2.626
 2940SOL     OW 9718   5.751   5.079   5.860
 2940SOL    HW1 9719   5.787   5.164   5.820
 2940SOL    HW2 9720   5.694   5.101   5.939
 2941SOL     OW 9721   1.966   1.942   4.408
 2941SOL    HW1 9722   2.043   1.992   4.367
 2941SOL    HW2 9723   1.885   2.001   4.411
 2942SOL     OW 9724   2.752   2.267   0.456
 2942SOL    HW1 9725   2.820   2.335   0.428
 2942SOL    HW2 9726   2.750   2.261   0.556
 2943SOL     OW 9727   4.650   4.428   3.516
 2943SOL    HW1 9728   4.612   4.412   3.425
 2943SOL    HW2 9729   4.580   4.470   3.574
 2944SOL     OW 9730   2.825   6.290   4.497
 2944SOL    HW1 9731   2.925   6.289   4.499
 2944SOL    HW2 9732   2.791   6.263   4.587
 2945SOL     OW 9733   3.028   3.822   3.606
 2945SOL    HW1 9734   3.079   3.904   3.579
 2945SOL    HW2 9735   3.080   3.741   3.578
 2946SOL     OW 9736   0.918   4.716   5.955
 2946SOL    HW1 9737   0.951   4.632   5.999
 2946SOL    HW2 9738   0.996   4.770   5.924
 2947SOL     OW 9739   0.604   3.627   0.784
 2947SOL    HW1 9740   0.513   3.668   0.780
 2947SOL    HW2 9741   0.596   3.533   0.817
 2948SOL     OW 9742   1.081   4.088   5.321
 2948SOL    HW1 9743   0.999   4.139   5.346
 2948SOL    HW2 9744   1.124   4.051   5.403
 2949SOL     OW 9745   2.472   5.950   0.779
 2949SOL    HW1 9746   2.392   5.890   0.776
 2949SOL    HW2 9747   2.494   5.982   0.687
 2950SOL     OW 9748   5.077   4.568   4.252
 2950SOL    HW1 9749   5.115   4.585   4.343
 2950SOL    HW2 9750   5.029   4.480   4.252
 2951SOL     OW 9751   5.661   1.419   0.930
 2951SOL    HW1 9752   5.614   1.499   0.893
 2951SOL    HW2 9753   5.738   1.395   0.871
 2952SOL     OW 9754   6.996   4.267   4.924
 2952SOL    HW1 9755   0.004   4.172   4.912
 2952SOL    HW2 9756   6.993   4.288   5.022
 2953SOL     OW 9757   4.960   3.273   2.299
 2953SOL    HW1 9758   4.931   3.280   2.203
 2953SOL    HW2 9759   4.985   3.179   2.320
 2954SOL     OW 9760   0.968   5.559   1.755
 2954SOL    HW1 9761   0.950   5.593   1.663
 2954SOL    HW2 9762   0.903   5.600   1.819
 2955SOL     OW 9763   0.872   3.728   2.344
 2955SOL    HW1 9764   0.789   3.738   2.289
 2955SOL    HW2 9765   0.952   3.730   2.285
 2956SOL     OW 9766   5.107   5.828   3.154
 2956SOL    HW1 9767   5.041   5.903   3.148
 2956SOL    HW2 9768   5.063   5.746   3.190
 2957SOL     OW 9769   6.050   3.519   2.492
 2957SOL    HW1 9770   6.067   3.567   2.578
 2957SOL    HW2 9771   5.955   3.533   2.464
 2958SOL     OW 9772   2.746   4.650   4.133
 2958SOL    HW1 9773   2.731   4.553   4.111
 2958SOL    HW2 9774   2.706   4.669   4.223
 2959SOL     OW 9775   4.853   3.831   0.129
 2959SOL    HW1 9776   4.951   3.834   0.152
 2959SOL    HW2 9777   4.822   3.922   0.103
 2960SOL     OW 9778   3.357   1.223   0.135
 2960SOL    HW1 9779   3.269   1.264   0.158
 2960SOL    HW2 9780   3.370   1.139   0.188
 2961SOL     OW 9781   5.242   3.369   2.809
 2961SOL    HW1 9782   5.174   3.442   2.819
 2961SOL    HW2 9783   5.310   3.396   2.741
 2962SOL     OW 9784   4.989   0.060   3.034
 2962SOL    HW1 9785   4.952   0.021   2.950
 2962SOL    HW2 9786   4.966   0.001   3.111
 2963SOL     OW 9787   2.214   1.350   6.047
 2963SOL    HW1 9788   2.166   1.374   5.963
 2963SOL    HW2 9789   2.163   1.279   6.095
 2964SOL     OW 9790   0.604   0.474   3.681
 2964SOL    HW1 9791   0.527   0.536   3.689
 2964SOL    HW2 9792   0.688   0.520   3.710
 2965SOL     OW 9793   0.007   1.465   4.436
 2965SOL    HW1 9794   6.990   1.537   4.379
 2965SOL    HW2 9795   6.969   1.448   4.514
 2966SOL     OW 9796   4.878   5.942   3.468
 2966SOL    HW1 9797   4.876   5.914   3.564
 2966SOL    HW2 9798   4.796   5.909   3.421
 2967SOL     OW 9799   6.915   0.805   4.774
 2967SOL    HW1 9800   6.974   0.725   4.765
 2967SOL    HW2 9801   6.845   0.804   4.702
 2968SOL     OW 9802   0.988   2.880   6.574
 2968SOL    HW1 9803   1.045   2.881   6.656
 2968SOL    HW2 9804   1.026   2.942   6.506
 2969SOL     OW 9805   5.198   1.631   4.195
 2969SOL    HW1 9806   5.150   1.553   4.236
 2969SOL    HW2 9807   5.201   1.621   4.096
 2970SOL     OW 9808   1.704   4.035   6.044
 2970SOL    HW1 9809   1.691   4.127   6.006
 2970SOL    HW2 9810   1.630   4.014   6.107
 2971SOL     OW 9811   4.875   4.380   0.770
 2971SOL    HW1 9812   4.866   4.477   0.748
 2971SOL    HW2 9813   4.971   4.358   0.790
 2972SOL     OW 9814   6.333   4.640   6.422
 2972SOL    HW1 9815   6.396   4.657   6.345
 2972SOL    HW2 9816   6.244   4.680   6.402
 2973SOL     OW 9817   5.491   6.342   2.471
 2973SOL    HW1 9818   5.509   6.279   2.547
 2973SOL    HW2 9819   5.567   6.336   2.405
 2974SOL     OW 9820   0.946   4.653   3.504
 2974SOL    HW1 9821   1.043   4.670   3.523
 2974SOL    HW2 9822   0.893   4.734   3.528
 2975SOL     OW 9823   5.485   3.365   4.146
 2975SOL    HW1 9824   5.573   3.366   4.193
 2975SOL    HW2 9825   5.427   3.293   4.184
 2976SOL     OW 9826   4.431   1.760   3.034
 2976SOL    HW1 9827   4.360   1.831   3.030
 2976SOL    HW2 9828   4.388   1.671   3.047
 2977SOL     OW 9829   2.783   6.501   2.460
 2977SOL    HW1 9830   2.775   6.415   2.510
 2977SOL    HW2 9831   2.799   6.482   2.363
 2978SOL     OW 9832   5.196   4.250   0.396
 2978SOL    HW1 9833   5.184   4.223   0.491
 2978SOL    HW2 9834   5.181   4.349   0.388
 2979SOL     OW 9835   3.686   0.834   4.173
 2979SOL    HW1 9836   3.664   0.826   4.075
 2979SOL    HW2 9837   3.715   0.744   4.207
 2980SOL     OW 9838   1.604   5.910   4.874
 2980SOL    HW1 9839   1.619   5.922   4.972
 2980SOL    HW2 9840   1.515   5.866   4.859
 2981SOL     OW 9841   2.709   1.267   5.733
 2981SOL    HW1 9842   2.741   1.362   5.731
 2981SOL    HW2 9843   2.658   1.251   5.818
 2982SOL     OW 9844   3.353   4.942   2.990
 2982SOL    HW1 9845   3.357   4.943   2.890
 2982SOL    HW2 9846   3.445   4.927   3.027
 2983SOL     OW 9847   0.296   1.341   2.756
 2983SOL    HW1 9848   0.298   1.416   2.690
 2983SOL    HW2 9849   0.378   1.343   2.812
 2984SOL     OW 9850   5.181   5.163   1.038
 2984SOL    HW1 9851   5.120   5.219   0.983
 2984SOL    HW2 9852   5.274   5.169   1.001
 2985SOL     OW 9853   1.734   3.015   5.632
 2985SOL    HW1 9854   1.695   3.014   5.725
 2985SOL    HW2 9855   1.820   2.965   5.631
 2986SOL     OW 9856   3.573   4.187   3.628
 2986SOL    HW1 9857   3.659   4.142   3.653
 2986SOL    HW2 9858   3.529   4.223   3.711
 2987SOL     OW 9859   0.228   1.673   4.395
 2987SOL    HW1 9860   0.167   1.748   4.369
 2987SOL    HW2 9861   0.175   1.601   4.440
 2988SOL     OW 9862   1.339   5.571   2.656
 2988SOL    HW1 9863   1.413   5.585   2.721
 2988SOL    HW2 9864   1.370   5.596   2.564
 2989SOL     OW 9865   6.007   6.032   5.936
 2989SOL    HW1 9866   6.015   6.003   5.840
 2989SOL    HW2 9867   6.094   6.072   5.965
 2990SOL     OW 9868   3.494   1.742   4.785
 2990SOL    HW1 9869   3.461   1.822   4.836
 2990SOL    HW2 9870   3.535   1.677   4.849
 2991SOL     OW 9871   6.694   3.976   5.007
 2991SOL    HW1 9872   6.703   3.882   5.040
 2991SOL    HW2 9873   6.601   3.990   4.972
 2992SOL     OW 9874   2.523   6.228   4.738
 2992SOL    HW1 9875   2.605   6.277   4.709
 2992SOL    HW2 9876   2.444   6.261   4.687
 2993SOL     OW 9877   0.371   4.770   1.629
 2993SOL    HW1 9878   0.354   4.865   1.655
 2993SOL    HW2 9879   0.336   4.709   1.700
 2994SOL     OW 9880   4.219   6.016   0.132
 2994SOL    HW1 9881   4.185   6.110   0.134
 2994SOL    HW2 9882   4.143   5.953   0.150
 2995SOL     OW 9883   3.044   2.094   5.713
 2995SOL    HW1 9884   3.001   2.171   5.760
 2995SOL    HW2 9885   2.978   2.020   5.703
 2996SOL     OW 9886   1.467   1.515   3.665
 2996SOL    HW1 9887   1.510   1.482   3.581
 2996SOL    HW2 9888   1.377   1.473   3.676
 2997SOL     OW 9889   6.265   0.089   3.117
 2997SOL    HW1 9890   6.336   0.026   3.086
 2997SOL    HW2 9891   6.222   0.133   3.039
 2998SOL     OW 9892   4.346   6.895   3.771
 2998SOL    HW1 9893   4.325   6.942   3.857
 2998SOL    HW2 9894   4.371   6.800   3.790
 2999SOL     OW 9895   2.440   5.131   4.983
 2999SOL    HW1 9896   2.438   5.168   5.076
 2999SOL    HW2 9897   2.486   5.042   4.983
 3000SOL     OW 9898   3.048   3.758   6.293
 3000SOL    HW1 9899   3.009   3.843   6.259
 3000SOL    HW2 9900   3.065   3.766   6.391
 3001SOL     OW 9901   6.108   0.439   6.149
 3001SOL    HW1 9902   6.125   0.503   6.224
 3001SOL    HW2 9903   6.120   0.345   6.182
 3002SOL     OW 9904   3.241   1.481   6.859
 3002SOL    HW1 9905   3.268   1.465   6.764
 3002SOL    HW2 9906   3.296   1.555   6.897
 3003SOL     OW 9907   1.677   6.757   0.341
 3003SOL    HW1 9908   1.771   6.747   0.375
 3003SOL    HW2 9909   1.628   6.671   0.353
 3004SOL     OW 9910   0.844   4.422   3.335
 3004SOL    HW1 9911   0.874   4.499   3.392
 3004SOL    HW2 9912   0.747   4.433   3.313
 3005SOL     OW 9913   2.290   2.046   0.706
 3005SOL    HW1 9914   2.294   2.141   0.677
 3005SOL    HW2 9915   2.208   2.031   0.761
 3006SOL     OW 9916   5.452   1.661   5.282
 3006SOL    HW1 9917   5.405   1.584   5.240
 3006SOL    HW2 9918   5.492   1.633   5.369
 3007SOL     OW 9919   5.403   4.346   1.070
 3007SOL    HW1 9920   5.415   4.306   1.161
 3007SOL    HW2 9921   5.401   4.445   1.077
 3008SOL     OW 9922   3.583   2.323   5.966
 3008SOL    HW1 9923   3.676   2.288   5.971
 3008SOL    HW2 9924   3.551   2.347   6.058
 3009SOL     OW 9925   0.151   1.525   2.946
 3009SOL    HW1 9926   0.196   1.479   2.869
 3009SOL    HW2 9927   0.172   1.476   3.031
 3010SOL     OW 9928   3.696   5.861   3.360
 3010SOL    HW1 9929   3.674   5.907   3.275
 3010SOL    HW2 9930   3.611   5.834   3.406
 3011SOL     OW 9931   5.589   1.075   2.335
 3011SOL    HW1 9932   5.620   1.017   2.260
 3011SOL    HW2 9933   5.555   1.162   2.298
 3012SOL     OW 9934   1.880   3.695   6.288
 3012SOL    HW1 9935   1.942   3.635   6.339
 3012SOL    HW2 9936   1.787   3.660   6.294
 3013SOL     OW 9937   5.825   5.738   4.087
 3013SOL    HW1 9938   5.744   5.785   4.122
 3013SOL    HW2 9939   5.797   5.669   4.020
 3014SOL     OW 9940   4.428   2.199   4.672
 3014SOL    HW1 9941   4.458   2.268   4.738
 3014SOL    HW2 9942   4.477   2.114   4.687
 3015SOL     OW 9943   3.105   1.903   0.390
 3015SOL    HW1 9944   3.129   1.897   0.487
 3015SOL    HW2 9945   3.018   1.856   0.375
 3016SOL     OW 9946   2.016   6.554   3.969
 3016SOL    HW1 9947   2.034   6.503   4.053
 3016SOL    HW2 9948   1.923   6.536   3.938
 3017SOL     OW 9949   6.598   4.818   2.402
 3017SOL    HW1 9950   6.633   4.754   2.334
 3017SOL    HW2 9951   6.519   4.777   2.448
 3018SOL     OW 9952   3.093   6.651   5.818
 3018SOL    HW1 9953   3.055   6.739   5.789
 3018SOL    HW2 9954   3.179   6.666   5.867
 3019SOL     OW 9955   1.063   6.898   0.274
 3019SOL    HW1 9956   1.094   6.989   0.302
 3019SOL    HW2 9957   1.140   6.834   0.276
 3020SOL     OW 9958   3.841   2.802   1.665
 3020SOL    HW1 9959   3.767   2.739   1.689
 3020SOL    HW2 9960   3.929   2.757   1.677
 3021SOL     OW 9961   2.971   0.146   6.137
 3021SOL    HW1 9962   2.876   0.125   6.157
 3021SOL    HW2 9963   2.993   0.238   6.170
 3022SOL     OW 9964   3.359   5.325   4.529
 3022SOL    HW1 9965   3.445   5.325   4.478
 3022SOL    HW2 9966   3.379   5.320   4.627
 3023SOL     OW 9967   3.622   6.684   2.942
 3023SOL    HW1 9968   3.641   6.586   2.947
 3023SOL    HW2 9969   3.647   6.719   2.852
 3024SOL     OW 9970   4.839   6.971   4.806
 3024SOL    HW1 9971   4.800   7.014   4.887
 3024SOL    HW2 9972   4.880   0.020   4.748
 3025SOL     OW 9973   3.048   0.028   0.493
 3025SOL    HW1 9974   3.042   7.018   0.398
 3025SOL    HW2 9975   3.023   0.124   0.498
 3026SOL     OW 9976   1.339   0.588   6.823
 3026SOL    HW1 9977   1.364   0.594   6.726
 3026SOL    HW2 9978   1.416   0.620   6.879
 3027SOL     OW 9979   4.070   0.575   3.074
 3027SOL    HW1 9980   4.153   0.554   3.023
 3027SOL    HW2 9981   4.036   0.665   3.046
 3028SOL     OW 9982   0.858   3.751   6.055
 3028SOL    HW1 9983   0.933   3.686   6.068
 3028SOL    HW2 9984   0.785   3.708   6.002
 3029SOL     OW 9985   0.030   2.822   5.187
 3029SOL    HW1 9986   6.957   2.826   5.154
 3029SOL    HW2 9987   0.030   2.813   5.287
 3030SOL     OW 9988   6.958   3.451   0.311
 3030SOL    HW1 9989   7.012   3.394   0.373
 3030SOL    HW2 9990   6.908   3.393   0.247
 3031SOL     OW 9991   0.415   3.926   0.459
 3031SOL    HW1 9992   0.488   3.857   0.461
 3031SOL    HW2 9993   0.330   3.884   0.428
 3032SOL     OW 9994   3.156   6.837   0.631
 3032SOL    HW1 9995   3.185   6.762   0.572
 3032SOL    HW2 9996   3.130   6.916   0.575
 3033SOL     OW 9997   6.181   1.926   1.309
 3033SOL    HW1 9998   6.111   1.956   1.244
 3033SOL    HW2 9999   6.201   1.999   1.374
 3034SOL     OW10000   1.951   5.706   2.727
 3034SOL    HW110001   1.912   5.787   2.772
 3034SOL    HW210002   1.891   5.627   2.742
 3035SOL     OW10003   0.148   2.969   6.561
 3035SOL    HW110004   0.095   2.949   6.478
 3035SOL    HW210005   0.190   3.059   6.552
 3036SOL     OW10006   2.117   1.474   6.405
 3036SOL    HW110007   2.095   1.570   6.424
 3036SOL    HW210008   2.181   1.470   6.329
 3037SOL     OW10009   6.180   5.826   5.325
 3037SOL    HW110010   6.206   5.898   5.261
 3037SOL    HW210011   6.242   5.827   5.404
 3038SOL     OW10012   5.461   6.173   5.824
 3038SOL    HW110013   5.468   6.133   5.916
 3038SOL    HW210014   5.416   6.263   5.831
 3039SOL     OW10015   6.669   3.116   0.349
 3039SOL    HW110016   6.690   3.045   0.417
 3039SOL    HW210017   6.584   3.093   0.302
 3040SOL     OW10018   3.996   3.840   5.941
 3040SOL    HW110019   3.994   3.806   5.847
 3040SOL    HW210020   4.088   3.873   5.962
 3041SOL     OW10021   1.792   3.009   4.343
 3041SOL    HW110022   1.816   3.101   4.314
 3041SOL    HW210023   1.737   2.965   4.273
 3042SOL     OW10024   5.158   6.009   1.905
 3042SOL    HW110025   5.221   6.077   1.866
 3042SOL    HW210026   5.185   5.990   2.000
 3043SOL     OW10027   2.237   4.591   1.758
 3043SOL    HW110028   2.237   4.604   1.658
 3043SOL    HW210029   2.299   4.517   1.782
 3044SOL     OW10030   3.812   4.625   5.693
 3044SOL    HW110031   3.753   4.597   5.768
 3044SOL    HW210032   3.765   4.609   5.606
 3045SOL     OW10033   4.515   0.494   3.130
 3045SOL    HW110034   4.524   0.530   3.223
 3045SOL    HW210035   4.570   0.410   3.122
 3046SOL     OW10036   1.921   0.573   6.130
 3046SOL    HW110037   1.855   0.643   6.158
 3046SOL    HW210038   1.921   0.498   6.197
 3047SOL     OW10039   6.158   0.313   2.010
 3047SOL    HW110040   6.119   0.225   1.984
 3047SOL    HW210041   6.085   0.377   2.032
 3048SOL     OW10042   3.929   2.376   1.739
 3048SOL    HW110043   3.835   2.386   1.772
 3048SOL    HW210044   3.976   2.306   1.792
 3049SOL     OW10045   2.271   6.598   2.657
 3049SOL    HW110046   2.294   6.510   2.614
 3049SOL    HW210047   2.307   6.600   2.750
 3050SOL     OW10048   3.000   1.073   2.042
 3050SOL    HW110049   3.026   1.156   2.092
 3050SOL    HW210050   2.951   1.098   1.959
 3051SOL     OW10051   1.973   4.738   7.014
 3051SOL    HW110052   1.893   4.756   0.051
 3051SOL    HW210053   1.992   4.640   7.013
 3052SOL     OW10054   5.244   6.179   1.670
 3052SOL    HW110055   5.169   6.152   1.609
 3052SOL    HW210056   5.249   6.279   1.673
 3053SOL     OW10057   0.088   2.188   0.078
 3053SOL    HW110058   0.005   2.233   0.111
 3053SOL    HW210059   0.127   2.133   0.152
 3054SOL     OW10060   6.760   1.939   0.777
 3054SOL    HW110061   6.702   1.934   0.859
 3054SOL    HW210062   6.757   1.851   0.729
 3055SOL     OW10063   5.124   0.582   4.747
 3055SOL    HW110064   5.146   0.657   4.810
 3055SOL    HW210065   5.205   0.561   4.692
 3056SOL     OW10066   6.529   0.144   5.117
 3056SOL    HW110067   6.565   0.111   5.029
 3056SOL    HW210068   6.473   0.073   5.158
 3057SOL     OW10069   4.457   6.330   2.685
 3057SOL    HW110070   4.523   6.257   2.666
 3057SOL    HW210071   4.379   6.291   2.734
 3058SOL     OW10072   6.874   4.586   1.630
 3058SOL    HW110073   6.811   4.516   1.596
 3058SOL    HW210074   6.946   4.602   1.562
 3059SOL     OW10075   2.678   2.161   4.329
 3059SOL    HW110076   2.717   2.071   4.346
 3059SOL    HW210077   2.701   2.222   4.405
 3060SOL     OW10078   1.055   5.242   0.162
 3060SOL    HW110079   1.119   5.165   0.162
 3060SOL    HW210080   1.093   5.317   0.107
 3061SOL     OW10081   0.094   6.791   5.013
 3061SOL    HW110082   0.051   6.701   5.011
 3061SOL    HW210083   0.080   6.835   4.924
 3062SOL     OW10084   2.289   0.482   0.784
 3062SOL    HW110085   2.284   0.454   0.880
 3062SOL    HW210086   2.198   0.504   0.750
 3063SOL     OW10087   2.523   4.910   1.901
 3063SOL    HW110088   2.581   4.842   1.856
 3063SOL    HW210089   2.447   4.933   1.840
 3064SOL     OW10090   5.430   4.186   2.194
 3064SOL    HW110091   5.472   4.195   2.284
 3064SOL    HW210092   5.454   4.098   2.154
 3065SOL     OW10093   1.864   1.390   0.415
 3065SOL    HW110094   1.910   1.457   0.357
 3065SOL    HW210095   1.865   1.300   0.371
 3066SOL     OW10096   4.715   5.524   1.052
 3066SOL    HW110097   4.679   5.614   1.075
 3066SOL    HW210098   4.752   5.527   0.959
 3067SOL     OW10099   3.252   1.847   5.222
 3067SOL    HW110100   3.252   1.798   5.309
 3067SOL    HW210101   3.240   1.945   5.239
 3068SOL     OW10102   6.407   0.234   0.779
 3068SOL    HW110103   6.464   0.265   0.855
 3068SOL    HW210104   6.461   0.234   0.695
 3069SOL     OW10105   0.105   6.071   1.856
 3069SOL    HW110106   0.049   6.068   1.774
 3069SOL    HW210107   0.119   5.979   1.891
 3070SOL     OW10108   2.667   1.260   0.107
 3070SOL    HW110109   2.735   1.210   0.054
 3070SOL    HW210110   2.712   1.312   0.179
 3071SOL     OW10111   6.215   5.661   3.560
 3071SOL    HW110112   6.260   5.573   3.544
 3071SOL    HW210113   6.284   5.733   3.569
 3072SOL     OW10114   2.423   5.817   6.837
 3072SOL    HW110115   2.430   5.743   6.905
 3072SOL    HW210116   2.381   5.782   6.754
 3073SOL     OW10117   5.870   2.959   4.286
 3073SOL    HW110118   5.865   3.041   4.229
 3073SOL    HW210119   5.945   2.901   4.253
 3074SOL     OW10120   5.375   3.929   0.421
 3074SOL    HW110121   5.286   3.907   0.381
 3074SOL    HW210122   5.405   3.853   0.478
 3075SOL     OW10123   3.013   6.030   1.680
 3075SOL    HW110124   2.956   6.014   1.761
 3075SOL    HW210125   3.109   6.022   1.704
 3076SOL     OW10126   6.556   0.386   4.240
 3076SOL    HW110127   6.637   0.360   4.187
 3076SOL    HW210128   6.585   0.428   4.327
 3077SOL     OW10129   5.474   5.423   1.509
 3077SOL    HW110130   5.375   5.426   1.523
 3077SOL    HW210131   5.520   5.437   1.597
 3078SOL     OW10132   6.867   2.743   2.524
 3078SOL    HW110133   6.895   2.828   2.569
 3078SOL    HW210134   6.948   2.694   2.492
 3079SOL     OW10135   2.559   2.505   3.031
 3079SOL    HW110136   2.476   2.459   3.062
 3079SOL    HW210137   2.538   2.599   3.005
 3080SOL     OW10138   4.834   4.734   2.334
 3080SOL    HW110139   4.819   4.666   2.405
 3080SOL    HW210140   4.914   4.790   2.358
 3081SOL     OW10141   0.798   3.010   5.173
 3081SOL    HW110142   0.742   2.931   5.196
 3081SOL    HW210143   0.895   2.986   5.180
 3082SOL     OW10144   2.618   6.405   4.119
 3082SOL    HW110145   2.688   6.477   4.122
 3082SOL    HW210146   2.655   6.325   4.072
 3083SOL     OW10147   3.056   6.040   4.180
 3083SOL    HW110148   2.970   6.084   4.208
 3083SOL    HW210149   3.053   5.943   4.205
 3084SOL     OW10150   6.712   3.834   4.599
 3084SOL    HW110151   6.757   3.890   4.668
 3084SOL    HW210152   6.626   3.877   4.571
 3085SOL     OW10153   5.985   4.530   0.233
 3085SOL    HW110154   6.023   4.621   0.218
 3085SOL    HW210155   5.934   4.529   0.319
 3086SOL     OW10156   4.758   1.676   1.054
 3086SOL    HW110157   4.693   1.608   1.088
 3086SOL    HW210158   4.708   1.748   1.006
 3087SOL     OW10159   0.990   5.215   3.625
 3087SOL    HW110160   0.946   5.296   3.663
 3087SOL    HW210161   1.008   5.149   3.698
 3088SOL     OW10162   1.871   4.870   4.648
 3088SOL    HW110163   1.906   4.881   4.555
 3088SOL    HW210164   1.880   4.957   4.697
 3089SOL     OW10165   1.906   3.289   6.145
 3089SOL    HW110166   1.922   3.371   6.091
 3089SOL    HW210167   1.862   3.219   6.089
 3090SOL     OW10168   2.485   2.312   1.650
 3090SOL    HW110169   2.461   2.226   1.606
 3090SOL    HW210170   2.584   2.317   1.662
 3091SOL     OW10171   1.389   0.059   1.585
 3091SOL    HW110172   1.479   0.055   1.629
 3091SOL    HW210173   1.319   0.026   1.648
 3092SOL     OW10174   4.747   1.179   0.648
 3092SOL    HW110175   4.725   1.121   0.726
 3092SOL    HW210176   4.845   1.200   0.649
 3093SOL     OW10177   5.343   6.712   6.264
 3093SOL    HW110178   5.266   6.683   6.319
 3093SOL    HW210179   5.342   6.663   6.176
 3094SOL     OW10180   2.011   0.096   4.219
 3094SOL    HW110181   2.007   0.122   4.122
 3094SOL    HW210182   1.986   0.174   4.276
 3095SOL     OW10183   2.739   5.227   5.489
 3095SOL    HW110184   2.681   5.155   5.452
 3095SOL    HW210185   2.833   5.214   5.459
 3096SOL     OW10186   1.408   5.807   5.530
 3096SOL    HW110187   1.472   5.868   5.482
 3096SOL    HW210188   1.459   5.750   5.595
 3097SOL     OW10189   5.753   2.442   0.310
 3097SOL    HW110190   5.661   2.476   0.330
 3097SOL    HW210191   5.816   2.520   0.302
 3098SOL     OW10192   2.098   2.847   1.665
 3098SOL    HW110193   2.170   2.781   1.644
 3098SOL    HW210194   2.009   2.808   1.643
 3099SOL     OW10195   1.364   0.059   3.626
 3099SOL    HW110196   1.410   0.037   3.712
 3099SOL    HW210197   1.392   7.015   3.556
 3100SOL     OW10198   6.835   5.578   3.781
 3100SOL    HW110199   6.915   5.597   3.725
 3100SOL    HW210200   6.754   5.619   3.739
 3101SOL     OW10201   5.654   6.558   6.813
 3101SOL    HW110202   5.643   6.529   6.909
 3101SOL    HW210203   5.597   6.638   6.796
 3102SOL     OW10204   6.461   5.029   2.269
 3102SOL    HW110205   6.540   4.993   2.318
 3102SOL    HW210206   6.486   5.114   2.221
 3103SOL     OW10207   4.303   0.909   2.279
 3103SOL    HW110208   4.277   0.914   2.183
 3103SOL    HW210209   4.220   0.901   2.335
 3104SOL     OW10210   5.212   0.805   4.935
 3104SOL    HW110211   5.158   0.889   4.938
 3104SOL    HW210212   5.282   0.812   4.864
 3105SOL     OW10213   6.011   4.597   1.223
 3105SOL    HW110214   6.045   4.583   1.130
 3105SOL    HW210215   5.957   4.519   1.252
 3106SOL     OW10216   5.487   1.093   3.255
 3106SOL    HW110217   5.565   1.042   3.220
 3106SOL    HW210218   5.516   1.184   3.282
 3107SOL     OW10219   4.515   1.652   4.957
 3107SOL    HW110220   4.610   1.641   4.927
 3107SOL    HW210221   4.454   1.603   4.895
 3108SOL     OW10222   1.817   6.431   4.359
 3108SOL    HW110223   1.787   6.408   4.452
 3108SOL    HW210224   1.915   6.411   4.350
 3109SOL     OW10225   5.826   6.163   3.385
 3109SOL    HW110226   5.883   6.088   3.421
 3109SOL    HW210227   5.753   6.125   3.329
 3110SOL     OW10228   1.279   2.770   2.256
 3110SOL    HW110229   1.222   2.695   2.288
 3110SOL    HW210230   1.229   2.857   2.265
 3111SOL     OW10231   6.695   5.021   3.124
 3111SOL    HW110232   6.638   4.991   3.201
 3111SOL    HW210233   6.791   4.999   3.143
 3112SOL     OW10234   4.390   2.800   6.959
 3112SOL    HW110235   4.370   2.732   6.889
 3112SOL    HW210236   4.342   2.885   6.938
 3113SOL     OW10237   2.642   5.580   3.837
 3113SOL    HW110238   2.646   5.577   3.737
 3113SOL    HW210239   2.712   5.644   3.871
 3114SOL     OW10240   4.443   1.872   1.226
 3114SOL    HW110241   4.427   1.933   1.303
 3114SOL    HW210242   4.358   1.824   1.203
 3115SOL     OW10243   3.552   4.274   6.482
 3115SOL    HW110244   3.594   4.184   6.464
 3115SOL    HW210245   3.596   4.343   6.424
 3116SOL     OW10246   0.250   3.216   7.010
 3116SOL    HW110247   0.280   3.128   6.971
 3116SOL    HW210248   0.322   3.251   0.049
 3117SOL     OW10249   4.307   3.346   5.243
 3117SOL    HW110250   4.377   3.347   5.171
 3117SOL    HW210251   4.219   3.318   5.204
 3118SOL     OW10252   1.054   5.472   2.552
 3118SOL    HW110253   1.149   5.441   2.554
 3118SOL    HW210254   1.051   5.571   2.534
 3119SOL     OW10255   2.329   3.748   6.555
 3119SOL    HW110256   2.388   3.828   6.545
 3119SOL    HW210257   2.277   3.734   6.470
 3120SOL     OW10258   3.732   0.398   4.895
 3120SOL    HW110259   3.633   0.390   4.910
 3120SOL    HW210260   3.755   0.358   4.807
 3121SOL     OW10261   0.399   0.649   3.668
 3121SOL    HW110262   0.400   0.726   3.604
 3121SOL    HW210263   0.308   0.639   3.708
 3122SOL     OW10264   4.497   6.145   6.258
 3122SOL    HW110265   4.498   6.052   6.222
 3122SOL    HW210266   4.407   6.186   6.243
 3123SOL     OW10267   2.388   1.471   3.268
 3123SOL    HW110268   2.422   1.550   3.217
 3123SOL    HW210269   2.408   1.483   3.365
 3124SOL     OW10270   4.419   0.056   4.475
 3124SOL    HW110271   4.371   0.141   4.453
 3124SOL    HW210272   4.366   0.004   4.542
 3125SOL     OW10273   0.226   2.657   5.093
 3125SOL    HW110274   0.223   2.573   5.147
 3125SOL    HW210275   0.169   2.727   5.137
 3126SOL     OW10276   5.547   4.515   5.339
 3126SOL    HW110277   5.475   4.476   5.396
 3126SOL    HW210278   5.558   4.612   5.361
 3127SOL     OW10279   1.201   3.544   5.590
 3127SOL    HW110280   1.172   3.612   5.657
 3127SOL    HW210281   1.247   3.589   5.513
 3128SOL     OW10282   2.609   0.418   6.234
 3128SOL    HW110283   2.574   0.511   6.226
 3128SOL    HW210284   2.559   0.369   6.306
 3129SOL     OW10285   6.297   3.583   6.632
 3129SOL    HW110286   6.200   3.588   6.653
 3129SOL    HW210287   6.322   3.489   6.609
 3130SOL     OW10288   1.799   4.402   1.066
 3130SOL    HW110289   1.768   4.433   0.976
 3130SOL    HW210290   1.885   4.351   1.056
 3131SOL     OW10291   0.464   3.120   1.579
 3131SOL    HW110292   0.529   3.089   1.509
 3131SOL    HW210293   0.492   3.086   1.668
 3132SOL     OW10294   3.791   5.661   6.384
 3132SOL    HW110295   3.767   5.725   6.456
 3132SOL    HW210296   3.857   5.704   6.322
 3133SOL     OW10297   3.338   1.528   3.803
 3133SOL    HW110298   3.407   1.482   3.746
 3133SOL    HW210299   3.290   1.596   3.748
 3134SOL     OW10300   4.544   3.964   1.696
 3134SOL    HW110301   4.517   4.036   1.760
 3134SOL    HW210302   4.561   4.004   1.606
 3135SOL     OW10303   4.582   0.943   4.937
 3135SOL    HW110304   4.591   1.042   4.931
 3135SOL    HW210305   4.625   0.910   5.021
 3136SOL     OW10306   5.274   0.811   1.650
 3136SOL    HW110307   5.345   0.832   1.583
 3136SOL    HW210308   5.193   0.776   1.602
 3137SOL     OW10309   6.551   0.596   1.985
 3137SOL    HW110310   6.553   0.507   1.939
 3137SOL    HW210311   6.572   0.668   1.919
 3138SOL     OW10312   6.125   4.565   3.826
 3138SOL    HW110313   6.101   4.636   3.760
 3138SOL    HW210314   6.206   4.593   3.879
 3139SOL     OW10315   5.045   6.419   0.884
 3139SOL    HW110316   4.999   6.498   0.843
 3139SOL    HW210317   5.134   6.407   0.842
 3140SOL     OW10318   6.311   6.961   0.168
 3140SOL    HW110319   6.373   6.883   0.160
 3140SOL    HW210320   6.276   6.966   0.261
 3141SOL     OW10321   0.675   6.754   6.557
 3141SOL    HW110322   0.603   6.817   6.586
 3141SOL    HW210323   0.670   6.740   6.458
 3142SOL     OW10324   3.772   6.732   2.104
 3142SOL    HW110325   3.863   6.690   2.109
 3142SOL    HW210326   3.777   6.825   2.142
 3143SOL     OW10327   6.614   2.043   6.774
 3143SOL    HW110328   6.668   2.111   6.725
 3143SOL    HW210329   6.668   1.959   6.784
 3144SOL     OW10330   3.794   4.209   1.451
 3144SOL    HW110331   3.862   4.156   1.502
 3144SOL    HW210332   3.748   4.149   1.385
 3145SOL     OW10333   2.055   6.094   0.938
 3145SOL    HW110334   2.093   6.008   0.972
 3145SOL    HW210335   2.124   6.142   0.884
 3146SOL     OW10336   1.755   0.677   3.786
 3146SOL    HW110337   1.740   0.599   3.726
 3146SOL    HW210338   1.700   0.755   3.754
 3147SOL     OW10339   3.241   5.833   1.351
 3147SOL    HW110340   3.245   5.828   1.252
 3147SOL    HW210341   3.334   5.834   1.388
 3148SOL     OW10342   6.229   5.868   4.523
 3148SOL    HW110343   6.225   5.947   4.462
 3148SOL    HW210344   6.314   5.818   4.506
 3149SOL     OW10345   2.475   1.188   5.544
 3149SOL    HW110346   2.477   1.113   5.611
 3149SOL    HW210347   2.548   1.254   5.565
 3150SOL     OW10348   5.881   5.272   4.146
 3150SOL    HW110349   5.880   5.179   4.111
 3150SOL    HW210350   5.917   5.334   4.076
 3151SOL     OW10351   6.171   1.644   5.321
 3151SOL    HW110352   6.241   1.657   5.391
 3151SOL    HW210353   6.133   1.552   5.329
 3152SOL     OW10354   1.055   5.538   0.519
 3152SOL    HW110355   1.131   5.544   0.584
 3152SOL    HW210356   1.090   5.508   0.430
 3153SOL     OW10357   5.669   4.650   1.008
 3153SOL    HW110358   5.724   4.569   0.987
 3153SOL    HW210359   5.593   4.623   1.067
 3154SOL     OW10360   6.569   1.550   6.460
 3154SOL    HW110361   6.563   1.584   6.366
 3154SOL    HW210362   6.479   1.557   6.504
 3155SOL     OW10363   6.256   4.462   0.291
 3155SOL    HW110364   6.159   4.474   0.269
 3155SOL    HW210365   6.281   4.523   0.366
 3156SOL     OW10366   3.336   2.873   3.657
 3156SOL    HW110367   3.412   2.925   3.618
 3156SOL    HW210368   3.347   2.868   3.756
 3157SOL     OW10369   2.555   2.114   4.870
 3157SOL    HW110370   2.546   2.035   4.810
 3157SOL    HW210371   2.496   2.188   4.838
 3158SOL     OW10372   4.375   1.103   3.688
 3158SOL    HW110373   4.279   1.130   3.697
 3158SOL    HW210374   4.385   1.042   3.610
 3159SOL     OW10375   6.031   1.718   6.796
 3159SOL    HW110376   5.941   1.760   6.813
 3159SOL    HW210377   6.103   1.780   6.827
 3160SOL     OW10378   0.182   6.284   5.610
 3160SOL    HW110379   0.227   6.294   5.521
 3160SOL    HW210380   0.244   6.238   5.673
 3161SOL     OW10381   1.957   2.493   3.467
 3161SOL    HW110382   1.951   2.574   3.408
 3161SOL    HW210383   1.911   2.416   3.424
 3162SOL     OW10384   1.498   6.548   2.352
 3162SOL    HW110385   1.471   6.453   2.337
 3162SOL    HW210386   1.573   6.551   2.417
 3163SOL     OW10387   4.692   2.469   6.265
 3163SOL    HW110388   4.661   2.394   6.207
 3163SOL    HW210389   4.708   2.436   6.358
 3164SOL     OW10390   4.277   4.896   1.141
 3164SOL    HW110391   4.308   4.888   1.046
 3164SOL    HW210392   4.264   4.992   1.165
 3165SOL     OW10393   0.110   6.156   1.317
 3165SOL    HW110394   0.114   6.250   1.352
 3165SOL    HW210395   0.032   6.108   1.357
 3166SOL     OW10396   4.233   1.790   4.556
 3166SOL    HW110397   4.236   1.888   4.538
 3166SOL    HW210398   4.326   1.755   4.565
 3167SOL     OW10399   6.310   4.543   0.705
 3167SOL    HW110400   6.326   4.549   0.804
 3167SOL    HW210401   6.249   4.466   0.686
 3168SOL     OW10402   4.394   2.014   6.574
 3168SOL    HW110403   4.411   1.951   6.651
 3168SOL    HW210404   4.462   1.998   6.503
 3169SOL     OW10405   2.144   3.472   4.404
 3169SOL    HW110406   2.089   3.543   4.449
 3169SOL    HW210407   2.142   3.389   4.459
 3170SOL     OW10408   4.152   0.290   1.554
 3170SOL    HW110409   4.197   0.324   1.471
 3170SOL    HW210410   4.070   0.238   1.529
 3171SOL     OW10411   0.328   0.497   1.334
 3171SOL    HW110412   0.358   0.431   1.402
 3171SOL    HW210413   0.408   0.540   1.292
 3172SOL     OW10414   6.497   5.029   0.327
 3172SOL    HW110415   6.522   4.933   0.341
 3172SOL    HW210416   6.539   5.063   0.244
 3173SOL     OW10417   2.950   2.057   0.713
 3173SOL    HW110418   2.915   2.147   0.687
 3173SOL    HW210419   2.898   1.986   0.666
 3174SOL     OW10420   2.987   2.030   7.011
 3174SOL    HW110421   2.970   2.059   0.083
 3174SOL    HW210422   2.921   2.073   6.949
 3175SOL     OW10423   6.799   0.735   0.813
 3175SOL    HW110424   6.829   0.686   0.895
 3175SOL    HW210425   6.735   0.807   0.839
 3176SOL     OW10426   1.530   4.792   4.906
 3176SOL    HW110427   1.499   4.887   4.909
 3176SOL    HW210428   1.629   4.789   4.920
 3177SOL     OW10429   4.867   3.716   4.159
 3177SOL    HW110430   4.957   3.682   4.131
 3177SOL    HW210431   4.845   3.677   4.249
 3178SOL     OW10432   6.233   2.107   0.466
 3178SOL    HW110433   6.184   2.157   0.395
 3178SOL    HW210434   6.211   2.148   0.555
 3179SOL     OW10435   1.114   3.388   1.882
 3179SOL    HW110436   1.054   3.308   1.890
 3179SOL    HW210437   1.187   3.369   1.817
 3180SOL     OW10438   4.561   1.205   0.066
 3180SOL    HW110439   4.506   1.285   0.042
 3180SOL    HW210440   4.646   1.235   0.109
 3181SOL     OW10441   6.763   1.339   2.750
 3181SOL    HW110442   6.837   1.407   2.755
 3181SOL    HW210443   6.773   1.274   2.825
 3182SOL     OW10444   3.294   0.524   5.530
 3182SOL    HW110445   3.345   0.602   5.566
 3182SOL    HW210446   3.217   0.558   5.474
 3183SOL     OW10447   4.023   4.101   1.571
 3183SOL    HW110448   4.082   4.030   1.610
 3183SOL    HW210449   4.061   4.191   1.592
 3184SOL     OW10450   0.723   2.607   2.479
 3184SOL    HW110451   0.681   2.522   2.447
 3184SOL    HW210452   0.666   2.646   2.552
 3185SOL     OW10453   5.907   5.737   0.303
 3185SOL    HW110454   5.866   5.657   0.260
 3185SOL    HW210455   5.902   5.727   0.402
 3186SOL     OW10456   3.749   1.587   1.818
 3186SOL    HW110457   3.708   1.613   1.905
 3186SOL    HW210458   3.720   1.494   1.794
 3187SOL     OW10459   4.573   4.197   6.981
 3187SOL    HW110460   4.670   4.212   6.964
 3187SOL    HW210461   4.532   4.283   7.012
 3188SOL     OW10462   2.525   0.513   4.727
 3188SOL    HW110463   2.459   0.518   4.803
 3188SOL    HW210464   2.524   0.421   4.688
 3189SOL     OW10465   1.362   1.435   1.807
 3189SOL    HW110466   1.436   1.449   1.873
 3189SOL    HW210467   1.366   1.507   1.737
 3190SOL     OW10468   6.757   6.364   0.538
 3190SOL    HW110469   6.718   6.400   0.623
 3190SOL    HW210470   6.722   6.415   0.460
 3191SOL     OW10471   5.222   6.895   1.018
 3191SOL    HW110472   5.144   6.955   1.000
 3191SOL    HW210473   5.254   6.857   0.932
 3192SOL     OW10474   0.261   2.588   1.678
 3192SOL    HW110475   0.187   2.644   1.716
 3192SOL    HW210476   0.238   2.561   1.585
 3193SOL     OW10477   4.011   1.397   6.645
 3193SOL    HW110478   3.952   1.364   6.571
 3193SOL    HW210479   4.002   1.497   6.652
 3194SOL     OW10480   1.230   2.954   6.402
 3194SOL    HW110481   1.225   3.040   6.452
 3194SOL    HW210482   1.225   2.972   6.304
 3195SOL     OW10483   2.573   2.339   3.435
 3195SOL    HW110484   2.636   2.350   3.358
 3195SOL    HW210485   2.501   2.274   3.410
 3196SOL     OW10486   0.745   1.488   6.000
 3196SOL    HW110487   0.792   1.407   5.963
 3196SOL    HW210488   0.672   1.515   5.937
 3197SOL     OW10489   2.433   6.280   3.083
 3197SOL    HW110490   2.469   6.346   3.017
 3197SOL    HW210491   2.484   6.287   3.169
 3198SOL     OW10492   5.760   2.358   5.496
 3198SOL    HW110493   5.806   2.423   5.435
 3198SOL    HW210494   5.802   2.268   5.484
 3199SOL     OW10495   4.895   3.089   2.524
 3199SOL    HW110496   4.866   3.184   2.528
 3199SOL    HW210497   4.985   3.079   2.567
 3200SOL     OW10498   6.902   2.854   2.044
 3200SOL    HW110499   6.854   2.805   1.971
 3200SOL    HW210500   6.841   2.864   2.123
 3201SOL     OW10501   5.151   4.685   4.495
 3201SOL    HW110502   5.131   4.707   4.590
 3201SOL    HW210503   5.215   4.751   4.457
 3202SOL     OW10504   0.294   4.590   1.826
 3202SOL    HW110505   0.346   4.515   1.868
 3202SOL    HW210506   0.268   4.655   1.897
 3203SOL     OW10507   6.492   2.331   6.733
 3203SOL    HW110508   6.571   2.325   6.672
 3203SOL    HW210509   6.523   2.338   6.828
 3204SOL     OW10510   4.975   6.263   1.849
 3204SOL    HW110511   5.014   6.184   1.897
 3204SOL    HW210512   4.974   6.245   1.751
 3205SOL     OW10513   6.934   3.395   6.352
 3205SOL    HW110514   6.834   3.399   6.358
 3205SOL    HW210515   6.970   3.361   6.439
 3206SOL     OW10516   0.620   6.634   5.875
 3206SOL    HW110517   0.562   6.617   5.795
 3206SOL    HW210518   0.563   6.659   5.953
 3207SOL     OW10519   1.162   0.653   5.603
 3207SOL    HW110520   1.118   0.702   5.678
 3207SOL    HW210521   1.133   0.558   5.603
 3208SOL     OW10522   5.358   6.810   5.551
 3208SOL    HW110523   5.324   6.855   5.468
 3208SOL    HW210524   5.341   6.869   5.629
 3209SOL     OW10525   3.869   5.360   2.885
 3209SOL    HW110526   3.849   5.327   2.977
 3209SOL    HW210527   3.874   5.460   2.885
 3210SOL     OW10528   0.739   4.321   1.158
 3210SOL    HW110529   0.746   4.385   1.080
 3210SOL    HW210530   0.732   4.374   1.243
 3211SOL     OW10531   1.615   3.813   0.675
 3211SOL    HW110532   1.697   3.757   0.688
 3211SOL    HW210533   1.641   3.907   0.655
 3212SOL     OW10534   2.781   0.826   0.796
 3212SOL    HW110535   2.806   0.745   0.742
 3212SOL    HW210536   2.864   0.869   0.831
 3213SOL     OW10537   0.521   6.101   2.118
 3213SOL    HW110538   0.434   6.148   2.111
 3213SOL    HW210539   0.596   6.168   2.111
 3214SOL     OW10540   4.860   5.572   0.826
 3214SOL    HW110541   4.895   5.643   0.887
 3214SOL    HW210542   4.937   5.518   0.791
 3215SOL     OW10543   0.280   2.988   0.894
 3215SOL    HW110544   0.265   2.898   0.935
 3215SOL    HW210545   0.260   3.059   0.962
 3216SOL     OW10546   5.682   5.144   1.103
 3216SOL    HW110547   5.719   5.054   1.129
 3216SOL    HW210548   5.629   5.181   1.179
 3217SOL     OW10549   0.012   6.185   2.926
 3217SOL    HW110550   0.048   6.250   2.992
 3217SOL    HW210551   0.023   6.222   2.833
 3218SOL     OW10552   4.176   0.342   3.915
 3218SOL    HW110553   4.183   0.277   3.839
 3218SOL    HW210554   4.263   0.346   3.964
 3219SOL     OW10555   6.988   1.808   3.318
 3219SOL    HW110556   0.056   1.843   3.291
 3219SOL    HW210557   6.991   1.779   3.414
 3220SOL     OW10558   6.365   6.236   5.598
 3220SOL    HW110559   6.435   6.180   5.642
 3220SOL    HW210560   6.406   6.288   5.523
 3221SOL     OW10561   3.466   0.098   1.480
 3221SOL    HW110562   3.413   0.152   1.545
 3221SOL    HW210563   3.408   0.026   1.442
 3222SOL     OW10564   4.467   1.350   2.681
 3222SOL    HW110565   4.390   1.400   2.719
 3222SOL    HW210566   4.552   1.401   2.697
 3223SOL     OW10567   2.159   5.326   6.630
 3223SOL    HW110568   2.106   5.250   6.592
 3223SOL    HW210569   2.150   5.406   6.570
 3224SOL     OW10570   4.506   3.902   0.364
 3224SOL    HW110571   4.488   3.960   0.285
 3224SOL    HW210572   4.467   3.943   0.446
 3225SOL     OW10573   4.768   3.317   6.158
 3225SOL    HW110574   4.715   3.270   6.087
 3225SOL    HW210575   4.744   3.279   6.248
 3226SOL     OW10576   2.134   1.549   4.349
 3226SOL    HW110577   2.218   1.602   4.357
 3226SOL    HW210578   2.056   1.605   4.376
 3227SOL     OW10579   3.627   1.632   0.364
 3227SOL    HW110580   3.665   1.549   0.406
 3227SOL    HW210581   3.584   1.609   0.277
 3228SOL     OW10582   5.910   4.167   2.856
 3228SOL    HW110583   5.854   4.103   2.804
 3228SOL    HW210584   5.928   4.248   2.800
 3229SOL     OW10585   3.806   0.755   5.491
 3229SOL    HW110586   3.829   0.848   5.463
 3229SOL    HW210587   3.831   0.691   5.418
 3230SOL     OW10588   1.566   2.967   4.170
 3230SOL    HW110589   1.590   3.064   4.162
 3230SOL    HW210590   1.533   2.949   4.262
 3231SOL     OW10591   2.373   1.085   1.624
 3231SOL    HW110592   2.279   1.063   1.597
 3231SOL    HW210593   2.391   1.182   1.607
 3232SOL     OW10594   4.298   5.221   5.163
 3232SOL    HW110595   4.353   5.232   5.080
 3232SOL    HW210596   4.353   5.243   5.243
 3233SOL     OW10597   0.752   2.738   1.777
 3233SOL    HW110598   0.845   2.725   1.742
 3233SOL    HW210599   0.745   2.699   1.869
 3234SOL     OW10600   0.584   1.784   6.908
 3234SOL    HW110601   0.634   1.752   6.828
 3234SOL    HW210602   0.498   1.824   6.879
 3235SOL     OW10603   5.053   0.902   1.237
 3235SOL    HW110604   5.146   0.865   1.238
 3235SOL    HW210605   5.042   0.962   1.158
 3236SOL     OW10606   1.202   3.684   0.538
 3236SOL    HW110607   1.156   3.646   0.618
 3236SOL    HW210608   1.135   3.697   0.465
 3237SOL     OW10609   5.129   1.212   4.044
 3237SOL    HW110610   5.071   1.143   4.088
 3237SOL    HW210611   5.076   1.259   3.974
 3238SOL     OW10612   0.074   4.877   0.706
 3238SOL    HW110613   0.113   4.968   0.720
 3238SOL    HW210614   6.997   4.881   0.719
 3239SOL     OW10615   6.496   1.532   1.330
 3239SOL    HW110616   6.484   1.558   1.426
 3239SOL    HW210617   6.490   1.614   1.273
 3240SOL     OW10618   1.628   6.744   5.895
 3240SOL    HW110619   1.653   6.760   5.991
 3240SOL    HW210620   1.662   6.655   5.867
 3241SOL     OW10621   4.457   1.452   5.438
 3241SOL    HW110622   4.516   1.424   5.513
 3241SOL    HW210623   4.371   1.488   5.474
 3242SOL     OW10624   3.374   4.442   0.589
 3242SOL    HW110625   3.342   4.355   0.550
 3242SOL    HW210626   3.459   4.426   0.639
 3243SOL     OW10627   5.204   4.739   0.810
 3243SOL    HW110628   5.270   4.776   0.875
 3243SOL    HW210629   5.205   4.639   0.815
 3244SOL     OW10630   5.023   6.018   0.005
 3244SOL    HW110631   5.072   5.947   6.977
 3244SOL    HW210632   4.943   5.978   0.050
 3245SOL     OW10633   4.867   2.905   5.006
 3245SOL    HW110634   4.917   2.857   4.935
 3245SOL    HW210635   4.791   2.849   5.038
 3246SOL     OW10636   5.040   0.548   2.831
 3246SOL    HW110637   5.073   0.635   2.867
 3246SOL    HW210638   4.984   0.566   2.749
 3247SOL     OW10639   5.740   4.883   2.862
 3247SOL    HW110640   5.711   4.887   2.958
 3247SOL    HW210641   5.684   4.945   2.807
 3248SOL     OW10642   6.784   3.792   1.596
 3248SOL    HW110643   6.735   3.790   1.509
 3248SOL    HW210644   6.722   3.823   1.669
 3249SOL     OW10645   3.591   3.900   4.479
 3249SOL    HW110646   3.673   3.918   4.425
 3249SOL    HW210647   3.541   3.823   4.438
 3250SOL     OW10648   6.001   6.812   1.954
 3250SOL    HW110649   6.030   6.763   2.036
 3250SOL    HW210650   6.004   6.750   1.875
 3251SOL     OW10651   3.487   0.850   2.171
 3251SOL    HW110652   3.438   0.767   2.144
 3251SOL    HW210653   3.489   0.857   2.270
 3252SOL     OW10654   2.415   1.977   2.630
 3252SOL    HW110655   2.368   1.889   2.635
 3252SOL    HW210656   2.484   1.981   2.703
 3253SOL     OW10657   5.667   3.357   2.235
 3253SOL    HW110658   5.760   3.342   2.200
 3253SOL    HW210659   5.603   3.297   2.187
 3254SOL     OW10660   5.135   5.167   5.513
 3254SOL    HW110661   5.074   5.246   5.522
 3254SOL    HW210662   5.207   5.188   5.448
 3255SOL     OW10663   5.363   5.853   1.457
 3255SOL    HW110664   5.345   5.907   1.539
 3255SOL    HW210665   5.421   5.906   1.394
 3256SOL     OW10666   4.616   0.772   0.306
 3256SOL    HW110667   4.673   0.800   0.384
 3256SOL    HW210668   4.530   0.735   0.341
 3257SOL     OW10669   1.324   1.817   1.157
 3257SOL    HW110670   1.349   1.725   1.127
 3257SOL    HW210671   1.266   1.860   1.088
 3258SOL     OW10672   3.882   4.861   2.072
 3258SOL    HW110673   3.932   4.783   2.110
 3258SOL    HW210674   3.790   4.832   2.047
 3259SOL     OW10675   4.674   5.279   3.648
 3259SOL    HW110676   4.674   5.200   3.709
 3259SOL    HW210677   4.730   5.259   3.567
 3260SOL     OW10678   1.545   1.843   0.776
 3260SOL    HW110679   1.603   1.818   0.855
 3260SOL    HW210680   1.575   1.792   0.696
 3261SOL     OW10681   4.973   6.715   0.384
 3261SOL    HW110682   5.012   6.623   0.393
 3261SOL    HW210683   4.940   6.728   0.290
 3262SOL     OW10684   3.519   2.110   2.825
 3262SOL    HW110685   3.609   2.080   2.858
 3262SOL    HW210686   3.522   2.118   2.725
 3263SOL     OW10687   3.007   1.171   3.662
 3263SOL    HW110688   3.103   1.198   3.667
 3263SOL    HW210689   2.971   1.193   3.572
 3264SOL     OW10690   1.146   4.331   0.993
 3264SOL    HW110691   1.203   4.268   0.940
 3264SOL    HW210692   1.205   4.393   1.044
 3265SOL     OW10693   4.895   1.413   6.002
 3265SOL    HW110694   4.837   1.494   6.002
 3265SOL    HW210695   4.929   1.396   5.909
 3266SOL     OW10696   0.898   3.001   0.115
 3266SOL    HW110697   0.863   2.907   0.111
 3266SOL    HW210698   0.981   3.003   0.170
 3267SOL     OW10699   3.516   1.248   6.922
 3267SOL    HW110700   3.476   1.222   7.010
 3267SOL    HW210701   3.593   1.188   6.901
 3268SOL     OW10702   1.532   4.802   0.328
 3268SOL    HW110703   1.498   4.726   0.384
 3268SOL    HW210704   1.457   4.867   0.311
 3269SOL     OW10705   4.390   4.554   2.052
 3269SOL    HW110706   4.479   4.591   2.081
 3269SOL    HW210707   4.395   4.454   2.052
 3270SOL     OW10708   0.732   4.509   4.396
 3270SOL    HW110709   0.649   4.523   4.452
 3270SOL    HW210710   0.788   4.438   4.439
 3271SOL     OW10711   5.524   3.598   2.441
 3271SOL    HW110712   5.498   3.693   2.423
 3271SOL    HW210713   5.505   3.542   2.360
 3272SOL     OW10714   3.021   4.400   6.738
 3272SOL    HW110715   3.042   4.317   6.789
 3272SOL    HW210716   2.988   4.375   6.647
 3273SOL     OW10717   0.813   6.378   1.766
 3273SOL    HW110718   0.859   6.447   1.710
 3273SOL    HW210719   0.796   6.296   1.712
 3274SOL     OW10720   4.221   1.176   1.785
 3274SOL    HW110721   4.151   1.246   1.795
 3274SOL    HW210722   4.300   1.214   1.737
 3275SOL     OW10723   0.345   0.842   6.462
 3275SOL    HW110724   0.356   0.941   6.478
 3275SOL    HW210725   0.301   0.801   6.542
 3276SOL     OW10726   3.411   6.067   0.330
 3276SOL    HW110727   3.346   6.119   0.386
 3276SOL    HW210728   3.361   6.000   0.275
 3277SOL     OW10729   4.866   0.053   0.499
 3277SOL    HW110730   4.947   0.043   0.441
 3277SOL    HW210731   4.853   0.149   0.523
 3278SOL     OW10732   0.203   1.308   5.902
 3278SOL    HW110733   0.269   1.287   5.974
 3278SOL    HW210734   0.247   1.301   5.813
 3279SOL     OW10735   5.913   1.227   0.535
 3279SOL    HW110736   6.011   1.208   0.531
 3279SOL    HW210737   5.871   1.200   0.448
 3280SOL     OW10738   3.796   4.980   4.993
 3280SOL    HW110739   3.732   4.979   5.070
 3280SOL    HW210740   3.749   4.951   4.910
 3281SOL     OW10741   2.155   5.205   1.469
 3281SOL    HW110742   2.067   5.208   1.423
 3281SOL    HW210743   2.190   5.298   1.480
 3282SOL     OW10744   1.133   5.487   4.874
 3282SOL    HW110745   1.121   5.422   4.949
 3282SOL    HW210746   1.145   5.579   4.911
 3283SOL     OW10747   4.146   1.183   0.738
 3283SOL    HW110748   4.108   1.239   0.812
 3283SOL    HW210749   4.076   1.167   0.669
 3284SOL     OW10750   6.004   5.908   6.830
 3284SOL    HW110751   5.943   5.940   6.757
 3284SOL    HW210752   6.096   5.898   6.795
 3285SOL     OW10753   4.750   2.653   3.845
 3285SOL    HW110754   4.793   2.726   3.898
 3285SOL    HW210755   4.712   2.585   3.908
 3286SOL     OW10756   4.008   3.730   2.517
 3286SOL    HW110757   4.075   3.796   2.552
 3286SOL    HW210758   4.051   3.675   2.445
 3287SOL     OW10759   1.604   6.887   6.639
 3287SOL    HW110760   1.524   6.829   6.654
 3287SOL    HW210761   1.580   6.961   6.576
 3288SOL     OW10762   0.623   5.476   6.621
 3288SOL    HW110763   0.656   5.382   6.622
 3288SOL    HW210764   0.603   5.505   6.714
 3289SOL     OW10765   2.778   6.792   5.321
 3289SOL    HW110766   2.739   6.875   5.281
 3289SOL    HW210767   2.704   6.728   5.342
 3290SOL     OW10768   0.450   6.927   1.991
 3290SOL    HW110769   0.537   6.956   2.031
 3290SOL    HW210770   0.375   6.970   2.040
 3291SOL     OW10771   1.231   6.063   0.367
 3291SOL    HW110772   1.264   6.122   0.441
 3291SOL    HW210773   1.139   6.032   0.389
 3292SOL     OW10774   0.738   0.914   0.819
 3292SOL    HW110775   0.817   0.969   0.847
 3292SOL    HW210776   0.765   0.817   0.817
 3293SOL     OW10777   0.470   3.769   3.224
 3293SOL    HW110778   0.466   3.816   3.136
 3293SOL    HW210779   0.561   3.780   3.264
 3294SOL     OW10780   0.409   1.338   6.108
 3294SOL    HW110781   0.494   1.288   6.121
 3294SOL    HW210782   0.334   1.288   6.153
 3295SOL     OW10783   1.505   3.317   1.527
 3295SOL    HW110784   1.559   3.383   1.578
 3295SOL    HW210785   1.566   3.261   1.470
 3296SOL     OW10786   2.054   6.103   2.074
 3296SOL    HW110787   2.134   6.154   2.041
 3296SOL    HW210788   2.037   6.126   2.170
 3297SOL     OW10789   2.808   0.582   4.540
 3297SOL    HW110790   2.890   0.639   4.544
 3297SOL    HW210791   2.832   0.488   4.565
 3298SOL     OW10792   5.589   1.453   4.426
 3298SOL    HW110793   5.664   1.504   4.384
 3298SOL    HW210794   5.520   1.432   4.356
 3299SOL     OW10795   2.354   6.099   4.186
 3299SOL    HW110796   2.395   6.028   4.127
 3299SOL    HW210797   2.292   6.155   4.131
 3300SOL     OW10798   0.389   1.000   5.475
 3300SOL    HW110799   0.343   0.913   5.458
 3300SOL    HW210800   0.488   0.988   5.466
 3301SOL     OW10801   2.118   3.234   3.170
 3301SOL    HW110802   2.126   3.309   3.235
 3301SOL    HW210803   2.138   3.267   3.077
 3302SOL     OW10804   0.886   5.473   5.762
 3302SOL    HW110805   0.822   5.411   5.808
 3302SOL    HW210806   0.846   5.506   5.677
 3303SOL     OW10807   3.251   2.849   2.069
 3303SOL    HW110808   3.258   2.756   2.034
 3303SOL    HW210809   3.189   2.903   2.012
 3304SOL     OW10810   1.689   5.569   4.106
 3304SOL    HW110811   1.716   5.583   4.010
 3304SOL    HW210812   1.590   5.578   4.115
 3305SOL     OW10813   2.113   1.371   3.244
 3305SOL    HW110814   2.198   1.422   3.255
 3305SOL    HW210815   2.132   1.273   3.252
 3306SOL     OW10816   2.150   5.714   4.430
 3306SOL    HW110817   2.185   5.696   4.338
 3306SOL    HW210818   2.075   5.650   4.449
 3307SOL     OW10819   6.742   5.636   6.805
 3307SOL    HW110820   6.828   5.685   6.819
 3307SOL    HW210821   6.666   5.702   6.802
 3308SOL     OW10822   4.149   5.713   6.921
 3308SOL    HW110823   4.156   5.614   6.928
 3308SOL    HW210824   4.240   5.754   6.930
 3309SOL     OW10825   0.258   5.607   2.411
 3309SOL    HW110826   0.343   5.633   2.458
 3309SOL    HW210827   0.181   5.650   2.457
 3310SOL     OW10828   0.381   3.761   4.816
 3310SOL    HW110829   0.412   3.696   4.884
 3310SOL    HW210830   0.343   3.842   4.861
 3311SOL     OW10831   2.206   3.882   1.652
 3311SOL    HW110832   2.243   3.972   1.673
 3311SOL    HW210833   2.116   3.892   1.609
 3312SOL     OW10834   3.791   4.836   6.094
 3312SOL    HW110835   3.830   4.927   6.083
 3312SOL    HW210836   3.792   4.811   6.191
 3313SOL     OW10837   0.119   5.265   3.349
 3313SOL    HW110838   0.111   5.325   3.428
 3313SOL    HW210839   0.169   5.312   3.276
 3314SOL     OW10840   2.949   1.856   3.739
 3314SOL    HW110841   3.028   1.796   3.727
 3314SOL    HW210842   2.864   1.803   3.729
 3315SOL     OW10843   6.012   2.794   3.928
 3315SOL    HW110844   5.948   2.870   3.937
 3315SOL    HW210845   6.104   2.825   3.952
 3316SOL     OW10846   4.562   1.865   6.382
 3316SOL    HW110847   4.611   1.792   6.429
 3316SOL    HW210848   4.499   1.826   6.315
 3317SOL     OW10849   4.889   3.599   1.918
 3317SOL    HW110850   4.987   3.592   1.898
 3317SOL    HW210851   4.836   3.578   1.836
 3318SOL     OW10852   3.625   0.803   0.439
 3318SOL    HW110853   3.720   0.820   0.415
 3318SOL    HW210854   3.620   0.733   0.510
 3319SOL     OW10855   6.342   0.216   4.259
 3319SOL    HW110856   6.363   0.125   4.295
 3319SOL    HW210857   6.425   0.271   4.259
 3320SOL     OW10858   5.823   0.759   5.526
 3320SOL    HW110859   5.923   0.765   5.527
 3320SOL    HW210860   5.785   0.846   5.493
 3321SOL     OW10861   3.917   2.211   1.521
 3321SOL    HW110862   3.906   2.275   1.597
 3321SOL    HW210863   3.827   2.177   1.493
 3322SOL     OW10864   5.168   3.621   1.184
 3322SOL    HW110865   5.176   3.574   1.096
 3322SOL    HW210866   5.076   3.658   1.194
 3323SOL     OW10867   2.834   3.638   6.165
 3323SOL    HW110868   2.766   3.600   6.228
 3323SOL    HW210869   2.915   3.665   6.217
 3324SOL     OW10870   1.466   3.599   6.431
 3324SOL    HW110871   1.466   3.658   6.512
 3324SOL    HW210872   1.558   3.564   6.415
 3325SOL     OW10873   2.178   2.541   6.501
 3325SOL    HW110874   2.208   2.538   6.406
 3325SOL    HW210875   2.220   2.620   6.547
 3326SOL     OW10876   5.319   1.862   2.210
 3326SOL    HW110877   5.233   1.820   2.184
 3326SOL    HW210878   5.307   1.914   2.295
 3327SOL     OW10879   3.288   5.637   1.634
 3327SOL    HW110880   3.371   5.689   1.614
 3327SOL    HW210881   3.252   5.598   1.550
 3328SOL     OW10882   4.516   1.777   1.585
 3328SOL    HW110883   4.422   1.760   1.614
 3328SOL    HW210884   4.579   1.741   1.654
 3329SOL     OW10885   5.339   0.586   4.530
 3329SOL    HW110886   5.433   0.566   4.559
 3329SOL    HW210887   5.307   0.515   4.467
 3330SOL     OW10888   6.306   6.036   1.156
 3330SOL    HW110889   6.314   6.045   1.056
 3330SOL    HW210890   6.245   6.107   1.190
 3331SOL     OW10891   1.014   3.880   1.475
 3331SOL    HW110892   1.058   3.797   1.509
 3331SOL    HW210893   1.011   3.878   1.375
 3332SOL     OW10894   6.557   4.633   0.632
 3332SOL    HW110895   6.464   4.603   0.652
 3332SOL    HW210896   6.615   4.617   0.712
 3333SOL     OW10897   3.185   4.036   6.359
 3333SOL    HW110898   3.094   4.042   6.316
 3333SOL    HW210899   3.199   3.944   6.395
 3334SOL     OW10900   2.455   4.231   1.823
 3334SOL    HW110901   2.509   4.314   1.826
 3334SOL    HW210902   2.508   4.158   1.780
 3335SOL     OW10903   4.762   6.540   6.222
 3335SOL    HW110904   4.761   6.440   6.217
 3335SOL    HW210905   4.747   6.579   6.131
 3336SOL     OW10906   1.800   6.649   4.827
 3336SOL    HW110907   1.797   6.698   4.914
 3336SOL    HW210908   1.708   6.635   4.792
 3337SOL     OW10909   2.966   3.921   1.551
 3337SOL    HW110910   2.958   3.977   1.633
 3337SOL    HW210911   3.048   3.947   1.500
 3338SOL     OW10912   6.889   2.676   1.387
 3338SOL    HW110913   6.839   2.761   1.401
 3338SOL    HW210914   6.868   2.639   1.296
 3339SOL     OW10915   1.033   6.825   6.403
 3339SOL    HW110916   1.057   6.849   6.498
 3339SOL    HW210917   0.948   6.871   6.377
 3340SOL     OW10918   3.505   1.776   3.058
 3340SOL    HW110919   3.563   1.834   3.115
 3340SOL    HW210920   3.409   1.789   3.084
 3341SOL     OW10921   1.448   4.331   4.091
 3341SOL    HW110922   1.475   4.258   4.028
 3341SOL    HW210923   1.434   4.293   4.182
 3342SOL     OW10924   1.503   6.875   3.526
 3342SOL    HW110925   1.535   6.863   3.432
 3342SOL    HW210926   1.542   6.804   3.584
 3343SOL     OW10927   5.319   4.078   6.770
 3343SOL    HW110928   5.233   4.030   6.755
 3343SOL    HW210929   5.347   4.067   6.865
 3344SOL     OW10930   5.444   3.760   3.366
 3344SOL    HW110931   5.505   3.681   3.375
 3344SOL    HW210932   5.477   3.835   3.422
 3345SOL     OW10933   1.354   3.583   6.127
 3345SOL    HW110934   1.375   3.486   6.123
 3345SOL    HW210935   1.399   3.625   6.206
 3346SOL     OW10936   0.889   0.688   0.332
 3346SOL    HW110937   0.861   0.739   0.250
 3346SOL    HW210938   0.924   0.752   0.400
 3347SOL     OW10939   1.375   2.503   4.631
 3347SOL    HW110940   1.352   2.406   4.621
 3347SOL    HW210941   1.304   2.548   4.685
 3348SOL     OW10942   4.108   3.656   4.499
 3348SOL    HW110943   4.123   3.755   4.509
 3348SOL    HW210944   4.034   3.640   4.434
 3349SOL     OW10945   1.985   5.124   3.318
 3349SOL    HW110946   1.922   5.066   3.370
 3349SOL    HW210947   2.055   5.067   3.275
 3350SOL     OW10948   6.988   2.180   5.873
 3350SOL    HW110949   0.011   2.107   5.925
 3350SOL    HW210950   6.960   2.145   5.784
 3351SOL     OW10951   4.997   0.832   3.020
 3351SOL    HW110952   5.078   0.815   2.965
 3351SOL    HW210953   4.943   0.905   2.977
 3352SOL     OW10954   6.932   3.300   1.196
 3352SOL    HW110955   6.877   3.218   1.209
 3352SOL    HW210956   6.879   3.369   1.147
 3353SOL     OW10957   2.890   5.761   1.266
 3353SOL    HW110958   2.888   5.778   1.365
 3353SOL    HW210959   2.817   5.814   1.222
 3354SOL     OW10960   4.311   2.527   5.693
 3354SOL    HW110961   4.299   2.549   5.790
 3354SOL    HW210962   4.223   2.536   5.646
 3355SOL     OW10963   1.707   1.575   6.332
 3355SOL    HW110964   1.762   1.634   6.392
 3355SOL    HW210965   1.767   1.514   6.281
 3356SOL     OW10966   0.848   5.486   6.193
 3356SOL    HW110967   0.829   5.522   6.284
 3356SOL    HW210968   0.767   5.439   6.158
 3357SOL     OW10969   2.243   3.550   1.569
 3357SOL    HW110970   2.212   3.489   1.642
 3357SOL    HW210971   2.320   3.605   1.601
 3358SOL     OW10972   4.660   1.656   1.826
 3358SOL    HW110973   4.597   1.591   1.867
 3358SOL    HW210974   4.749   1.612   1.811
 3359SOL     OW10975   0.507   6.302   3.099
 3359SOL    HW110976   0.439   6.263   3.162
 3359SOL    HW210977   0.543   6.387   3.137
 3360SOL     OW10978   1.527   0.957   0.062
 3360SOL    HW110979   1.572   0.944   6.995
 3360SOL    HW210980   1.541   1.051   0.094
 3361SOL     OW10981   6.909   5.265   4.355
 3361SOL    HW110982   6.875   5.286   4.447
 3361SOL    HW210983   6.956   5.177   4.356
 3362SOL     OW10984   3.368   1.299   3.048
 3362SOL    HW110985   3.393   1.391   3.079
 3362SOL    HW210986   3.273   1.298   3.020
 3363SOL     OW10987   6.996   1.700   2.195
 3363SOL    HW110988   7.007   1.698   2.294
 3363SOL    HW210989   6.919   1.642   2.168
 3364SOL     OW10990   1.508   4.762   3.923
 3364SOL    HW110991   1.438   4.821   3.962
 3364SOL    HW210992   1.533   4.692   3.990
 3365SOL     OW10993   0.294   2.371   4.724
 3365SOL    HW110994   0.196   2.359   4.706
 3365SOL    HW210995   0.343   2.286   4.703
 3366SOL     OW10996   5.448   5.272   4.500
 3366SOL    HW110997   5.396   5.198   4.544
 3366SOL    HW210998   5.517   5.232   4.440
 3367SOL     OW10999   3.828   3.059   2.472
 3367SOL    HW111000   3.783   2.972   2.453
 3367SOL    HW211001   3.821   3.079   2.570
 3368SOL     OW11002   0.739   5.606   6.416
 3368SOL    HW111003   0.702   5.555   6.494
 3368SOL    HW211004   0.673   5.606   6.341
 3369SOL     OW11005   3.523   1.892   0.440
 3369SOL    HW111006   3.581   1.815   0.413
 3369SOL    HW211007   3.445   1.899   0.377
 3370SOL     OW11008   6.736   6.305   1.561
 3370SOL    HW111009   6.807   6.348   1.618
 3370SOL    HW211010   6.754   6.327   1.465
 3371SOL     OW11011   1.903   3.128   1.332
 3371SOL    HW111012   1.976   3.096   1.393
 3371SOL    HW211013   1.937   3.133   1.239
 3372SOL     OW11014   0.129   2.212   6.829
 3372SOL    HW111015   0.097   2.166   6.911
 3372SOL    HW211016   0.114   2.311   6.839
 3373SOL     OW11017   0.405   1.705   3.739
 3373SOL    HW111018   0.471   1.661   3.678
 3373SOL    HW211019   0.323   1.649   3.747
 3374SOL     OW11020   1.184   6.612   4.136
 3374SOL    HW111021   1.262   6.672   4.121
 3374SOL    HW211022   1.105   6.646   4.084
 3375SOL     OW11023   0.042   4.734   0.044
 3375SOL    HW111024   0.139   4.761   0.048
 3375SOL    HW211025   7.006   4.815   0.057
 3376SOL     OW11026   4.115   3.353   4.541
 3376SOL    HW111027   4.062   3.326   4.622
 3376SOL    HW211028   4.136   3.451   4.545
 3377SOL     OW11029   6.529   5.594   5.815
 3377SOL    HW111030   6.442   5.639   5.835
 3377SOL    HW211031   6.515   5.523   5.747
 3378SOL     OW11032   1.321   6.832   0.762
 3378SOL    HW111033   1.254   6.899   0.729
 3378SOL    HW211034   1.354   6.777   0.685
 3379SOL     OW11035   1.538   1.952   5.249
 3379SOL    HW111036   1.481   1.877   5.216
 3379SOL    HW211037   1.586   1.994   5.172
 3380SOL     OW11038   5.503   6.676   4.554
 3380SOL    HW111039   5.495   6.718   4.464
 3380SOL    HW211040   5.455   6.731   4.622
 3381SOL     OW11041   0.950   2.998   1.596
 3381SOL    HW111042   0.963   3.077   1.535
 3381SOL    HW211043   0.858   2.961   1.583
 3382SOL     OW11044   0.784   2.648   6.774
 3382SOL    HW111045   0.685   2.643   6.759
 3382SOL    HW211046   0.812   2.744   6.775
 3383SOL     OW11047   3.966   5.743   1.299
 3383SOL    HW111048   3.977   5.729   1.397
 3383SOL    HW211049   3.879   5.788   1.281
 3384SOL     OW11050   2.188   3.375   0.888
 3384SOL    HW111051   2.267   3.390   0.948
 3384SOL    HW211052   2.171   3.277   0.879
 3385SOL     OW11053   6.634   3.260   4.735
 3385SOL    HW111054   6.619   3.251   4.637
 3385SOL    HW211055   6.569   3.202   4.784
 3386SOL     OW11056   5.175   4.136   0.155
 3386SOL    HW111057   5.138   4.044   0.159
 3386SOL    HW211058   5.183   4.173   0.248
 3387SOL     OW11059   3.761   0.519   3.257
 3387SOL    HW111060   3.858   0.527   3.280
 3387SOL    HW211061   3.714   0.604   3.282
 3388SOL     OW11062   5.131   3.073   2.664
 3388SOL    HW111063   5.164   3.127   2.741
 3388SOL    HW211064   5.194   2.997   2.647
 3389SOL     OW11065   6.413   5.889   5.894
 3389SOL    HW111066   6.413   5.794   5.925
 3389SOL    HW211067   6.339   5.902   5.828
 3390SOL     OW11068   5.575   6.824   6.433
 3390SOL    HW111069   5.529   6.909   6.406
 3390SOL    HW211070   5.555   6.752   6.366
 3391SOL     OW11071   4.899   2.178   4.437
 3391SOL    HW111072   4.823   2.169   4.373
 3391SOL    HW211073   4.908   2.274   4.466
 3392SOL     OW11074   2.993   6.922   3.905
 3392SOL    HW111075   3.003   6.843   3.844
 3392SOL    HW211076   2.912   6.910   3.962
 3393SOL     OW11077   6.481   5.882   0.823
 3393SOL    HW111078   6.557   5.874   0.759
 3393SOL    HW211079   6.421   5.957   0.795
 3394SOL     OW11080   5.318   3.513   0.970
 3394SOL    HW111081   5.271   3.562   0.897
 3394SOL    HW211082   5.315   3.415   0.951
 3395SOL     OW11083   5.297   3.098   3.764
 3395SOL    HW111084   5.332   3.005   3.779
 3395SOL    HW211085   5.316   3.126   3.670
 3396SOL     OW11086   5.382   1.192   3.661
 3396SOL    HW111087   5.358   1.107   3.615
 3396SOL    HW211088   5.399   1.175   3.758
 3397SOL     OW11089   3.306   5.832   6.917
 3397SOL    HW111090   3.224   5.831   6.860
 3397SOL    HW211091   3.361   5.751   6.897
 3398SOL     OW11092   0.721   0.661   4.522
 3398SOL    HW111093   0.815   0.631   4.538
 3398SOL    HW211094   0.658   0.588   4.550
 3399SOL     OW11095   5.289   5.184   3.568
 3399SOL    HW111096   5.249   5.118   3.632
 3399SOL    HW211097   5.387   5.192   3.584
 3400SOL     OW11098   5.332   2.968   6.759
 3400SOL    HW111099   5.363   2.875   6.739
 3400SOL    HW211100   5.407   3.032   6.745
 3401SOL     OW11101   0.003   3.627   6.269
 3401SOL    HW111102   6.974   3.545   6.296
 3401SOL    HW211103   6.994   3.705   6.325
 3402SOL     OW11104   4.554   5.347   6.482
 3402SOL    HW111105   4.558   5.443   6.455
 3402SOL    HW211106   4.615   5.293   6.423
 3403SOL     OW11107   3.681   5.451   6.257
 3403SOL    HW111108   3.696   5.545   6.289
 3403SOL    HW211109   3.664   5.452   6.159
 3404SOL     OW11110   5.346   2.569   0.817
 3404SOL    HW111111   5.381   2.541   0.907
 3404SOL    HW211112   5.414   2.623   0.770
 3405SOL     OW11113   6.190   4.033   6.217
 3405SOL    HW111114   6.173   4.128   6.242
 3405SOL    HW211115   6.178   4.022   6.119
 3406SOL     OW11116   1.108   3.757   2.226
 3406SOL    HW111117   1.084   3.810   2.145
 3406SOL    HW211118   1.171   3.684   2.201
 3407SOL     OW11119   1.269   4.167   6.650
 3407SOL    HW111120   1.236   4.216   6.730
 3407SOL    HW211121   1.222   4.079   6.643
 3408SOL     OW11122   5.384   3.184   4.728
 3408SOL    HW111123   5.298   3.219   4.765
 3408SOL    HW211124   5.397   3.089   4.759
 3409SOL     OW11125   3.713   6.040   0.206
 3409SOL    HW111126   3.636   6.068   0.264
 3409SOL    HW211127   3.690   6.057   0.110
 3410SOL     OW11128   6.970   6.444   1.644
 3410SOL    HW111129   0.031   6.457   1.699
 3410SOL    HW211130   6.977   6.497   1.560
 3411SOL     OW11131   0.235   2.740   1.021
 3411SOL    HW111132   0.303   2.678   1.061
 3411SOL    HW211133   0.162   2.756   1.088
 3412SOL     OW11134   4.855   3.274   1.308
 3412SOL    HW111135   4.869   3.367   1.342
 3412SOL    HW211136   4.783   3.230   1.361
 3413SOL     OW11137   6.202   1.652   0.756
 3413SOL    HW111138   6.300   1.671   0.762
 3413SOL    HW211139   6.165   1.637   0.848
 3414SOL     OW11140   3.481   1.744   5.632
 3414SOL    HW111141   3.454   1.835   5.599
 3414SOL    HW211142   3.443   1.674   5.572
 3415SOL     OW11143   1.913   3.261   4.340
 3415SOL    HW111144   1.935   3.347   4.293
 3415SOL    HW211145   1.994   3.228   4.389
 3416SOL     OW11146   5.836   6.402   0.486
 3416SOL    HW111147   5.815   6.426   0.391
 3416SOL    HW211148   5.752   6.372   0.532
 3417SOL     OW11149   0.287   5.899   3.915
 3417SOL    HW111150   0.285   5.850   4.002
 3417SOL    HW211151   0.369   5.873   3.864
 3418SOL     OW11152   3.180   5.593   3.500
 3418SOL    HW111153   3.224   5.529   3.437
 3418SOL    HW211154   3.171   5.683   3.456
 3419SOL     OW11155   2.717   5.456   6.163
 3419SOL    HW111156   2.653   5.476   6.088
 3419SOL    HW211157   2.760   5.541   6.194
 3420SOL     OW11158   5.972   2.893   3.357
 3420SOL    HW111159   5.937   2.866   3.446
 3420SOL    HW211160   6.027   2.819   3.319
 3421SOL     OW11161   5.015   1.826   4.283
 3421SOL    HW111162   4.922   1.829   4.245
 3421SOL    HW211163   5.070   1.760   4.232
 3422SOL     OW11164   3.261   0.248   0.353
 3422SOL    HW111165   3.200   0.328   0.349
 3422SOL    HW211166   3.251   0.204   0.442
 3423SOL     OW11167   6.938   4.540   6.043
 3423SOL    HW111168   6.892   4.512   6.127
 3423SOL    HW211169   6.905   4.630   6.016
 3424SOL     OW11170   2.426   6.847   1.231
 3424SOL    HW111171   2.333   6.871   1.260
 3424SOL    HW211172   2.436   6.747   1.230
 3425SOL     OW11173   4.602   4.942   2.082
 3425SOL    HW111174   4.615   4.933   2.181
 3425SOL    HW211175   4.666   4.882   2.035
 3426SOL     OW11176   4.169   2.661   1.386
 3426SOL    HW111177   4.211   2.581   1.344
 3426SOL    HW211178   4.230   2.740   1.375
 3427SOL     OW11179   0.913   1.581   0.631
 3427SOL    HW111180   0.916   1.680   0.620
 3427SOL    HW211181   1.002   1.547   0.661
 3428SOL     OW11182   3.145   5.131   0.201
 3428SOL    HW111183   3.177   5.050   0.151
 3428SOL    HW211184   3.214   5.203   0.194
 3429SOL     OW11185   0.333   2.233   1.269
 3429SOL    HW111186   0.361   2.194   1.182
 3429SOL    HW211187   0.300   2.161   1.329
 3430SOL     OW11188   2.016   6.019   5.766
 3430SOL    HW111189   2.084   6.029   5.693
 3430SOL    HW211190   1.955   5.944   5.744
 3431SOL     OW11191   1.503   6.239   1.681
 3431SOL    HW111192   1.565   6.221   1.758
 3431SOL    HW211193   1.441   6.162   1.669
 3432SOL     OW11194   1.920   3.831   4.998
 3432SOL    HW111195   2.018   3.832   5.019
 3432SOL    HW211196   1.869   3.875   5.072
 3433SOL     OW11197   1.477   0.182   4.975
 3433SOL    HW111198   1.450   0.091   5.006
 3433SOL    HW211199   1.434   0.202   4.887
 3434SOL     OW11200   3.828   0.844   2.031
 3434SOL    HW111201   3.912   0.833   1.978
 3434SOL    HW211202   3.755   0.875   1.970
 3435SOL     OW11203   1.765   1.530   1.328
 3435SOL    HW111204   1.793   1.580   1.246
 3435SOL    HW211205   1.799   1.578   1.409
 3436SOL     OW11206   3.919   6.099   0.382
 3436SOL    HW111207   3.911   6.064   0.288
 3436SOL    HW211208   3.954   6.193   0.379
 3437SOL     OW11209   3.003   6.895   5.465
 3437SOL    HW111210   2.969   6.988   5.456
 3437SOL    HW211211   2.958   6.836   5.398
 3438SOL     OW11212   0.882   2.945   0.774
 3438SOL    HW111213   0.883   3.002   0.856
 3438SOL    HW211214   0.920   2.996   0.697
 3439SOL     OW11215   2.822   6.080   4.675
 3439SOL    HW111216   2.808   5.989   4.636
 3439SOL    HW211217   2.813   6.075   4.774
 3440SOL     OW11218   3.026   3.046   2.212
 3440SOL    HW111219   3.049   3.014   2.120
 3440SOL    HW211220   3.096   3.015   2.276
 3441SOL     OW11221   6.743   5.913   6.152
 3441SOL    HW111222   6.657   5.961   6.165
 3441SOL    HW211223   6.754   5.844   6.223
 3442SOL     OW11224   1.710   4.309   1.601
 3442SOL    HW111225   1.656   4.238   1.556
 3442SOL    HW211226   1.656   4.351   1.674
 3443SOL     OW11227   3.365   6.473   2.070
 3443SOL    HW111228   3.454   6.431   2.056
 3443SOL    HW211229   3.376   6.567   2.102
 3444SOL     OW11230   4.571   5.728   6.677
 3444SOL    HW111231   4.658   5.680   6.690
 3444SOL    HW211232   4.587   5.827   6.676
 3445SOL     OW11233   5.696   4.969   2.514
 3445SOL    HW111234   5.703   4.870   2.526
 3445SOL    HW211235   5.602   4.998   2.531
 3446SOL     OW11236   5.660   0.740   1.661
 3446SOL    HW111237   5.606   0.771   1.583
 3446SOL    HW211238   5.689   0.645   1.645
 3447SOL     OW11239   4.815   6.062   1.226
 3447SOL    HW111240   4.786   6.094   1.316
 3447SOL    HW211241   4.901   6.012   1.235
 3448SOL     OW11242   3.897   0.205   6.412
 3448SOL    HW111243   3.835   0.127   6.419
 3448SOL    HW211244   3.844   0.289   6.402
 3449SOL     OW11245   6.032   5.127   5.000
 3449SOL    HW111246   6.068   5.176   4.921
 3449SOL    HW211247   5.986   5.044   4.970
 3450SOL     OW11248   0.927   1.780   0.034
 3450SOL    HW111249   1.006   1.786   0.095
 3450SOL    HW211250   0.923   1.860   6.996
 3451SOL     OW11251   2.925   6.374   6.630
 3451SOL    HW111252   2.965   6.392   6.540
 3451SOL    HW211253   2.929   6.276   6.649
 3452SOL     OW11254   5.473   0.333   6.748
 3452SOL    HW111255   5.515   0.242   6.756
 3452SOL    HW211256   5.480   0.380   6.836
 3453SOL     OW11257   6.274   5.703   6.214
 3453SOL    HW111258   6.255   5.607   6.195
 3453SOL    HW211259   6.192   5.758   6.194
 3454SOL     OW11260   1.072   3.783   5.262
 3454SOL    HW111261   0.980   3.745   5.249
 3454SOL    HW211262   1.066   3.882   5.272
 3455SOL     OW11263   2.584   1.916   4.483
 3455SOL    HW111264   2.506   1.890   4.425
 3455SOL    HW211265   2.667   1.872   4.449
 3456SOL     OW11266   5.540   5.032   1.452
 3456SOL    HW111267   5.506   5.113   1.404
 3456SOL    HW211268   5.473   5.003   1.520
 3457SOL     OW11269   3.552   5.450   3.889
 3457SOL    HW111270   3.468   5.491   3.853
 3457SOL    HW211271   3.553   5.458   3.989
 3458SOL     OW11272   4.269   0.964   2.001
 3458SOL    HW111273   4.276   0.954   1.902
 3458SOL    HW211274   4.208   1.041   2.022
 3459SOL     OW11275   5.367   2.634   2.768
 3459SOL    HW111276   5.392   2.576   2.690
 3459SOL    HW211277   5.317   2.579   2.834
 3460SOL     OW11278   2.586   1.942   6.968
 3460SOL    HW111279   2.629   1.852   6.962
 3460SOL    HW211280   2.574   1.979   6.876
 3461SOL     OW11281   4.802   4.096   6.610
 3461SOL    HW111282   4.887   4.045   6.603
 3461SOL    HW211283   4.756   4.072   6.695
 3462SOL     OW11284   0.802   3.708   5.275
 3462SOL    HW111285   0.794   3.623   5.223
 3462SOL    HW211286   0.728   3.770   5.249
 3463SOL     OW11287   1.061   4.337   1.808
 3463SOL    HW111288   1.006   4.408   1.851
 3463SOL    HW211289   1.114   4.289   1.878
 3464SOL     OW11290   0.108   4.577   5.772
 3464SOL    HW111291   0.122   4.491   5.822
 3464SOL    HW211292   0.093   4.651   5.837
 3465SOL     OW11293   1.630   2.210   2.314
 3465SOL    HW111294   1.559   2.211   2.244
 3465SOL    HW211295   1.588   2.208   2.404
 3466SOL     OW11296   6.437   5.373   6.185
 3466SOL    HW111297   6.478   5.464   6.186
 3466SOL    HW211298   6.338   5.381   6.172
 3467SOL     OW11299   2.106   2.776   6.832
 3467SOL    HW111300   2.059   2.696   6.870
 3467SOL    HW211301   2.161   2.820   6.903
 3468SOL     OW11302   4.108   6.617   2.457
 3468SOL    HW111303   4.088   6.715   2.446
 3468SOL    HW211304   4.199   6.606   2.497
 3469SOL     OW11305   5.343   0.519   3.241
 3469SOL    HW111306   5.428   0.500   3.192
 3469SOL    HW211307   5.266   0.514   3.177
 3470SOL     OW11308   6.359   3.607   0.871
 3470SOL    HW111309   6.398   3.694   0.841
 3470SOL    HW211310   6.260   3.612   0.867
 3471SOL     OW11311   3.463   5.059   4.351
 3471SOL    HW111312   3.533   5.037   4.283
 3471SOL    HW211313   3.374   5.066   4.306
 3472SOL     OW11314   2.389   0.828   2.232
 3472SOL    HW111315   2.417   0.915   2.190
 3472SOL    HW211316   2.397   0.836   2.332
 3473SOL     OW11317   0.207   2.051   0.248
 3473SOL    HW111318   0.215   1.951   0.251
 3473SOL    HW211319   0.281   2.092   0.301
 3474SOL     OW11320   2.556   5.275   1.635
 3474SOL    HW111321   2.468   5.234   1.660
 3474SOL    HW211322   2.623   5.256   1.707
 3475SOL     OW11323   1.055   5.877   5.092
 3475SOL    HW111324   0.972   5.927   5.066
 3475SOL    HW211325   1.030   5.788   5.129
 3476SOL     OW11326   3.487   1.506   3.188
 3476SOL    HW111327   3.558   1.458   3.240
 3476SOL    HW211328   3.521   1.595   3.158
 3477SOL     OW11329   3.554   4.926   0.826
 3477SOL    HW111330   3.609   5.009   0.835
 3477SOL    HW211331   3.462   4.943   0.859
 3478SOL     OW11332   2.374   5.821   5.024
 3478SOL    HW111333   2.310   5.893   5.050
 3478SOL    HW211334   2.376   5.812   4.924
 3479SOL     OW11335   1.436   0.685   2.448
 3479SOL    HW111336   1.429   0.743   2.367
 3479SOL    HW211337   1.467   0.739   2.526
 3480SOL     OW11338   0.086   0.232   5.257
 3480SOL    HW111339   0.074   0.254   5.354
 3480SOL    HW211340   0.064   0.312   5.202
 3481SOL     OW11341   5.040   6.866   7.015
 3481SOL    HW111342   5.131   6.842   0.029
 3481SOL    HW211343   4.978   6.789   0.006
 3482SOL     OW11344   5.679   1.809   0.985
 3482SOL    HW111345   5.637   1.766   0.905
 3482SOL    HW211346   5.673   1.908   0.977
 3483SOL     OW11347   4.388   1.267   1.081
 3483SOL    HW111348   4.366   1.306   1.170
 3483SOL    HW211349   4.455   1.325   1.035
 3484SOL     OW11350   3.128   3.479   1.582
 3484SOL    HW111351   3.077   3.395   1.605
 3484SOL    HW211352   3.193   3.459   1.509
 3485SOL     OW11353   1.518   0.165   4.256
 3485SOL    HW111354   1.452   0.182   4.182
 3485SOL    HW211355   1.496   0.080   4.302
 3486SOL     OW11356   3.286   1.558   2.574
 3486SOL    HW111357   3.298   1.654   2.599
 3486SOL    HW211358   3.202   1.523   2.617
 3487SOL     OW11359   5.876   2.131   5.732
 3487SOL    HW111360   5.800   2.101   5.675
 3487SOL    HW211361   5.962   2.123   5.681
 3488SOL     OW11362   5.639   2.246   4.366
 3488SOL    HW111363   5.640   2.343   4.341
 3488SOL    HW211364   5.589   2.194   4.297
 3489SOL     OW11365   2.721   6.611   0.361
 3489SOL    HW111366   2.742   6.688   0.301
 3489SOL    HW211367   2.803   6.555   0.374
 3490SOL     OW11368   4.128   4.837   6.810
 3490SOL    HW111369   4.226   4.833   6.790
 3490SOL    HW211370   4.087   4.747   6.792
 3491SOL     OW11371   5.800   2.502   4.772
 3491SOL    HW111372   5.823   2.410   4.740
 3491SOL    HW211373   5.708   2.501   4.812
 3492SOL     OW11374   0.925   5.725   1.550
 3492SOL    HW111375   0.829   5.740   1.526
 3492SOL    HW211376   0.973   5.813   1.551
 3493SOL     OW11377   6.438   4.988   6.639
 3493SOL    HW111378   6.485   4.901   6.658
 3493SOL    HW211379   6.342   4.980   6.664
 3494SOL     OW11380   3.770   1.084   1.366
 3494SOL    HW111381   3.819   1.122   1.445
 3494SOL    HW211382   3.778   0.984   1.367
 3495SOL     OW11383   4.448   5.156   2.147
 3495SOL    HW111384   4.503   5.073   2.134
 3495SOL    HW211385   4.444   5.177   2.245
 3496SOL     OW11386   0.151   4.000   0.683
 3496SOL    HW111387   0.244   4.035   0.691
 3496SOL    HW211388   0.153   3.905   0.655
 3497SOL     OW11389   4.222   6.386   4.002
 3497SOL    HW111390   4.220   6.486   4.011
 3497SOL    HW211391   4.243   6.345   4.090
 3498SOL     OW11392   1.901   2.981   0.467
 3498SOL    HW111393   1.960   2.990   0.387
 3498SOL    HW211394   1.911   3.061   0.526
 3499SOL     OW11395   4.589   2.665   4.775
 3499SOL    HW111396   4.529   2.588   4.795
 3499SOL    HW211397   4.618   2.661   4.679
 3500SOL     OW11398   1.007   4.053   5.032
 3500SOL    HW111399   1.045   4.078   5.121
 3500SOL    HW211400   1.066   4.087   4.959
 3501SOL     OW11401   1.270   5.518   3.963
 3501SOL    HW111402   1.200   5.583   3.932
 3501SOL    HW211403   1.240   5.425   3.941
 3502SOL     OW11404   0.085   2.068   1.934
 3502SOL    HW111405   0.057   2.070   2.030
 3502SOL    HW211406   0.016   2.114   1.878
 3503SOL     OW11407   5.912   6.105   5.127
 3503SOL    HW111408   5.928   6.155   5.042
 3503SOL    HW211409   5.855   6.025   5.108
 3504SOL     OW11410   1.837   2.274   1.027
 3504SOL    HW111411   1.853   2.293   1.124
 3504SOL    HW211412   1.766   2.335   0.993
 3505SOL     OW11413   5.306   4.869   5.255
 3505SOL    HW111414   5.315   4.808   5.333
 3505SOL    HW211415   5.294   4.815   5.171
 3506SOL     OW11416   4.873   6.279   5.418
 3506SOL    HW111417   4.871   6.192   5.467
 3506SOL    HW211418   4.908   6.264   5.325
 3507SOL     OW11419   2.467   0.940   0.322
 3507SOL    HW111420   2.538   0.993   0.368
 3507SOL    HW211421   2.505   0.895   0.241
 3508SOL     OW11422   3.526   2.463   6.231
 3508SOL    HW111423   3.448   2.522   6.206
 3508SOL    HW211424   3.504   2.413   6.315
 3509SOL     OW11425   5.161   0.054   6.261
 3509SOL    HW111426   5.089   7.009   6.238
 3509SOL    HW211427   5.120   0.145   6.268
 3510SOL     OW11428   2.019   2.110   1.513
 3510SOL    HW111429   2.093   2.157   1.466
 3510SOL    HW211430   2.033   2.116   1.612
 3511SOL     OW11431   1.721   4.784   0.099
 3511SOL    HW111432   1.710   4.705   0.039
 3511SOL    HW211433   1.660   4.775   0.178
 3512SOL     OW11434   6.454   3.965   1.059
 3512SOL    HW111435   6.534   3.935   1.007
 3512SOL    HW211436   6.379   3.900   1.045
 3513SOL     OW11437   6.020   3.919   0.098
 3513SOL    HW111438   6.099   3.955   0.049
 3513SOL    HW211439   6.047   3.894   0.191
 3514SOL     OW11440   6.944   1.179   1.964
 3514SOL    HW111441   6.871   1.228   1.916
 3514SOL    HW211442   6.911   1.147   2.052
 3515SOL     OW11443   4.950   6.398   3.021
 3515SOL    HW111444   4.964   6.407   2.922
 3515SOL    HW211445   4.879   6.331   3.038
 3516SOL     OW11446   4.515   0.274   1.159
 3516SOL    HW111447   4.524   0.187   1.209
 3516SOL    HW211448   4.537   0.350   1.220
 3517SOL     OW11449   1.259   2.444   0.218
 3517SOL    HW111450   1.320   2.516   0.185
 3517SOL    HW211451   1.284   2.357   0.175
 3518SOL     OW11452   5.690   4.259   4.665
 3518SOL    HW111453   5.776   4.213   4.684
 3518SOL    HW211454   5.709   4.346   4.619
 3519SOL     OW11455   1.753   0.411   6.352
 3519SOL    HW111456   1.824   0.391   6.419
 3519SOL    HW211457   1.676   0.456   6.397
 3520SOL     OW11458   2.968   4.939   0.372
 3520SOL    HW111459   2.871   4.957   0.388
 3520SOL    HW211460   2.980   4.901   0.281
 3521SOL     OW11461   5.558   3.226   1.194
 3521SOL    HW111462   5.635   3.171   1.162
 3521SOL    HW211463   5.563   3.317   1.154
 3522SOL     OW11464   4.936   5.615   2.047
 3522SOL    HW111465   5.022   5.595   2.094
 3522SOL    HW211466   4.951   5.687   1.979
 3523SOL     OW11467   2.665   4.487   5.570
 3523SOL    HW111468   2.675   4.511   5.473
 3523SOL    HW211469   2.755   4.468   5.610
 3524SOL     OW11470   2.512   1.233   0.983
 3524SOL    HW111471   2.465   1.208   1.067
 3524SOL    HW211472   2.610   1.245   1.001
 3525SOL     OW11473   0.599   4.200   2.051
 3525SOL    HW111474   0.586   4.106   2.021
 3525SOL    HW211475   0.635   4.200   2.145
 3526SOL     OW11476   2.434   6.028   3.658
 3526SOL    HW111477   2.436   6.068   3.749
 3526SOL    HW211478   2.357   6.066   3.606
 3527SOL     OW11479   6.143   3.698   5.888
 3527SOL    HW111480   6.081   3.715   5.964
 3527SOL    HW211481   6.114   3.750   5.808
 3528SOL     OW11482   1.068   5.453   3.499
 3528SOL    HW111483   1.167   5.459   3.489
 3528SOL    HW211484   1.044   5.365   3.541
 3529SOL     OW11485   4.755   0.004   5.412
 3529SOL    HW111486   4.850   7.013   5.384
 3529SOL    HW211487   4.744   6.994   5.506
 3530SOL     OW11488   2.646   4.644   3.345
 3530SOL    HW111489   2.662   4.714   3.414
 3530SOL    HW211490   2.733   4.621   3.301
 3531SOL     OW11491   4.809   4.543   1.304
 3531SOL    HW111492   4.809   4.608   1.381
 3531SOL    HW211493   4.751   4.465   1.327
 3532SOL     OW11494   2.620   0.195   0.537
 3532SOL    HW111495   2.653   0.239   0.453
 3532SOL    HW211496   2.678   0.117   0.559
 3533SOL     OW11497   1.046   2.204   2.572
 3533SOL    HW111498   1.060   2.212   2.671
 3533SOL    HW211499   1.134   2.184   2.528
 3534SOL     OW11500   6.930   1.161   5.374
 3534SOL    HW111501   6.893   1.090   5.433
 3534SOL    HW211502   6.959   1.121   5.287
 3535SOL     OW11503   6.540   5.515   0.445
 3535SOL    HW111504   6.476   5.587   0.420
 3535SOL    HW211505   6.496   5.426   0.435
 3536SOL     OW11506   2.257   2.841   3.482
 3536SOL    HW111507   2.294   2.839   3.575
 3536SOL    HW211508   2.226   2.749   3.457
 3537SOL     OW11509   2.550   5.275   0.663
 3537SOL    HW111510   2.462   5.237   0.635
 3537SOL    HW211511   2.560   5.367   0.625
 3538SOL     OW11512   3.270   0.511   4.337
 3538SOL    HW111513   3.340   0.527   4.268
 3538SOL    HW211514   3.184   0.487   4.292
 3539SOL     OW11515   5.697   3.379   6.448
 3539SOL    HW111516   5.652   3.382   6.359
 3539SOL    HW211517   5.744   3.466   6.464
 3540SOL     OW11518   2.167   1.503   5.384
 3540SOL    HW111519   2.196   1.446   5.461
 3540SOL    HW211520   2.105   1.574   5.417
 3541SOL     OW11521   2.540   3.053   6.777
 3541SOL    HW111522   2.447   3.064   6.743
 3541SOL    HW211523   2.585   2.979   6.728
 3542SOL     OW11524   0.289   3.461   1.096
 3542SOL    HW111525   0.251   3.391   1.036
 3542SOL    HW211526   0.243   3.458   1.185
 3543SOL     OW11527   1.533   3.564   4.992
 3543SOL    HW111528   1.523   3.664   4.998
 3543SOL    HW211529   1.527   3.524   5.083
 3544SOL     OW11530   1.894   4.469   6.450
 3544SOL    HW111531   1.936   4.545   6.399
 3544SOL    HW211532   1.928   4.471   6.545
 3545SOL     OW11533   3.524   4.993   6.598
 3545SOL    HW111534   3.594   4.949   6.654
 3545SOL    HW211535   3.465   4.923   6.557
 3546SOL     OW11536   6.565   4.593   3.534
 3546SOL    HW111537   6.477   4.566   3.495
 3546SOL    HW211538   6.613   4.652   3.468
 3547SOL     OW11539   0.011   3.853   4.741
 3547SOL    HW111540   6.977   3.936   4.744
 3547SOL    HW211541   0.087   3.866   4.676
 3548SOL     OW11542   5.380   0.411   5.876
 3548SOL    HW111543   5.380   0.485   5.808
 3548SOL    HW211544   5.375   0.450   5.968
 3549SOL     OW11545   1.872   4.221   6.358
 3549SOL    HW111546   1.887   4.313   6.395
 3549SOL    HW211547   1.921   4.213   6.271
 3550SOL     OW11548   6.276   2.094   4.720
 3550SOL    HW111549   6.280   1.995   4.732
 3550SOL    HW211550   6.336   2.122   4.645
 3551SOL     OW11551   3.841   1.471   4.117
 3551SOL    HW111552   3.866   1.415   4.197
 3551SOL    HW211553   3.781   1.545   4.147
 3552SOL     OW11554   6.426   6.406   1.741
 3552SOL    HW111555   6.522   6.404   1.769
 3552SOL    HW211556   6.382   6.320   1.766
 3553SOL     OW11557   3.637   5.756   0.204
 3553SOL    HW111558   3.664   5.841   0.248
 3553SOL    HW211559   3.639   5.767   0.104
 3554SOL     OW11560   4.363   2.954   0.895
 3554SOL    HW111561   4.376   2.868   0.944
 3554SOL    HW211562   4.338   2.934   0.800
 3555SOL     OW11563   1.028   3.102   3.967
 3555SOL    HW111564   1.118   3.145   3.961
 3555SOL    HW211565   1.030   3.012   3.923
 3556SOL     OW11566   3.798   1.077   4.126
 3556SOL    HW111567   3.753   0.990   4.147
 3556SOL    HW211568   3.888   1.079   4.169
 3557SOL     OW11569   1.370   6.807   4.151
 3557SOL    HW111570   1.352   6.791   4.248
 3557SOL    HW211571   1.464   6.783   4.130
 3558SOL     OW11572   1.821   4.693   1.487
 3558SOL    HW111573   1.866   4.676   1.575
 3558SOL    HW211574   1.889   4.710   1.417
 3559SOL     OW11575   1.173   6.202   5.180
 3559SOL    HW111576   1.149   6.129   5.244
 3559SOL    HW211577   1.272   6.211   5.175
 3560SOL     OW11578   2.240   4.916   2.554
 3560SOL    HW111579   2.195   4.845   2.609
 3560SOL    HW211580   2.316   4.955   2.605
 3561SOL     OW11581   5.196   3.738   5.704
 3561SOL    HW111582   5.208   3.643   5.677
 3561SOL    HW211583   5.204   3.798   5.624
 3562SOL     OW11584   3.110   1.517   3.446
 3562SOL    HW111585   3.133   1.531   3.350
 3562SOL    HW211586   3.068   1.426   3.457
 3563SOL     OW11587   6.424   1.813   6.757
 3563SOL    HW111588   6.523   1.805   6.766
 3563SOL    HW211589   6.393   1.900   6.798
 3564SOL     OW11590   0.492   4.505   2.651
 3564SOL    HW111591   0.452   4.414   2.647
 3564SOL    HW211592   0.521   4.525   2.744
 3565SOL     OW11593   3.418   5.716   4.006
 3565SOL    HW111594   3.507   5.749   4.039
 3565SOL    HW211595   3.385   5.642   4.065
 3566SOL     OW11596   6.475   2.022   6.558
 3566SOL    HW111597   6.375   2.020   6.558
 3566SOL    HW211598   6.508   2.015   6.652
 3567SOL     OW11599   0.820   2.215   6.957
 3567SOL    HW111600   0.742   2.226   7.019
 3567SOL    HW211601   0.859   2.304   6.937
 3568SOL     OW11602   5.050   4.163   4.918
 3568SOL    HW111603   5.103   4.115   4.988
 3568SOL    HW211604   4.972   4.108   4.890
 3569SOL     OW11605   2.835   2.648   6.226
 3569SOL    HW111606   2.821   2.580   6.154
 3569SOL    HW211607   2.801   2.737   6.194
 3570SOL     OW11608   5.189   0.325   6.241
 3570SOL    HW111609   5.200   0.331   6.340
 3570SOL    HW211610   5.269   0.366   6.196
 3571SOL     OW11611   0.547   4.977   6.889
 3571SOL    HW111612   0.468   4.927   6.855
 3571SOL    HW211613   0.566   4.950   6.984
 3572SOL     OW11614   5.609   4.516   3.187
 3572SOL    HW111615   5.530   4.541   3.133
 3572SOL    HW211616   5.684   4.487   3.127
 3573SOL     OW11617   0.198   4.683   3.486
 3573SOL    HW111618   0.184   4.776   3.518
 3573SOL    HW211619   0.150   4.619   3.547
 3574SOL     OW11620   0.479   4.418   0.565
 3574SOL    HW111621   0.545   4.485   0.598
 3574SOL    HW211622   0.428   4.381   0.642
 3575SOL     OW11623   4.967   4.825   3.039
 3575SOL    HW111624   5.026   4.832   2.958
 3575SOL    HW211625   4.883   4.877   3.024
 3576SOL     OW11626   1.910   1.598   5.427
 3576SOL    HW111627   1.867   1.645   5.504
 3576SOL    HW211628   1.911   1.659   5.348
 3577SOL     OW11629   1.393   2.587   6.272
 3577SOL    HW111630   1.337   2.618   6.349
 3577SOL    HW211631   1.476   2.543   6.306
 3578SOL     OW11632   3.187   2.481   0.886
 3578SOL    HW111633   3.159   2.408   0.948
 3578SOL    HW211634   3.287   2.485   0.883
 3579SOL     OW11635   5.936   3.800   5.024
 3579SOL    HW111636   5.950   3.716   5.076
 3579SOL    HW211637   5.976   3.790   4.933
 3580SOL     OW11638   6.055   2.982   1.157
 3580SOL    HW111639   6.047   2.912   1.227
 3580SOL    HW211640   5.965   3.004   1.121
 3581SOL     OW11641   0.401   5.955   3.572
 3581SOL    HW111642   0.307   5.977   3.546
 3581SOL    HW211643   0.463   5.984   3.500
 3582SOL     OW11644   1.034   2.217   5.674
 3582SOL    HW111645   0.995   2.309   5.663
 3582SOL    HW211646   1.024   2.188   5.769
 3583SOL     OW11647   1.690   3.498   6.017
 3583SOL    HW111648   1.783   3.534   6.012
 3583SOL    HW211649   1.634   3.557   6.074
 3584SOL     OW11650   5.850   5.149   6.641
 3584SOL    HW111651   5.935   5.145   6.590
 3584SOL    HW211652   5.801   5.062   6.632
 3585SOL     OW11653   4.475   6.136   5.279
 3585SOL    HW111654   4.553   6.074   5.271
 3585SOL    HW211655   4.504   6.220   5.325
 3586SOL     OW11656   0.460   2.365   5.333
 3586SOL    HW111657   0.410   2.384   5.417
 3586SOL    HW211658   0.535   2.430   5.323
 3587SOL     OW11659   2.905   5.216   6.536
 3587SOL    HW111660   2.844   5.284   6.496
 3587SOL    HW211661   2.996   5.224   6.496
 3588SOL     OW11662   1.141   2.976   5.134
 3588SOL    HW111663   1.175   3.022   5.051
 3588SOL    HW211664   1.158   3.034   5.213
 3589SOL     OW11665   3.995   2.152   4.823
 3589SOL    HW111666   4.007   2.105   4.735
 3589SOL    HW211667   4.074   2.211   4.839
 3590SOL     OW11668   1.442   2.954   6.615
 3590SOL    HW111669   1.485   3.038   6.646
 3590SOL    HW211670   1.508   2.899   6.564
 3591SOL     OW11671   5.138   3.485   6.805
 3591SOL    HW111672   5.137   3.462   6.902
 3591SOL    HW211673   5.077   3.422   6.756
 3592SOL     OW11674   6.540   4.358   1.650
 3592SOL    HW111675   6.525   4.403   1.738
 3592SOL    HW211676   6.453   4.350   1.601
 3593SOL     OW11677   1.676   6.240   4.940
 3593SOL    HW111678   1.716   6.242   5.032
 3593SOL    HW211679   1.742   6.199   4.876
 3594SOL     OW11680   4.540   0.617   3.393
 3594SOL    HW111681   4.547   0.714   3.370
 3594SOL    HW211682   4.445   0.594   3.415
 3595SOL     OW11683   2.387   5.767   0.163
 3595SOL    HW111684   2.303   5.790   0.113
 3595SOL    HW211685   2.448   5.846   0.164
 3596SOL     OW11686   6.489   1.958   3.259
 3596SOL    HW111687   6.458   2.031   3.320
 3596SOL    HW211688   6.587   1.967   3.243
 3597SOL     OW11689   2.270   1.476   4.704
 3597SOL    HW111690   2.352   1.455   4.758
 3597SOL    HW211691   2.273   1.425   4.618
 3598SOL     OW11692   1.506   6.186   6.575
 3598SOL    HW111693   1.547   6.156   6.489
 3598SOL    HW211694   1.541   6.276   6.599
 3599SOL     OW11695   0.595   2.198   5.658
 3599SOL    HW111696   0.628   2.282   5.700
 3599SOL    HW211697   0.626   2.194   5.563
 3600SOL     OW11698   0.993   3.672   0.106
 3600SOL    HW111699   0.994   3.702   0.201
 3600SOL    HW211700   1.019   3.748   0.047
 3601SOL     OW11701   5.522   4.585   6.576
 3601SOL    HW111702   5.429   4.549   6.579
 3601SOL    HW211703   5.527   4.657   6.506
 3602SOL     OW11704   1.325   2.964   0.412
 3602SOL    HW111705   1.311   2.874   0.454
 3602SOL    HW211706   1.423   2.987   0.414
 3603SOL     OW11707   3.467   6.918   3.671
 3603SOL    HW111708   3.495   6.838   3.725
 3603SOL    HW211709   3.368   6.916   3.659
 3604SOL     OW11710   6.816   4.350   2.895
 3604SOL    HW111711   6.897   4.409   2.896
 3604SOL    HW211712   6.778   4.346   2.803
 3605SOL     OW11713   5.460   4.185   5.248
 3605SOL    HW111714   5.556   4.211   5.238
 3605SOL    HW211715   5.422   4.227   5.330
 3606SOL     OW11716   6.878   6.731   5.696
 3606SOL    HW111717   6.931   6.675   5.632
 3606SOL    HW211718   6.931   6.812   5.720
 3607SOL     OW11719   5.520   6.186   1.047
 3607SOL    HW111720   5.462   6.130   1.105
 3607SOL    HW211721   5.486   6.280   1.046
 3608SOL     OW11722   6.113   1.573   3.131
 3608SOL    HW111723   6.067   1.564   3.219
 3608SOL    HW211724   6.211   1.556   3.142
 3609SOL     OW11725   1.103   0.383   4.235
 3609SOL    HW111726   1.115   0.389   4.334
 3609SOL    HW211727   1.046   0.459   4.203
 3610SOL     OW11728   1.716   6.949   5.728
 3610SOL    HW111729   1.716   6.876   5.796
 3610SOL    HW211730   1.795   6.939   5.668
 3611SOL     OW11731   4.724   5.750   5.894
 3611SOL    HW111732   4.684   5.767   5.805
 3611SOL    HW211733   4.824   5.755   5.887
 3612SOL     OW11734   6.067   6.860   6.826
 3612SOL    HW111735   6.062   6.763   6.849
 3612SOL    HW211736   6.070   6.871   6.727
 3613SOL     OW11737   4.709   5.490   1.887
 3613SOL    HW111738   4.704   5.392   1.907
 3613SOL    HW211739   4.801   5.513   1.854
 3614SOL     OW11740   4.329   3.431   1.584
 3614SOL    HW111741   4.276   3.395   1.660
 3614SOL    HW211742   4.301   3.526   1.566
 3615SOL     OW11743   5.083   5.424   0.224
 3615SOL    HW111744   5.004   5.392   0.170
 3615SOL    HW211745   5.078   5.523   0.234
 3616SOL     OW11746   0.795   3.038   6.278
 3616SOL    HW111747   0.702   3.020   6.310
 3616SOL    HW211748   0.811   3.136   6.275
 3617SOL     OW11749   3.642   1.581   6.313
 3617SOL    HW111750   3.557   1.542   6.350
 3617SOL    HW211751   3.714   1.512   6.314
 3618SOL     OW11752   2.663   1.931   5.321
 3618SOL    HW111753   2.584   1.872   5.334
 3618SOL    HW211754   2.645   1.997   5.248
 3619SOL     OW11755   5.639   2.528   4.249
 3619SOL    HW111756   5.655   2.571   4.338
 3619SOL    HW211757   5.559   2.570   4.206
 3620SOL     OW11758   6.283   6.190   5.941
 3620SOL    HW111759   6.223   6.269   5.928
 3620SOL    HW211760   6.347   6.184   5.864
 3621SOL     OW11761   3.746   3.052   5.524
 3621SOL    HW111762   3.694   3.100   5.595
 3621SOL    HW211763   3.736   2.953   5.537
 3622SOL     OW11764   1.495   1.431   4.886
 3622SOL    HW111765   1.462   1.525   4.884
 3622SOL    HW211766   1.592   1.431   4.910
 3623SOL     OW11767   6.231   5.751   4.225
 3623SOL    HW111768   6.181   5.736   4.310
 3623SOL    HW211769   6.187   5.824   4.172
 3624SOL     OW11770   2.039   6.066   1.552
 3624SOL    HW111771   2.004   6.029   1.465
 3624SOL    HW211772   2.138   6.053   1.556
 3625SOL     OW11773   5.816   3.287   6.686
 3625SOL    HW111774   5.804   3.190   6.704
 3625SOL    HW211775   5.750   3.317   6.617
 3626SOL     OW11776   0.761   3.302   6.285
 3626SOL    HW111777   0.749   3.361   6.365
 3626SOL    HW211778   0.678   3.304   6.229
 3627SOL     OW11779   3.578   2.878   3.317
 3627SOL    HW111780   3.603   2.804   3.379
 3627SOL    HW211781   3.611   2.965   3.353
 3628SOL     OW11782   1.133   1.324   1.862
 3628SOL    HW111783   1.072   1.320   1.783
 3628SOL    HW211784   1.207   1.389   1.845
 3629SOL     OW11785   6.694   2.050   5.312
 3629SOL    HW111786   6.759   1.975   5.307
 3629SOL    HW211787   6.674   2.083   5.220
 3630SOL     OW11788   5.130   2.989   4.158
 3630SOL    HW111789   5.216   2.948   4.127
 3630SOL    HW211790   5.134   3.005   4.257
 3631SOL     OW11791   1.782   6.848   3.840
 3631SOL    HW111792   1.842   6.915   3.885
 3631SOL    HW211793   1.807   6.841   3.743
 3632SOL     OW11794   4.982   6.180   1.542
 3632SOL    HW111795   4.885   6.157   1.556
 3632SOL    HW211796   4.989   6.269   1.497
 3633SOL     OW11797   3.807   1.736   5.452
 3633SOL    HW111798   3.773   1.655   5.403
 3633SOL    HW211799   3.772   1.735   5.546
 3634SOL     OW11800   0.683   5.441   5.112
 3634SOL    HW111801   0.668   5.516   5.177
 3634SOL    HW211802   0.607   5.439   5.046
 3635SOL     OW11803   2.835   6.906   5.997
 3635SOL    HW111804   2.910   6.973   5.997
 3635SOL    HW211805   2.799   6.897   5.905
 3636SOL     OW11806   7.003   5.485   0.220
 3636SOL    HW111807   0.023   5.537   0.146
 3636SOL    HW211808   6.921   5.439   0.186
 3637SOL     OW11809   6.750   1.841   1.807
 3637SOL    HW111810   6.655   1.855   1.779
 3637SOL    HW211811   6.752   1.797   1.896
 3638SOL     OW11812   0.758   4.132   3.774
 3638SOL    HW111813   0.693   4.066   3.811
 3638SOL    HW211814   0.713   4.220   3.760
 3639SOL     OW11815   3.740   3.824   0.621
 3639SOL    HW111816   3.780   3.787   0.537
 3639SOL    HW211817   3.646   3.852   0.604
 3640SOL     OW11818   3.811   0.893   0.759
 3640SOL    HW111819   3.843   0.811   0.808
 3640SOL    HW211820   3.845   0.890   0.665
 3641SOL     OW11821   5.305   3.093   3.222
 3641SOL    HW111822   5.251   3.175   3.240
 3641SOL    HW211823   5.373   3.112   3.152
 3642SOL     OW11824   5.270   1.248   6.704
 3642SOL    HW111825   5.339   1.180   6.679
 3642SOL    HW211826   5.272   1.262   6.803
 3643SOL     OW11827   2.498   6.143   5.275
 3643SOL    HW111828   2.566   6.200   5.229
 3643SOL    HW211829   2.501   6.160   5.373
 3644SOL     OW11830   6.728   1.451   2.028
 3644SOL    HW111831   6.692   1.358   2.021
 3644SOL    HW211832   6.782   1.472   1.946
 3645SOL     OW11833   0.019   2.917   3.401
 3645SOL    HW111834   7.021   3.011   3.430
 3645SOL    HW211835   6.989   2.895   3.319
 3646SOL     OW11836   0.376   4.318   6.578
 3646SOL    HW111837   0.358   4.332   6.675
 3646SOL    HW211838   0.346   4.398   6.526
 3647SOL     OW11839   2.617   4.423   6.596
 3647SOL    HW111840   2.614   4.375   6.683
 3647SOL    HW211841   2.539   4.397   6.539
 3648SOL     OW11842   3.790   5.144   2.238
 3648SOL    HW111843   3.804   5.135   2.336
 3648SOL    HW211844   3.746   5.061   2.203
 3649SOL     OW11845   4.553   2.715   1.821
 3649SOL    HW111846   4.576   2.802   1.865
 3649SOL    HW211847   4.625   2.690   1.757
 3650SOL     OW11848   0.207   5.142   0.906
 3650SOL    HW111849   0.217   5.197   0.989
 3650SOL    HW211850   0.271   5.065   0.909
 3651SOL     OW11851   0.414   6.699   4.698
 3651SOL    HW111852   0.318   6.683   4.721
 3651SOL    HW211853   0.468   6.701   4.783
 3652SOL     OW11854   5.563   6.098   3.242
 3652SOL    HW111855   5.556   6.176   3.179
 3652SOL    HW211856   5.491   6.032   3.222
 3653SOL     OW11857   0.260   1.252   4.470
 3653SOL    HW111858   0.269   1.202   4.557
 3653SOL    HW211859   0.164   1.271   4.453
 3654SOL     OW11860   2.506   4.558   1.098
 3654SOL    HW111861   2.580   4.559   1.031
 3654SOL    HW211862   2.538   4.601   1.183
 3655SOL     OW11863   1.678   6.486   4.137
 3655SOL    HW111864   1.579   6.489   4.142
 3655SOL    HW211865   1.714   6.436   4.216
 3656SOL     OW11866   0.979   3.905   2.028
 3656SOL    HW111867   0.907   3.894   2.095
 3656SOL    HW211868   0.941   3.897   1.936
 3657SOL     OW11869   4.949   5.042   6.048
 3657SOL    HW111870   4.948   4.974   5.975
 3657SOL    HW211871   4.856   5.059   6.079
 3658SOL     OW11872   1.715   5.243   5.494
 3658SOL    HW111873   1.697   5.174   5.564
 3658SOL    HW211874   1.812   5.241   5.470
 3659SOL     OW11875   1.416   3.581   4.682
 3659SOL    HW111876   1.367   3.668   4.680
 3659SOL    HW211877   1.430   3.553   4.777
 3660SOL     OW11878   5.609   0.049   3.747
 3660SOL    HW111879   5.666   0.075   3.669
 3660SOL    HW211880   5.516   0.031   3.716
 3661SOL     OW11881   5.505   1.570   5.548
 3661SOL    HW111882   5.460   1.498   5.495
 3661SOL    HW211883   5.539   1.532   5.634
 3662SOL     OW11884   4.530   6.132   3.959
 3662SOL    HW111885   4.601   6.188   4.002
 3662SOL    HW211886   4.476   6.188   3.897
 3663SOL     OW11887   1.920   1.784   0.831
 3663SOL    HW111888   1.838   1.779   0.887
 3663SOL    HW211889   1.950   1.879   0.822
 3664SOL     OW11890   5.271   2.895   1.794
 3664SOL    HW111891   5.183   2.943   1.790
 3664SOL    HW211892   5.326   2.920   1.715
 3665SOL     OW11893   1.902   5.942   5.358
 3665SOL    HW111894   1.895   5.908   5.452
 3665SOL    HW211895   1.890   6.041   5.358
 3666SOL     OW11896   1.046   4.225   3.044
 3666SOL    HW111897   0.982   4.158   3.006
 3666SOL    HW211898   1.128   4.228   2.987
 3667SOL     OW11899   0.808   0.837   2.464
 3667SOL    HW111900   0.741   0.804   2.530
 3667SOL    HW211901   0.763   0.895   2.396
 3668SOL     OW11902   1.601   1.001   1.870
 3668SOL    HW111903   1.647   0.972   1.786
 3668SOL    HW211904   1.512   1.041   1.846
 3669SOL     OW11905   4.708   0.788   3.728
 3669SOL    HW111906   4.661   0.701   3.738
 3669SOL    HW211907   4.802   0.773   3.698
 3670SOL     OW11908   2.487   4.947   0.512
 3670SOL    HW111909   2.445   5.034   0.539
 3670SOL    HW211910   2.587   4.955   0.519
 3671SOL     OW11911   6.183   1.310   4.035
 3671SOL    HW111912   6.172   1.355   3.947
 3671SOL    HW211913   6.231   1.223   4.023
 3672SOL     OW11914   5.573   1.734   1.239
 3672SOL    HW111915   5.506   1.801   1.270
 3672SOL    HW211916   5.598   1.752   1.144
 3673SOL     OW11917   4.210   6.135   6.462
 3673SOL    HW111918   4.204   6.228   6.426
 3673SOL    HW211919   4.194   6.070   6.387
 3674SOL     OW11920   0.677   6.740   5.226
 3674SOL    HW111921   0.732   6.822   5.210
 3674SOL    HW211922   0.656   6.732   5.324
 3675SOL     OW11923   2.189   3.102   4.165
 3675SOL    HW111924   2.120   3.034   4.191
 3675SOL    HW211925   2.244   3.066   4.090
 3676SOL     OW11926   5.078   4.287   3.405
 3676SOL    HW111927   4.996   4.265   3.352
 3676SOL    HW211928   5.101   4.384   3.392
 3677SOL     OW11929   2.118   5.545   3.505
 3677SOL    HW111930   2.125   5.599   3.588
 3677SOL    HW211931   2.079   5.600   3.431
 3678SOL     OW11932   0.939   2.514   5.209
 3678SOL    HW111933   0.851   2.561   5.210
 3678SOL    HW211934   1.011   2.578   5.184
 3679SOL     OW11935   1.107   7.021   3.546
 3679SOL    HW111936   1.136   6.961   3.470
 3679SOL    HW211937   1.186   0.027   3.599
 3680SOL     OW11938   5.662   2.710   3.992
 3680SOL    HW111939   5.652   2.791   4.050
 3680SOL    HW211940   5.668   2.739   3.896
 3681SOL     OW11941   0.785   0.160   0.184
 3681SOL    HW111942   0.771   0.214   0.101
 3681SOL    HW211943   0.717   0.186   0.253
 3682SOL     OW11944   5.925   2.188   0.062
 3682SOL    HW111945   5.983   2.169   0.141
 3682SOL    HW211946   5.844   2.129   0.065
 3683SOL     OW11947   6.604   0.054   2.788
 3683SOL    HW111948   6.614   6.999   2.725
 3683SOL    HW211949   6.591   0.138   2.735
 3684SOL     OW11950   2.105   5.099   0.097
 3684SOL    HW111951   2.185   5.048   0.129
 3684SOL    HW211952   2.022   5.047   0.118
 3685SOL     OW11953   0.081   0.035   6.811
 3685SOL    HW111954   7.014   0.012   6.851
 3685SOL    HW211955   0.094   7.006   6.726
 3686SOL     OW11956   5.676   5.563   3.954
 3686SOL    HW111957   5.624   5.529   4.032
 3686SOL    HW211958   5.614   5.575   3.876
 3687SOL     OW11959   3.368   6.052   5.253
 3687SOL    HW111960   3.326   5.988   5.317
 3687SOL    HW211961   3.418   6.122   5.304
 3688SOL     OW11962   6.534   3.815   6.518
 3688SOL    HW111963   6.531   3.899   6.572
 3688SOL    HW211964   6.468   3.750   6.555
 3689SOL     OW11965   2.247   0.222   6.341
 3689SOL    HW111966   2.333   0.170   6.334
 3689SOL    HW211967   2.267   0.320   6.339
 3690SOL     OW11968   4.614   5.518   0.304
 3690SOL    HW111969   4.546   5.557   0.243
 3690SOL    HW211970   4.588   5.537   0.399
 3691SOL     OW11971   2.812   2.160   6.847
 3691SOL    HW111972   2.730   2.110   6.820
 3691SOL    HW211973   2.794   2.258   6.843
 3692SOL     OW11974   6.906   5.309   5.609
 3692SOL    HW111975   6.990   5.290   5.659
 3692SOL    HW211976   6.886   5.407   5.613
 3693SOL     OW11977   2.151   4.007   2.721
 3693SOL    HW111978   2.200   4.085   2.762
 3693SOL    HW211979   2.074   3.983   2.778
 3694SOL     OW11980   1.563   6.027   2.869
 3694SOL    HW111981   1.511   6.001   2.787
 3694SOL    HW211982   1.574   5.947   2.928
 3695SOL     OW11983   6.556   3.236   1.720
 3695SOL    HW111984   6.503   3.253   1.637
 3695SOL    HW211985   6.578   3.323   1.764
 3696SOL     OW11986   3.578   5.706   5.363
 3696SOL    HW111987   3.657   5.681   5.307
 3696SOL    HW211988   3.498   5.718   5.304
 3697SOL     OW11989   0.195   6.775   3.082
 3697SOL    HW111990   0.166   6.871   3.088
 3697SOL    HW211991   0.129   6.718   3.130
 3698SOL     OW11992   2.214   0.874   4.163
 3698SOL    HW111993   2.266   0.959   4.173
 3698SOL    HW211994   2.132   0.878   4.220
 3699SOL     OW11995   0.773   1.952   3.594
 3699SOL    HW111996   0.869   1.925   3.586
 3699SOL    HW211997   0.715   1.880   3.557
 3700SOL     OW11998   0.884   6.294   4.879
 3700SOL    HW111999   0.950   6.273   4.951
 3700SOL    HW212000   0.928   6.286   4.790
 3701SOL     OW12001   1.718   0.471   3.612
 3701SOL    HW112002   1.690   0.529   3.536
 3701SOL    HW212003   1.810   0.437   3.597
 3702SOL     OW12004   6.213   6.807   3.397
 3702SOL    HW112005   6.115   6.823   3.407
 3702SOL    HW212006   6.230   6.758   3.312
 3703SOL     OW12007   5.796   1.153   5.269
 3703SOL    HW112008   5.892   1.160   5.243
 3703SOL    HW212009   5.751   1.241   5.257
 3704SOL     OW12010   3.683   2.110   1.692
 3704SOL    HW112011   3.682   2.043   1.765
 3704SOL    HW212012   3.714   2.198   1.727
 3705SOL     OW12013   4.016   5.128   3.793
 3705SOL    HW112014   4.048   5.178   3.712
 3705SOL    HW212015   4.064   5.040   3.799
 3706SOL     OW12016   1.803   3.371   6.694
 3706SOL    HW112017   1.769   3.451   6.742
 3706SOL    HW212018   1.827   3.299   6.759
 3707SOL     OW12019   5.423   4.593   4.547
 3707SOL    HW112020   5.330   4.598   4.510
 3707SOL    HW212021   5.431   4.512   4.605
 3708SOL     OW12022   0.230   0.586   6.627
 3708SOL    HW112023   0.154   0.570   6.690
 3708SOL    HW212024   0.203   0.560   6.534
 3709SOL     OW12025   3.019   0.965   0.844
 3709SOL    HW112026   3.105   1.010   0.819
 3709SOL    HW212027   3.039   0.884   0.899
 3710SOL     OW12028   6.123   5.463   5.736
 3710SOL    HW112029   6.065   5.444   5.657
 3710SOL    HW212030   6.200   5.520   5.708
 3711SOL     OW12031   0.759   0.213   4.360
 3711SOL    HW112032   0.684   0.149   4.377
 3711SOL    HW212033   0.726   0.307   4.372
 3712SOL     OW12034   0.167   5.508   0.008
 3712SOL    HW112035   0.151   5.420   6.984
 3712SOL    HW212036   0.253   5.547   6.996
 3713SOL     OW12037   0.902   6.262   5.190
 3713SOL    HW112038   1.000   6.257   5.169
 3713SOL    HW212039   0.885   6.220   5.280
 3714SOL     OW12040   5.211   6.201   5.377
 3714SOL    HW112041   5.245   6.289   5.343
 3714SOL    HW212042   5.213   6.133   5.304
 3715SOL     OW12043   0.381   4.281   2.645
 3715SOL    HW112044   0.377   4.260   2.548
 3715SOL    HW212045   0.404   4.199   2.697
 3716SOL     OW12046   6.254   0.225   5.024
 3716SOL    HW112047   6.179   0.284   5.052
 3716SOL    HW212048   6.342   0.268   5.046
 3717SOL     OW12049   6.301   6.811   6.632
 3717SOL    HW112050   6.356   6.857   6.562
 3717SOL    HW212051   6.256   6.731   6.593
 3718SOL     OW12052   1.605   0.506   6.622
 3718SOL    HW112053   1.644   0.450   6.696
 3718SOL    HW212054   1.637   0.600   6.631
 3719SOL     OW12055   5.495   4.253   1.302
 3719SOL    HW112056   5.555   4.302   1.365
 3719SOL    HW212057   5.507   4.154   1.315
 3720SOL     OW12058   5.967   2.313   6.583
 3720SOL    HW112059   6.065   2.318   6.603
 3720SOL    HW212060   5.954   2.274   6.492
 3721SOL     OW12061   6.210   4.588   1.405
 3721SOL    HW112062   6.297   4.631   1.380
 3721SOL    HW212063   6.138   4.621   1.344
 3722SOL     OW12064   6.882   6.000   0.854
 3722SOL    HW112065   6.830   5.978   0.937
 3722SOL    HW212066   6.818   6.019   0.779
 3723SOL     OW12067   6.088   5.384   1.589
 3723SOL    HW112068   6.020   5.342   1.649
 3723SOL    HW212069   6.160   5.427   1.645
 3724SOL     OW12070   1.886   4.591   4.380
 3724SOL    HW112071   1.960   4.658   4.385
 3724SOL    HW212072   1.819   4.610   4.452
 3725SOL     OW12073   5.677   5.404   0.447
 3725SOL    HW112074   5.625   5.477   0.490
 3725SOL    HW212075   5.715   5.436   0.361
 3726SOL     OW12076   5.471   3.755   0.600
 3726SOL    HW112077   5.398   3.777   0.665
 3726SOL    HW212078   5.440   3.684   0.538
 3727SOL     OW12079   0.269   2.282   4.981
 3727SOL    HW112080   0.264   2.331   4.894
 3727SOL    HW212081   0.205   2.324   5.046
 3728SOL     OW12082   2.107   3.548   6.983
 3728SOL    HW112083   2.081   3.473   6.922
 3728SOL    HW212084   2.038   3.620   6.979
 3729SOL     OW12085   0.688   2.733   3.761
 3729SOL    HW112086   0.653   2.639   3.763
 3729SOL    HW212087   0.635   2.787   3.696
 3730SOL     OW12088   2.205   4.914   5.932
 3730SOL    HW112089   2.134   4.963   5.982
 3730SOL    HW212090   2.226   4.964   5.848
 3731SOL     OW12091   6.803   1.660   0.645
 3731SOL    HW112092   6.896   1.693   0.632
 3731SOL    HW212093   6.805   1.563   0.672
 3732SOL     OW12094   2.988   1.236   0.471
 3732SOL    HW112095   2.919   1.269   0.407
 3732SOL    HW212096   2.949   1.166   0.530
 3733SOL     OW12097   1.819   3.855   2.458
 3733SOL    HW112098   1.788   3.851   2.363
 3733SOL    HW212099   1.795   3.770   2.504
 3734SOL     OW12100   5.058   1.100   2.155
 3734SOL    HW112101   5.060   1.169   2.228
 3734SOL    HW212102   5.147   1.098   2.108
 3735SOL     OW12103   2.080   0.967   3.676
 3735SOL    HW112104   2.142   0.906   3.725
 3735SOL    HW212105   2.098   0.962   3.578
 3736SOL     OW12106   0.314   2.462   0.990
 3736SOL    HW112107   0.405   2.472   1.028
 3736SOL    HW212108   0.292   2.365   0.980
 3737SOL     OW12109   4.827   0.702   3.401
 3737SOL    HW112110   4.745   0.653   3.432
 3737SOL    HW212111   4.856   0.664   3.313
 3738SOL     OW12112   6.986   0.064   2.227
 3738SOL    HW112113   0.025   0.029   2.299
 3738SOL    HW212114   6.905   0.006   2.220
 3739SOL     OW12115   2.676   4.453   1.621
 3739SOL    HW112116   2.594   4.479   1.670
 3739SOL    HW212117   2.754   4.452   1.683
 3740SOL     OW12118   5.265   0.836   0.591
 3740SOL    HW112119   5.360   0.850   0.620
 3740SOL    HW212120   5.264   0.775   0.512
 3741SOL     OW12121   5.098   2.647   0.791
 3741SOL    HW112122   5.057   2.596   0.715
 3741SOL    HW212123   5.193   2.619   0.803
 3742SOL     OW12124   2.814   1.625   0.101
 3742SOL    HW112125   2.793   1.571   0.019
 3742SOL    HW212126   2.731   1.670   0.133
 3743SOL     OW12127   5.712   3.588   0.749
 3743SOL    HW112128   5.621   3.607   0.710
 3743SOL    HW212129   5.702   3.566   0.846
 3744SOL     OW12130   1.498   5.879   2.323
 3744SOL    HW112131   1.562   5.816   2.279
 3744SOL    HW212132   1.414   5.830   2.348
 3745SOL     OW12133   3.941   4.941   1.736
 3745SOL    HW112134   3.910   4.846   1.740
 3745SOL    HW212135   3.975   4.961   1.645
 3746SOL     OW12136   5.240   0.766   2.900
 3746SOL    HW112137   5.281   0.821   2.973
 3746SOL    HW212138   5.312   0.717   2.850
 3747SOL     OW12139   2.609   6.470   4.992
 3747SOL    HW112140   2.635   6.412   5.069
 3747SOL    HW212141   2.577   6.413   4.916
 3748SOL     OW12142   5.285   1.300   1.105
 3748SOL    HW112143   5.230   1.288   1.187
 3748SOL    HW212144   5.286   1.396   1.078
 3749SOL     OW12145   1.444   5.722   3.392
 3749SOL    HW112146   1.361   5.671   3.371
 3749SOL    HW212147   1.440   5.756   3.486
 3750SOL     OW12148   0.879   4.183   0.978
 3750SOL    HW112149   0.948   4.253   0.959
 3750SOL    HW212150   0.834   4.205   1.065
 3751SOL     OW12151   0.113   3.643   1.687
 3751SOL    HW112152   0.171   3.562   1.682
 3751SOL    HW212153   0.078   3.654   1.780
 3752SOL     OW12154   5.270   0.181   0.201
 3752SOL    HW112155   5.219   0.233   0.269
 3752SOL    HW212156   5.255   0.220   0.110
 3753SOL     OW12157   6.281   6.637   4.761
 3753SOL    HW112158   6.267   6.734   4.740
 3753SOL    HW212159   6.378   6.620   4.781
 3754SOL     OW12160   2.398   1.125   1.211
 3754SOL    HW112161   2.337   1.133   1.290
 3754SOL    HW212162   2.444   1.036   1.214
 3755SOL     OW12163   4.827   4.361   4.286
 3755SOL    HW112164   4.757   4.325   4.225
 3755SOL    HW212165   4.784   4.411   4.361
 3756SOL     OW12166   3.110   5.192   6.230
 3756SOL    HW112167   3.130   5.216   6.325
 3756SOL    HW212168   3.161   5.109   6.205
 3757SOL     OW12169   5.537   5.786   0.310
 3757SOL    HW112170   5.551   5.724   0.233
 3757SOL    HW212171   5.603   5.766   0.382
 3758SOL     OW12172   2.916   1.304   4.805
 3758SOL    HW112173   2.830   1.266   4.839
 3758SOL    HW212174   2.986   1.233   4.804
 3759SOL     OW12175   4.129   0.126   6.302
 3759SOL    HW112176   4.038   0.154   6.331
 3759SOL    HW212177   4.123   0.039   6.253
 3760SOL     OW12178   1.298   1.591   4.660
 3760SOL    HW112179   1.239   1.523   4.703
 3760SOL    HW212180   1.257   1.621   4.574
 3761SOL     OW12181   0.672   1.432   5.064
 3761SOL    HW112182   0.741   1.400   5.129
 3761SOL    HW212183   0.610   1.496   5.109
 3762SOL     OW12184   1.080   4.772   1.046
 3762SOL    HW112185   1.066   4.842   1.116
 3762SOL    HW212186   1.111   4.815   0.961
 3763SOL     OW12187   7.020   3.781   0.584
 3763SOL    HW112188   6.991   3.772   0.680
 3763SOL    HW212189   6.944   3.756   0.524
 3764SOL     OW12190   1.681   0.126   2.635
 3764SOL    HW112191   1.718   0.070   2.561
 3764SOL    HW212192   1.583   0.140   2.620
 3765SOL     OW12193   5.532   1.650   0.814
 3765SOL    HW112194   5.443   1.678   0.851
 3765SOL    HW212195   5.518   1.596   0.731
 3766SOL     OW12196   2.196   1.913   4.101
 3766SOL    HW112197   2.124   1.876   4.041
 3766SOL    HW212198   2.209   2.009   4.080
 3767SOL     OW12199   2.193   4.525   6.905
 3767SOL    HW112200   2.245   4.585   6.844
 3767SOL    HW212201   2.249   4.446   6.929
 3768SOL     OW12202   0.591   6.334   4.022
 3768SOL    HW112203   0.578   6.293   3.932
 3768SOL    HW212204   0.619   6.264   4.087
 3769SOL     OW12205   5.923   5.830   4.325
 3769SOL    HW112206   5.966   5.755   4.375
 3769SOL    HW212207   5.885   5.796   4.240
 3770SOL     OW12208   1.140   0.844   6.326
 3770SOL    HW112209   1.183   0.754   6.337
 3770SOL    HW212210   1.067   0.853   6.393
 3771SOL     OW12211   5.158   2.925   0.343
 3771SOL    HW112212   5.077   2.951   0.290
 3771SOL    HW212213   5.216   2.866   0.287
 3772SOL     OW12214   0.485   0.915   0.315
 3772SOL    HW112215   0.416   0.920   0.387
 3772SOL    HW212216   0.573   0.889   0.355
 3773SOL     OW12217   5.977   3.840   5.423
 3773SOL    HW112218   6.048   3.832   5.352
 3773SOL    HW212219   5.899   3.783   5.398
 3774SOL     OW12220   6.269   5.729   1.118
 3774SOL    HW112221   6.362   5.727   1.154
 3774SOL    HW212222   6.219   5.805   1.159
 3775SOL     OW12223   4.512   4.860   2.798
 3775SOL    HW112224   4.491   4.770   2.759
 3775SOL    HW212225   4.576   4.908   2.738
 3776SOL     OW12226   4.238   1.687   6.796
 3776SOL    HW112227   4.272   1.703   6.703
 3776SOL    HW212228   4.144   1.720   6.803
 3777SOL     OW12229   3.562   5.573   3.519
 3777SOL    HW112230   3.519   5.502   3.575
 3777SOL    HW212231   3.499   5.598   3.445
 3778SOL     OW12232   3.241   5.431   2.275
 3778SOL    HW112233   3.212   5.462   2.366
 3778SOL    HW212234   3.221   5.334   2.266
 3779SOL     OW12235   0.756   4.915   0.499
 3779SOL    HW112236   0.822   4.971   0.450
 3779SOL    HW212237   0.668   4.919   0.454
 3780SOL     OW12238   5.675   4.966   4.588
 3780SOL    HW112239   5.618   4.982   4.669
 3780SOL    HW212240   5.678   4.868   4.569
 3781SOL     OW12241   0.554   6.558   4.356
 3781SOL    HW112242   0.475   6.505   4.388
 3781SOL    HW212243   0.545   6.575   4.258
 3782SOL     OW12244   2.334   0.192   3.196
 3782SOL    HW112245   2.319   0.124   3.125
 3782SOL    HW212246   2.350   0.282   3.154
 3783SOL     OW12247   5.858   5.346   4.416
 3783SOL    HW112248   5.871   5.338   4.318
 3783SOL    HW212249   5.919   5.417   4.452
 3784SOL     OW12250   4.892   2.458   2.989
 3784SOL    HW112251   4.858   2.543   3.029
 3784SOL    HW212252   4.875   2.459   2.890
 3785SOL     OW12253   1.822   3.692   5.784
 3785SOL    HW112254   1.862   3.772   5.828
 3785SOL    HW212255   1.894   3.624   5.765
 3786SOL     OW12256   2.541   5.024   3.305
 3786SOL    HW112257   2.485   5.106   3.315
 3786SOL    HW212258   2.617   5.043   3.243
 3787SOL     OW12259   6.278   1.608   2.879
 3787SOL    HW112260   6.188   1.644   2.902
 3787SOL    HW212261   6.306   1.541   2.948
 3788SOL     OW12262   0.017   4.830   4.885
 3788SOL    HW112263   0.047   4.737   4.862
 3788SOL    HW212264   6.939   4.830   4.900
 3789SOL     OW12265   0.540   2.879   4.536
 3789SOL    HW112266   0.596   2.912   4.460
 3789SOL    HW212267   0.467   2.946   4.554
 3790SOL     OW12268   1.377   4.435   5.792
 3790SOL    HW112269   1.333   4.505   5.848
 3790SOL    HW212270   1.419   4.477   5.712
 3791SOL     OW12271   4.796   0.905   6.280
 3791SOL    HW112272   4.828   0.970   6.211
 3791SOL    HW212273   4.704   0.932   6.310
 3792SOL     OW12274   1.228   2.112   3.740
 3792SOL    HW112275   1.269   2.040   3.797
 3792SOL    HW212276   1.300   2.155   3.686
 3793SOL     OW12277   4.865   6.391   2.088
 3793SOL    HW112278   4.846   6.349   2.000
 3793SOL    HW212279   4.953   6.359   2.123
 3794SOL     OW12280   1.905   2.655   1.109
 3794SOL    HW112281   1.957   2.737   1.087
 3794SOL    HW212282   1.873   2.612   1.025
 3795SOL     OW12283   4.794   6.010   0.961
 3795SOL    HW112284   4.791   6.041   1.056
 3795SOL    HW212285   4.710   5.962   0.938
 3796SOL     OW12286   3.289   2.103   2.254
 3796SOL    HW112287   3.236   2.185   2.275
 3796SOL    HW212288   3.252   2.025   2.304
 3797SOL     OW12289   0.715   3.487   2.368
 3797SOL    HW112290   0.686   3.564   2.312
 3797SOL    HW212291   0.751   3.520   2.455
 3798SOL     OW12292   2.831   5.192   3.625
 3798SOL    HW112293   2.789   5.241   3.549
 3798SOL    HW212294   2.901   5.130   3.589
 3799SOL     OW12295   6.129   2.245   3.647
 3799SOL    HW112296   6.120   2.293   3.734
 3799SOL    HW212297   6.053   2.180   3.637
 3800SOL     OW12298   5.448   2.550   3.901
 3800SOL    HW112299   5.531   2.588   3.941
 3800SOL    HW212300   5.469   2.464   3.854
 3801SOL     OW12301   5.877   6.665   1.730
 3801SOL    HW112302   5.872   6.728   1.652
 3801SOL    HW212303   5.788   6.622   1.744
 3802SOL     OW12304   1.336   2.241   1.678
 3802SOL    HW112305   1.347   2.146   1.709
 3802SOL    HW212306   1.390   2.254   1.594
 3803SOL     OW12307   4.070   3.319   2.245
 3803SOL    HW112308   4.085   3.344   2.150
 3803SOL    HW212309   4.066   3.220   2.254
 3804SOL     OW12310   4.678   1.199   4.089
 3804SOL    HW112311   4.679   1.185   4.189
 3804SOL    HW212312   4.730   1.125   4.046
 3805SOL     OW12313   1.737   2.715   1.322
 3805SOL    HW112314   1.679   2.637   1.298
 3805SOL    HW212315   1.819   2.715   1.265
 3806SOL     OW12316   3.850   3.576   5.853
 3806SOL    HW112317   3.813   3.565   5.945
 3806SOL    HW212318   3.902   3.661   5.848
 3807SOL     OW12319   1.576   5.669   2.789
 3807SOL    HW112320   1.598   5.720   2.872
 3807SOL    HW212321   1.607   5.720   2.709
 3808SOL     OW12322   4.555   1.041   0.511
 3808SOL    HW112323   4.544   1.056   0.413
 3808SOL    HW212324   4.634   1.093   0.544
 3809SOL     OW12325   5.661   2.741   1.764
 3809SOL    HW112326   5.722   2.664   1.783
 3809SOL    HW212327   5.659   2.758   1.666
 3810SOL     OW12328   4.636   2.652   3.590
 3810SOL    HW112329   4.686   2.656   3.677
 3810SOL    HW212330   4.557   2.592   3.601
 3811SOL     OW12331   0.877   5.256   4.999
 3811SOL    HW112332   0.802   5.310   5.038
 3811SOL    HW212333   0.964   5.286   5.039
 3812SOL     OW12334   4.479   4.902   5.474
 3812SOL    HW112335   4.482   4.995   5.512
 3812SOL    HW212336   4.561   4.887   5.418
 3813SOL     OW12337   4.127   3.091   0.436
 3813SOL    HW112338   4.127   3.185   0.469
 3813SOL    HW212339   4.035   3.054   0.440
 3814SOL     OW12340   6.872   6.543   6.179
 3814SOL    HW112341   6.789   6.583   6.142
 3814SOL    HW212342   6.881   6.567   6.276
 3815SOL     OW12343   3.464   1.787   0.664
 3815SOL    HW112344   3.552   1.748   0.690
 3815SOL    HW212345   3.458   1.794   0.564
 3816SOL     OW12346   1.174   5.806   6.506
 3816SOL    HW112347   1.082   5.819   6.469
 3816SOL    HW212348   1.228   5.889   6.493
 3817SOL     OW12349   4.882   3.364   2.745
 3817SOL    HW112350   4.871   3.392   2.650
 3817SOL    HW212351   4.934   3.433   2.795
 3818SOL     OW12352   6.508   0.770   6.797
 3818SOL    HW112353   6.557   0.769   6.710
 3818SOL    HW212354   6.436   0.839   6.794
 3819SOL     OW12355   5.115   5.329   1.800
 3819SOL    HW112356   5.139   5.360   1.891
 3819SOL    HW212357   5.157   5.240   1.783
 3820SOL     OW12358   5.412   0.053   3.568
 3820SOL    HW112359   5.329   0.075   3.517
 3820SOL    HW212360   5.476   0.006   3.507
 3821SOL     OW12361   2.395   1.839   1.724
 3821SOL    HW112362   2.319   1.842   1.790
 3821SOL    HW212363   2.481   1.853   1.772
 3822SOL     OW12364   2.165   0.895   1.032
 3822SOL    HW112365   2.220   0.889   0.949
 3822SOL    HW212366   2.224   0.925   1.108
 3823SOL     OW12367   3.320   3.543   6.238
 3823SOL    HW112368   3.224   3.527   6.259
 3823SOL    HW212369   3.337   3.641   6.230
 3824SOL     OW12370   0.357   3.266   0.260
 3824SOL    HW112371   0.304   3.200   0.313
 3824SOL    HW212372   0.319   3.358   0.274
 3825SOL     OW12373   0.110   5.521   0.632
 3825SOL    HW112374   0.022   5.569   0.637
 3825SOL    HW212375   0.184   5.586   0.650
 3826SOL     OW12376   1.072   3.596   6.680
 3826SOL    HW112377   0.979   3.634   6.681
 3826SOL    HW212378   1.096   3.569   6.587
 3827SOL     OW12379   1.478   1.174   1.690
 3827SOL    HW112380   1.419   1.169   1.609
 3827SOL    HW212381   1.453   1.254   1.744
 3828SOL     OW12382   3.743   3.729   2.982
 3828SOL    HW112383   3.812   3.786   3.026
 3828SOL    HW212384   3.677   3.787   2.934
 3829SOL     OW12385   1.357   5.339   2.864
 3829SOL    HW112386   1.374   5.242   2.845
 3829SOL    HW212387   1.318   5.383   2.783
 3830SOL     OW12388   0.871   0.904   5.333
 3830SOL    HW112389   0.940   0.968   5.301
 3830SOL    HW212390   0.800   0.893   5.263
 3831SOL     OW12391   4.677   2.452   2.393
 3831SOL    HW112392   4.689   2.544   2.430
 3831SOL    HW212393   4.582   2.424   2.404
 3832SOL     OW12394   6.174   0.950   2.836
 3832SOL    HW112395   6.125   1.035   2.820
 3832SOL    HW212396   6.169   0.893   2.754
 3833SOL     OW12397   0.378   6.606   6.467
 3833SOL    HW112398   0.455   6.586   6.406
 3833SOL    HW212399   0.294   6.570   6.427
 3834SOL     OW12400   4.098   4.601   1.324
 3834SOL    HW112401   4.038   4.530   1.363
 3834SOL    HW212402   4.079   4.688   1.368
 3835SOL     OW12403   3.669   5.446   4.651
 3835SOL    HW112404   3.743   5.458   4.584
 3835SOL    HW212405   3.597   5.513   4.634
 3836SOL     OW12406   1.221   3.928   6.111
 3836SOL    HW112407   1.258   4.020   6.099
 3836SOL    HW212408   1.148   3.912   6.045
 3837SOL     OW12409   4.436   4.679   6.290
 3837SOL    HW112410   4.430   4.693   6.388
 3837SOL    HW212411   4.386   4.751   6.242
 3838SOL     OW12412   0.976   3.687   4.140
 3838SOL    HW112413   1.004   3.636   4.222
 3838SOL    HW212414   1.008   3.639   4.059
 3839SOL     OW12415   5.258   0.986   3.519
 3839SOL    HW112416   5.240   0.961   3.424
 3839SOL    HW212417   5.172   1.008   3.565
 3840SOL     OW12418   2.717   0.990   6.133
 3840SOL    HW112419   2.750   0.952   6.219
 3840SOL    HW212420   2.624   1.024   6.145
 3841SOL     OW12421   6.824   3.121   4.256
 3841SOL    HW112422   6.855   3.165   4.171
 3841SOL    HW212423   6.797   3.192   4.321
 3842SOL     OW12424   2.005   3.169   1.071
 3842SOL    HW112425   2.079   3.110   1.038
 3842SOL    HW212426   2.044   3.249   1.116
 3843SOL     OW12427   5.769   4.732   2.194
 3843SOL    HW112428   5.708   4.675   2.250
 3843SOL    HW212429   5.825   4.673   2.136
 3844SOL     OW12430   0.842   2.959   6.014
 3844SOL    HW112431   0.821   3.036   5.953
 3844SOL    HW212432   0.852   2.993   6.108
 3845SOL     OW12433   2.859   3.529   5.575
 3845SOL    HW112434   2.874   3.504   5.479
 3845SOL    HW212435   2.847   3.628   5.583
 3846SOL     OW12436   0.548   5.405   3.934
 3846SOL    HW112437   0.577   5.477   3.996
 3846SOL    HW212438   0.478   5.440   3.872
 3847SOL     OW12439   5.192   1.188   4.595
 3847SOL    HW112440   5.268   1.152   4.648
 3847SOL    HW212441   5.169   1.280   4.627
 3848SOL     OW12442   4.738   5.397   2.891
 3848SOL    HW112443   4.704   5.337   2.965
 3848SOL    HW212444   4.698   5.368   2.805
 3849SOL     OW12445   1.615   0.937   6.049
 3849SOL    HW112446   1.541   0.906   5.990
 3849SOL    HW212447   1.680   0.991   5.996
 3850SOL     OW12448   2.293   3.702   1.259
 3850SOL    HW112449   2.336   3.729   1.173
 3850SOL    HW212450   2.344   3.626   1.299
 3851SOL     OW12451   0.966   4.779   2.100
 3851SOL    HW112452   0.919   4.866   2.085
 3851SOL    HW212453   1.059   4.784   2.065
 3852SOL     OW12454   4.416   6.487   3.609
 3852SOL    HW112455   4.407   6.391   3.633
 3852SOL    HW212456   4.499   6.524   3.650
 3853SOL     OW12457   1.133   4.428   3.236
 3853SOL    HW112458   1.068   4.482   3.289
 3853SOL    HW212459   1.084   4.367   3.174
 3854SOL     OW12460   1.882   3.129   2.569
 3854SOL    HW112461   1.894   3.101   2.474
 3854SOL    HW212462   1.865   3.048   2.625
 3855SOL     OW12463   5.318   6.361   6.183
 3855SOL    HW112464   5.395   6.383   6.243
 3855SOL    HW212465   5.309   6.431   6.113
 3856SOL     OW12466   0.313   1.067   6.106
 3856SOL    HW112467   0.326   1.057   6.007
 3856SOL    HW212468   0.315   0.977   6.149
 3857SOL     OW12469   0.209   6.299   6.948
 3857SOL    HW112470   0.233   6.363   6.875
 3857SOL    HW212471   0.112   6.278   6.944
 3858SOL     OW12472   1.823   0.600   5.392
 3858SOL    HW112473   1.723   0.596   5.390
 3858SOL    HW212474   1.852   0.671   5.456
 3859SOL     OW12475   6.031   1.231   2.579
 3859SOL    HW112476   5.982   1.314   2.555
 3859SOL    HW212477   6.123   1.253   2.610
 3860SOL     OW12478   2.990   0.367   5.311
 3860SOL    HW112479   2.961   0.346   5.217
 3860SOL    HW212480   2.925   0.430   5.352
 3861SOL     OW12481   4.654   4.725   3.402
 3861SOL    HW112482   4.564   4.712   3.359
 3861SOL    HW212483   4.722   4.673   3.351
 3862SOL     OW12484   1.135   0.473   5.123
 3862SOL    HW112485   1.068   0.539   5.156
 3862SOL    HW212486   1.223   0.489   5.169
 3863SOL     OW12487   4.678   2.693   6.789
 3863SOL    HW112488   4.601   2.741   6.832
 3863SOL    HW212489   4.696   2.732   6.699
 3864SOL     OW12490   2.549   0.395   5.406
 3864SOL    HW112491   2.640   0.432   5.423
 3864SOL    HW212492   2.523   0.410   5.311
 3865SOL     OW12493   3.660   0.331   0.084
 3865SOL    HW112494   3.751   0.290   0.072
 3865SOL    HW212495   3.666   0.404   0.152
 3866SOL     OW12496   3.904   1.234   1.140
 3866SOL    HW112497   3.911   1.166   1.213
 3866SOL    HW212498   3.836   1.303   1.165
 3867SOL     OW12499   1.272   4.125   3.266
 3867SOL    HW112500   1.333   4.086   3.197
 3867SOL    HW212501   1.205   4.185   3.223
 3868SOL     OW12502   3.413   6.815   0.391
 3868SOL    HW112503   3.412   6.881   0.466
 3868SOL    HW212504   3.350   6.740   0.411
 3869SOL     OW12505   5.788   4.472   5.074
 3869SOL    HW112506   5.786   4.550   5.136
 3869SOL    HW212507   5.877   4.466   5.030
 3870SOL     OW12508   4.995   5.578   6.576
 3870SOL    HW112509   4.908   5.573   6.624
 3870SOL    HW212510   5.057   5.639   6.625
 3871SOL     OW12511   3.554   0.313   2.630
 3871SOL    HW112512   3.593   0.386   2.686
 3871SOL    HW212513   3.627   0.270   2.577
 3872SOL     OW12514   3.843   2.952   3.182
 3872SOL    HW112515   3.801   2.861   3.175
 3872SOL    HW212516   3.865   2.971   3.278
 3873SOL     OW12517   5.928   3.017   1.963
 3873SOL    HW112518   5.980   3.099   1.938
 3873SOL    HW212519   5.908   3.018   2.061
 3874SOL     OW12520   3.960   5.787   6.751
 3874SOL    HW112521   4.039   5.759   6.805
 3874SOL    HW212522   3.885   5.722   6.765
 3875SOL     OW12523   1.695   2.987   1.701
 3875SOL    HW112524   1.599   2.959   1.707
 3875SOL    HW212525   1.708   3.045   1.620
 3876SOL     OW12526   4.531   4.924   0.425
 3876SOL    HW112527   4.521   4.904   0.327
 3876SOL    HW212528   4.529   4.838   0.476
 3877SOL     OW12529   6.701   2.897   0.547
 3877SOL    HW112530   6.795   2.867   0.560
 3877SOL    HW212531   6.668   2.941   0.631
 3878SOL     OW12532   3.207   6.748   4.471
 3878SOL    HW112533   3.297   6.790   4.461
 3878SOL    HW212534   3.166   6.778   4.557
 3879SOL     OW12535   4.953   6.421   1.406
 3879SOL    HW112536   4.908   6.509   1.426
 3879SOL    HW212537   5.019   6.433   1.332
 3880SOL     OW12538   6.105   4.733   3.639
 3880SOL    HW112539   6.033   4.782   3.589
 3880SOL    HW212540   6.175   4.798   3.668
 3881SOL     OW12541   1.140   4.302   1.315
 3881SOL    HW112542   1.076   4.300   1.391
 3881SOL    HW212543   1.134   4.391   1.269
 3882SOL     OW12544   0.882   1.973   5.541
 3882SOL    HW112545   0.954   1.908   5.568
 3882SOL    HW212546   0.891   2.057   5.594
 3883SOL     OW12547   4.349   0.831   3.832
 3883SOL    HW112548   4.395   0.745   3.853
 3883SOL    HW212549   4.383   0.903   3.893
 3884SOL     OW12550   0.400   5.239   3.446
 3884SOL    HW112551   0.485   5.273   3.404
 3884SOL    HW212552   0.327   5.240   3.378
 3885SOL     OW12553   6.146   0.499   2.593
 3885SOL    HW112554   6.123   0.422   2.534
 3885SOL    HW212555   6.216   0.471   2.658
 3886SOL     OW12556   6.452   5.864   4.822
 3886SOL    HW112557   6.415   5.812   4.745
 3886SOL    HW212558   6.546   5.838   4.838
 3887SOL     OW12559   0.362   0.792   6.183
 3887SOL    HW112560   0.378   0.697   6.155
 3887SOL    HW212561   0.381   0.802   6.280
 3888SOL     OW12562   0.116   0.347   5.988
 3888SOL    HW112563   0.166   0.287   5.926
 3888SOL    HW212564   0.074   0.292   6.060
 3889SOL     OW12565   6.671   3.413   6.111
 3889SOL    HW112566   6.606   3.466   6.166
 3889SOL    HW212567   6.642   3.317   6.110
 3890SOL     OW12568   5.676   5.551   2.771
 3890SOL    HW112569   5.588   5.584   2.737
 3890SOL    HW212570   5.747   5.620   2.754
 3891SOL     OW12571   5.637   4.478   4.319
 3891SOL    HW112572   5.542   4.493   4.346
 3891SOL    HW212573   5.651   4.381   4.296
 3892SOL     OW12574   0.328   2.506   1.370
 3892SOL    HW112575   0.341   2.410   1.344
 3892SOL    HW212576   0.232   2.522   1.391
 3893SOL     OW12577   3.473   5.393   0.763
 3893SOL    HW112578   3.384   5.387   0.718
 3893SOL    HW212579   3.520   5.305   0.756
 3894SOL     OW12580   2.368   2.173   1.091
 3894SOL    HW112581   2.273   2.170   1.063
 3894SOL    HW212582   2.399   2.081   1.117
 3895SOL     OW12583   1.781   0.549   4.883
 3895SOL    HW112584   1.858   0.550   4.947
 3895SOL    HW212585   1.791   0.474   4.819
 3896SOL     OW12586   0.679   1.637   6.445
 3896SOL    HW112587   0.752   1.612   6.382
 3896SOL    HW212588   0.624   1.710   6.405
 3897SOL     OW12589   3.580   6.280   2.099
 3897SOL    HW112590   3.504   6.245   2.153
 3897SOL    HW212591   3.666   6.257   2.144
 3898SOL     OW12592   3.579   3.284   4.272
 3898SOL    HW112593   3.502   3.309   4.212
 3898SOL    HW212594   3.560   3.316   4.365
 3899SOL     OW12595   5.007   0.547   4.331
 3899SOL    HW112596   5.031   0.458   4.293
 3899SOL    HW212597   4.977   0.536   4.425
 3900SOL     OW12598   4.948   2.814   4.012
 3900SOL    HW112599   5.011   2.737   4.004
 3900SOL    HW212600   4.987   2.884   4.071
 3901SOL     OW12601   2.943   6.327   5.086
 3901SOL    HW112602   2.899   6.411   5.054
 3901SOL    HW212603   3.016   6.350   5.151
 3902SOL     OW12604   6.261   3.661   1.805
 3902SOL    HW112605   6.273   3.735   1.739
 3902SOL    HW212606   6.194   3.688   1.874
 3903SOL     OW12607   4.820   4.895   0.174
 3903SOL    HW112608   4.879   4.820   0.143
 3903SOL    HW212609   4.830   4.907   0.273
 3904SOL     OW12610   2.303   6.606   5.656
 3904SOL    HW112611   2.264   6.514   5.654
 3904SOL    HW212612   2.375   6.610   5.725
 3905SOL     OW12613   5.751   6.917   5.652
 3905SOL    HW112614   5.807   6.869   5.584
 3905SOL    HW212615   5.808   6.945   5.729
 3906SOL     OW12616   2.661   5.418   5.220
 3906SOL    HW112617   2.713   5.443   5.301
 3906SOL    HW212618   2.658   5.318   5.212
 3907SOL     OW12619   6.731   6.522   5.194
 3907SOL    HW112620   6.653   6.506   5.134
 3907SOL    HW212621   6.700   6.562   5.280
 3908SOL     OW12622   1.790   1.139   6.905
 3908SOL    HW112623   1.860   1.111   6.839
 3908SOL    HW212624   1.824   1.217   6.958
 3909SOL     OW12625   0.275   5.053   6.009
 3909SOL    HW112626   0.313   4.986   6.073
 3909SOL    HW212627   0.177   5.037   5.997
 3910SOL     OW12628   3.426   4.093   1.959
 3910SOL    HW112629   3.397   3.998   1.948
 3910SOL    HW212630   3.402   4.146   1.878
 3911SOL     OW12631   4.342   1.715   0.246
 3911SOL    HW112632   4.358   1.809   0.216
 3911SOL    HW212633   4.300   1.662   0.173
 3912SOL     OW12634   3.788   1.345   6.342
 3912SOL    HW112635   3.697   1.306   6.354
 3912SOL    HW212636   3.857   1.273   6.357
 3913SOL     OW12637   3.055   5.946   6.484
 3913SOL    HW112638   2.957   5.948   6.468
 3913SOL    HW212639   3.097   6.028   6.446
 3914SOL     OW12640   5.010   1.009   0.992
 3914SOL    HW112641   5.078   1.070   0.951
 3914SOL    HW212642   4.920   1.054   0.990
 3915SOL     OW12643   4.396   6.245   1.213
 3915SOL    HW112644   4.419   6.288   1.125
 3915SOL    HW212645   4.408   6.146   1.206
 3916SOL     OW12646   1.801   6.368   2.310
 3916SOL    HW112647   1.790   6.430   2.387
 3916SOL    HW212648   1.885   6.316   2.320
 3917SOL     OW12649   1.260   5.067   0.188
 3917SOL    HW112650   1.271   4.995   0.120
 3917SOL    HW212651   1.349   5.103   0.213
 3918SOL     OW12652   4.277   6.472   2.210
 3918SOL    HW112653   4.297   6.494   2.115
 3918SOL    HW212654   4.319   6.540   2.270
 3919SOL     OW12655   3.510   6.937   6.792
 3919SOL    HW112656   3.438   6.947   6.723
 3919SOL    HW212657   3.528   0.004   6.834
 3920SOL     OW12658   2.717   2.088   6.506
 3920SOL    HW112659   2.719   2.184   6.533
 3920SOL    HW212660   2.696   2.081   6.408
 3921SOL     OW12661   0.601   3.158   0.310
 3921SOL    HW112662   0.666   3.200   0.247
 3921SOL    HW212663   0.509   3.191   0.290
 3922SOL     OW12664   4.680   5.136   0.470
 3922SOL    HW112665   4.612   5.064   0.458
 3922SOL    HW212666   4.683   5.163   0.567
 3923SOL     OW12667   6.161   1.906   6.980
 3923SOL    HW112668   6.250   1.948   6.967
 3923SOL    HW212669   6.090   1.976   6.978
 3924SOL     OW12670   0.427   4.902   3.050
 3924SOL    HW112671   0.522   4.877   3.072
 3924SOL    HW212672   0.365   4.829   3.079
 3925SOL     OW12673   4.120   3.931   0.734
 3925SOL    HW112674   4.183   3.876   0.789
 3925SOL    HW212675   4.168   4.012   0.700
 3926SOL     OW12676   6.779   6.509   3.933
 3926SOL    HW112677   6.681   6.512   3.955
 3926SOL    HW212678   6.829   6.573   3.992
 3927SOL     OW12679   0.328   3.058   4.510
 3927SOL    HW112680   0.289   3.042   4.419
 3927SOL    HW212681   0.326   3.156   4.530
 3928SOL     OW12682   3.759   5.706   4.726
 3928SOL    HW112683   3.663   5.719   4.701
 3928SOL    HW212684   3.771   5.614   4.765
 3929SOL     OW12685   0.329   1.906   6.831
 3929SOL    HW112686   0.333   1.991   6.884
 3929SOL    HW212687   0.305   1.927   6.737
 3930SOL     OW12688   1.522   2.080   3.449
 3930SOL    HW112689   1.541   1.984   3.430
 3930SOL    HW212690   1.607   2.132   3.447
 3931SOL     OW12691   2.054   1.713   2.098
 3931SOL    HW112692   2.131   1.773   2.120
 3931SOL    HW212693   1.968   1.760   2.118
 3932SOL     OW12694   1.890   4.267   3.691
 3932SOL    HW112695   1.967   4.328   3.674
 3932SOL    HW212696   1.857   4.280   3.784
 3933SOL     OW12697   1.853   0.133   0.060
 3933SOL    HW112698   1.849   0.232   0.074
 3933SOL    HW212699   1.760   0.097   0.058
 3934SOL     OW12700   0.454   0.939   1.918
 3934SOL    HW112701   0.517   0.887   1.975
 3934SOL    HW212702   0.396   0.996   1.976
 3935SOL     OW12703   1.702   0.827   5.137
 3935SOL    HW112704   1.696   0.893   5.063
 3935SOL    HW212705   1.739   0.872   5.219
 3936SOL     OW12706   6.952   6.247   5.231
 3936SOL    HW112707   6.909   6.281   5.148
 3936SOL    HW212708   0.009   6.304   5.254
 3937SOL     OW12709   0.357   6.779   2.874
 3937SOL    HW112710   0.433   6.716   2.859
 3937SOL    HW212711   0.296   6.741   2.944
 3938SOL     OW12712   5.900   2.895   3.615
 3938SOL    HW112713   5.975   2.837   3.648
 3938SOL    HW212714   5.826   2.895   3.682
 3939SOL     OW12715   3.221   2.076   3.179
 3939SOL    HW112716   3.153   2.139   3.215
 3939SOL    HW212717   3.245   2.102   3.086
 3940SOL     OW12718   3.633   4.923   2.298
 3940SOL    HW112719   3.617   4.885   2.207
 3940SOL    HW212720   3.555   4.901   2.357
 3941SOL     OW12721   6.390   0.568   5.095
 3941SOL    HW112722   6.317   0.530   5.039
 3941SOL    HW212723   6.478   0.551   5.051
 3942SOL     OW12724   1.006   6.503   5.705
 3942SOL    HW112725   1.001   6.589   5.654
 3942SOL    HW212726   1.097   6.462   5.692
 3943SOL     OW12727   0.786   3.437   2.631
 3943SOL    HW112728   0.719   3.430   2.705
 3943SOL    HW212729   0.868   3.385   2.654
 3944SOL     OW12730   5.652   4.090   5.693
 3944SOL    HW112731   5.643   4.106   5.791
 3944SOL    HW212732   5.730   4.030   5.675
 3945SOL     OW12733   0.938   2.463   2.591
 3945SOL    HW112734   0.854   2.499   2.549
 3945SOL    HW212735   0.941   2.364   2.581
 3946SOL     OW12736   6.347   4.142   5.967
 3946SOL    HW112737   6.353   4.051   5.927
 3946SOL    HW212738   6.257   4.181   5.950
 3947SOL     OW12739   5.802   5.782   1.352
 3947SOL    HW112740   5.742   5.796   1.432
 3947SOL    HW212741   5.746   5.776   1.269
 3948SOL     OW12742   0.338   5.151   0.528
 3948SOL    HW112743   0.281   5.214   0.581
 3948SOL    HW212744   0.404   5.107   0.590
 3949SOL     OW12745   6.290   6.662   3.113
 3949SOL    HW112746   6.296   6.672   3.013
 3949SOL    HW212747   6.253   6.572   3.134
 3950SOL     OW12748   3.461   4.210   1.289
 3950SOL    HW112749   3.523   4.133   1.301
 3950SOL    HW212750   3.421   4.206   1.197
 3951SOL     OW12751   0.445   0.532   0.017
 3951SOL    HW112752   0.440   0.623   0.058
 3951SOL    HW212753   0.472   0.539   6.943
 3952SOL     OW12754   6.018   3.241   5.090
 3952SOL    HW112755   5.994   3.252   4.993
 3952SOL    HW212756   6.116   3.223   5.098
 3953SOL     OW12757   3.392   4.752   0.272
 3953SOL    HW112758   3.419   4.667   0.227
 3953SOL    HW212759   3.304   4.738   0.318
 3954SOL     OW12760   5.682   5.555   5.463
 3954SOL    HW112761   5.723   5.464   5.473
 3954SOL    HW212762   5.607   5.551   5.397
 3955SOL     OW12763   4.438   6.664   6.852
 3955SOL    HW112764   4.366   6.605   6.888
 3955SOL    HW212765   4.467   6.728   6.924
 3956SOL     OW12766   1.538   1.833   4.340
 3956SOL    HW112767   1.573   1.739   4.332
 3956SOL    HW212768   1.485   1.855   4.258
 3957SOL     OW12769   4.250   6.873   3.504
 3957SOL    HW112770   4.317   6.853   3.575
 3957SOL    HW212771   4.253   6.803   3.433
 3958SOL     OW12772   5.816   0.213   6.284
 3958SOL    HW112773   5.802   0.312   6.293
 3958SOL    HW212774   5.906   0.189   6.320
 3959SOL     OW12775   3.418   6.590   0.698
 3959SOL    HW112776   3.403   6.684   0.727
 3959SOL    HW212777   3.415   6.529   0.777
 3960SOL     OW12778   5.938   1.745   6.020
 3960SOL    HW112779   6.003   1.785   6.084
 3960SOL    HW212780   5.965   1.650   6.000
 3961SOL     OW12781   5.333   2.865   2.626
 3961SOL    HW112782   5.338   2.775   2.669
 3961SOL    HW212783   5.277   2.860   2.543
 3962SOL     OW12784   1.592   5.814   6.729
 3962SOL    HW112785   1.495   5.799   6.747
 3962SOL    HW212786   1.620   5.754   6.653
 3963SOL     OW12787   4.742   4.976   3.772
 3963SOL    HW112788   4.660   4.919   3.771
 3963SOL    HW212789   4.793   4.958   3.856
 3964SOL     OW12790   4.174   4.804   5.026
 3964SOL    HW112791   4.183   4.901   5.002
 3964SOL    HW212792   4.189   4.748   4.944
 3965SOL     OW12793   4.221   3.715   6.537
 3965SOL    HW112794   4.233   3.777   6.615
 3965SOL    HW212795   4.263   3.756   6.456
 3966SOL     OW12796   6.787   5.023   6.814
 3966SOL    HW112797   6.764   4.926   6.821
 3966SOL    HW212798   6.741   5.074   6.886
 3967SOL     OW12799   1.273   4.784   2.795
 3967SOL    HW112800   1.237   4.710   2.852
 3967SOL    HW212801   1.365   4.809   2.826
 3968SOL     OW12802   6.565   0.541   0.761
 3968SOL    HW112803   6.545   0.468   0.826
 3968SOL    HW212804   6.644   0.593   0.793
 3969SOL     OW12805   0.483   3.962   3.022
 3969SOL    HW112806   0.479   4.053   3.063
 3969SOL    HW212807   0.490   3.971   2.922
 3970SOL     OW12808   4.554   5.376   3.927
 3970SOL    HW112809   4.515   5.457   3.971
 3970SOL    HW212810   4.494   5.345   3.853
 3971SOL     OW12811   2.302   4.793   2.321
 3971SOL    HW112812   2.295   4.694   2.333
 3971SOL    HW212813   2.272   4.839   2.405
 3972SOL     OW12814   1.881   5.333   1.638
 3972SOL    HW112815   1.847   5.311   1.730
 3972SOL    HW212816   1.980   5.347   1.642
 3973SOL     OW12817   2.495   4.272   5.548
 3973SOL    HW112818   2.569   4.338   5.553
 3973SOL    HW212819   2.429   4.290   5.621
 3974SOL     OW12820   2.043   0.936   5.670
 3974SOL    HW112821   2.091   0.876   5.734
 3974SOL    HW212822   1.945   0.937   5.692
 3975SOL     OW12823   6.015   0.170   6.503
 3975SOL    HW112824   5.934   0.180   6.560
 3975SOL    HW212825   6.071   0.094   6.538
 3976SOL     OW12826   2.084   4.737   1.096
 3976SOL    HW112827   2.033   4.687   1.166
 3976SOL    HW212828   2.150   4.797   1.139
 3977SOL     OW12829   2.965   4.525   5.559
 3977SOL    HW112830   2.977   4.622   5.580
 3977SOL    HW212831   3.043   4.474   5.595
 3978SOL     OW12832   5.655   0.737   4.307
 3978SOL    HW112833   5.578   0.797   4.333
 3978SOL    HW212834   5.692   0.693   4.389
 3979SOL     OW12835   2.357   6.299   1.457
 3979SOL    HW112836   2.376   6.204   1.480
 3979SOL    HW212837   2.315   6.303   1.366
 3980SOL     OW12838   6.784   4.395   6.272
 3980SOL    HW112839   6.799   4.418   6.367
 3980SOL    HW212840   6.761   4.298   6.264
 3981SOL     OW12841   1.808   1.691   6.659
 3981SOL    HW112842   1.732   1.684   6.724
 3981SOL    HW212843   1.782   1.750   6.583
 3982SOL     OW12844   2.308   0.611   4.245
 3982SOL    HW112845   2.266   0.690   4.201
 3982SOL    HW212846   2.299   0.619   4.345
 3983SOL     OW12847   3.914   5.786   4.351
 3983SOL    HW112848   3.903   5.852   4.426
 3983SOL    HW212849   3.827   5.742   4.332
 3984SOL     OW12850   1.959   0.090   2.766
 3984SOL    HW112851   1.872   0.105   2.719
 3984SOL    HW212852   1.993   7.020   2.745
 3985SOL     OW12853   2.530   4.544   7.004
 3985SOL    HW112854   2.472   4.513   6.929
 3985SOL    HW212855   2.474   4.561   0.064
 3986SOL     OW12856   6.751   1.930   3.250
 3986SOL    HW112857   6.762   1.926   3.151
 3986SOL    HW212858   6.827   1.883   3.295
 3987SOL     OW12859   1.935   5.953   4.848
 3987SOL    HW112860   1.898   5.915   4.764
 3987SOL    HW212861   1.916   5.891   4.924
 3988SOL     OW12862   3.862   2.651   5.759
 3988SOL    HW112863   3.936   2.584   5.755
 3988SOL    HW212864   3.785   2.613   5.810
 3989SOL     OW12865   6.304   1.413   0.367
 3989SOL    HW112866   6.280   1.490   0.427
 3989SOL    HW212867   6.382   1.439   0.309
 3990SOL     OW12868   6.053   1.599   3.930
 3990SOL    HW112869   6.119   1.675   3.929
 3990SOL    HW212870   6.071   1.539   3.852
 3991SOL     OW12871   5.789   1.644   1.996
 3991SOL    HW112872   5.848   1.649   2.076
 3991SOL    HW212873   5.698   1.677   2.019
 3992SOL     OW12874   3.895   2.161   6.078
 3992SOL    HW112875   3.863   2.183   5.986
 3992SOL    HW212876   3.929   2.067   6.080
 3993SOL     OW12877   1.273   1.796   3.218
 3993SOL    HW112878   1.361   1.762   3.186
 3993SOL    HW212879   1.265   1.780   3.316
 3994SOL     OW12880   1.444   2.817   6.022
 3994SOL    HW112881   1.349   2.836   6.045
 3994SOL    HW212882   1.480   2.747   6.084
 3995SOL     OW12883   2.119   3.988   4.455
 3995SOL    HW112884   2.032   3.971   4.408
 3995SOL    HW212885   2.147   3.904   4.503
 3996SOL     OW12886   1.211   0.673   4.659
 3996SOL    HW112887   1.272   0.594   4.652
 3996SOL    HW212888   1.241   0.744   4.595
 3997SOL     OW12889   4.826   2.869   2.869
 3997SOL    HW112890   4.835   2.837   2.963
 3997SOL    HW212891   4.844   2.967   2.865
 3998SOL     OW12892   4.710   1.428   2.584
 3998SOL    HW112893   4.785   1.392   2.640
 3998SOL    HW212894   4.686   1.362   2.513
 3999SOL     OW12895   5.174   3.557   3.388
 3999SOL    HW112896   5.256   3.499   3.393
 3999SOL    HW212897   5.178   3.626   3.461
 4000SOL     OW12898   3.540   5.687   2.944
 4000SOL    HW112899   3.590   5.623   3.002
 4000SOL    HW212900   3.442   5.672   2.955
 4001SOL     OW12901   1.324   2.608   4.216
 4001SOL    HW112902   1.360   2.586   4.307
 4001SOL    HW212903   1.259   2.685   4.223
 4002SOL     OW12904   2.452   2.961   0.258
 4002SOL    HW112905   2.386   2.895   0.295
 4002SOL    HW212906   2.406   3.022   0.194
 4003SOL     OW12907   2.720   0.055   5.719
 4003SOL    HW112908   2.786   0.129   5.713
 4003SOL    HW212909   2.638   0.087   5.766
 4004SOL     OW12910   6.136   2.394   3.929
 4004SOL    HW112911   6.210   2.460   3.944
 4004SOL    HW212912   6.057   2.418   3.985
 4005SOL     OW12913   4.925   5.314   1.135
 4005SOL    HW112914   4.932   5.364   1.049
 4005SOL    HW212915   5.011   5.324   1.186
 4006SOL     OW12916   4.218   4.664   1.875
 4006SOL    HW112917   4.283   4.620   1.937
 4006SOL    HW212918   4.202   4.604   1.796
 4007SOL     OW12919   0.764   3.420   1.705
 4007SOL    HW112920   0.690   3.355   1.724
 4007SOL    HW212921   0.809   3.396   1.619
 4008SOL     OW12922   3.623   1.819   4.508
 4008SOL    HW112923   3.563   1.874   4.451
 4008SOL    HW212924   3.576   1.796   4.593
 4009SOL     OW12925   4.801   2.719   0.370
 4009SOL    HW112926   4.717   2.670   0.392
 4009SOL    HW212927   4.865   2.656   0.325
 4010SOL     OW12928   2.050   3.974   1.280
 4010SOL    HW112929   2.122   4.041   1.299
 4010SOL    HW212930   2.067   3.891   1.334
 4011SOL     OW12931   0.906   0.149   1.809
 4011SOL    HW112932   0.941   0.135   1.902
 4011SOL    HW212933   0.812   0.181   1.813
 4012SOL     OW12934   4.361   4.669   1.292
 4012SOL    HW112935   4.269   4.635   1.309
 4012SOL    HW212936   4.357   4.746   1.228
 4013SOL     OW12937   2.943   0.343   0.875
 4013SOL    HW112938   2.903   0.251   0.872
 4013SOL    HW212939   2.940   0.378   0.968
 4014SOL     OW12940   3.949   5.672   3.800
 4014SOL    HW112941   3.857   5.658   3.763
 4014SOL    HW212942   3.999   5.585   3.797
 4015SOL     OW12943   3.740   5.530   5.733
 4015SOL    HW112944   3.692   5.478   5.804
 4015SOL    HW212945   3.805   5.593   5.776
 4016SOL     OW12946   1.054   5.401   6.714
 4016SOL    HW112947   1.094   5.463   6.647
 4016SOL    HW212948   1.127   5.359   6.769
 4017SOL     OW12949   0.023   6.975   0.122
 4017SOL    HW112950   0.049   6.898   0.064
 4017SOL    HW212951   6.948   6.965   0.147
 4018SOL     OW12952   5.701   6.279   1.790
 4018SOL    HW112953   5.629   6.335   1.832
 4018SOL    HW212954   5.727   6.206   1.852
 4019SOL     OW12955   5.637   3.636   2.116
 4019SOL    HW112956   5.662   3.559   2.173
 4019SOL    HW212957   5.717   3.696   2.104
 4020SOL     OW12958   6.098   2.427   6.170
 4020SOL    HW112959   6.174   2.492   6.161
 4020SOL    HW212960   6.129   2.336   6.141
 4021SOL     OW12961   3.113   3.903   5.757
 4021SOL    HW112962   3.058   3.826   5.787
 4021SOL    HW212963   3.100   3.917   5.659
 4022SOL     OW12964   4.211   0.153   6.722
 4022SOL    HW112965   4.111   0.149   6.723
 4022SOL    HW212966   4.246   0.128   6.812
 4023SOL     OW12967   6.830   0.880   4.094
 4023SOL    HW112968   6.884   0.809   4.047
 4023SOL    HW212969   6.733   0.869   4.071
 4024SOL     OW12970   2.652   5.052   4.263
 4024SOL    HW112971   2.705   5.019   4.341
 4024SOL    HW212972   2.713   5.094   4.197
 4025SOL     OW12973   0.262   6.058   4.959
 4025SOL    HW112974   0.239   6.067   5.055
 4025SOL    HW212975   0.251   5.962   4.930
 4026SOL     OW12976   6.769   6.971   3.326
 4026SOL    HW112977   6.731   6.950   3.416
 4026SOL    HW212978   6.852   0.005   3.337
 4027SOL     OW12979   2.866   3.027   1.132
 4027SOL    HW112980   2.839   2.931   1.130
 4027SOL    HW212981   2.869   3.059   1.227
 4028SOL     OW12982   2.621   2.280   2.869
 4028SOL    HW112983   2.532   2.275   2.824
 4028SOL    HW212984   2.624   2.362   2.927
 4029SOL     OW12985   2.851   4.455   6.230
 4029SOL    HW112986   2.897   4.518   6.292
 4029SOL    HW212987   2.771   4.499   6.191
 4030SOL     OW12988   1.076   1.820   0.277
 4030SOL    HW112989   0.986   1.862   0.261
 4030SOL    HW212990   1.147   1.888   0.265
 4031SOL     OW12991   5.003   6.877   3.235
 4031SOL    HW112992   4.975   6.788   3.200
 4031SOL    HW212993   5.099   6.873   3.264
 4032SOL     OW12994   6.300   0.204   2.350
 4032SOL    HW112995   6.341   0.174   2.265
 4032SOL    HW212996   6.371   0.235   2.413
 4033SOL     OW12997   2.865   3.521   2.253
 4033SOL    HW112998   2.893   3.600   2.198
 4033SOL    HW212999   2.792   3.472   2.206
 4034SOL     OW13000   6.923   1.414   4.988
 4034SOL    HW113001   6.955   1.506   4.965
 4034SOL    HW213002   6.901   1.365   4.903
 4035SOL     OW13003   6.850   2.471   0.740
 4035SOL    HW113004   6.772   2.521   0.778
 4035SOL    HW213005   6.827   2.437   0.649
 4036SOL     OW13006   5.184   6.671   2.413
 4036SOL    HW113007   5.092   6.633   2.408
 4036SOL    HW213008   5.180   6.762   2.454
 4037SOL     OW13009   2.089   1.356   0.855
 4037SOL    HW113010   2.089   1.456   0.855
 4037SOL    HW213011   2.023   1.323   0.787
 4038SOL     OW13012   4.311   4.280   1.625
 4038SOL    HW113013   4.348   4.248   1.538
 4038SOL    HW213014   4.379   4.269   1.697
 4039SOL     OW13015   4.661   4.395   1.536
 4039SOL    HW113016   4.672   4.297   1.548
 4039SOL    HW213017   4.587   4.413   1.471
 4040SOL     OW13018   3.399   0.402   5.913
 4040SOL    HW113019   3.486   0.442   5.886
 4040SOL    HW213020   3.336   0.474   5.943
 4041SOL     OW13021   2.348   5.351   1.082
 4041SOL    HW113022   2.434   5.327   1.037
 4041SOL    HW213023   2.314   5.271   1.132
 4042SOL     OW13024   6.151   5.364   2.579
 4042SOL    HW113025   6.142   5.310   2.663
 4042SOL    HW213026   6.223   5.324   2.521
 4043SOL     OW13027   5.179   2.409   4.602
 4043SOL    HW113028   5.080   2.401   4.614
 4043SOL    HW213029   5.226   2.370   4.681
 4044SOL     OW13030   4.537   0.269   3.832
 4044SOL    HW113031   4.527   0.255   3.931
 4044SOL    HW213032   4.536   0.180   3.786
 4045SOL     OW13033   2.728   4.930   6.057
 4045SOL    HW113034   2.645   4.887   6.020
 4045SOL    HW213035   2.727   5.028   6.036
 4046SOL     OW13036   0.502   1.339   3.822
 4046SOL    HW113037   0.451   1.289   3.752
 4046SOL    HW213038   0.442   1.357   3.900
 4047SOL     OW13039   1.910   2.253   0.463
 4047SOL    HW113040   2.006   2.264   0.490
 4047SOL    HW213041   1.895   2.160   0.430
 4048SOL     OW13042   5.326   2.241   2.280
 4048SOL    HW113043   5.293   2.227   2.186
 4048SOL    HW213044   5.253   2.221   2.344
 4049SOL     OW13045   6.249   5.856   6.680
 4049SOL    HW113046   6.213   5.932   6.626
 4049SOL    HW213047   6.267   5.778   6.619
 4050SOL     OW13048   1.613   6.514   0.765
 4050SOL    HW113049   1.676   6.492   0.691
 4050SOL    HW213050   1.542   6.576   0.731
 4051SOL     OW13051   3.658   2.789   0.096
 4051SOL    HW113052   3.684   2.717   0.160
 4051SOL    HW213053   3.581   2.758   0.040
 4052SOL     OW13054   7.016   0.602   2.159
 4052SOL    HW113055   0.078   0.548   2.155
 4052SOL    HW213056   0.015   0.698   2.140
 4053SOL     OW13057   2.872   5.404   4.097
 4053SOL    HW113058   2.865   5.336   4.169
 4053SOL    HW213059   2.894   5.493   4.137
 4054SOL     OW13060   0.283   3.290   1.946
 4054SOL    HW113061   0.252   3.351   1.872
 4054SOL    HW213062   0.238   3.201   1.936
 4055SOL     OW13063   4.018   3.532   6.279
 4055SOL    HW113064   3.967   3.542   6.194
 4055SOL    HW213065   3.976   3.590   6.350
 4056SOL     OW13066   3.957   3.596   0.750
 4056SOL    HW113067   3.972   3.675   0.809
 4056SOL    HW213068   3.861   3.568   0.754
 4057SOL     OW13069   5.294   2.324   1.285
 4057SOL    HW113070   5.204   2.355   1.316
 4057SOL    HW213071   5.300   2.224   1.295
 4058SOL     OW13072   1.924   0.502   4.090
 4058SOL    HW113073   1.828   0.476   4.088
 4058SOL    HW213074   1.935   0.595   4.052
 4059SOL     OW13075   1.082   2.835   3.590
 4059SOL    HW113076   1.039   2.871   3.673
 4059SOL    HW213077   1.133   2.752   3.613
 4060SOL     OW13078   4.787   5.520   4.670
 4060SOL    HW113079   4.862   5.457   4.651
 4060SOL    HW213080   4.804   5.567   4.757
 4061SOL     OW13081   3.247   4.966   1.622
 4061SOL    HW113082   3.249   4.927   1.714
 4061SOL    HW213083   3.153   4.964   1.588
 4062SOL     OW13084   2.894   1.559   2.937
 4062SOL    HW113085   2.914   1.642   2.989
 4062SOL    HW213086   2.796   1.555   2.916
 4063SOL     OW13087   6.001   6.607   5.067
 4063SOL    HW113088   5.980   6.546   4.990
 4063SOL    HW213089   6.023   6.698   5.032
 4064SOL     OW13090   1.942   6.392   3.576
 4064SOL    HW113091   1.856   6.432   3.606
 4064SOL    HW213092   1.987   6.453   3.511
 4065SOL     OW13093   0.228   6.402   0.620
 4065SOL    HW113094   0.233   6.493   0.662
 4065SOL    HW213095   0.315   6.381   0.574
 4066SOL     OW13096   5.009   5.359   2.814
 4066SOL    HW113097   4.966   5.294   2.751
 4066SOL    HW213098   4.938   5.408   2.865
 4067SOL     OW13099   5.798   3.017   2.775
 4067SOL    HW113100   5.801   3.046   2.680
 4067SOL    HW213101   5.711   2.972   2.794
 4068SOL     OW13102   3.285   0.729   4.483
 4068SOL    HW113103   3.296   0.657   4.414
 4068SOL    HW213104   3.361   0.794   4.476
 4069SOL     OW13105   4.136   4.573   6.105
 4069SOL    HW113106   4.132   4.591   6.203
 4069SOL    HW213107   4.056   4.520   6.077
 4070SOL     OW13108   0.468   3.618   1.817
 4070SOL    HW113109   0.399   3.598   1.887
 4070SOL    HW213110   0.428   3.677   1.747
 4071SOL     OW13111   1.440   0.767   5.065
 4071SOL    HW113112   1.445   0.670   5.042
 4071SOL    HW213113   1.532   0.804   5.078
 4072SOL     OW13114   1.088   6.077   4.236
 4072SOL    HW113115   1.049   6.155   4.187
 4072SOL    HW213116   1.046   5.993   4.204
 4073SOL     OW13117   2.472   5.583   6.014
 4073SOL    HW113118   2.479   5.572   5.915
 4073SOL    HW213119   2.467   5.680   6.036
 4074SOL     OW13120   1.047   2.917   2.104
 4074SOL    HW113121   1.111   2.843   2.122
 4074SOL    HW213122   1.097   3.002   2.087
 4075SOL     OW13123   3.568   2.095   2.539
 4075SOL    HW113124   3.558   2.004   2.499
 4075SOL    HW213125   3.641   2.144   2.491
 4076SOL     OW13126   2.485   3.663   5.612
 4076SOL    HW113127   2.503   3.584   5.552
 4076SOL    HW213128   2.554   3.733   5.598
 4077SOL     OW13129   3.719   6.732   0.403
 4077SOL    HW113130   3.625   6.760   0.389
 4077SOL    HW213131   3.781   6.807   0.379
 4078SOL     OW13132   6.471   5.229   2.062
 4078SOL    HW113133   6.522   5.314   2.075
 4078SOL    HW213134   6.377   5.242   2.094
 4079SOL     OW13135   0.469   2.185   3.524
 4079SOL    HW113136   0.408   2.158   3.449
 4079SOL    HW213137   0.445   2.135   3.607
 4080SOL     OW13138   2.632   3.477   0.655
 4080SOL    HW113139   2.667   3.452   0.565
 4080SOL    HW213140   2.535   3.452   0.662
 4081SOL     OW13141   1.502   2.031   3.771
 4081SOL    HW113142   1.553   2.095   3.714
 4081SOL    HW213143   1.477   1.951   3.717
 4082SOL     OW13144   1.551   2.442   0.973
 4082SOL    HW113145   1.493   2.381   0.919
 4082SOL    HW213146   1.501   2.474   1.053
 4083SOL     OW13147   5.887   4.535   2.357
 4083SOL    HW113148   5.897   4.495   2.266
 4083SOL    HW213149   5.795   4.517   2.391
 4084SOL     OW13150   4.707   2.134   3.266
 4084SOL    HW113151   4.666   2.046   3.288
 4084SOL    HW213152   4.712   2.191   3.348
 4085SOL     OW13153   2.647   5.804   0.948
 4085SOL    HW113154   2.594   5.868   0.891
 4085SOL    HW213155   2.692   5.855   1.021
 4086SOL     OW13156   6.895   4.883   1.124
 4086SOL    HW113157   6.963   4.835   1.068
 4086SOL    HW213158   6.909   4.982   1.116
 4087SOL     OW13159   2.060   1.650   2.781
 4087SOL    HW113160   2.032   1.563   2.820
 4087SOL    HW213161   2.044   1.723   2.847
 4088SOL     OW13162   6.371   1.014   6.728
 4088SOL    HW113163   6.342   0.980   6.639
 4088SOL    HW213164   6.440   1.086   6.715
 4089SOL     OW13165   6.254   4.504   4.425
 4089SOL    HW113166   6.316   4.431   4.397
 4089SOL    HW213167   6.270   4.585   4.367
 4090SOL     OW13168   1.842   5.818   5.608
 4090SOL    HW113169   1.916   5.763   5.647
 4090SOL    HW213170   1.796   5.766   5.537
 4091SOL     OW13171   0.431   6.136   0.051
 4091SOL    HW113172   0.350   6.162   7.021
 4091SOL    HW213173   0.427   6.179   0.142
 4092SOL     OW13174   5.659   2.820   3.746
 4092SOL    HW113175   5.673   2.749   3.677
 4092SOL    HW213176   5.562   2.845   3.749
 4093SOL     OW13177   5.303   6.486   1.448
 4093SOL    HW113178   5.383   6.427   1.458
 4093SOL    HW213179   5.227   6.448   1.500
 4094SOL     OW13180   1.151   4.669   6.209
 4094SOL    HW113181   1.125   4.620   6.292
 4094SOL    HW213182   1.092   4.749   6.199
 4095SOL     OW13183   0.178   3.854   0.362
 4095SOL    HW113184   0.161   3.784   0.293
 4095SOL    HW213185   0.140   3.825   0.450
 4096SOL     OW13186   4.127   0.489   6.611
 4096SOL    HW113187   4.207   0.550   6.618
 4096SOL    HW213188   4.156   0.395   6.624
 4097SOL     OW13189   4.915   4.497   4.642
 4097SOL    HW113190   4.837   4.447   4.681
 4097SOL    HW213191   4.989   4.432   4.622
 4098SOL     OW13192   1.035   2.298   1.524
 4098SOL    HW113193   1.030   2.395   1.500
 4098SOL    HW213194   1.123   2.279   1.567
 4099SOL     OW13195   3.887   5.351   0.837
 4099SOL    HW113196   3.819   5.413   0.874
 4099SOL    HW213197   3.953   5.402   0.782
 4100SOL     OW13198   0.569   0.006   4.411
 4100SOL    HW113199   0.486   0.055   4.439
 4100SOL    HW213200   0.543   6.948   4.356
 4101SOL     OW13201   0.373   0.764   0.116
 4101SOL    HW113202   0.320   0.815   0.047
 4101SOL    HW213203   0.412   0.828   0.182
 4102SOL     OW13204   1.408   0.782   0.966
 4102SOL    HW113205   1.321   0.732   0.963
 4102SOL    HW213206   1.481   0.718   0.991
 4103SOL     OW13207   0.693   6.647   1.566
 4103SOL    HW113208   0.631   6.605   1.500
 4103SOL    HW213209   0.641   6.680   1.644
 4104SOL     OW13210   0.091   4.617   3.106
 4104SOL    HW113211   0.182   4.580   3.121
 4104SOL    HW213212   0.093   4.716   3.118
 4105SOL     OW13213   6.133   0.193   2.906
 4105SOL    HW113214   6.120   0.291   2.924
 4105SOL    HW213215   6.162   0.179   2.812
 4106SOL     OW13216   7.011   3.204   3.454
 4106SOL    HW113217   0.025   3.286   3.409
 4106SOL    HW213218   0.010   3.208   3.552
 4107SOL     OW13219   1.020   5.928   0.459
 4107SOL    HW113220   1.068   5.885   0.536
 4107SOL    HW213221   0.930   5.960   0.489
 4108SOL     OW13222   6.466   4.985   4.256
 4108SOL    HW113223   6.558   4.949   4.273
 4108SOL    HW213224   6.459   5.016   4.161
 4109SOL     OW13225   6.600   0.059   4.867
 4109SOL    HW113226   6.643   6.998   4.830
 4109SOL    HW213227   6.553   0.108   4.794
 4110SOL     OW13228   4.133   3.984   6.279
 4110SOL    HW113229   4.202   4.009   6.211
 4110SOL    HW213230   4.083   3.904   6.247
 4111SOL     OW13231   5.739   4.700   6.209
 4111SOL    HW113232   5.808   4.694   6.138
 4111SOL    HW213233   5.783   4.696   6.299
 4112SOL     OW13234   4.830   6.084   4.600
 4112SOL    HW113235   4.924   6.118   4.609
 4112SOL    HW213236   4.796   6.103   4.508
 4113SOL     OW13237   5.459   5.503   4.911
 4113SOL    HW113238   5.443   5.583   4.970
 4113SOL    HW213239   5.412   5.516   4.824
 4114SOL     OW13240   4.443   2.152   3.854
 4114SOL    HW113241   4.436   2.055   3.877
 4114SOL    HW213242   4.372   2.203   3.903
 4115SOL     OW13243   3.338   4.932   2.710
 4115SOL    HW113244   3.297   5.021   2.692
 4115SOL    HW213245   3.266   4.865   2.727
 4116SOL     OW13246   4.145   1.682   3.168
 4116SOL    HW113247   4.075   1.651   3.103
 4116SOL    HW213248   4.173   1.775   3.144
 4117SOL     OW13249   0.992   3.279   2.696
 4117SOL    HW113250   1.002   3.235   2.607
 4117SOL    HW213251   1.074   3.334   2.715
 4118SOL     OW13252   5.143   6.542   0.152
 4118SOL    HW113253   5.099   6.554   0.063
 4118SOL    HW213254   5.150   6.445   0.174
 4119SOL     OW13255   2.929   1.493   3.984
 4119SOL    HW113256   2.874   1.437   4.046
 4119SOL    HW213257   3.026   1.482   4.006
 4120SOL     OW13258   3.220   0.844   5.788
 4120SOL    HW113259   3.133   0.831   5.742
 4120SOL    HW213260   3.295   0.817   5.727
 4121SOL     OW13261   6.755   0.294   3.897
 4121SOL    HW113262   6.785   0.319   3.989
 4121SOL    HW213263   6.828   0.243   3.851
 4122SOL     OW13264   1.342   6.751   4.412
 4122SOL    HW113265   1.398   6.740   4.495
 4122SOL    HW213266   1.288   6.669   4.397
 4123SOL     OW13267   4.050   4.621   5.342
 4123SOL    HW113268   4.101   4.666   5.416
 4123SOL    HW213269   4.041   4.524   5.362
 4124SOL     OW13270   6.455   6.258   0.353
 4124SOL    HW113271   6.479   6.351   0.379
 4124SOL    HW213272   6.363   6.237   0.387
 4125SOL     OW13273   4.261   2.203   2.933
 4125SOL    HW113274   4.276   2.229   2.837
 4125SOL    HW213275   4.342   2.156   2.967
 4126SOL     OW13276   1.667   3.364   3.170
 4126SOL    HW113277   1.706   3.425   3.240
 4126SOL    HW213278   1.702   3.271   3.184
 4127SOL     OW13279   6.022   3.589   5.205
 4127SOL    HW113280   6.085   3.513   5.219
 4127SOL    HW213281   5.950   3.587   5.275
 4128SOL     OW13282   0.910   3.226   1.230
 4128SOL    HW113283   0.913   3.326   1.228
 4128SOL    HW213284   0.815   3.195   1.229
 4129SOL     OW13285   3.283   0.923   6.961
 4129SOL    HW113286   3.288   0.836   6.913
 4129SOL    HW213287   3.372   0.947   6.999
 4130SOL     OW13288   6.409   2.544   0.629
 4130SOL    HW113289   6.458   2.609   0.570
 4130SOL    HW213290   6.454   2.455   0.626
 4131SOL     OW13291   0.201   1.365   3.170
 4131SOL    HW113292   0.225   1.450   3.216
 4131SOL    HW213293   0.253   1.289   3.211
 4132SOL     OW13294   4.772   4.191   3.612
 4132SOL    HW113295   4.764   4.124   3.538
 4132SOL    HW213296   4.724   4.275   3.586
 4133SOL     OW13297   3.535   5.745   1.489
 4133SOL    HW113298   3.589   5.804   1.549
 4133SOL    HW213299   3.598   5.689   1.434
 4134SOL     OW13300   1.987   4.176   1.078
 4134SOL    HW113301   2.067   4.192   1.020
 4134SOL    HW213302   2.005   4.100   1.140
 4135SOL     OW13303   0.605   2.376   2.098
 4135SOL    HW113304   0.568   2.292   2.139
 4135SOL    HW213305   0.564   2.391   2.009
 4136SOL     OW13306   1.686   3.451   2.855
 4136SOL    HW113307   1.698   3.509   2.935
 4136SOL    HW213308   1.766   3.392   2.844
 4137SOL     OW13309   1.533   3.421   1.200
 4137SOL    HW113310   1.477   3.414   1.282
 4137SOL    HW213311   1.621   3.463   1.224
 4138SOL     OW13312   4.204   5.617   2.498
 4138SOL    HW113313   4.182   5.699   2.550
 4138SOL    HW213314   4.251   5.643   2.414
 4139SOL     OW13315   1.472   1.049   5.229
 4139SOL    HW113316   1.408   0.973   5.239
 4139SOL    HW213317   1.452   1.098   5.144
 4140SOL     OW13318   3.461   0.896   5.427
 4140SOL    HW113319   3.553   0.903   5.388
 4140SOL    HW213320   3.407   0.975   5.397
 4141SOL     OW13321   5.237   6.041   1.187
 4141SOL    HW113322   5.325   6.028   1.232
 4141SOL    HW213323   5.171   5.975   1.223
 4142SOL     OW13324   6.712   5.055   0.940
 4142SOL    HW113325   6.749   5.090   1.025
 4142SOL    HW213326   6.613   5.041   0.950
 4143SOL     OW13327   5.383   2.838   1.151
 4143SOL    HW113328   5.353   2.887   1.234
 4143SOL    HW213329   5.377   2.740   1.166
 4144SOL     OW13330   5.130   1.814   0.263
 4144SOL    HW113331   5.195   1.860   0.323
 4144SOL    HW213332   5.166   1.725   0.237
 4145SOL     OW13333   0.242   6.682   1.653
 4145SOL    HW113334   0.219   6.627   1.733
 4145SOL    HW213335   0.167   6.678   1.587
 4146SOL     OW13336   6.699   0.295   3.496
 4146SOL    HW113337   6.659   0.234   3.427
 4146SOL    HW213338   6.675   0.262   3.587
 4147SOL     OW13339   4.126   4.830   6.034
 4147SOL    HW113340   4.134   4.734   6.062
 4147SOL    HW213341   4.141   4.838   5.936
 4148SOL     OW13342   2.554   0.241   4.373
 4148SOL    HW113343   2.469   0.290   4.392
 4148SOL    HW213344   2.631   0.290   4.414
 4149SOL     OW13345   0.140   4.481   1.033
 4149SOL    HW113346   0.198   4.522   1.104
 4149SOL    HW213347   0.161   4.523   0.945
 4150SOL     OW13348   0.904   1.046   5.824
 4150SOL    HW113349   0.892   0.990   5.742
 4150SOL    HW213350   0.892   0.989   5.905
 4151SOL     OW13351   3.223   6.331   5.719
 4151SOL    HW113352   3.142   6.282   5.749
 4151SOL    HW213353   3.195   6.412   5.667
 4152SOL     OW13354   4.123   5.991   1.931
 4152SOL    HW113355   4.195   6.009   1.863
 4152SOL    HW213356   4.145   6.037   2.017
 4153SOL     OW13357   5.759   5.417   1.417
 4153SOL    HW113358   5.771   5.336   1.475
 4153SOL    HW213359   5.668   5.456   1.433
 4154SOL     OW13360   0.037   5.011   4.173
 4154SOL    HW113361   0.012   5.015   4.269
 4154SOL    HW213362   0.121   5.063   4.158
 4155SOL     OW13363   0.141   0.671   1.202
 4155SOL    HW113364   0.195   0.612   1.263
 4155SOL    HW213365   0.188   0.758   1.190
 4156SOL     OW13366   6.035   5.858   4.867
 4156SOL    HW113367   5.971   5.888   4.938
 4156SOL    HW213368   6.006   5.893   4.778
 4157SOL     OW13369   5.412   5.963   4.494
 4157SOL    HW113370   5.365   5.921   4.416
 4157SOL    HW213371   5.401   6.062   4.490
 4158SOL     OW13372   0.946   3.187   1.828
 4158SOL    HW113373   0.976   3.171   1.734
 4158SOL    HW213374   0.891   3.110   1.859
 4159SOL     OW13375   1.743   2.911   3.293
 4159SOL    HW113376   1.794   2.996   3.284
 4159SOL    HW213377   1.645   2.929   3.277
 4160SOL     OW13378   5.479   0.701   0.059
 4160SOL    HW113379   5.538   0.675   0.135
 4160SOL    HW213380   5.531   0.756   7.016
 4161SOL     OW13381   1.107   2.006   0.734
 4161SOL    HW113382   1.199   2.044   0.748
 4161SOL    HW213383   1.057   2.005   0.820
 4162SOL     OW13384   6.467   5.996   0.402
 4162SOL    HW113385   6.565   5.976   0.396
 4162SOL    HW213386   6.451   6.092   0.381
 4163SOL     OW13387   5.167   0.588   3.527
 4163SOL    HW113388   5.102   0.513   3.540
 4163SOL    HW213389   5.252   0.552   3.490
 4164SOL     OW13390   1.960   6.854   5.553
 4164SOL    HW113391   2.035   6.869   5.618
 4164SOL    HW213392   1.937   6.757   5.552
 4165SOL     OW13393   4.605   0.507   5.871
 4165SOL    HW113394   4.655   0.456   5.941
 4165SOL    HW213395   4.670   0.561   5.816
 4166SOL     OW13396   5.573   1.589   0.372
 4166SOL    HW113397   5.597   1.665   0.313
 4166SOL    HW213398   5.575   1.504   0.320
 4167SOL     OW13399   2.587   4.275   6.831
 4167SOL    HW113400   2.626   4.332   6.903
 4167SOL    HW213401   2.630   4.185   6.833
 4168SOL     OW13402   0.466   4.339   0.880
 4168SOL    HW113403   0.511   4.398   0.947
 4168SOL    HW213404   0.535   4.287   0.830
 4169SOL     OW13405   5.668   5.140   4.378
 4169SOL    HW113406   5.670   5.070   4.449
 4169SOL    HW213407   5.715   5.222   4.410
 4170SOL     OW13408   4.698   3.220   6.384
 4170SOL    HW113409   4.619   3.183   6.335
 4170SOL    HW213410   4.672   3.303   6.433
 4171SOL     OW13411   6.253   5.744   0.652
 4171SOL    HW113412   6.319   5.751   0.726
 4171SOL    HW213413   6.299   5.712   0.569
 4172SOL     OW13414   1.862   1.810   6.393
 4172SOL    HW113415   1.961   1.803   6.408
 4172SOL    HW213416   1.830   1.898   6.426
 4173SOL     OW13417   5.221   3.788   4.858
 4173SOL    HW113418   5.218   3.697   4.899
 4173SOL    HW213419   5.310   3.829   4.875
 4174SOL     OW13420   4.429   1.050   2.742
 4174SOL    HW113421   4.459   1.134   2.786
 4174SOL    HW213422   4.465   1.046   2.648
 4175SOL     OW13423   2.014   5.136   4.481
 4175SOL    HW113424   2.004   5.147   4.580
 4175SOL    HW213425   2.087   5.196   4.447
 4176SOL     OW13426   3.772   6.426   1.898
 4176SOL    HW113427   3.775   6.516   1.856
 4176SOL    HW213428   3.705   6.425   1.972
 4177SOL     OW13429   5.828   5.311   5.499
 4177SOL    HW113430   5.787   5.231   5.455
 4177SOL    HW213431   5.836   5.294   5.597
 4178SOL     OW13432   3.927   6.555   4.121
 4178SOL    HW113433   3.890   6.498   4.195
 4178SOL    HW213434   3.867   6.634   4.107
 4179SOL     OW13435   5.415   3.367   3.078
 4179SOL    HW113436   5.473   3.295   3.039
 4179SOL    HW213437   5.448   3.456   3.046
 4180SOL     OW13438   4.083   3.824   0.486
 4180SOL    HW113439   4.068   3.850   0.581
 4180SOL    HW213440   4.076   3.904   0.427
 4181SOL     OW13441   4.016   0.968   0.132
 4181SOL    HW113442   4.003   1.004   0.039
 4181SOL    HW213443   3.996   1.040   0.198
 4182SOL     OW13444   0.606   6.239   3.489
 4182SOL    HW113445   0.666   6.159   3.487
 4182SOL    HW213446   0.659   6.320   3.465
 4183SOL     OW13447   2.834   1.415   0.283
 4183SOL    HW113448   2.873   1.479   0.217
 4183SOL    HW213449   2.759   1.459   0.332
 4184SOL     OW13450   3.818   6.578   2.514
 4184SOL    HW113451   3.916   6.599   2.515
 4184SOL    HW213452   3.799   6.512   2.442
 4185SOL     OW13453   1.019   4.822   3.290
 4185SOL    HW113454   1.107   4.845   3.248
 4185SOL    HW213455   1.035   4.767   3.372
 4186SOL     OW13456   3.006   4.801   0.158
 4186SOL    HW113457   3.023   4.799   0.060
 4186SOL    HW213458   2.914   4.768   0.177
 4187SOL     OW13459   3.671   3.461   5.335
 4187SOL    HW113460   3.682   3.542   5.277
 4187SOL    HW213461   3.696   3.483   5.429
 4188SOL     OW13462   5.541   0.826   5.188
 4188SOL    HW113463   5.555   0.742   5.240
 4188SOL    HW213464   5.629   0.869   5.168
 4189SOL     OW13465   3.616   4.923   5.299
 4189SOL    HW113466   3.698   4.867   5.298
 4189SOL    HW213467   3.579   4.929   5.206
 4190SOL     OW13468   0.996   0.272   0.850
 4190SOL    HW113469   1.001   0.275   0.750
 4190SOL    HW213470   1.030   0.183   0.882
 4191SOL     OW13471   4.850   4.466   3.877
 4191SOL    HW113472   4.819   4.458   3.972
 4191SOL    HW213473   4.841   4.561   3.848
 4192SOL     OW13474   0.529   1.070   3.951
 4192SOL    HW113475   0.621   1.090   3.984
 4192SOL    HW213476   0.496   1.146   3.895
 4193SOL     OW13477   0.041   1.255   1.528
 4193SOL    HW113478   0.041   1.340   1.580
 4193SOL    HW213479   6.984   1.199   1.554
 4194SOL     OW13480   5.976   0.046   4.346
 4194SOL    HW113481   5.879   0.059   4.325
 4194SOL    HW213482   6.002   0.106   4.421
 4195SOL     OW13483   3.974   6.535   1.368
 4195SOL    HW113484   4.033   6.584   1.432
 4195SOL    HW213485   3.891   6.589   1.352
 4196SOL     OW13486   6.380   2.108   2.158
 4196SOL    HW113487   6.289   2.138   2.185
 4196SOL    HW213488   6.403   2.024   2.208
 4197SOL     OW13489   4.815   5.359   5.816
 4197SOL    HW113490   4.762   5.343   5.899
 4197SOL    HW213491   4.803   5.282   5.753
 4198SOL     OW13492   6.212   2.327   6.951
 4198SOL    HW113493   6.250   2.363   0.014
 4198SOL    HW213494   6.122   2.287   6.969
 4199SOL     OW13495   1.896   2.302   5.982
 4199SOL    HW113496   1.852   2.377   6.031
 4199SOL    HW213497   1.830   2.262   5.918
 4200SOL     OW13498   3.659   0.547   5.951
 4200SOL    HW113499   3.664   0.600   5.866
 4200SOL    HW213500   3.731   0.577   6.013
 4201SOL     OW13501   6.559   0.094   3.964
 4201SOL    HW113502   6.525   0.094   3.871
 4201SOL    HW213503   6.641   0.150   3.970
 4202SOL     OW13504   3.531   5.770   4.888
 4202SOL    HW113505   3.450   5.776   4.830
 4202SOL    HW213506   3.546   5.857   4.934
 4203SOL     OW13507   3.701   4.896   6.931
 4203SOL    HW113508   3.674   4.838   6.855
 4203SOL    HW213509   3.626   4.957   6.956
 4204SOL     OW13510   3.970   3.668   3.307
 4204SOL    HW113511   3.971   3.755   3.257
 4204SOL    HW213512   3.897   3.610   3.271
 4205SOL     OW13513   4.234   5.765   3.164
 4205SOL    HW113514   4.319   5.765   3.111
 4205SOL    HW213515   4.228   5.679   3.216
 4206SOL     OW13516   6.834   0.735   5.880
 4206SOL    HW113517   6.751   0.759   5.829
 4206SOL    HW213518   6.897   0.812   5.879
 4207SOL     OW13519   1.972   1.920   1.327
 4207SOL    HW113520   1.964   1.997   1.391
 4207SOL    HW213521   2.036   1.852   1.363
 4208SOL     OW13522   6.906   2.994   5.686
 4208SOL    HW113523   6.851   3.019   5.766
 4208SOL    HW213524   6.895   2.896   5.667
 4209SOL     OW13525   0.295   0.040   3.602
 4209SOL    HW113526   0.316   7.003   3.524
 4209SOL    HW213527   0.197   0.061   3.603
 4210SOL     OW13528   3.491   3.005   2.157
 4210SOL    HW113529   3.403   2.986   2.115
 4210SOL    HW213530   3.538   3.077   2.106
 4211SOL     OW13531   4.484   6.270   6.523
 4211SOL    HW113532   4.537   6.219   6.455
 4211SOL    HW213533   4.543   6.339   6.566
 4212SOL     OW13534   6.301   1.782   2.503
 4212SOL    HW113535   6.210   1.746   2.489
 4212SOL    HW213536   6.295   1.878   2.531
 4213SOL     OW13537   1.767   0.774   1.209
 4213SOL    HW113538   1.742   0.857   1.259
 4213SOL    HW213539   1.735   0.782   1.115
 4214SOL     OW13540   0.757   5.247   5.290
 4214SOL    HW113541   0.722   5.319   5.229
 4214SOL    HW213542   0.709   5.161   5.271
 4215SOL     OW13543   5.504   6.954   5.918
 4215SOL    HW113544   5.543   0.019   5.889
 4215SOL    HW213545   5.572   6.902   5.970
 4216SOL     OW13546   1.331   1.561   2.512
 4216SOL    HW113547   1.232   1.561   2.531
 4216SOL    HW213548   1.361   1.654   2.495
 4217SOL     OW13549   0.954   0.253   2.440
 4217SOL    HW113550   0.961   0.228   2.537
 4217SOL    HW213551   0.895   0.187   2.393
 4218SOL     OW13552   4.166   1.128   1.341
 4218SOL    HW113553   4.094   1.099   1.404
 4218SOL    HW213554   4.232   1.054   1.329
 4219SOL     OW13555   3.849   5.512   4.123
 4219SOL    HW113556   3.851   5.495   4.024
 4219SOL    HW213557   3.811   5.603   4.140
 4220SOL     OW13558   6.110   2.738   3.688
 4220SOL    HW113559   6.096   2.744   3.786
 4220SOL    HW213560   6.175   2.665   3.667
 4221SOL     OW13561   5.714   4.909   6.596
 4221SOL    HW113562   5.722   4.851   6.678
 4221SOL    HW213563   5.649   4.869   6.533
 4222SOL     OW13564   0.005   2.196   3.016
 4222SOL    HW113565   6.927   2.208   3.019
 4222SOL    HW213566   0.039   2.226   2.927
 4223SOL     OW13567   3.735   3.143   6.728
 4223SOL    HW113568   3.746   3.112   6.634
 4223SOL    HW213569   3.812   3.202   6.753
 4224SOL     OW13570   5.221   3.864   4.094
 4224SOL    HW113571   5.233   3.886   4.191
 4224SOL    HW213572   5.154   3.790   4.085
 4225SOL     OW13573   3.848   1.046   5.486
 4225SOL    HW113574   3.930   1.104   5.486
 4225SOL    HW213575   3.803   1.052   5.575
 4226SOL     OW13576   1.078   0.482   2.457
 4226SOL    HW113577   1.006   0.413   2.466
 4226SOL    HW213578   1.159   0.441   2.414
 4227SOL     OW13579   3.779   4.962   1.169
 4227SOL    HW113580   3.841   4.891   1.136
 4227SOL    HW213581   3.747   5.016   1.091
 4228SOL     OW13582   0.803   4.209   4.785
 4228SOL    HW113583   0.830   4.275   4.855
 4228SOL    HW213584   0.875   4.141   4.773
 4229SOL     OW13585   5.235   5.548   5.583
 4229SOL    HW113586   5.302   5.543   5.657
 4229SOL    HW213587   5.143   5.556   5.622
 4230SOL     OW13588   1.975   6.083   2.681
 4230SOL    HW113589   2.069   6.095   2.649
 4230SOL    HW213590   1.962   6.134   2.766
 4231SOL     OW13591   5.761   0.178   5.574
 4231SOL    HW113592   5.750   0.092   5.623
 4231SOL    HW213593   5.792   0.160   5.481
 4232SOL     OW13594   0.059   4.882   2.692
 4232SOL    HW113595   0.045   4.920   2.601
 4232SOL    HW213596   6.994   4.883   2.742
 4233SOL     OW13597   7.016   0.857   6.488
 4233SOL    HW113598   0.035   0.820   6.405
 4233SOL    HW213599   6.958   0.936   6.465
 4234SOL     OW13600   2.350   6.505   5.162
 4234SOL    HW113601   2.335   6.406   5.156
 4234SOL    HW213602   2.372   6.541   5.071
 4235SOL     OW13603   5.492   3.624   5.884
 4235SOL    HW113604   5.480   3.629   5.785
 4235SOL    HW213605   5.402   3.617   5.928
 4236SOL     OW13606   5.953   3.811   2.803
 4236SOL    HW113607   5.876   3.769   2.851
 4236SOL    HW213608   5.919   3.885   2.744
 4237SOL     OW13609   5.873   5.983   2.269
 4237SOL    HW113610   5.814   5.905   2.248
 4237SOL    HW213611   5.830   6.038   2.341
 4238SOL     OW13612   2.905   6.027   3.214
 4238SOL    HW113613   2.874   6.105   3.268
 4238SOL    HW213614   2.834   5.958   3.211
 4239SOL     OW13615   5.903   1.715   2.987
 4239SOL    HW113616   5.880   1.797   3.039
 4239SOL    HW213617   5.971   1.662   3.037
 4240SOL     OW13618   2.268   6.483   0.011
 4240SOL    HW113619   2.220   6.551   6.978
 4240SOL    HW213620   2.260   6.505   0.108
 4241SOL     OW13621   6.199   1.207   0.508
 4241SOL    HW113622   6.228   1.119   0.471
 4241SOL    HW213623   6.221   1.279   0.442
 4242SOL     OW13624   3.111   1.190   4.019
 4242SOL    HW113625   3.162   1.154   3.941
 4242SOL    HW213626   3.013   1.179   4.003
 4243SOL     OW13627   6.593   3.029   3.282
 4243SOL    HW113628   6.632   3.121   3.270
 4243SOL    HW213629   6.527   3.011   3.209
 4244SOL     OW13630   4.299   3.988   1.274
 4244SOL    HW113631   4.331   3.895   1.256
 4244SOL    HW213632   4.200   3.987   1.287
 4245SOL     OW13633   0.575   1.350   6.469
 4245SOL    HW113634   0.659   1.303   6.443
 4245SOL    HW213635   0.585   1.448   6.453
 4246SOL     OW13636   6.810   4.007   3.500
 4246SOL    HW113637   6.896   4.012   3.550
 4246SOL    HW213638   6.746   3.947   3.548
 4247SOL     OW13639   2.803   5.375   3.391
 4247SOL    HW113640   2.901   5.364   3.377
 4247SOL    HW213641   2.783   5.472   3.409
 4248SOL     OW13642   2.354   1.896   3.637
 4248SOL    HW113643   2.254   1.890   3.643
 4248SOL    HW213644   2.393   1.884   3.729
 4249SOL     OW13645   5.198   2.569   4.024
 4249SOL    HW113646   5.284   2.562   3.972
 4249SOL    HW213647   5.121   2.552   3.963
 4250SOL     OW13648   6.201   5.255   2.892
 4250SOL    HW113649   6.273   5.211   2.839
 4250SOL    HW213650   6.182   5.201   2.974
 4251SOL     OW13651   5.636   4.415   1.502
 4251SOL    HW113652   5.720   4.418   1.448
 4251SOL    HW213653   5.651   4.462   1.589
 4252SOL     OW13654   5.548   0.156   6.354
 4252SOL    HW113655   5.500   0.082   6.307
 4252SOL    HW213656   5.641   0.163   6.319
 4253SOL     OW13657   3.044   6.964   0.945
 4253SOL    HW113658   3.048   6.877   0.896
 4253SOL    HW213659   3.133   6.982   0.986
 4254SOL     OW13660   1.228   4.016   1.965
 4254SOL    HW113661   1.133   3.988   1.977
 4254SOL    HW213662   1.281   3.939   1.929
 4255SOL     OW13663   0.114   4.060   4.206
 4255SOL    HW113664   0.177   3.983   4.210
 4255SOL    HW213665   0.068   4.070   4.294
 4256SOL     OW13666   1.823   6.452   0.580
 4256SOL    HW113667   1.815   6.380   0.511
 4256SOL    HW213668   1.831   6.410   0.671
 4257SOL     OW13669   2.799   0.818   3.864
 4257SOL    HW113670   2.875   0.783   3.919
 4257SOL    HW213671   2.714   0.809   3.916
 4258SOL     OW13672   4.247   5.886   0.757
 4258SOL    HW113673   4.183   5.861   0.684
 4258SOL    HW213674   4.203   5.953   0.818
 4259SOL     OW13675   2.342   0.859   0.837
 4259SOL    HW113676   2.399   0.919   0.780
 4259SOL    HW213677   2.392   0.775   0.857
 4260SOL     OW13678   5.461   0.405   1.328
 4260SOL    HW113679   5.365   0.415   1.302
 4260SOL    HW213680   5.497   0.321   1.287
 4261SOL     OW13681   2.310   0.070   2.586
 4261SOL    HW113682   2.384   0.092   2.650
 4261SOL    HW213683   2.312   0.134   2.509
 4262SOL     OW13684   0.648   4.338   6.534
 4262SOL    HW113685   0.653   4.352   6.435
 4262SOL    HW213686   0.556   4.308   6.559
 4263SOL     OW13687   3.133   0.284   3.389
 4263SOL    HW113688   3.225   0.247   3.402
 4263SOL    HW213689   3.085   0.285   3.477
 4264SOL     OW13690   6.514   2.132   2.607
 4264SOL    HW113691   6.414   2.135   2.605
 4264SOL    HW213692   6.551   2.219   2.575
 4265SOL     OW13693   4.473   1.612   1.366
 4265SOL    HW113694   4.475   1.699   1.413
 4265SOL    HW213695   4.421   1.545   1.419
 4266SOL     OW13696   1.664   5.101   6.773
 4266SOL    HW113697   1.709   5.014   6.790
 4266SOL    HW213698   1.728   5.176   6.788
 4267SOL     OW13699   1.935   3.147   3.554
 4267SOL    HW113700   1.846   3.167   3.594
 4267SOL    HW213701   1.960   3.052   3.574
 4268SOL     OW13702   1.291   6.034   6.596
 4268SOL    HW113703   1.370   6.088   6.566
 4268SOL    HW213704   1.303   6.009   6.692
 4269SOL     OW13705   3.083   0.570   2.305
 4269SOL    HW113706   3.065   0.587   2.209
 4269SOL    HW213707   2.997   0.552   2.353
 4270SOL     OW13708   4.113   3.530   3.074
 4270SOL    HW113709   4.135   3.613   3.125
 4270SOL    HW213710   4.094   3.554   2.979
 4271SOL     OW13711   6.637   0.782   0.046
 4271SOL    HW113712   6.624   0.875   0.081
 4271SOL    HW213713   6.586   0.772   6.981
 4272SOL     OW13714   6.887   2.232   4.212
 4272SOL    HW113715   6.817   2.187   4.266
 4272SOL    HW213716   6.938   2.296   4.269
 4273SOL     OW13717   5.060   6.759   4.855
 4273SOL    HW113718   5.104   6.846   4.876
 4273SOL    HW213719   4.964   6.775   4.832
 4274SOL     OW13720   1.069   6.543   1.890
 4274SOL    HW113721   1.047   6.586   1.803
 4274SOL    HW213722   1.141   6.474   1.877
 4275SOL     OW13723   6.719   2.079   4.364
 4275SOL    HW113724   6.651   2.008   4.349
 4275SOL    HW213725   6.762   2.066   4.454
 4276SOL     OW13726   1.574   5.226   3.631
 4276SOL    HW113727   1.592   5.324   3.640
 4276SOL    HW213728   1.619   5.191   3.548
 4277SOL     OW13729   6.147   4.603   3.008
 4277SOL    HW113730   6.105   4.616   2.919
 4277SOL    HW213731   6.241   4.570   2.997
 4278SOL     OW13732   6.724   0.229   5.294
 4278SOL    HW113733   6.645   0.212   5.236
 4278SOL    HW213734   6.802   0.257   5.238
 4279SOL     OW13735   3.413   0.611   4.123
 4279SOL    HW113736   3.472   0.622   4.042
 4279SOL    HW213737   3.368   0.698   4.143
 4280SOL     OW13738   4.759   0.621   5.654
 4280SOL    HW113739   4.795   0.532   5.627
 4280SOL    HW213740   4.789   0.691   5.589
 4281SOL     OW13741   6.936   4.546   3.358
 4281SOL    HW113742   6.869   4.559   3.286
 4281SOL    HW213743   0.005   4.531   3.317
 4282SOL     OW13744   3.666   4.011   6.117
 4282SOL    HW113745   3.578   3.976   6.085
 4282SOL    HW213746   3.655   4.054   6.207
 4283SOL     OW13747   1.211   0.551   3.278
 4283SOL    HW113748   1.221   0.565   3.377
 4283SOL    HW213749   1.220   0.639   3.232
 4284SOL     OW13750   3.917   5.007   1.435
 4284SOL    HW113751   3.859   4.982   1.358
 4284SOL    HW213752   3.998   4.948   1.437
 4285SOL     OW13753   1.454   0.599   5.776
 4285SOL    HW113754   1.363   0.559   5.779
 4285SOL    HW213755   1.506   0.569   5.856
 4286SOL     OW13756   4.758   6.286   5.970
 4286SOL    HW113757   4.819   6.360   6.001
 4286SOL    HW213758   4.663   6.317   5.977
 4287SOL     OW13759   5.892   1.442   6.250
 4287SOL    HW113760   5.818   1.389   6.291
 4287SOL    HW213761   5.951   1.479   6.322
 4288SOL     OW13762   0.369   5.511   3.773
 4288SOL    HW113763   0.320   5.432   3.735
 4288SOL    HW213764   0.399   5.571   3.699
 4289SOL     OW13765   6.785   3.087   6.365
 4289SOL    HW113766   6.761   3.183   6.383
 4289SOL    HW213767   6.752   3.030   6.439
 4290SOL     OW13768   1.456   6.567   3.629
 4290SOL    HW113769   1.412   6.570   3.718
 4290SOL    HW213770   1.390   6.595   3.558
 4291SOL     OW13771   4.529   3.648   0.555
 4291SOL    HW113772   4.484   3.734   0.533
 4291SOL    HW213773   4.618   3.667   0.597
 4292SOL     OW13774   5.657   3.257   0.597
 4292SOL    HW113775   5.599   3.206   0.533
 4292SOL    HW213776   5.600   3.316   0.653
 4293SOL     OW13777   2.840   2.530   0.592
 4293SOL    HW113778   2.835   2.596   0.517
 4293SOL    HW213779   2.936   2.511   0.613
 4294SOL     OW13780   1.881   2.236   6.869
 4294SOL    HW113781   1.811   2.305   6.854
 4294SOL    HW213782   1.928   2.254   6.956
 4295SOL     OW13783   3.773   5.960   4.789
 4295SOL    HW113784   3.779   5.861   4.776
 4295SOL    HW213785   3.677   5.988   4.796
 4296SOL     OW13786   2.660   6.900   0.854
 4296SOL    HW113787   2.714   6.828   0.810
 4296SOL    HW213788   2.609   6.951   0.784
 4297SOL     OW13789   4.829   0.475   6.469
 4297SOL    HW113790   4.920   0.452   6.505
 4297SOL    HW213791   4.806   0.412   6.395
 4298SOL     OW13792   4.202   4.985   0.189
 4298SOL    HW113793   4.146   4.996   0.107
 4298SOL    HW213794   4.283   4.930   0.168
 4299SOL     OW13795   1.466   3.429   6.929
 4299SOL    HW113796   1.473   3.397   0.002
 4299SOL    HW213797   1.530   3.504   6.914
 4300SOL     OW13798   3.256   6.627   0.475
 4300SOL    HW113799   3.323   6.619   0.548
 4300SOL    HW213800   3.221   6.536   0.451
 4301SOL     OW13801   3.748   1.425   1.417
 4301SOL    HW113802   3.837   1.409   1.458
 4301SOL    HW213803   3.679   1.434   1.489
 4302SOL     OW13804   0.899   0.211   6.472
 4302SOL    HW113805   0.887   0.177   6.379
 4302SOL    HW213806   0.824   0.177   6.529
 4303SOL     OW13807   6.956   4.077   3.725
 4303SOL    HW113808   6.935   4.108   3.818
 4303SOL    HW213809   0.005   4.136   3.686
 4304SOL     OW13810   3.183   4.075   2.617
 4304SOL    HW113811   3.197   4.079   2.716
 4304SOL    HW213812   3.095   4.116   2.594
 4305SOL     OW13813   7.004   0.642   5.314
 4305SOL    HW113814   6.931   0.693   5.269
 4305SOL    HW213815   0.061   0.635   5.253
 4306SOL     OW13816   5.158   4.554   5.907
 4306SOL    HW113817   5.150   4.476   5.845
 4306SOL    HW213818   5.096   4.541   5.984
 4307SOL     OW13819   5.411   4.132   5.913
 4307SOL    HW113820   5.379   4.043   5.945
 4307SOL    HW213821   5.497   4.155   5.957
 4308SOL     OW13822   6.133   4.771   0.835
 4308SOL    HW113823   6.215   4.828   0.835
 4308SOL    HW213824   6.147   4.692   0.894
 4309SOL     OW13825   1.252   0.949   0.017
 4309SOL    HW113826   1.182   0.982   0.081
 4309SOL    HW213827   1.341   0.949   0.063
 4310SOL     OW13828   1.862   2.583   1.890
 4310SOL    HW113829   1.898   2.645   1.960
 4310SOL    HW213830   1.930   2.569   1.819
 4311SOL     OW13831   2.223   5.732   2.683
 4311SOL    HW113832   2.124   5.730   2.695
 4311SOL    HW213833   2.265   5.775   2.763
 4312SOL     OW13834   2.136   5.425   1.687
 4312SOL    HW113835   2.143   5.517   1.727
 4312SOL    HW213836   2.218   5.406   1.634
 4313SOL     OW13837   4.414   1.304   1.652
 4313SOL    HW113838   4.496   1.253   1.625
 4313SOL    HW213839   4.379   1.353   1.572
 4314SOL     OW13840   5.963   0.998   4.258
 4314SOL    HW113841   5.977   1.095   4.240
 4314SOL    HW213842   5.880   0.967   4.211
 4315SOL     OW13843   2.799   5.990   1.903
 4315SOL    HW113844   2.722   6.043   1.867
 4315SOL    HW213845   2.816   6.018   1.998
 4316SOL     OW13846   5.445   0.774   1.858
 4316SOL    HW113847   5.525   0.792   1.802
 4316SOL    HW213848   5.362   0.791   1.805
 4317SOL     OW13849   5.160   2.717   4.792
 4317SOL    HW113850   5.167   2.722   4.692
 4317SOL    HW213851   5.203   2.633   4.824
 4318SOL     OW13852   0.429   3.029   5.009
 4318SOL    HW113853   0.461   2.946   4.962
 4318SOL    HW213854   0.416   3.009   5.106
 4319SOL     OW13855   2.155   1.714   1.372
 4319SOL    HW113856   2.245   1.757   1.374
 4319SOL    HW213857   2.149   1.652   1.293
 4320SOL     OW13858   5.280   5.201   0.349
 4320SOL    HW113859   5.215   5.238   0.283
 4320SOL    HW213860   5.366   5.180   0.303
 4321SOL     OW13861   7.017   6.546   5.257
 4321SOL    HW113862   0.056   6.494   5.196
 4321SOL    HW213863   6.928   6.558   5.212
 4322SOL     OW13864   6.294   2.714   6.810
 4322SOL    HW113865   6.301   2.628   6.759
 4322SOL    HW213866   6.385   2.743   6.839
 4323SOL     OW13867   4.881   3.954   0.833
 4323SOL    HW113868   4.949   4.001   0.777
 4323SOL    HW213869   4.825   3.894   0.775
 4324SOL     OW13870   5.631   4.046   6.576
 4324SOL    HW113871   5.576   3.976   6.623
 4324SOL    HW213872   5.626   4.132   6.627
 4325SOL     OW13873   2.416   1.330   1.523
 4325SOL    HW113874   2.321   1.341   1.495
 4325SOL    HW213875   2.439   1.399   1.591
 4326SOL     OW13876   4.414   4.846   3.765
 4326SOL    HW113877   4.469   4.872   3.686
 4326SOL    HW213878   4.450   4.891   3.847
 4327SOL     OW13879   5.784   6.120   1.577
 4327SOL    HW113880   5.870   6.072   1.563
 4327SOL    HW213881   5.788   6.171   1.663
 4328SOL     OW13882   4.608   3.294   5.683
 4328SOL    HW113883   4.547   3.361   5.640
 4328SOL    HW213884   4.580   3.202   5.657
 4329SOL     OW13885   4.447   1.782   5.631
 4329SOL    HW113886   4.393   1.760   5.713
 4329SOL    HW213887   4.543   1.763   5.649
 4330SOL     OW13888   1.930   6.223   4.738
 4330SOL    HW113889   1.981   6.150   4.784
 4330SOL    HW213890   1.967   6.312   4.767
 4331SOL     OW13891   5.462   1.768   1.600
 4331SOL    HW113892   5.555   1.763   1.563
 4331SOL    HW213893   5.463   1.822   1.685
 4332SOL     OW13894   5.148   3.660   1.824
 4332SOL    HW113895   5.155   3.757   1.850
 4332SOL    HW213896   5.240   3.624   1.810
 4333SOL     OW13897   3.710   0.908   5.906
 4333SOL    HW113898   3.631   0.955   5.945
 4333SOL    HW213899   3.781   0.899   5.975
 4334SOL     OW13900   1.583   2.491   2.672
 4334SOL    HW113901   1.591   2.392   2.665
 4334SOL    HW213902   1.489   2.515   2.696
 4335SOL     OW13903   3.579   3.912   2.883
 4335SOL    HW113904   3.485   3.899   2.914
 4335SOL    HW213905   3.585   3.999   2.833
 4336SOL     OW13906   3.332   7.006   6.573
 4336SOL    HW113907   3.263   0.056   6.585
 4336SOL    HW213908   3.414   0.025   6.533
 4337SOL     OW13909   0.715   4.539   0.989
 4337SOL    HW113910   0.803   4.565   0.951
 4337SOL    HW213911   0.676   4.617   1.039
 4338SOL     OW13912   6.161   0.114   5.761
 4338SOL    HW113913   6.099   0.188   5.787
 4338SOL    HW213914   6.184   0.122   5.664
 4339SOL     OW13915   5.574   3.295   5.760
 4339SOL    HW113916   5.559   3.198   5.780
 4339SOL    HW213917   5.640   3.333   5.826
 4340SOL     OW13918   6.510   3.002   1.925
 4340SOL    HW113919   6.499   2.903   1.915
 4340SOL    HW213920   6.530   3.043   1.836
 4341SOL     OW13921   0.805   5.698   1.904
 4341SOL    HW113922   0.741   5.649   1.962
 4341SOL    HW213923   0.757   5.772   1.856
 4342SOL     OW13924   5.765   3.593   3.967
 4342SOL    HW113925   5.776   3.551   3.877
 4342SOL    HW213926   5.668   3.596   3.991
 4343SOL     OW13927   2.661   6.395   5.439
 4343SOL    HW113928   2.663   6.495   5.448
 4343SOL    HW213929   2.735   6.355   5.493
 4344SOL     OW13930   0.162   4.295   1.895
 4344SOL    HW113931   0.115   4.322   1.810
 4344SOL    HW213932   0.145   4.363   1.966
 4345SOL     OW13933   3.371   3.907   4.932
 4345SOL    HW113934   3.368   3.994   4.981
 4345SOL    HW213935   3.330   3.918   4.842
 4346SOL     OW13936   2.157   3.359   2.620
 4346SOL    HW113937   2.146   3.458   2.611
 4346SOL    HW213938   2.209   3.324   2.542
 4347SOL     OW13939   6.587   6.529   2.777
 4347SOL    HW113940   6.637   6.500   2.858
 4347SOL    HW213941   6.652   6.565   2.710
 4348SOL     OW13942   6.513   5.026   3.986
 4348SOL    HW113943   6.609   5.006   4.002
 4348SOL    HW213944   6.472   4.952   3.931
 4349SOL     OW13945   5.879   1.950   2.659
 4349SOL    HW113946   5.958   1.916   2.710
 4349SOL    HW213947   5.822   1.873   2.631
 4350SOL     OW13948   3.249   1.429   4.035
 4350SOL    HW113949   3.295   1.461   3.952
 4350SOL    HW213950   3.207   1.340   4.017
 4351SOL     OW13951   2.039   5.240   1.033
 4351SOL    HW113952   2.125   5.210   0.990
 4351SOL    HW213953   1.969   5.253   0.963
 4352SOL     OW13954   6.287   3.724   2.572
 4352SOL    HW113955   6.385   3.740   2.563
 4352SOL    HW213956   6.267   3.685   2.662
 4353SOL     OW13957   4.316   2.926   6.521
 4353SOL    HW113958   4.295   2.958   6.428
 4353SOL    HW213959   4.231   2.901   6.567
 4354SOL     OW13960   2.142   0.253   5.930
 4354SOL    HW113961   2.091   0.276   6.012
 4354SOL    HW213962   2.234   0.292   5.936
 4355SOL     OW13963   2.528   6.603   2.356
 4355SOL    HW113964   2.598   6.609   2.285
 4355SOL    HW213965   2.531   6.685   2.413
 4356SOL     OW13966   4.936   3.993   0.452
 4356SOL    HW113967   4.868   3.923   0.429
 4356SOL    HW213968   4.890   4.073   0.490
 4357SOL     OW13969   6.537   1.568   0.968
 4357SOL    HW113970   6.447   1.544   1.003
 4357SOL    HW213971   6.528   1.606   0.876
 4358SOL     OW13972   0.360   0.073   0.689
 4358SOL    HW113973   0.435   0.129   0.653
 4358SOL    HW213974   0.316   0.120   0.765
 4359SOL     OW13975   2.024   1.623   6.078
 4359SOL    HW113976   1.973   1.709   6.072
 4359SOL    HW213977   2.119   1.643   6.103
 4360SOL     OW13978   1.545   3.202   3.344
 4360SOL    HW113979   1.546   3.279   3.280
 4360SOL    HW213980   1.516   3.119   3.295
 4361SOL     OW13981   2.683   3.280   1.554
 4361SOL    HW113982   2.664   3.375   1.581
 4361SOL    HW213983   2.647   3.218   1.624
 4362SOL     OW13984   5.891   5.170   3.446
 4362SOL    HW113985   5.901   5.252   3.502
 4362SOL    HW213986   5.965   5.106   3.467
 4363SOL     OW13987   5.755   2.178   1.207
 4363SOL    HW113988   5.793   2.268   1.225
 4363SOL    HW213989   5.671   2.166   1.261
 4364SOL     OW13990   2.854   3.585   4.225
 4364SOL    HW113991   2.865   3.547   4.133
 4364SOL    HW213992   2.847   3.510   4.291
 4365SOL     OW13993   2.340   0.597   2.059
 4365SOL    HW113994   2.395   0.612   1.977
 4365SOL    HW213995   2.348   0.676   2.120
 4366SOL     OW13996   5.700   0.367   0.783
 4366SOL    HW113997   5.746   0.331   0.701
 4366SOL    HW213998   5.667   0.459   0.764
 4367SOL     OW13999   2.433   4.503   4.605
 4367SOL    HW114000   2.443   4.461   4.515
 4367SOL    HW214001   2.413   4.432   4.673
 4368SOL     OW14002   3.512   5.278   0.412
 4368SOL    HW114003   3.479   5.197   0.363
 4368SOL    HW214004   3.570   5.332   0.352
 4369SOL     OW14005   4.577   5.572   2.650
 4369SOL    HW114006   4.640   5.560   2.573
 4369SOL    HW214007   4.537   5.483   2.674
 4370SOL     OW14008   3.854   5.501   1.735
 4370SOL    HW114009   3.922   5.431   1.711
 4370SOL    HW214010   3.890   5.592   1.712
 4371SOL     OW14011   0.747   2.351   2.352
 4371SOL    HW114012   0.713   2.385   2.265
 4371SOL    HW214013   0.845   2.330   2.343
 4372SOL     OW14014   2.835   1.894   2.770
 4372SOL    HW114015   2.890   1.834   2.713
 4372SOL    HW214016   2.892   1.970   2.803
 4373SOL     OW14017   5.851   2.185   0.360
 4373SOL    HW114018   5.797   2.267   0.342
 4373SOL    HW214019   5.790   2.107   0.374
 4374SOL     OW14020   0.682   1.761   0.380
 4374SOL    HW114021   0.620   1.820   0.431
 4374SOL    HW214022   0.674   1.782   0.282
 4375SOL     OW14023   4.621   6.854   3.135
 4375SOL    HW114024   4.615   6.951   3.114
 4375SOL    HW214025   4.668   6.806   3.061
 4376SOL     OW14026   0.132   6.803   2.119
 4376SOL    HW114027   0.079   6.837   2.197
 4376SOL    HW214028   0.195   6.873   2.088
 4377SOL     OW14029   5.745   4.743   0.104
 4377SOL    HW114030   5.701   4.691   0.178
 4377SOL    HW214031   5.810   4.808   0.142
 4378SOL     OW14032   2.329   2.490   2.563
 4378SOL    HW114033   2.235   2.466   2.539
 4378SOL    HW214034   2.332   2.583   2.599
 4379SOL     OW14035   1.783   2.581   2.490
 4379SOL    HW114036   1.732   2.525   2.556
 4379SOL    HW214037   1.728   2.592   2.407
 4380SOL     OW14038   1.357   0.010   3.202
 4380SOL    HW114039   1.453   7.017   3.230
 4380SOL    HW214040   1.330   0.104   3.223
 4381SOL     OW14041   1.759   4.349   5.161
 4381SOL    HW114042   1.812   4.264   5.158
 4381SOL    HW214043   1.707   4.359   5.076
 4382SOL     OW14044   6.422   3.255   5.043
 4382SOL    HW114045   6.428   3.173   4.987
 4382SOL    HW214046   6.506   3.308   5.033
 4383SOL     OW14047   0.922   2.679   5.776
 4383SOL    HW114048   0.969   2.620   5.841
 4383SOL    HW214049   0.967   2.768   5.772
 4384SOL     OW14050   6.564   1.928   5.653
 4384SOL    HW114051   6.507   1.853   5.622
 4384SOL    HW214052   6.643   1.937   5.592
 4385SOL     OW14053   6.101   2.369   5.114
 4385SOL    HW114054   6.095   2.269   5.109
 4385SOL    HW214055   6.114   2.397   5.209
 4386SOL     OW14056   2.284   3.105   6.714
 4386SOL    HW114057   2.312   3.184   6.658
 4386SOL    HW214058   2.251   3.032   6.654
 4387SOL     OW14059   0.066   1.498   1.136
 4387SOL    HW114060   0.035   1.412   1.176
 4387SOL    HW214061   0.018   1.514   1.049
 4388SOL     OW14062   5.446   2.114   6.705
 4388SOL    HW114063   5.485   2.186   6.763
 4388SOL    HW214064   5.457   2.138   6.609
 4389SOL     OW14065   6.933   3.437   0.748
 4389SOL    HW114066   6.949   3.428   0.649
 4389SOL    HW214067   6.853   3.383   0.774
 4390SOL     OW14068   3.523   1.132   1.249
 4390SOL    HW114069   3.611   1.143   1.295
 4390SOL    HW214070   3.467   1.213   1.264
 4391SOL     OW14071   1.935   5.286   6.814
 4391SOL    HW114072   2.005   5.314   6.748
 4391SOL    HW214073   1.875   5.363   6.834
 4392SOL     OW14074   6.836   2.872   4.791
 4392SOL    HW114075   6.926   2.831   4.802
 4392SOL    HW214076   6.846   2.969   4.769
 4393SOL     OW14077   6.055   0.281   2.345
 4393SOL    HW114078   6.154   0.285   2.353
 4393SOL    HW214079   6.024   0.346   2.275
 4394SOL     OW14080   6.398   5.914   2.392
 4394SOL    HW114081   6.469   5.935   2.324
 4394SOL    HW214082   6.313   5.961   2.367
 4395SOL     OW14083   2.964   6.323   2.108
 4395SOL    HW114084   3.051   6.285   2.078
 4395SOL    HW214085   2.916   6.364   2.031
 4396SOL     OW14086   1.864   2.025   3.975
 4396SOL    HW114087   1.797   2.089   4.015
 4396SOL    HW214088   1.947   2.075   3.952
 4397SOL     OW14089   0.312   1.251   4.771
 4397SOL    HW114090   0.358   1.337   4.750
 4397SOL    HW214091   0.379   1.177   4.775
 4398SOL     OW14092   0.438   4.025   5.660
 4398SOL    HW114093   0.492   4.088   5.716
 4398SOL    HW214094   0.423   3.941   5.711
 4399SOL     OW14095   2.390   0.153   1.757
 4399SOL    HW114096   2.472   0.209   1.746
 4399SOL    HW214097   2.416   0.056   1.764
 4400SOL     OW14098   3.202   6.631   5.338
 4400SOL    HW114099   3.147   6.640   5.421
 4400SOL    HW214100   3.299   6.639   5.360
 4401SOL     OW14101   4.293   6.626   6.482
 4401SOL    HW114102   4.307   6.697   6.551
 4401SOL    HW214103   4.376   6.618   6.426
 4402SOL     OW14104   2.792   0.420   1.974
 4402SOL    HW114105   2.829   0.501   2.019
 4402SOL    HW214106   2.709   0.391   2.022
 4403SOL     OW14107   0.960   6.819   2.188
 4403SOL    HW114108   0.971   6.834   2.286
 4403SOL    HW214109   1.050   6.807   2.146
 4404SOL     OW14110   0.977   5.004   5.834
 4404SOL    HW114111   0.943   5.050   5.916
 4404SOL    HW214112   0.913   4.931   5.808
 4405SOL     OW14113   1.905   4.247   0.684
 4405SOL    HW114114   1.843   4.325   0.685
 4405SOL    HW214115   1.993   4.272   0.723
 4406SOL     OW14116   0.147   3.364   0.580
 4406SOL    HW114117   0.166   3.303   0.503
 4406SOL    HW214118   0.214   3.347   0.652
 4407SOL     OW14119   6.197   5.168   0.623
 4407SOL    HW114120   6.169   5.221   0.703
 4407SOL    HW214121   6.262   5.097   0.651
 4408SOL     OW14122   3.355   0.757   0.901
 4408SOL    HW114123   3.395   0.829   0.845
 4408SOL    HW214124   3.424   0.689   0.923
 4409SOL     OW14125   4.942   0.715   2.641
 4409SOL    HW114126   4.974   0.701   2.547
 4409SOL    HW214127   4.997   0.787   2.684
 4410SOL     OW14128   0.870   5.001   6.711
 4410SOL    HW114129   0.906   4.928   6.652
 4410SOL    HW214130   0.890   4.980   6.806
 4411SOL     OW14131   3.797   4.057   4.352
 4411SOL    HW114132   3.833   4.150   4.354
 4411SOL    HW214133   3.868   3.994   4.322
 4412SOL     OW14134   4.163   6.146   4.731
 4412SOL    HW114135   4.250   6.139   4.683
 4412SOL    HW214136   4.148   6.062   4.784
 4413SOL     OW14137   6.249   5.130   4.214
 4413SOL    HW114138   6.330   5.076   4.236
 4413SOL    HW214139   6.169   5.091   4.260
 4414SOL     OW14140   3.518   4.661   0.922
 4414SOL    HW114141   3.517   4.689   1.018
 4414SOL    HW214142   3.503   4.741   0.863
 4415SOL     OW14143   4.031   2.676   0.551
 4415SOL    HW114144   3.993   2.744   0.614
 4415SOL    HW214145   4.008   2.585   0.584
 4416SOL     OW14146   3.312   0.856   4.159
 4416SOL    HW114147   3.232   0.848   4.218
 4416SOL    HW214148   3.357   0.944   4.176
 4417SOL     OW14149   5.562   4.252   3.355
 4417SOL    HW114150   5.626   4.184   3.319
 4417SOL    HW214151   5.575   4.338   3.305
 4418SOL     OW14152   5.746   1.878   2.235
 4418SOL    HW114153   5.761   1.974   2.213
 4418SOL    HW214154   5.830   1.827   2.222
 4419SOL     OW14155   5.877   6.176   6.950
 4419SOL    HW114156   5.793   6.224   6.923
 4419SOL    HW214157   5.854   6.094   7.002
 4420SOL     OW14158   5.168   1.054   1.689
 4420SOL    HW114159   5.189   0.956   1.688
 4420SOL    HW214160   5.101   1.073   1.761
 4421SOL     OW14161   1.968   1.144   4.956
 4421SOL    HW114162   1.897   1.156   5.025
 4421SOL    HW214163   2.028   1.224   4.955
 4422SOL     OW14164   2.381   4.308   0.256
 4422SOL    HW114165   2.433   4.244   0.312
 4422SOL    HW214166   2.357   4.389   0.310
 4423SOL     OW14167   0.097   3.140   5.964
 4423SOL    HW114168   0.087   3.179   6.056
 4423SOL    HW214169   0.008   3.143   5.917
 4424SOL     OW14170   5.779   1.148   4.493
 4424SOL    HW114171   5.789   1.100   4.406
 4424SOL    HW214172   5.852   1.215   4.504
 4425SOL     OW14173   3.500   3.871   0.566
 4425SOL    HW114174   3.428   3.830   0.623
 4425SOL    HW214175   3.467   3.881   0.472
 4426SOL     OW14176   6.869   1.639   3.826
 4426SOL    HW114177   6.849   1.694   3.908
 4426SOL    HW214178   6.823   1.551   3.833
 4427SOL     OW14179   0.552   6.594   2.780
 4427SOL    HW114180   0.598   6.616   2.694
 4427SOL    HW214181   0.520   6.499   2.777
 4428SOL     OW14182   2.989   0.253   2.837
 4428SOL    HW114183   3.026   0.224   2.749
 4428SOL    HW214184   2.953   0.174   2.886
 4429SOL     OW14185   2.859   6.033   2.587
 4429SOL    HW114186   2.761   6.019   2.583
 4429SOL    HW214187   2.898   6.025   2.495
 4430SOL     OW14188   4.807   4.077   4.788
 4430SOL    HW114189   4.805   3.997   4.848
 4430SOL    HW214190   4.773   4.051   4.697
 4431SOL     OW14191   2.137   1.280   2.180
 4431SOL    HW114192   2.075   1.202   2.171
 4431SOL    HW214193   2.086   1.358   2.218
 4432SOL     OW14194   2.931   3.405   6.046
 4432SOL    HW114195   2.875   3.483   6.073
 4432SOL    HW214196   2.881   3.320   6.062
 4433SOL     OW14197   4.860   2.037   4.648
 4433SOL    HW114198   4.889   1.947   4.616
 4433SOL    HW214199   4.878   2.106   4.577
 4434SOL     OW14200   5.047   1.492   3.616
 4434SOL    HW114201   5.047   1.521   3.520
 4434SOL    HW214202   5.016   1.567   3.674
 4435SOL     OW14203   4.833   3.537   1.409
 4435SOL    HW114204   4.742   3.504   1.434
 4435SOL    HW214205   4.884   3.562   1.491
 4436SOL     OW14206   4.316   1.378   1.394
 4436SOL    HW114207   4.245   1.309   1.380
 4436SOL    HW214208   4.406   1.337   1.381
 4437SOL     OW14209   6.231   2.023   2.614
 4437SOL    HW114210   6.194   2.002   2.705
 4437SOL    HW214211   6.173   2.091   2.570
 4438SOL     OW14212   5.135   0.225   6.975
 4438SOL    HW114213   5.051   0.172   6.990
 4438SOL    HW214214   5.118   0.296   6.906
 4439SOL     OW14215   0.338   4.306   1.617
 4439SOL    HW114216   0.241   4.284   1.619
 4439SOL    HW214217   0.386   4.253   1.687
 4440SOL     OW14218   2.593   4.808   0.818
 4440SOL    HW114219   2.673   4.811   0.757
 4440SOL    HW214220   2.575   4.899   0.855
 4441SOL     OW14221   7.009   1.881   2.717
 4441SOL    HW114222   6.969   1.972   2.730
 4441SOL    HW214223   0.004   1.839   2.806
 4442SOL     OW14224   2.200   5.388   4.126
 4442SOL    HW114225   2.121   5.365   4.070
 4442SOL    HW214226   2.208   5.324   4.202
 4443SOL     OW14227   0.925   2.928   6.852
 4443SOL    HW114228   0.953   3.006   6.796
 4443SOL    HW214229   0.927   2.953   6.948
 4444SOL     OW14230   3.099   4.320   5.245
 4444SOL    HW114231   3.030   4.388   5.219
 4444SOL    HW214232   3.105   4.316   5.344
 4445SOL     OW14233   1.111   6.544   0.574
 4445SOL    HW114234   1.070   6.458   0.543
 4445SOL    HW214235   1.052   6.621   0.548
 4446SOL     OW14236   5.337   0.543   1.845
 4446SOL    HW114237   5.399   0.613   1.879
 4446SOL    HW214238   5.352   0.530   1.747
 4447SOL     OW14239   5.686   4.127   5.968
 4447SOL    HW114240   5.763   4.106   6.029
 4447SOL    HW214241   5.655   4.220   5.984
 4448SOL     OW14242   2.616   4.030   1.684
 4448SOL    HW114243   2.653   4.078   1.605
 4448SOL    HW214244   2.589   3.937   1.658
 4449SOL     OW14245   5.355   0.490   6.140
 4449SOL    HW114246   5.295   0.570   6.150
 4449SOL    HW214247   5.450   0.519   6.146
 4450SOL     OW14248   3.243   3.281   5.006
 4450SOL    HW114249   3.151   3.318   4.992
 4450SOL    HW214250   3.279   3.247   4.919
 4451SOL     OW14251   6.283   4.748   3.216
 4451SOL    HW114252   6.220   4.737   3.139
 4451SOL    HW214253   6.279   4.667   3.274
 4452SOL     OW14254   5.063   6.232   4.474
 4452SOL    HW114255   5.067   6.255   4.572
 4452SOL    HW214256   5.036   6.313   4.423
 4453SOL     OW14257   0.857   2.764   1.299
 4453SOL    HW114258   0.922   2.773   1.375
 4453SOL    HW214259   0.815   2.674   1.302
 4454SOL     OW14260   1.923   1.983   0.554
 4454SOL    HW114261   2.016   1.956   0.529
 4454SOL    HW214262   1.858   1.917   0.518
 4455SOL     OW14263   4.601   6.544   5.786
 4455SOL    HW114264   4.550   6.508   5.865
 4455SOL    HW214265   4.641   6.468   5.735
 4456SOL     OW14266   3.294   6.009   2.022
 4456SOL    HW114267   3.261   5.956   1.944
 4456SOL    HW214268   3.390   5.985   2.039
 4457SOL     OW14269   4.165   1.001   2.652
 4457SOL    HW114270   4.180   1.097   2.627
 4457SOL    HW214271   4.243   0.967   2.704
 4458SOL     OW14272   1.626   2.910   0.466
 4458SOL    HW114273   1.594   2.951   0.552
 4458SOL    HW214274   1.720   2.939   0.449
 4459SOL     OW14275   3.947   1.150   4.720
 4459SOL    HW114276   3.904   1.241   4.726
 4459SOL    HW214277   3.878   1.084   4.689
 4460SOL     OW14278   2.741   2.933   6.103
 4460SOL    HW114279   2.840   2.946   6.092
 4460SOL    HW214280   2.699   2.920   6.014
 4461SOL     OW14281   1.239   0.127   1.091
 4461SOL    HW114282   1.152   0.167   1.121
 4461SOL    HW214283   1.298   0.111   1.170
 4462SOL     OW14284   6.011   5.160   1.412
 4462SOL    HW114285   5.924   5.138   1.456
 4462SOL    HW214286   6.067   5.215   1.473
 4463SOL     OW14287   5.391   1.703   0.540
 4463SOL    HW114288   5.294   1.679   0.537
 4463SOL    HW214289   5.441   1.646   0.474
 4464SOL     OW14290   6.937   5.387   0.845
 4464SOL    HW114291   6.892   5.406   0.758
 4464SOL    HW214292   6.926   5.465   0.906
 4465SOL     OW14293   3.035   5.360   1.807
 4465SOL    HW114294   2.988   5.359   1.719
 4465SOL    HW214295   3.028   5.270   1.849
 4466SOL     OW14296   1.498   1.641   3.157
 4466SOL    HW114297   1.538   1.653   3.066
 4466SOL    HW214298   1.463   1.548   3.166
 4467SOL     OW14299   2.074   5.899   2.440
 4467SOL    HW114300   2.093   5.892   2.538
 4467SOL    HW214301   2.135   5.839   2.390
 4468SOL     OW14302   1.871   3.973   0.241
 4468SOL    HW114303   1.947   4.034   0.262
 4468SOL    HW214304   1.894   3.879   0.268
 4469SOL     OW14305   3.154   0.696   1.676
 4469SOL    HW114306   3.191   0.776   1.629
 4469SOL    HW214307   3.094   0.726   1.750
 4470SOL     OW14308   6.670   2.144   1.972
 4470SOL    HW114309   6.659   2.044   1.975
 4470SOL    HW214310   6.679   2.179   2.065
 4471SOL     OW14311   1.186   2.547   6.097
 4471SOL    HW114312   1.274   2.552   6.144
 4471SOL    HW214313   1.115   2.520   6.163
 4472SOL     OW14314   1.339   3.754   1.930
 4472SOL    HW114315   1.327   3.676   1.993
 4472SOL    HW214316   1.416   3.810   1.961
 4473SOL     OW14317   6.126   2.793   4.540
 4473SOL    HW114318   6.112   2.776   4.442
 4473SOL    HW214319   6.040   2.780   4.589
 4474SOL     OW14320   2.683   0.637   2.282
 4474SOL    HW114321   2.719   0.730   2.291
 4474SOL    HW214322   2.730   0.577   2.347
 4475SOL     OW14323   1.665   4.010   2.620
 4475SOL    HW114324   1.727   3.941   2.582
 4475SOL    HW214325   1.698   4.038   2.710
 4476SOL     OW14326   4.608   0.100   3.064
 4476SOL    HW114327   4.657   0.179   3.100
 4476SOL    HW214328   4.609   0.104   2.964
 4477SOL     OW14329   2.088   0.055   5.180
 4477SOL    HW114330   2.069   6.990   5.227
 4477SOL    HW214331   2.130   0.037   5.091
 4478SOL     OW14332   3.836   6.869   3.019
 4478SOL    HW114333   3.767   6.800   3.001
 4478SOL    HW214334   3.857   6.871   3.117
 4479SOL     OW14335   0.770   1.767   1.380
 4479SOL    HW114336   0.842   1.762   1.450
 4479SOL    HW214337   0.687   1.805   1.421
 4480SOL     OW14338   1.123   4.127   4.801
 4480SOL    HW114339   1.056   4.072   4.751
 4480SOL    HW214340   1.212   4.122   4.756
 4481SOL     OW14341   3.300   5.931   4.747
 4481SOL    HW114342   3.294   5.990   4.827
 4481SOL    HW214343   3.239   5.965   4.675
 4482SOL     OW14344   1.409   2.887   4.876
 4482SOL    HW114345   1.470   2.876   4.955
 4482SOL    HW214346   1.361   2.975   4.883
 4483SOL     OW14347   5.801   2.993   2.472
 4483SOL    HW114348   5.857   2.913   2.453
 4483SOL    HW214349   5.712   2.983   2.427
 4484SOL     OW14350   2.641   2.377   6.495
 4484SOL    HW114351   2.629   2.397   6.398
 4484SOL    HW214352   2.736   2.397   6.521
 4485SOL     OW14353   5.590   1.690   4.710
 4485SOL    HW114354   5.604   1.628   4.633
 4485SOL    HW214355   5.566   1.781   4.675
 4486SOL     OW14356   5.548   4.982   5.508
 4486SOL    HW114357   5.491   4.931   5.572
 4486SOL    HW214358   5.497   4.999   5.423
 4487SOL     OW14359   2.705   2.723   6.727
 4487SOL    HW114360   2.758   2.677   6.656
 4487SOL    HW214361   2.611   2.690   6.724
 4488SOL     OW14362   0.275   3.692   6.299
 4488SOL    HW114363   0.280   3.704   6.398
 4488SOL    HW214364   0.180   3.684   6.271
 4489SOL     OW14365   5.184   4.805   5.007
 4489SOL    HW114366   5.129   4.779   4.928
 4489SOL    HW214367   5.180   4.905   5.018
 4490SOL     OW14368   6.287   2.711   1.893
 4490SOL    HW114369   6.287   2.615   1.866
 4490SOL    HW214370   6.275   2.717   1.992
 4491SOL     OW14371   6.473   2.650   4.117
 4491SOL    HW114372   6.467   2.696   4.206
 4491SOL    HW214373   6.556   2.596   4.113
 4492SOL     OW14374   6.060   4.746   1.679
 4492SOL    HW114375   6.118   4.669   1.703
 4492SOL    HW214376   5.986   4.715   1.620
 4493SOL     OW14377   5.143   5.379   4.896
 4493SOL    HW114378   5.183   5.419   4.977
 4493SOL    HW214379   5.048   5.353   4.914
 4494SOL     OW14380   0.761   1.059   6.618
 4494SOL    HW114381   0.734   1.103   6.533
 4494SOL    HW214382   0.828   0.987   6.599
 4495SOL     OW14383   3.660   6.613   4.359
 4495SOL    HW114384   3.606   6.578   4.283
 4495SOL    HW214385   3.748   6.566   4.361
 4496SOL     OW14386   5.478   6.452   1.124
 4496SOL    HW114387   5.393   6.412   1.158
 4496SOL    HW214388   5.467   6.550   1.113
 4497SOL     OW14389   5.686   2.046   0.111
 4497SOL    HW114390   5.654   2.051   0.205
 4497SOL    HW214391   5.626   1.987   0.058
 4498SOL     OW14392   0.237   3.500   0.336
 4498SOL    HW114393   0.140   3.516   0.319
 4498SOL    HW214394   0.264   3.548   0.420
 4499SOL     OW14395   5.881   3.861   4.271
 4499SOL    HW114396   5.931   3.893   4.190
 4499SOL    HW214397   5.783   3.856   4.250
 4500SOL     OW14398   3.325   3.020   4.880
 4500SOL    HW114399   3.408   3.072   4.858
 4500SOL    HW214400   3.330   2.989   4.975
 4501SOL     OW14401   0.219   3.691   3.323
 4501SOL    HW114402   0.304   3.697   3.272
 4501SOL    HW214403   0.165   3.774   3.309
 4502SOL     OW14404   0.550   2.946   6.347
 4502SOL    HW114405   0.529   2.848   6.342
 4502SOL    HW214406   0.475   2.993   6.393
 4503SOL     OW14407   3.642   0.062   1.719
 4503SOL    HW114408   3.589   0.076   1.802
 4503SOL    HW214409   3.580   0.054   1.641
 4504SOL     OW14410   6.524   0.880   5.067
 4504SOL    HW114411   6.488   0.838   5.150
 4504SOL    HW214412   6.450   0.897   5.002
 4505SOL     OW14413   5.776   5.169   1.544
 4505SOL    HW114414   5.763   5.191   1.641
 4505SOL    HW214415   5.697   5.116   1.512
 4506SOL     OW14416   4.782   2.946   3.497
 4506SOL    HW114417   4.786   2.956   3.596
 4506SOL    HW214418   4.708   2.884   3.472
 4507SOL     OW14419   5.550   4.739   2.602
 4507SOL    HW114420   5.564   4.690   2.687
 4507SOL    HW214421   5.470   4.799   2.610
 4508SOL     OW14422   1.310   5.335   6.791
 4508SOL    HW114423   1.338   5.255   6.738
 4508SOL    HW214424   1.390   5.393   6.809
 4509SOL     OW14425   4.232   2.227   2.390
 4509SOL    HW114426   4.150   2.229   2.332
 4509SOL    HW214427   4.313   2.240   2.332
 4510SOL     OW14428   3.704   1.680   4.190
 4510SOL    HW114429   3.784   1.736   4.212
 4510SOL    HW214430   3.656   1.720   4.113
 4511SOL     OW14431   6.155   3.383   6.958
 4511SOL    HW114432   6.163   3.441   6.876
 4511SOL    HW214433   6.075   3.410   7.011
 4512SOL     OW14434   2.880   1.746   5.368
 4512SOL    HW114435   2.819   1.820   5.338
 4512SOL    HW214436   2.917   1.699   5.288
 4513SOL     OW14437   0.099   5.305   6.838
 4513SOL    HW114438   0.008   5.308   6.795
 4513SOL    HW214439   0.169   5.298   6.767
 4514SOL     OW14440   3.803   1.960   6.332
 4514SOL    HW114441   3.781   2.028   6.262
 4514SOL    HW214442   3.901   1.967   6.354
 4515SOL     OW14443   0.242   1.997   5.951
 4515SOL    HW114444   0.281   1.958   6.035
 4515SOL    HW214445   0.191   1.927   5.902
 4516SOL     OW14446   2.103   0.138   0.144
 4516SOL    HW114447   2.162   0.190   0.082
 4516SOL    HW214448   2.008   0.145   0.114
 4517SOL     OW14449   4.359   0.945   6.763
 4517SOL    HW114450   4.440   0.906   6.805
 4517SOL    HW214451   4.330   1.026   6.814
 4518SOL     OW14452   6.830   0.188   2.444
 4518SOL    HW114453   6.859   0.273   2.402
 4518SOL    HW214454   6.852   0.111   2.384
 4519SOL     OW14455   0.089   6.987   1.481
 4519SOL    HW114456   0.041   0.054   1.485
 4519SOL    HW214457   0.046   6.923   1.544
 4520SOL     OW14458   4.873   6.454   4.688
 4520SOL    HW114459   4.827   6.491   4.768
 4520SOL    HW214460   4.807   6.442   4.614
 4521SOL     OW14461   6.835   2.051   4.635
 4521SOL    HW114462   6.783   2.137   4.643
 4521SOL    HW214463   6.861   2.019   4.726
 4522SOL     OW14464   5.143   6.026   3.462
 4522SOL    HW114465   5.218   5.959   3.464
 4522SOL    HW214466   5.056   5.978   3.456
 4523SOL     OW14467   0.927   4.410   0.038
 4523SOL    HW114468   1.016   4.373   0.011
 4523SOL    HW214469   0.940   4.498   0.083
 4524SOL     OW14470   6.349   2.776   2.657
 4524SOL    HW114471   6.364   2.872   2.678
 4524SOL    HW214472   6.299   2.732   2.731
 4525SOL     OW14473   4.909   2.043   5.765
 4525SOL    HW114474   4.847   1.987   5.820
 4525SOL    HW214475   4.978   2.085   5.824
 4526SOL     OW14476   6.883   0.100   0.484
 4526SOL    HW114477   6.952   0.074   0.552
 4526SOL    HW214478   6.794   0.062   0.510
 4527SOL     OW14479   5.658   1.303   3.727
 4527SOL    HW114480   5.698   1.222   3.769
 4527SOL    HW214481   5.570   1.280   3.686
 4528SOL     OW14482   4.842   0.533   0.387
 4528SOL    HW114483   4.752   0.513   0.349
 4528SOL    HW214484   4.836   0.613   0.447
 4529SOL     OW14485   2.217   0.596   5.202
 4529SOL    HW114486   2.177   0.535   5.270
 4529SOL    HW214487   2.180   0.688   5.213
 4530SOL     OW14488   1.979   5.145   4.781
 4530SOL    HW114489   2.055   5.101   4.830
 4530SOL    HW214490   1.898   5.147   4.840
 4531SOL     OW14491   0.667   2.832   5.328
 4531SOL    HW114492   0.732   2.840   5.404
 4531SOL    HW214493   0.578   2.801   5.362
 4532SOL     OW14494   6.288   1.336   2.714
 4532SOL    HW114495   6.291   1.425   2.759
 4532SOL    HW214496   6.359   1.276   2.752
 4533SOL     OW14497   0.905   1.786   1.647
 4533SOL    HW114498   0.996   1.744   1.650
 4533SOL    HW214499   0.845   1.737   1.710
 4534SOL     OW14500   4.617   4.288   4.539
 4534SOL    HW114501   4.630   4.313   4.635
 4534SOL    HW214502   4.669   4.206   4.518
 4535SOL     OW14503   3.649   0.859   2.739
 4535SOL    HW114504   3.731   0.904   2.703
 4535SOL    HW214505   3.582   0.847   2.666
 4536SOL     OW14506   3.922   1.830   4.212
 4536SOL    HW114507   3.911   1.922   4.250
 4536SOL    HW214508   3.992   1.832   4.141
 4537SOL     OW14509   4.102   3.356   0.572
 4537SOL    HW114510   4.006   3.374   0.551
 4537SOL    HW214511   4.155   3.440   0.556
 4538SOL     OW14512   1.736   0.309   3.193
 4538SOL    HW114513   1.823   0.353   3.173
 4538SOL    HW214514   1.752   0.213   3.216
 4539SOL     OW14515   2.922   6.559   4.923
 4539SOL    HW114516   2.910   6.615   4.841
 4539SOL    HW214517   2.952   6.617   4.998
 4540SOL     OW14518   2.718   2.517   6.017
 4540SOL    HW114519   2.783   2.533   5.943
 4540SOL    HW214520   2.633   2.481   5.980
 4541SOL     OW14521   6.399   1.890   0.419
 4541SOL    HW114522   6.349   1.967   0.457
 4541SOL    HW214523   6.481   1.871   0.474
 4542SOL     OW14524   6.879   1.540   1.834
 4542SOL    HW114525   6.847   1.594   1.756
 4542SOL    HW214526   6.945   1.593   1.887
 4543SOL     OW14527   4.625   2.037   2.090
 4543SOL    HW114528   4.652   2.004   2.180
 4543SOL    HW214529   4.543   1.989   2.059
 4544SOL     OW14530   3.427   5.953   6.355
 4544SOL    HW114531   3.393   5.864   6.322
 4544SOL    HW214532   3.503   5.982   6.297
 4545SOL     OW14533   5.703   3.342   4.337
 4545SOL    HW114534   5.643   3.295   4.402
 4545SOL    HW214535   5.769   3.397   4.388
 4546SOL     OW14536   1.485   1.096   4.751
 4546SOL    HW114537   1.534   1.157   4.688
 4546SOL    HW214538   1.422   1.150   4.807
 4547SOL     OW14539   6.224   2.232   1.657
 4547SOL    HW114540   6.223   2.222   1.757
 4547SOL    HW214541   6.228   2.142   1.614
 4548SOL     OW14542   1.315   3.195   3.968
 4548SOL    HW114543   1.408   3.216   3.997
 4548SOL    HW214544   1.306   3.097   3.952
 4549SOL     OW14545   6.698   4.153   1.707
 4549SOL    HW114546   6.635   4.227   1.684
 4549SOL    HW214547   6.746   4.123   1.625
 4550SOL     OW14548   0.908   5.068   3.324
 4550SOL    HW114549   0.824   5.067   3.378
 4550SOL    HW214550   0.948   4.976   3.322
 4551SOL     OW14551   7.021   2.971   4.476
 4551SOL    HW114552   6.951   3.032   4.513
 4551SOL    HW214553   0.052   2.931   4.552
 4552SOL     OW14554   6.343   3.209   2.035
 4552SOL    HW114555   6.393   3.133   1.995
 4552SOL    HW214556   6.323   3.189   2.131
 4553SOL     OW14557   3.019   4.643   6.362
 4553SOL    HW114558   3.014   4.611   6.457
 4553SOL    HW214559   2.987   4.737   6.356
 4554SOL     OW14560   6.490   6.752   1.442
 4554SOL    HW114561   6.433   6.828   1.411
 4554SOL    HW214562   6.571   6.789   1.489
 4555SOL     OW14563   2.233   2.165   5.734
 4555SOL    HW114564   2.182   2.250   5.721
 4555SOL    HW214565   2.282   2.143   5.649
 4556SOL     OW14566   5.586   2.966   4.090
 4556SOL    HW114567   5.572   3.026   4.011
 4556SOL    HW214568   5.541   3.005   4.170
 4557SOL     OW14569   5.032   6.500   5.486
 4557SOL    HW114570   5.120   6.504   5.438
 4557SOL    HW214571   4.993   6.409   5.475
 4558SOL     OW14572   0.328   4.150   5.240
 4558SOL    HW114573   0.266   4.106   5.305
 4558SOL    HW214574   0.414   4.172   5.285
 4559SOL     OW14575   0.337   3.793   1.613
 4559SOL    HW114576   0.267   3.742   1.564
 4559SOL    HW214577   0.358   3.877   1.563
 4560SOL     OW14578   5.418   3.852   1.804
 4560SOL    HW114579   5.425   3.862   1.705
 4560SOL    HW214580   5.336   3.901   1.836
 4561SOL     OW14581   2.330   1.906   3.160
 4561SOL    HW114582   2.280   1.992   3.155
 4561SOL    HW214583   2.375   1.888   3.072
 4562SOL     OW14584   2.375   6.351   5.960
 4562SOL    HW114585   2.394   6.268   6.013
 4562SOL    HW214586   2.276   6.370   5.962
 4563SOL     OW14587   6.837   2.606   1.115
 4563SOL    HW114588   6.769   2.587   1.044
 4563SOL    HW214589   6.926   2.623   1.073
 4564SOL     OW14590   6.844   5.817   2.007
 4564SOL    HW114591   6.825   5.740   1.945
 4564SOL    HW214592   6.775   5.888   1.994
 4565SOL     OW14593   0.898   1.505   4.549
 4565SOL    HW114594   0.911   1.431   4.483
 4565SOL    HW214595   0.868   1.588   4.500
 4566SOL     OW14596   6.597   2.413   0.315
 4566SOL    HW114597   6.548   2.493   0.280
 4566SOL    HW214598   6.533   2.339   0.335
 4567SOL     OW14599   6.379   1.020   5.966
 4567SOL    HW114600   6.369   1.108   6.012
 4567SOL    HW214601   6.442   1.029   5.889
 4568SOL     OW14602   2.211   3.589   6.302
 4568SOL    HW114603   2.191   3.507   6.356
 4568SOL    HW214604   2.238   3.563   6.210
 4569SOL     OW14605   2.273   1.764   2.666
 4569SOL    HW114606   2.325   1.708   2.601
 4569SOL    HW214607   2.188   1.717   2.689
 4570SOL     OW14608   0.209   6.453   2.885
 4570SOL    HW114609   0.120   6.417   2.855
 4570SOL    HW214610   0.215   6.449   2.984
 4571SOL     OW14611   3.995   4.415   6.398
 4571SOL    HW114612   4.015   4.512   6.408
 4571SOL    HW214613   3.969   4.377   6.486
 4572SOL     OW14614   2.247   0.512   6.838
 4572SOL    HW114615   2.173   0.555   6.890
 4572SOL    HW214616   2.335   0.534   6.880
 4573SOL     OW14617   6.123   0.578   0.718
 4573SOL    HW114618   6.080   0.659   0.756
 4573SOL    HW214619   6.065   0.540   0.646
 4574SOL     OW14620   5.706   4.148   0.750
 4574SOL    HW114621   5.692   4.155   0.651
 4574SOL    HW214622   5.716   4.051   0.775
 4575SOL     OW14623   5.982   1.054   6.359
 4575SOL    HW114624   5.939   1.141   6.384
 4575SOL    HW214625   5.955   1.028   6.266
 4576SOL     OW14626   2.606   6.156   5.830
 4576SOL    HW114627   2.653   6.092   5.770
 4576SOL    HW214628   2.663   6.237   5.845
 4577SOL     OW14629   1.440   1.719   4.854
 4577SOL    HW114630   1.493   1.802   4.834
 4577SOL    HW214631   1.385   1.695   4.774
 4578SOL     OW14632   0.346   2.976   5.276
 4578SOL    HW114633   0.353   2.892   5.330
 4578SOL    HW214634   0.250   2.995   5.256
 4579SOL     OW14635   3.766   0.762   3.681
 4579SOL    HW114636   3.836   0.693   3.666
 4579SOL    HW214637   3.704   0.764   3.602
 4580SOL     OW14638   5.911   4.544   0.501
 4580SOL    HW114639   5.813   4.558   0.519
 4580SOL    HW214640   5.962   4.624   0.531
 4581SOL     OW14641   2.547   5.320   2.795
 4581SOL    HW114642   2.451   5.349   2.803
 4581SOL    HW214643   2.562   5.238   2.851
 4582SOL     OW14644   5.186   6.976   4.973
 4582SOL    HW114645   5.127   0.036   4.967
 4582SOL    HW214646   5.282   7.005   4.977
 4583SOL     OW14647   2.520   2.487   6.731
 4583SOL    HW114648   2.436   2.434   6.725
 4583SOL    HW214649   2.578   2.466   6.651
 4584SOL     OW14650   0.026   4.559   5.444
 4584SOL    HW114651   0.123   4.548   5.464
 4584SOL    HW214652   6.994   4.538   5.526
 4585SOL     OW14653   2.833   6.182   3.785
 4585SOL    HW114654   2.916   6.126   3.790
 4585SOL    HW214655   2.783   6.175   3.871
 4586SOL     OW14656   3.816   4.803   0.817
 4586SOL    HW114657   3.724   4.786   0.781
 4586SOL    HW214658   3.882   4.804   0.742
 4587SOL     OW14659   3.637   4.160   3.317
 4587SOL    HW114660   3.673   4.067   3.313
 4587SOL    HW214661   3.613   4.182   3.412
 4588SOL     OW14662   2.546   3.427   5.480
 4588SOL    HW114663   2.619   3.382   5.532
 4588SOL    HW214664   2.583   3.460   5.393
 4589SOL     OW14665   6.215   1.137   2.403
 4589SOL    HW114666   6.138   1.122   2.465
 4589SOL    HW214667   6.299   1.150   2.456
 4590SOL     OW14668   5.057   5.551   1.283
 4590SOL    HW114669   5.018   5.534   1.373
 4590SOL    HW214670   4.984   5.561   1.216
 4591SOL     OW14671   1.437   7.002   4.444
 4591SOL    HW114672   1.406   6.910   4.421
 4591SOL    HW214673   1.357   0.038   4.463
 4592SOL     OW14674   2.704   1.640   2.571
 4592SOL    HW114675   2.661   1.551   2.577
 4592SOL    HW214676   2.738   1.668   2.661
 4593SOL     OW14677   5.092   5.589   2.653
 4593SOL    HW114678   5.075   5.493   2.676
 4593SOL    HW214679   5.079   5.646   2.734
 4594SOL     OW14680   2.828   1.057   3.109
 4594SOL    HW114681   2.774   1.026   3.188
 4594SOL    HW214682   2.783   1.028   3.025
 4595SOL     OW14683   4.208   3.188   5.683
 4595SOL    HW114684   4.156   3.253   5.738
 4595SOL    HW214685   4.263   3.130   5.744
 4596SOL     OW14686   5.734   6.844   1.948
 4596SOL    HW114687   5.829   6.813   1.961
 4596SOL    HW214688   5.672   6.766   1.956
 4597SOL     OW14689   3.644   5.718   6.067
 4597SOL    HW114690   3.573   5.712   6.137
 4597SOL    HW214691   3.734   5.716   6.111
 4598SOL     OW14692   1.810   6.139   7.018
 4598SOL    HW114693   1.770   6.095   6.937
 4598SOL    HW214694   1.906   6.111   0.005
 4599SOL     OW14695   1.275   4.976   0.575
 4599SOL    HW114696   1.262   5.073   0.556
 4599SOL    HW214697   1.368   4.962   0.610
 4600SOL     OW14698   1.251   5.327   5.535
 4600SOL    HW114699   1.174   5.282   5.580
 4600SOL    HW214700   1.308   5.258   5.490
 4601SOL     OW14701   2.132   1.277   5.260
 4601SOL    HW114702   2.053   1.248   5.314
 4601SOL    HW214703   2.158   1.369   5.288
 4602SOL     OW14704   2.797   6.442   1.231
 4602SOL    HW114705   2.871   6.375   1.239
 4602SOL    HW214706   2.780   6.461   1.135
 4603SOL     OW14707   3.063   6.446   0.604
 4603SOL    HW114708   2.989   6.435   0.671
 4603SOL    HW214709   3.142   6.392   0.633
 4604SOL     OW14710   4.527   0.398   0.285
 4604SOL    HW114711   4.472   0.362   0.210
 4604SOL    HW214712   4.510   0.496   0.294
 4605SOL     OW14713   2.719   6.705   2.115
 4605SOL    HW114714   2.662   6.643   2.061
 4605SOL    HW214715   2.684   6.798   2.107
 4606SOL     OW14716   0.749   6.103   2.354
 4606SOL    HW114717   0.782   6.177   2.413
 4606SOL    HW214718   0.810   6.094   2.275
 4607SOL     OW14719   1.643   3.765   1.469
 4607SOL    HW114720   1.613   3.841   1.410
 4607SOL    HW214721   1.656   3.798   1.562
 4608SOL     OW14722   0.544   5.896   3.842
 4608SOL    HW114723   0.613   5.945   3.894
 4608SOL    HW214724   0.526   5.945   3.757
 4609SOL     OW14725   4.106   5.084   6.383
 4609SOL    HW114726   4.073   5.158   6.325
 4609SOL    HW214727   4.146   5.122   6.467
 4610SOL     OW14728   4.481   2.177   0.814
 4610SOL    HW114729   4.561   2.216   0.860
 4610SOL    HW214730   4.400   2.190   0.872
 4611SOL     OW14731   0.679   6.409   6.450
 4611SOL    HW114732   0.735   6.453   6.380
 4611SOL    HW214733   0.695   6.452   6.538
 4612SOL     OW14734   1.325   6.062   0.104
 4612SOL    HW114735   1.270   6.073   0.188
 4612SOL    HW214736   1.400   6.128   0.104
 4613SOL     OW14737   2.094   5.764   1.621
 4613SOL    HW114738   2.146   5.756   1.536
 4613SOL    HW214739   2.156   5.748   1.699
 4614SOL     OW14740   6.208   3.526   3.598
 4614SOL    HW114741   6.187   3.482   3.685
 4614SOL    HW214742   6.168   3.618   3.597
 4615SOL     OW14743   1.886   0.832   0.046
 4615SOL    HW114744   1.843   0.760   0.100
 4615SOL    HW214745   1.824   0.861   6.994
 4616SOL     OW14746   6.401   1.148   4.587
 4616SOL    HW114747   6.312   1.173   4.548
 4616SOL    HW214748   6.443   1.077   4.531
 4617SOL     OW14749   0.526   2.314   2.503
 4617SOL    HW114750   0.599   2.317   2.435
 4617SOL    HW214751   0.560   2.346   2.591
 4618SOL     OW14752   2.114   3.038   4.991
 4618SOL    HW114753   2.204   3.033   5.035
 4618SOL    HW214754   2.079   3.131   4.998
 4619SOL     OW14755   3.200   6.263   3.648
 4619SOL    HW114756   3.161   6.239   3.558
 4619SOL    HW214757   3.287   6.309   3.635
 4620SOL     OW14758   2.862   5.286   0.760
 4620SOL    HW114759   2.772   5.273   0.718
 4620SOL    HW214760   2.858   5.362   0.825
 4621SOL     OW14761   4.880   0.403   2.571
 4621SOL    HW114762   4.969   0.372   2.537
 4621SOL    HW214763   4.858   0.354   2.656
 4622SOL     OW14764   2.703   4.582   0.884
 4622SOL    HW114765   2.688   4.522   0.806
 4622SOL    HW214766   2.660   4.670   0.868
 4623SOL     OW14767   5.665   6.499   0.889
 4623SOL    HW114768   5.606   6.515   0.968
 4623SOL    HW214769   5.613   6.510   0.805
 4624SOL     OW14770   4.064   6.687   3.189
 4624SOL    HW114771   3.993   6.729   3.245
 4624SOL    HW214772   4.143   6.747   3.185
 4625SOL     OW14773   1.941   4.246   1.348
 4625SOL    HW114774   1.850   4.235   1.388
 4625SOL    HW214775   1.936   4.233   1.249
 4626SOL     OW14776   5.810   4.181   2.007
 4626SOL    HW114777   5.782   4.106   1.946
 4626SOL    HW214778   5.739   4.252   2.007
 4627SOL     OW14779   1.732   4.637   4.703
 4627SOL    HW114780   1.800   4.615   4.773
 4627SOL    HW214781   1.747   4.730   4.670
 4628SOL     OW14782   5.752   4.087   3.922
 4628SOL    HW114783   5.735   4.181   3.949
 4628SOL    HW214784   5.693   4.063   3.845
 4629SOL     OW14785   2.531   5.149   5.752
 4629SOL    HW114786   2.512   5.179   5.845
 4629SOL    HW214787   2.582   5.063   5.754
 4630SOL     OW14788   2.913   6.002   2.327
 4630SOL    HW114789   2.842   6.049   2.274
 4630SOL    HW214790   2.941   5.919   2.279
 4631SOL     OW14791   1.679   5.722   3.251
 4631SOL    HW114792   1.703   5.627   3.234
 4631SOL    HW214793   1.609   5.727   3.322
 4632SOL     OW14794   3.139   4.896   2.393
 4632SOL    HW114795   3.139   4.886   2.293
 4632SOL    HW214796   3.070   4.836   2.432
 4633SOL     OW14797   5.790   0.827   4.871
 4633SOL    HW114798   5.813   0.849   4.966
 4633SOL    HW214799   5.775   0.728   4.863
 4634SOL     OW14800   3.174   4.344   5.580
 4634SOL    HW114801   3.222   4.406   5.518
 4634SOL    HW214802   3.240   4.284   5.625
 4635SOL     OW14803   4.968   3.875   1.467
 4635SOL    HW114804   5.064   3.893   1.490
 4635SOL    HW214805   4.959   3.864   1.368
 4636SOL     OW14806   1.271   4.506   0.063
 4636SOL    HW114807   1.215   4.577   0.105
 4636SOL    HW214808   1.331   4.465   0.132
 4637SOL     OW14809   0.695   5.910   1.064
 4637SOL    HW114810   0.728   5.870   1.150
 4637SOL    HW214811   0.640   5.842   1.015
 4638SOL     OW14812   4.143   4.573   6.679
 4638SOL    HW114813   4.230   4.564   6.727
 4638SOL    HW214814   4.102   4.483   6.666
 4639SOL     OW14815   3.775   3.546   5.571
 4639SOL    HW114816   3.796   3.542   5.668
 4639SOL    HW214817   3.831   3.618   5.528
 4640SOL     OW14818   4.824   3.832   3.898
 4640SOL    HW114819   4.817   3.782   3.812
 4640SOL    HW214820   4.838   3.768   3.973
 4641SOL     OW14821   2.487   0.196   4.680
 4641SOL    HW114822   2.394   0.164   4.697
 4641SOL    HW214823   2.515   0.167   4.588
 4642SOL     OW14824   1.354   6.102   4.248
 4642SOL    HW114825   1.372   6.172   4.317
 4642SOL    HW214826   1.256   6.085   4.242
 4643SOL     OW14827   6.498   2.384   0.901
 4643SOL    HW114828   6.403   2.401   0.928
 4643SOL    HW214829   6.500   2.343   0.810
 4644SOL     OW14830   0.071   4.917   5.583
 4644SOL    HW114831   0.167   4.933   5.607
 4644SOL    HW214832   0.066   4.884   5.489
 4645SOL     OW14833   0.473   0.076   4.034
 4645SOL    HW114834   0.532   7.018   4.048
 4645SOL    HW214835   0.530   0.159   4.028
 4646SOL     OW14836   2.209   5.806   3.654
 4646SOL    HW114837   2.257   5.893   3.661
 4646SOL    HW214838   2.249   5.740   3.717
 4647SOL     OW14839   1.755   6.812   2.847
 4647SOL    HW114840   1.780   6.905   2.872
 4647SOL    HW214841   1.838   6.759   2.828
 4648SOL     OW14842   3.272   1.075   2.723
 4648SOL    HW114843   3.355   1.124   2.751
 4648SOL    HW214844   3.229   1.034   2.804
 4649SOL     OW14845   5.193   0.861   6.863
 4649SOL    HW114846   5.245   0.932   6.912
 4649SOL    HW214847   5.176   0.784   6.924
 4650SOL     OW14848   4.848   5.349   2.549
 4650SOL    HW114849   4.795   5.290   2.488
 4650SOL    HW214850   4.829   5.445   2.527
 4651SOL     OW14851   6.377   3.396   0.553
 4651SOL    HW114852   6.436   3.387   0.473
 4651SOL    HW214853   6.288   3.434   0.526
 4652SOL     OW14854   6.404   6.511   4.085
 4652SOL    HW114855   6.318   6.468   4.057
 4652SOL    HW214856   6.452   6.547   4.005
 4653SOL     OW14857   5.319   5.512   0.968
 4653SOL    HW114858   5.381   5.434   0.957
 4653SOL    HW214859   5.306   5.530   1.066
 4654SOL     OW14860   0.344   6.743   0.354
 4654SOL    HW114861   0.311   6.649   0.340
 4654SOL    HW214862   0.437   6.751   0.318
 4655SOL     OW14863   5.869   4.369   1.316
 4655SOL    HW114864   5.882   4.344   1.220
 4655SOL    HW214865   5.902   4.295   1.374
 4656SOL     OW14866   1.211   0.028   2.503
 4656SOL    HW114867   1.158   0.109   2.482
 4656SOL    HW214868   1.277   0.048   2.576
 4657SOL     OW14869   4.476   6.660   2.303
 4657SOL    HW114870   4.396   6.710   2.335
 4657SOL    HW214871   4.537   6.722   2.254
 4658SOL     OW14872   3.894   0.875   3.169
 4658SOL    HW114873   3.978   0.854   3.118
 4658SOL    HW214874   3.916   0.884   3.266
 4659SOL     OW14875   3.285   4.554   5.437
 4659SOL    HW114876   3.335   4.529   5.354
 4659SOL    HW214877   3.332   4.630   5.482
 4660SOL     OW14878   1.139   4.477   5.464
 4660SOL    HW114879   1.220   4.420   5.452
 4660SOL    HW214880   1.058   4.425   5.442
 4661SOL     OW14881   2.811   4.530   5.892
 4661SOL    HW114882   2.721   4.487   5.897
 4661SOL    HW214883   2.802   4.628   5.906
 4662SOL     OW14884   3.236   0.176   5.465
 4662SOL    HW114885   3.327   0.198   5.430
 4662SOL    HW214886   3.200   0.255   5.515
 4663SOL     OW14887   0.365   1.860   1.119
 4663SOL    HW114888   0.428   1.904   1.184
 4663SOL    HW214889   0.312   1.789   1.167
 4664SOL     OW14890   1.225   1.197   1.518
 4664SOL    HW114891   1.146   1.258   1.522
 4664SOL    HW214892   1.217   1.127   1.589
 4665SOL     OW14893   3.547   6.657   6.789
 4665SOL    HW114894   3.521   6.752   6.774
 4665SOL    HW214895   3.473   6.597   6.758
 4666SOL     OW14896   1.665   3.247   0.430
 4666SOL    HW114897   1.759   3.249   0.464
 4666SOL    HW214898   1.622   3.336   0.444
 4667SOL     OW14899   6.958   3.491   2.250
 4667SOL    HW114900   0.005   3.418   2.240
 4667SOL    HW214901   6.869   3.456   2.220
 4668SOL     OW14902   4.096   2.189   3.136
 4668SOL    HW114903   4.134   2.229   3.219
 4668SOL    HW214904   4.141   2.227   3.056
 4669SOL     OW14905   4.574   6.464   6.689
 4669SOL    HW114906   4.509   6.528   6.731
 4669SOL    HW214907   4.635   6.514   6.628
 4670SOL     OW14908   2.075   2.410   5.775
 4670SOL    HW114909   2.025   2.487   5.737
 4670SOL    HW214910   2.011   2.337   5.800
 4671SOL     OW14911   0.308   2.564   0.210
 4671SOL    HW114912   0.239   2.573   0.138
 4671SOL    HW214913   0.291   2.481   0.261
 4672SOL     OW14914   2.606   4.886   5.727
 4672SOL    HW114915   2.632   4.854   5.636
 4672SOL    HW214916   2.602   4.808   5.790
 4673SOL     OW14917   5.105   6.851   2.137
 4673SOL    HW114918   5.138   6.771   2.188
 4673SOL    HW214919   5.124   6.838   2.040
 4674SOL     OW14920   5.580   0.723   6.386
 4674SOL    HW114921   5.541   0.696   6.473
 4674SOL    HW214922   5.614   0.642   6.338
 4675SOL     OW14923   2.445   1.113   6.188
 4675SOL    HW114924   2.453   1.196   6.132
 4675SOL    HW214925   2.380   1.130   6.262
 4676SOL     OW14926   6.797   6.235   4.121
 4676SOL    HW114927   6.727   6.296   4.159
 4676SOL    HW214928   6.877   6.234   4.181
 4677SOL     OW14929   2.505   1.532   6.345
 4677SOL    HW114930   2.523   1.463   6.415
 4677SOL    HW214931   2.576   1.602   6.348
 4678SOL     OW14932   1.422   4.049   3.049
 4678SOL    HW114933   1.454   4.144   3.058
 4678SOL    HW214934   1.420   4.024   2.952
 4679SOL     OW14935   3.675   1.164   0.185
 4679SOL    HW114936   3.620   1.082   0.173
 4679SOL    HW214937   3.617   1.238   0.219
 4680SOL     OW14938   2.649   1.541   0.457
 4680SOL    HW114939   2.687   1.509   0.544
 4680SOL    HW214940   2.549   1.544   0.464
 4681SOL     OW14941   5.081   5.982   6.081
 4681SOL    HW114942   5.074   5.990   6.181
 4681SOL    HW214943   5.111   6.069   6.042
 4682SOL     OW14944   4.504   4.333   5.655
 4682SOL    HW114945   4.540   4.241   5.668
 4682SOL    HW214946   4.408   4.335   5.682
 4683SOL     OW14947   4.308   5.046   2.920
 4683SOL    HW114948   4.339   4.971   2.863
 4683SOL    HW214949   4.266   5.117   2.864
 4684SOL     OW14950   6.890   1.777   5.400
 4684SOL    HW114951   6.970   1.750   5.347
 4684SOL    HW214952   6.910   1.765   5.498
 4685SOL     OW14953   0.837   6.476   5.386
 4685SOL    HW114954   0.896   6.400   5.357
 4685SOL    HW214955   0.858   6.557   5.332
 4686SOL     OW14956   4.334   5.310   0.137
 4686SOL    HW114957   4.247   5.338   0.096
 4686SOL    HW214958   4.381   5.246   0.075
 4687SOL     OW14959   6.505   4.000   4.499
 4687SOL    HW114960   6.417   4.031   4.464
 4687SOL    HW214961   6.576   4.065   4.471
 4688SOL     OW14962   6.238   4.085   4.480
 4688SOL    HW114963   6.141   4.080   4.460
 4688SOL    HW214964   6.252   4.124   4.571
 4689SOL     OW14965   5.916   0.505   0.515
 4689SOL    HW114966   5.909   0.605   0.514
 4689SOL    HW214967   5.961   0.474   0.431
 4690SOL     OW14968   1.312   0.431   0.011
 4690SOL    HW114969   1.263   0.370   6.970
 4690SOL    HW214970   1.375   0.488   6.981
 4691SOL     OW14971   2.874   4.907   1.689
 4691SOL    HW114972   2.886   4.957   1.603
 4691SOL    HW214973   2.859   4.973   1.763
 4692SOL     OW14974   5.760   5.759   2.145
 4692SOL    HW114975   5.814   5.693   2.196
 4692SOL    HW214976   5.777   5.748   2.047
 4693SOL     OW14977   1.019   1.111   2.898
 4693SOL    HW114978   1.084   1.182   2.870
 4693SOL    HW214979   1.054   1.021   2.870
 4694SOL     OW14980   2.292   0.421   0.454
 4694SOL    HW114981   2.342   0.473   0.524
 4694SOL    HW214982   2.261   0.335   0.494
 4695SOL     OW14983   1.851   3.594   1.821
 4695SOL    HW114984   1.936   3.543   1.810
 4695SOL    HW214985   1.858   3.654   1.901
 4696SOL     OW14986   0.403   4.038   0.023
 4696SOL    HW114987   0.439   3.949   7.018
 4696SOL    HW214988   0.426   4.057   0.118
 4697SOL     OW14989   2.128   3.392   1.208
 4697SOL    HW114990   2.177   3.315   1.249
 4697SOL    HW214991   2.195   3.456   1.169
 4698SOL     OW14992   4.108   5.230   2.791
 4698SOL    HW114993   4.046   5.298   2.830
 4698SOL    HW214994   4.063   5.184   2.715
 4699SOL     OW14995   1.969   6.779   2.096
 4699SOL    HW114996   1.882   6.735   2.119
 4699SOL    HW214997   1.962   6.822   2.007
 4700SOL     OW14998   6.504   1.948   2.826
 4700SOL    HW114999   6.544   1.862   2.796
 4700SOL    HW215000   6.504   2.013   2.750
 4701SOL     OW15001   2.256   2.398   7.005
 4701SOL    HW115002   2.352   2.370   7.008
 4701SOL    HW215003   2.221   2.386   6.912
 4702SOL     OW15004   4.397   4.872   6.719
 4702SOL    HW115005   4.479   4.906   6.765
 4702SOL    HW215006   4.351   4.948   6.673
 4703SOL     OW15007   0.834   1.104   1.502
 4703SOL    HW115008   0.855   1.117   1.600
 4703SOL    HW215009   0.743   1.141   1.483
 4704SOL     OW15010   0.963   6.747   0.516
 4704SOL    HW115011   0.870   6.761   0.551
 4704SOL    HW215012   0.965   6.768   0.418
 4705SOL     OW15013   3.263   3.351   2.105
 4705SOL    HW115014   3.296   3.299   2.184
 4705SOL    HW215015   3.163   3.348   2.103
 4706SOL     OW15016   3.658   0.328   6.665
 4706SOL    HW115017   3.702   0.402   6.714
 4706SOL    HW215018   3.634   0.255   6.729
 4707SOL     OW15019   1.983   6.343   1.327
 4707SOL    HW115020   2.005   6.417   1.262
 4707SOL    HW215021   1.940   6.382   1.408
 4708SOL     OW15022   1.180   1.632   6.761
 4708SOL    HW115023   1.109   1.587   6.707
 4708SOL    HW215024   1.266   1.632   6.709
 4709SOL     OW15025   4.205   5.822   5.701
 4709SOL    HW115026   4.184   5.813   5.603
 4709SOL    HW215027   4.254   5.740   5.731
 4710SOL     OW15028   3.731   1.178   5.274
 4710SOL    HW115029   3.776   1.137   5.353
 4710SOL    HW215030   3.680   1.108   5.223
 4711SOL     OW15031   5.485   0.808   1.456
 4711SOL    HW115032   5.486   0.880   1.388
 4711SOL    HW215033   5.533   0.728   1.421
 4712SOL     OW15034   2.811   4.351   6.987
 4712SOL    HW115035   2.811   4.446   6.954
 4712SOL    HW215036   2.901   4.310   6.971
 4713SOL     OW15037   3.245   3.479   0.269
 4713SOL    HW115038   3.198   3.489   0.357
 4713SOL    HW215039   3.249   3.382   0.244
 4714SOL     OW15040   1.182   2.499   6.734
 4714SOL    HW115041   1.262   2.446   6.763
 4714SOL    HW215042   1.160   2.567   6.804
 4715SOL     OW15043   6.469   2.573   2.299
 4715SOL    HW115044   6.514   2.487   2.276
 4715SOL    HW215045   6.531   2.632   2.350
 4716SOL     OW15046   4.920   5.778   6.784
 4716SOL    HW115047   4.938   5.871   6.754
 4716SOL    HW215048   4.989   5.750   6.850
 4717SOL     OW15049   0.319   6.849   3.406
 4717SOL    HW115050   0.321   6.898   3.319
 4717SOL    HW215051   0.238   6.791   3.409
 4718SOL     OW15052   5.812   2.738   1.445
 4718SOL    HW115053   5.770   2.829   1.445
 4718SOL    HW215054   5.774   2.684   1.370
 4719SOL     OW15055   5.312   3.232   1.983
 4719SOL    HW115056   5.257   3.152   1.959
 4719SOL    HW215057   5.259   3.292   2.043
 4720SOL     OW15058   2.459   5.295   5.961
 4720SOL    HW115059   2.469   5.394   5.950
 4720SOL    HW215060   2.408   5.276   6.045
 4721SOL     OW15061   0.285   2.239   1.609
 4721SOL    HW115062   0.351   2.214   1.680
 4721SOL    HW215063   0.212   2.293   1.650
 4722SOL     OW15064   1.110   6.173   6.411
 4722SOL    HW115065   1.152   6.121   6.486
 4722SOL    HW215066   1.153   6.262   6.404
 4723SOL     OW15067   1.885   3.957   5.790
 4723SOL    HW115068   1.849   4.032   5.845
 4723SOL    HW215069   1.978   3.979   5.761
 4724SOL     OW15070   5.800   6.046   3.012
 4724SOL    HW115071   5.820   5.952   3.040
 4724SOL    HW215072   5.852   6.109   3.069
 4725SOL     OW15073   6.024   5.700   2.827
 4725SOL    HW115074   6.083   5.624   2.857
 4725SOL    HW215075   5.975   5.737   2.905
 4726SOL     OW15076   1.908   2.585   5.662
 4726SOL    HW115077   1.920   2.512   5.595
 4726SOL    HW215078   1.810   2.608   5.668
 4727SOL     OW15079   0.796   5.995   0.588
 4727SOL    HW115080   0.758   6.072   0.638
 4727SOL    HW215081   0.728   5.960   0.523
 4728SOL     OW15082   5.680   0.641   1.988
 4728SOL    HW115083   5.587   0.662   1.959
 4728SOL    HW215084   5.741   0.648   1.909
 4729SOL     OW15085   2.634   1.556   1.011
 4729SOL    HW115086   2.635   1.472   0.958
 4729SOL    HW215087   2.711   1.614   0.984
 4730SOL     OW15088   3.245   5.662   4.848
 4730SOL    HW115089   3.156   5.663   4.801
 4730SOL    HW215090   3.271   5.756   4.870
 4731SOL     OW15091   4.548   0.185   6.873
 4731SOL    HW115092   4.527   0.223   6.783
 4731SOL    HW215093   4.646   0.196   6.892
 4732SOL     OW15094   1.047   3.346   6.195
 4732SOL    HW115095   0.948   3.337   6.206
 4732SOL    HW215096   1.090   3.255   6.202
 4733SOL     OW15097   1.198   3.813   3.302
 4733SOL    HW115098   1.209   3.904   3.342
 4733SOL    HW215099   1.187   3.821   3.203
 4734SOL     OW15100   4.565   2.559   0.751
 4734SOL    HW115101   4.467   2.545   0.766
 4734SOL    HW215102   4.615   2.477   0.777
 4735SOL     OW15103   0.002   5.864   4.993
 4735SOL    HW115104   0.001   5.768   4.964
 4735SOL    HW215105   7.013   5.870   5.092
 4736SOL     OW15106   0.218   2.649   6.276
 4736SOL    HW115107   0.172   2.731   6.241
 4736SOL    HW215108   0.192   2.635   6.372
 4737SOL     OW15109   2.354   4.326   2.336
 4737SOL    HW115110   2.341   4.256   2.407
 4737SOL    HW215111   2.438   4.377   2.356
 4738SOL     OW15112   0.304   6.464   3.355
 4738SOL    HW115113   0.298   6.547   3.409
 4738SOL    HW215114   0.398   6.430   3.355
 4739SOL     OW15115   4.461   6.233   3.340
 4739SOL    HW115116   4.403   6.245   3.421
 4739SOL    HW215117   4.545   6.285   3.351
 4740SOL     OW15118   1.019   1.368   1.377
 4740SOL    HW115119   0.924   1.394   1.359
 4740SOL    HW215120   1.038   1.278   1.338
 4741SOL     OW15121   3.777   3.166   1.539
 4741SOL    HW115122   3.791   3.204   1.448
 4741SOL    HW215123   3.727   3.079   1.532
 4742SOL     OW15124   3.288   6.934   5.477
 4742SOL    HW115125   3.258   0.007   5.485
 4742SOL    HW215126   3.214   6.879   5.436
 4743SOL     OW15127   1.887   3.274   2.825
 4743SOL    HW115128   1.892   3.242   2.731
 4743SOL    HW215129   1.866   3.196   2.885
 4744SOL     OW15130   1.281   4.607   0.731
 4744SOL    HW115131   1.184   4.631   0.721
 4744SOL    HW215132   1.307   4.613   0.827
 4745SOL     OW15133   3.113   3.662   5.473
 4745SOL    HW115134   3.195   3.704   5.512
 4745SOL    HW215135   3.077   3.593   5.536
 4746SOL     OW15136   5.547   6.141   2.636
 4746SOL    HW115137   5.614   6.094   2.693
 4746SOL    HW215138   5.511   6.077   2.567
 4747SOL     OW15139   1.571   3.810   7.019
 4747SOL    HW115140   1.507   3.756   6.965
 4747SOL    HW215141   1.572   3.776   0.092
 4748SOL     OW15142   2.585   5.337   0.919
 4748SOL    HW115143   2.572   5.334   0.820
 4748SOL    HW215144   2.654   5.406   0.941
 4749SOL     OW15145   2.040   6.110   6.022
 4749SOL    HW115146   2.046   6.092   5.924
 4749SOL    HW215147   2.093   6.040   6.072
 4750SOL     OW15148   0.114   3.612   4.719
 4750SOL    HW115149   0.069   3.699   4.741
 4750SOL    HW215150   0.200   3.606   4.770
 4751SOL     OW15151   3.858   1.906   2.542
 4751SOL    HW115152   3.831   1.810   2.533
 4751SOL    HW215153   3.849   1.935   2.637
 4752SOL     OW15154   4.234   1.339   6.444
 4752SOL    HW115155   4.319   1.345   6.496
 4752SOL    HW215156   4.253   1.353   6.347
 4753SOL     OW15157   6.359   0.376   3.784
 4753SOL    HW115158   6.284   0.400   3.846
 4753SOL    HW215159   6.435   0.440   3.796
 4754SOL     OW15160   5.706   4.704   4.836
 4754SOL    HW115161   5.608   4.702   4.859
 4754SOL    HW215162   5.718   4.683   4.739
 4755SOL     OW15163   3.184   0.919   0.346
 4755SOL    HW115164   3.156   0.853   0.415
 4755SOL    HW215165   3.104   0.948   0.293
 4756SOL     OW15166   5.710   2.670   6.618
 4756SOL    HW115167   5.706   2.660   6.518
 4756SOL    HW215168   5.731   2.582   6.659
 4757SOL     OW15169   2.421   1.708   1.381
 4757SOL    HW115170   2.436   1.620   1.336
 4757SOL    HW215171   2.467   1.709   1.469
 4758SOL     OW15172   1.681   6.481   3.499
 4758SOL    HW115173   1.641   6.438   3.418
 4758SOL    HW215174   1.609   6.513   3.559
 4759SOL     OW15175   6.810   4.474   5.237
 4759SOL    HW115176   6.777   4.444   5.148
 4759SOL    HW215177   6.825   4.573   5.236
 4760SOL     OW15178   2.186   1.934   0.037
 4760SOL    HW115179   2.146   1.986   0.112
 4760SOL    HW215180   2.150   1.967   6.971
 4761SOL     OW15181   0.880   6.167   0.840
 4761SOL    HW115182   0.787   6.142   0.867
 4761SOL    HW215183   0.921   6.223   0.911
 4762SOL     OW15184   1.589   5.309   1.859
 4762SOL    HW115185   1.655   5.371   1.901
 4762SOL    HW215186   1.637   5.236   1.811
 4763SOL     OW15187   6.232   0.132   2.660
 4763SOL    HW115188   6.221   0.065   2.587
 4763SOL    HW215189   6.326   0.168   2.659
 4764SOL     OW15190   4.905   3.868   4.948
 4764SOL    HW115191   4.991   3.856   4.899
 4764SOL    HW215192   4.860   3.780   4.961
 4765SOL     OW15193   4.514   0.665   5.125
 4765SOL    HW115194   4.498   0.692   5.030
 4765SOL    HW215195   4.447   0.711   5.184
 4766SOL     OW15196   5.663   5.872   3.665
 4766SOL    HW115197   5.738   5.929   3.699
 4766SOL    HW215198   5.595   5.930   3.621
 4767SOL     OW15199   2.646   5.688   5.120
 4767SOL    HW115200   2.577   5.734   5.175
 4767SOL    HW215201   2.650   5.591   5.146
 4768SOL     OW15202   4.667   2.106   6.283
 4768SOL    HW115203   4.644   2.095   6.187
 4768SOL    HW215204   4.669   2.016   6.328
 4769SOL     OW15205   4.761   5.508   6.722
 4769SOL    HW115206   4.784   5.543   6.813
 4769SOL    HW215207   4.716   5.419   6.732
 4770SOL     OW15208   6.687   1.587   4.303
 4770SOL    HW115209   6.785   1.596   4.282
 4770SOL    HW215210   6.650   1.508   4.254
 4771SOL     OW15211   2.731   5.964   5.683
 4771SOL    HW115212   2.772   5.908   5.755
 4771SOL    HW215213   2.802   5.992   5.619
 4772SOL     OW15214   4.080   5.151   0.537
 4772SOL    HW115215   4.037   5.096   0.609
 4772SOL    HW215216   4.165   5.107   0.508
 4773SOL     OW15217   6.740   5.306   4.586
 4773SOL    HW115218   6.662   5.291   4.646
 4773SOL    HW215219   6.814   5.350   4.638
 4774SOL     OW15220   1.926   3.460   1.510
 4774SOL    HW115221   1.993   3.421   1.446
 4774SOL    HW215222   1.953   3.438   1.604
 4775SOL     OW15223   5.992   6.764   3.134
 4775SOL    HW115224   6.088   6.756   3.159
 4775SOL    HW215225   5.982   6.831   3.060
 4776SOL     OW15226   1.729   6.419   5.573
 4776SOL    HW115227   1.739   6.365   5.657
 4776SOL    HW215228   1.637   6.458   5.569
 4777SOL     OW15229   1.600   5.227   1.072
 4777SOL    HW115230   1.535   5.233   1.148
 4777SOL    HW215231   1.679   5.173   1.100
 4778SOL     OW15232   6.436   3.051   3.960
 4778SOL    HW115233   6.407   3.062   3.865
 4778SOL    HW215234   6.433   3.139   4.007
 4779SOL     OW15235   5.770   6.138   2.465
 4779SOL    HW115236   5.746   6.232   2.439
 4779SOL    HW215237   5.804   6.137   2.559
 4780SOL     OW15238   5.974   2.055   6.822
 4780SOL    HW115239   5.899   2.076   6.759
 4780SOL    HW215240   5.966   2.113   6.903
 4781SOL     OW15241   2.774   5.700   2.901
 4781SOL    HW115242   2.812   5.664   2.986
 4781SOL    HW215243   2.763   5.799   2.909
 4782SOL     OW15244   6.075   5.381   6.882
 4782SOL    HW115245   6.031   5.466   6.853
 4782SOL    HW215246   6.007   5.323   6.929
 4783SOL     OW15247   4.940   3.677   6.896
 4783SOL    HW115248   4.881   3.637   6.966
 4783SOL    HW215249   5.025   3.625   6.890
 4784SOL     OW15250   6.251   2.861   5.931
 4784SOL    HW115251   6.163   2.894   5.897
 4784SOL    HW215252   6.242   2.833   6.026
 4785SOL     OW15253   1.074   5.985   2.942
 4785SOL    HW115254   1.069   6.011   2.846
 4785SOL    HW215255   1.151   6.033   2.985
 4786SOL     OW15256   2.516   0.450   0.619
 4786SOL    HW115257   2.558   0.361   0.603
 4786SOL    HW215258   2.428   0.438   0.665
 4787SOL     OW15259   4.204   1.126   2.988
 4787SOL    HW115260   4.135   1.197   2.978
 4787SOL    HW215261   4.294   1.163   2.966
 4788SOL     OW15262   6.467   6.085   6.697
 4788SOL    HW115263   6.375   6.076   6.657
 4788SOL    HW215264   6.536   6.061   6.628
 4789SOL     OW15265   5.141   1.556   1.713
 4789SOL    HW115266   5.142   1.589   1.807
 4789SOL    HW215267   5.152   1.633   1.650
 4790SOL     OW15268   5.813   1.438   5.691
 4790SOL    HW115269   5.749   1.396   5.754
 4790SOL    HW215270   5.787   1.534   5.676
 4791SOL     OW15271   0.312   3.140   1.319
 4791SOL    HW115272   0.363   3.225   1.304
 4791SOL    HW215273   0.331   3.106   1.411
 4792SOL     OW15274   2.392   4.658   3.861
 4792SOL    HW115275   2.331   4.685   3.936
 4792SOL    HW215276   2.466   4.725   3.853
 4793SOL     OW15277   2.227   2.864   5.273
 4793SOL    HW115278   2.254   2.903   5.361
 4793SOL    HW215279   2.289   2.897   5.201
 4794SOL     OW15280   5.460   0.055   4.880
 4794SOL    HW115281   5.392   0.042   4.808
 4794SOL    HW215282   5.499   6.989   4.907
 4795SOL     OW15283   6.269   2.145   4.185
 4795SOL    HW115284   6.240   2.091   4.264
 4795SOL    HW215285   6.211   2.123   4.107
 4796SOL     OW15286   4.859   1.224   4.821
 4796SOL    HW115287   4.825   1.301   4.768
 4796SOL    HW215288   4.795   1.204   4.895
 4797SOL     OW15289   0.711   6.638   5.545
 4797SOL    HW115290   0.761   6.570   5.490
 4797SOL    HW215291   0.675   6.594   5.627
 4798SOL     OW15292   0.035   4.216   5.543
 4798SOL    HW115293   0.079   4.130   5.518
 4798SOL    HW215294   0.100   4.291   5.532
 4799SOL     OW15295   3.739   1.710   0.726
 4799SOL    HW115296   3.749   1.634   0.789
 4799SOL    HW215297   3.819   1.714   0.665
 4800SOL     OW15298   2.643   3.257   6.914
 4800SOL    HW115299   2.611   3.164   6.900
 4800SOL    HW215300   2.644   3.306   6.826
 4801SOL     OW15301   3.148   2.366   6.946
 4801SOL    HW115302   3.158   2.270   6.918
 4801SOL    HW215303   3.176   2.426   6.871
 4802SOL     OW15304   0.523   6.405   1.871
 4802SOL    HW115305   0.617   6.422   1.842
 4802SOL    HW215306   0.470   6.490   1.864
 4803SOL     OW15307   0.008   4.595   6.618
 4803SOL    HW115308   0.096   4.558   6.586
 4803SOL    HW215309   0.018   4.692   6.638
 4804SOL     OW15310   6.898   6.311   1.883
 4804SOL    HW115311   6.960   6.295   1.960
 4804SOL    HW215312   6.950   6.344   1.805
 4805SOL     OW15313   5.560   1.269   1.958
 4805SOL    HW115314   5.470   1.300   1.925
 4805SOL    HW215315   5.630   1.335   1.930
 4806SOL     OW15316   0.961   4.431   2.442
 4806SOL    HW115317   0.884   4.375   2.475
 4806SOL    HW215318   0.956   4.439   2.343
 4807SOL     OW15319   0.351   5.103   0.263
 4807SOL    HW115320   0.277   5.131   0.202
 4807SOL    HW215321   0.325   5.121   0.358
 4808SOL     OW15322   4.611   5.274   0.720
 4808SOL    HW115323   4.658   5.341   0.664
 4808SOL    HW215324   4.516   5.303   0.735
 4809SOL     OW15325   3.748   5.346   0.211
 4809SOL    HW115326   3.791   5.435   0.193
 4809SOL    HW215327   3.816   5.283   0.248
 4810SOL     OW15328   1.634   4.265   2.466
 4810SOL    HW115329   1.547   4.314   2.475
 4810SOL    HW215330   1.626   4.175   2.510
 4811SOL     OW15331   2.866   4.079   1.762
 4811SOL    HW115332   2.770   4.054   1.760
 4811SOL    HW215333   2.906   4.050   1.849
 4812SOL     OW15334   0.583   5.866   2.320
 4812SOL    HW115335   0.557   5.855   2.224
 4812SOL    HW215336   0.633   5.952   2.331
 4813SOL     OW15337   5.771   1.781   6.824
 4813SOL    HW115338   5.730   1.738   6.743
 4813SOL    HW215339   5.765   1.880   6.816
 4814SOL     OW15340   0.176   3.140   1.078
 4814SOL    HW115341   0.126   3.225   1.061
 4814SOL    HW215342   0.207   3.137   1.172
 4815SOL     OW15343   5.246   3.755   2.759
 4815SOL    HW115344   5.330   3.702   2.764
 4815SOL    HW215345   5.183   3.713   2.694
 4816SOL     OW15346   2.250   4.920   1.242
 4816SOL    HW115347   2.248   4.999   1.181
 4816SOL    HW215348   2.316   4.937   1.316
 4817SOL     OW15349   2.306   1.752   0.178
 4817SOL    HW115350   2.261   1.829   0.132
 4817SOL    HW215351   2.405   1.765   0.174
 4818SOL     OW15352   0.476   0.289   4.682
 4818SOL    HW115353   0.403   0.236   4.640
 4818SOL    HW215354   0.527   0.339   4.611
 4819SOL     OW15355   2.296   2.185   1.352
 4819SOL    HW115356   2.326   2.140   1.268
 4819SOL    HW215357   2.237   2.262   1.330
 4820SOL     OW15358   6.664   2.424   1.897
 4820SOL    HW115359   6.669   2.324   1.890
 4820SOL    HW215360   6.578   2.450   1.940
 4821SOL     OW15361   0.678   6.714   2.522
 4821SOL    HW115362   0.753   6.674   2.469
 4821SOL    HW215363   0.595   6.717   2.465
 4822SOL     OW15364   2.148   3.184   4.453
 4822SOL    HW115365   2.175   3.141   4.367
 4822SOL    HW215366   2.171   3.124   4.530
 4823SOL     OW15367   1.277   0.614   4.277
 4823SOL    HW115368   1.312   0.654   4.192
 4823SOL    HW215369   1.230   0.528   4.256
 4824SOL     OW15370   5.088   2.115   4.222
 4824SOL    HW115371   5.026   2.178   4.270
 4824SOL    HW215372   5.046   2.025   4.216
 4825SOL     OW15373   2.064   2.144   5.010
 4825SOL    HW115374   2.026   2.115   4.922
 4825SOL    HW215375   2.162   2.127   5.011
 4826SOL     OW15376   0.298   1.419   6.350
 4826SOL    HW115377   0.360   1.463   6.285
 4826SOL    HW215378   0.264   1.488   6.415
 4827SOL     OW15379   6.255   1.479   1.502
 4827SOL    HW115380   6.204   1.394   1.490
 4827SOL    HW215381   6.209   1.552   1.451
 4828SOL     OW15382   5.289   3.304   1.224
 4828SOL    HW115383   5.277   3.388   1.278
 4828SOL    HW215384   5.385   3.275   1.229
 4829SOL     OW15385   4.351   6.841   6.645
 4829SOL    HW115386   4.382   6.935   6.630
 4829SOL    HW215387   4.418   6.792   6.701
 4830SOL     OW15388   4.386   6.656   3.879
 4830SOL    HW115389   4.437   6.587   3.931
 4830SOL    HW215390   4.289   6.648   3.900
 4831SOL     OW15391   0.187   4.403   5.998
 4831SOL    HW115392   0.098   4.432   6.032
 4831SOL    HW215393   0.174   4.338   5.923
 4832SOL     OW15394   2.997   3.355   4.828
 4832SOL    HW115395   2.947   3.361   4.742
 4832SOL    HW215396   2.963   3.278   4.881
 4833SOL     OW15397   4.920   2.034   3.112
 4833SOL    HW115398   5.002   2.078   3.149
 4833SOL    HW215399   4.842   2.055   3.171
 4834SOL     OW15400   4.388   6.432   1.464
 4834SOL    HW115401   4.394   6.356   1.398
 4834SOL    HW215402   4.439   6.408   1.547
 4835SOL     OW15403   6.923   1.136   6.446
 4835SOL    HW115404   7.011   1.173   6.416
 4835SOL    HW215405   6.911   1.152   6.544
 4836SOL     OW15406   5.151   2.653   4.467
 4836SOL    HW115407   5.082   2.725   4.478
 4836SOL    HW215408   5.122   2.571   4.517
 4837SOL     OW15409   6.188   4.090   2.279
 4837SOL    HW115410   6.214   3.994   2.281
 4837SOL    HW215411   6.219   4.131   2.194
 4838SOL     OW15412   0.740   5.077   0.730
 4838SOL    HW115413   0.751   5.021   0.649
 4838SOL    HW215414   0.791   5.036   0.806
 4839SOL     OW15415   2.001   2.831   6.602
 4839SOL    HW115416   1.967   2.925   6.597
 4839SOL    HW215417   2.036   2.812   6.694
 4840SOL     OW15418   6.726   5.531   5.964
 4840SOL    HW115419   6.703   5.561   6.056
 4840SOL    HW215420   6.653   5.558   5.901
 4841SOL     OW15421   2.932   5.786   2.156
 4841SOL    HW115422   2.982   5.783   2.069
 4841SOL    HW215423   2.872   5.707   2.163
 4842SOL     OW15424   3.838   4.844   2.689
 4842SOL    HW115425   3.916   4.845   2.751
 4842SOL    HW215426   3.765   4.787   2.727
 4843SOL     OW15427   6.269   2.918   0.760
 4843SOL    HW115428   6.333   2.905   0.836
 4843SOL    HW215429   6.229   3.010   0.766
 4844SOL     OW15430   6.752   3.342   5.483
 4844SOL    HW115431   6.783   3.369   5.574
 4844SOL    HW215432   6.681   3.405   5.451
 4845SOL     OW15433   5.416   5.503   5.805
 4845SOL    HW115434   5.415   5.414   5.851
 4845SOL    HW215435   5.509   5.524   5.774
 4846SOL     OW15436   0.037   3.222   3.719
 4846SOL    HW115437   0.002   3.131   3.738
 4846SOL    HW215438   0.080   3.259   3.801
 4847SOL     OW15439   2.869   1.189   6.037
 4847SOL    HW115440   2.839   1.259   6.102
 4847SOL    HW215441   2.833   1.100   6.064
 4848SOL     OW15442   1.936   0.772   3.991
 4848SOL    HW115443   1.977   0.863   3.989
 4848SOL    HW215444   1.884   0.757   3.906
 4849SOL     OW15445   1.334   6.833   6.683
 4849SOL    HW115446   1.335   6.822   6.782
 4849SOL    HW215447   1.245   6.869   6.654
 4850SOL     OW15448   4.076   1.810   2.407
 4850SOL    HW115449   4.063   1.830   2.309
 4850SOL    HW215450   3.998   1.845   2.458
 4851SOL     OW15451   4.583   6.283   5.691
 4851SOL    HW115452   4.490   6.276   5.729
 4851SOL    HW215453   4.638   6.207   5.724
 4852SOL     OW15454   1.636   6.118   5.222
 4852SOL    HW115455   1.728   6.156   5.229
 4852SOL    HW215456   1.631   6.057   5.143
 4853SOL     OW15457   3.270   1.049   3.413
 4853SOL    HW115458   3.202   1.044   3.341
 4853SOL    HW215459   3.299   1.143   3.426
 4854SOL     OW15460   4.661   0.207   1.585
 4854SOL    HW115461   4.664   0.132   1.519
 4854SOL    HW215462   4.568   0.215   1.621
 4855SOL     OW15463   6.210   2.611   2.860
 4855SOL    HW115464   6.184   2.605   2.957
 4855SOL    HW215465   6.202   2.521   2.818
 4856SOL     OW15466   1.798   3.644   2.641
 4856SOL    HW115467   1.757   3.553   2.640
 4856SOL    HW215468   1.776   3.690   2.727
 4857SOL     OW15469   2.226   2.421   4.953
 4857SOL    HW115470   2.252   2.511   4.988
 4857SOL    HW215471   2.127   2.414   4.946
 4858SOL     OW15472   0.737   0.730   4.255
 4858SOL    HW115473   0.742   0.686   4.345
 4858SOL    HW215474   0.748   0.829   4.265
 4859SOL     OW15475   0.351   0.672   4.829
 4859SOL    HW115476   0.319   0.711   4.742
 4859SOL    HW215477   0.312   0.724   4.905
 4860SOL     OW15478   4.118   4.471   1.698
 4860SOL    HW115479   4.076   4.428   1.778
 4860SOL    HW215480   4.196   4.416   1.668
 4861SOL     OW15481   5.615   4.275   0.259
 4861SOL    HW115482   5.656   4.366   0.255
 4861SOL    HW215483   5.540   4.270   0.193
 4862SOL     OW15484   2.747   4.919   4.640
 4862SOL    HW115485   2.800   4.905   4.723
 4862SOL    HW215486   2.672   4.854   4.636
 4863SOL     OW15487   5.780   3.934   1.869
 4863SOL    HW115488   5.868   3.920   1.915
 4863SOL    HW215489   5.729   3.848   1.868
 4864SOL     OW15490   4.030   1.353   2.746
 4864SOL    HW115491   4.002   1.363   2.841
 4864SOL    HW215492   3.954   1.376   2.686
 4865SOL     OW15493   2.268   0.097   4.383
 4865SOL    HW115494   2.280   0.188   4.421
 4865SOL    HW215495   2.203   0.100   4.308
 4866SOL     OW15496   5.995   2.739   1.865
 4866SOL    HW115497   5.946   2.825   1.875
 4866SOL    HW215498   6.092   2.757   1.850
 4867SOL     OW15499   3.278   5.161   1.907
 4867SOL    HW115500   3.293   5.219   1.828
 4867SOL    HW215501   3.359   5.103   1.922
 4868SOL     OW15502   6.702   4.691   2.829
 4868SOL    HW115503   6.693   4.623   2.756
 4868SOL    HW215504   6.614   4.738   2.840
 4869SOL     OW15505   1.087   1.114   2.041
 4869SOL    HW115506   1.113   1.191   1.983
 4869SOL    HW215507   1.142   1.034   2.016
 4870SOL     OW15508   0.260   5.654   2.121
 4870SOL    HW115509   0.293   5.568   2.081
 4870SOL    HW215510   0.259   5.646   2.221
 4871SOL     OW15511   1.555   1.432   3.428
 4871SOL    HW115512   1.522   1.338   3.433
 4871SOL    HW215513   1.628   1.439   3.360
 4872SOL     OW15514   5.926   6.269   3.715
 4872SOL    HW115515   5.892   6.175   3.720
 4872SOL    HW215516   6.020   6.272   3.748
 4873SOL     OW15517   6.987   5.023   3.285
 4873SOL    HW115518   6.978   4.961   3.364
 4873SOL    HW215519   0.019   5.103   3.312
 4874SOL     OW15520   5.942   3.442   3.042
 4874SOL    HW115521   5.931   3.396   2.954
 4874SOL    HW215522   6.033   3.421   3.079
 4875SOL     OW15523   5.842   2.466   1.520
 4875SOL    HW115524   5.852   2.456   1.619
 4875SOL    HW215525   5.798   2.554   1.500
 4876SOL     OW15526   5.483   1.409   4.170
 4876SOL    HW115527   5.455   1.313   4.167
 4876SOL    HW215528   5.478   1.448   4.079
 4877SOL     OW15529   1.503   1.918   6.828
 4877SOL    HW115530   1.441   1.854   6.873
 4877SOL    HW215531   1.454   2.003   6.808
 4878SOL     OW15532   6.696   0.404   2.842
 4878SOL    HW115533   6.598   0.399   2.825
 4878SOL    HW215534   6.719   0.352   2.924
 4879SOL     OW15535   4.704   6.697   2.810
 4879SOL    HW115536   4.797   6.731   2.824
 4879SOL    HW215537   4.705   6.597   2.814
 4880SOL     OW15538   5.341   3.192   0.209
 4880SOL    HW115539   5.393   3.155   0.286
 4880SOL    HW215540   5.365   3.142   0.126
 4881SOL     OW15541   1.515   1.152   6.518
 4881SOL    HW115542   1.581   1.203   6.574
 4881SOL    HW215543   1.434   1.130   6.573
 4882SOL     OW15544   5.098   1.704   4.954
 4882SOL    HW115545   5.087   1.717   5.053
 4882SOL    HW215546   5.180   1.752   4.923
 4883SOL     OW15547   5.077   4.684   1.885
 4883SOL    HW115548   5.081   4.777   1.921
 4883SOL    HW215549   4.982   4.653   1.887
 4884SOL     OW15550   2.992   6.550   1.560
 4884SOL    HW115551   2.960   6.583   1.471
 4884SOL    HW215552   2.917   6.507   1.609
 4885SOL     OW15553   2.579   5.134   2.035
 4885SOL    HW115554   2.554   5.048   1.991
 4885SOL    HW215555   2.497   5.180   2.068
 4886SOL     OW15556   1.175   5.469   1.221
 4886SOL    HW115557   1.143   5.452   1.314
 4886SOL    HW215558   1.222   5.557   1.218
 4887SOL     OW15559   0.848   0.300   3.016
 4887SOL    HW115560   0.919   0.321   3.084
 4887SOL    HW215561   0.871   0.215   2.969
 4888SOL     OW15562   2.498   6.780   3.979
 4888SOL    HW115563   2.457   6.700   3.936
 4888SOL    HW215564   2.517   6.759   4.076
 4889SOL     OW15565   6.959   1.259   5.873
 4889SOL    HW115566   6.907   1.296   5.951
 4889SOL    HW215567   0.035   1.267   5.891
 4890SOL     OW15568   0.960   1.332   6.851
 4890SOL    HW115569   0.997   1.397   6.918
 4890SOL    HW215570   0.860   1.333   6.854
 4891SOL     OW15571   1.580   4.575   6.709
 4891SOL    HW115572   1.485   4.602   6.723
 4891SOL    HW215573   1.588   4.521   6.625
 4892SOL     OW15574   3.537   5.909   1.884
 4892SOL    HW115575   3.595   5.986   1.911
 4892SOL    HW215576   3.513   5.918   1.787
 4893SOL     OW15577   6.819   3.418   1.699
 4893SOL    HW115578   6.747   3.414   1.767
 4893SOL    HW215579   6.784   3.459   1.615
 4894SOL     OW15580   2.428   1.299   3.058
 4894SOL    HW115581   2.418   1.324   2.962
 4894SOL    HW215582   2.410   1.379   3.116
 4895SOL     OW15583   0.474   4.616   3.679
 4895SOL    HW115584   0.401   4.578   3.737
 4895SOL    HW215585   0.442   4.620   3.584
 4896SOL     OW15586   1.683   4.955   2.164
 4896SOL    HW115587   1.739   4.881   2.127
 4896SOL    HW215588   1.653   4.931   2.256
 4897SOL     OW15589   2.405   4.005   5.795
 4897SOL    HW115590   2.499   4.007   5.759
 4897SOL    HW215591   2.408   3.989   5.893
 4898SOL     OW15592   4.110   0.825   4.399
 4898SOL    HW115593   4.176   0.753   4.420
 4898SOL    HW215594   4.025   0.809   4.450
 4899SOL     OW15595   5.511   5.226   3.141
 4899SOL    HW115596   5.475   5.318   3.126
 4899SOL    HW215597   5.606   5.232   3.173
 4900SOL     OW15598   2.163   6.348   4.825
 4900SOL    HW115599   2.233   6.411   4.856
 4900SOL    HW215600   2.199   6.289   4.753
 4901SOL     OW15601   3.673   0.392   5.679
 4901SOL    HW115602   3.657   0.491   5.671
 4901SOL    HW215603   3.741   0.375   5.751
 4902SOL     OW15604   2.319   1.774   4.280
 4902SOL    HW115605   2.274   1.848   4.231
 4902SOL    HW215606   2.322   1.796   4.378
 4903SOL     OW15607   3.779   6.222   6.486
 4903SOL    HW115608   3.754   6.239   6.390
 4903SOL    HW215609   3.698   6.228   6.543
 4904SOL     OW15610   2.265   0.009   3.954
 4904SOL    HW115611   2.328   6.992   3.886
 4904SOL    HW215612   2.250   6.965   4.028
 4905SOL     OW15613   4.483   6.840   2.842
 4905SOL    HW115614   4.565   6.782   2.839
 4905SOL    HW215615   4.404   6.784   2.867
 4906SOL     OW15616   4.946   2.135   6.233
 4906SOL    HW115617   4.961   2.162   6.328
 4906SOL    HW215618   4.849   2.143   6.211
 4907SOL     OW15619   4.465   6.126   1.966
 4907SOL    HW115620   4.388   6.154   2.024
 4907SOL    HW215621   4.513   6.207   1.933
 4908SOL     OW15622   5.224   4.929   6.783
 4908SOL    HW115623   5.242   5.018   6.739
 4908SOL    HW215624   5.149   4.883   6.735
 4909SOL     OW15625   6.823   0.331   4.165
 4909SOL    HW115626   6.915   0.371   4.177
 4909SOL    HW215627   6.809   0.259   4.232
 4910SOL     OW15628   5.797   0.539   4.819
 4910SOL    HW115629   5.711   0.487   4.821
 4910SOL    HW215630   5.835   0.542   4.911
 4911SOL     OW15631   1.491   3.523   4.193
 4911SOL    HW115632   1.398   3.514   4.159
 4911SOL    HW215633   1.539   3.593   4.141
 4912SOL     OW15634   4.856   1.599   6.792
 4912SOL    HW115635   4.907   1.592   6.706
 4912SOL    HW215636   4.795   1.679   6.787
 4913SOL     OW15637   3.643   2.507   5.328
 4913SOL    HW115638   3.622   2.566   5.250
 4913SOL    HW215639   3.740   2.481   5.324
 4914SOL     OW15640   3.783   0.678   5.046
 4914SOL    HW115641   3.790   0.646   5.140
 4914SOL    HW215642   3.757   0.602   4.986
 4915SOL     OW15643   4.340   6.794   5.343
 4915SOL    HW115644   4.325   6.738   5.262
 4915SOL    HW215645   4.332   6.738   5.426
 4916SOL     OW15646   1.076   6.957   4.096
 4916SOL    HW115647   1.141   6.905   4.039
 4916SOL    HW215648   1.079   6.923   4.190
 4917SOL     OW15649   2.620   5.008   1.313
 4917SOL    HW115650   2.664   4.929   1.356
 4917SOL    HW215651   2.529   5.020   1.352
 4918SOL     OW15652   4.905   5.751   2.298
 4918SOL    HW115653   4.882   5.676   2.235
 4918SOL    HW215654   4.856   5.834   2.270
 4919SOL     OW15655   2.850   2.529   0.318
 4919SOL    HW115656   2.760   2.568   0.301
 4919SOL    HW215657   2.914   2.602   0.343
 4920SOL     OW15658   6.173   0.895   4.074
 4920SOL    HW115659   6.094   0.922   4.129
 4920SOL    HW215660   6.151   0.811   4.024
 4921SOL     OW15661   1.064   4.900   0.316
 4921SOL    HW115662   1.085   4.970   0.247
 4921SOL    HW215663   1.086   4.934   0.407
 4922SOL     OW15664   2.203   2.664   5.088
 4922SOL    HW115665   2.196   2.705   5.178
 4922SOL    HW215666   2.240   2.731   5.023
 4923SOL     OW15667   4.365   1.842   2.486
 4923SOL    HW115668   4.289   1.877   2.431
 4923SOL    HW215669   4.412   1.770   2.435
 4924SOL     OW15670   3.011   1.720   4.874
 4924SOL    HW115671   3.020   1.707   4.775
 4924SOL    HW215672   2.968   1.809   4.891
 4925SOL     OW15673   6.999   6.499   2.429
 4925SOL    HW115674   6.969   6.480   2.336
 4925SOL    HW215675   0.072   6.468   2.442
 4926SOL     OW15676   5.405   1.307   0.315
 4926SOL    HW115677   5.427   1.252   0.395
 4926SOL    HW215678   5.486   1.317   0.258
 4927SOL     OW15679   3.413   3.891   4.065
 4927SOL    HW115680   3.445   3.812   4.117
 4927SOL    HW215681   3.364   3.953   4.126
 4928SOL     OW15682   1.544   0.225   0.129
 4928SOL    HW115683   1.538   0.162   0.052
 4928SOL    HW215684   1.452   0.243   0.164
 4929SOL     OW15685   0.643   5.783   4.812
 4929SOL    HW115686   0.560   5.836   4.799
 4929SOL    HW215687   0.627   5.688   4.785
 4930SOL     OW15688   4.771   0.975   3.182
 4930SOL    HW115689   4.834   0.899   3.203
 4930SOL    HW215690   4.746   0.971   3.085
 4931SOL     OW15691   6.940   6.661   0.648
 4931SOL    HW115692   0.012   6.682   0.673
 4931SOL    HW215693   6.927   6.673   0.550
 4932SOL     OW15694   2.524   3.089   1.710
 4932SOL    HW115695   2.449   3.154   1.719
 4932SOL    HW215696   2.488   2.997   1.699
 4933SOL     OW15697   2.417   0.208   3.436
 4933SOL    HW115698   2.366   0.205   3.350
 4933SOL    HW215699   2.498   0.150   3.429
 4934SOL     OW15700   2.733   5.707   2.410
 4934SOL    HW115701   2.663   5.708   2.481
 4934SOL    HW215702   2.693   5.680   2.323
 4935SOL     OW15703   1.936   1.267   6.431
 4935SOL    HW115704   1.851   1.249   6.381
 4935SOL    HW215705   1.982   1.346   6.391
 4936SOL     OW15706   2.499   4.523   1.847
 4936SOL    HW115707   2.581   4.580   1.845
 4936SOL    HW215708   2.468   4.512   1.941
 4937SOL     OW15709   6.345   2.758   5.585
 4937SOL    HW115710   6.423   2.719   5.632
 4937SOL    HW215711   6.260   2.728   5.629
 4938SOL     OW15712   2.065   5.458   5.516
 4938SOL    HW115713   2.042   5.361   5.515
 4938SOL    HW215714   2.069   5.492   5.422
 4939SOL     OW15715   6.620   1.964   4.076
 4939SOL    HW115716   6.555   1.897   4.111
 4939SOL    HW215717   6.579   2.055   4.078
 4940SOL     OW15718   0.183   0.908   5.284
 4940SOL    HW115719   0.215   0.856   5.363
 4940SOL    HW215720   0.083   0.911   5.283
 4941SOL     OW15721   5.236   2.427   5.309
 4941SOL    HW115722   5.327   2.433   5.268
 4941SOL    HW215723   5.185   2.353   5.265
 4942SOL     OW15724   5.072   2.758   6.157
 4942SOL    HW115725   5.126   2.842   6.150
 4942SOL    HW215726   5.060   2.734   6.253
 4943SOL     OW15727   4.406   3.747   6.308
 4943SOL    HW115728   4.462   3.762   6.389
 4943SOL    HW215729   4.452   3.785   6.228
 4944SOL     OW15730   1.944   4.625   1.762
 4944SOL    HW115731   2.029   4.572   1.764
 4944SOL    HW215732   1.966   4.723   1.760
 4945SOL     OW15733   1.024   0.136   4.359
 4945SOL    HW115734   1.056   0.180   4.276
 4945SOL    HW215735   0.930   0.165   4.378
 4946SOL     OW15736   1.400   4.866   0.051
 4946SOL    HW115737   1.463   4.853   6.995
 4946SOL    HW215738   1.371   4.777   0.085
 4947SOL     OW15739   2.027   1.144   1.040
 4947SOL    HW115740   2.047   1.221   0.980
 4947SOL    HW215741   2.074   1.063   1.007
 4948SOL     OW15742   1.439   2.776   2.522
 4948SOL    HW115743   1.390   2.774   2.435
 4948SOL    HW215744   1.520   2.834   2.514
 4949SOL     OW15745   5.383   6.121   6.080
 4949SOL    HW115746   5.346   6.209   6.107
 4949SOL    HW215747   5.454   6.093   6.145
 4950SOL     OW15748   2.385   5.461   4.513
 4950SOL    HW115749   2.468   5.412   4.541
 4950SOL    HW215750   2.368   5.536   4.577
 4951SOL     OW15751   6.222   1.774   5.078
 4951SOL    HW115752   6.177   1.716   5.146
 4951SOL    HW215753   6.250   1.860   5.121
 4952SOL     OW15754   0.559   1.151   5.699
 4952SOL    HW115755   0.491   1.105   5.757
 4952SOL    HW215756   0.514   1.184   5.616
 4953SOL     OW15757   2.478   5.674   2.627
 4953SOL    HW115758   2.378   5.683   2.635
 4953SOL    HW215759   2.513   5.624   2.706
 4954SOL     OW15760   3.819   3.009   0.097
 4954SOL    HW115761   3.766   2.931   0.064
 4954SOL    HW215762   3.787   3.036   0.187
 4955SOL     OW15763   3.088   6.651   6.339
 4955SOL    HW115764   3.044   6.697   6.262
 4955SOL    HW215765   3.058   6.556   6.343
 4956SOL     OW15766   2.373   0.053   5.555
 4956SOL    HW115767   2.388   0.150   5.572
 4956SOL    HW215768   2.442   0.019   5.490
 4957SOL     OW15769   6.202   2.197   1.920
 4957SOL    HW115770   6.175   2.245   2.003
 4957SOL    HW215771   6.183   2.099   1.931
 4958SOL     OW15772   0.077   5.189   5.421
 4958SOL    HW115773   0.125   5.106   5.394
 4958SOL    HW215774   0.094   5.207   5.518
 4959SOL     OW15775   6.494   1.437   0.155
 4959SOL    HW115776   6.576   1.398   0.195
 4959SOL    HW215777   6.485   1.406   0.060
 4960SOL     OW15778   3.301   5.119   3.643
 4960SOL    HW115779   3.261   5.185   3.708
 4960SOL    HW215780   3.316   5.032   3.689
 4961SOL     OW15781   4.280   1.236   6.117
 4961SOL    HW115782   4.313   1.330   6.124
 4961SOL    HW215783   4.351   1.178   6.077
 4962SOL     OW15784   6.481   2.178   0.423
 4962SOL    HW115785   6.388   2.140   0.424
 4962SOL    HW215786   6.527   2.151   0.339
 4963SOL     OW15787   6.031   5.479   0.548
 4963SOL    HW115788   5.997   5.572   0.535
 4963SOL    HW215789   6.055   5.440   0.460
 4964SOL     OW15790   3.026   0.265   3.645
 4964SOL    HW115791   3.070   0.279   3.733
 4964SOL    HW215792   2.934   0.304   3.646
 4965SOL     OW15793   0.015   0.485   2.563
 4965SOL    HW115794   6.971   0.540   2.615
 4965SOL    HW215795   0.027   0.397   2.609
 4966SOL     OW15796   2.437   6.958   5.096
 4966SOL    HW115797   2.491   6.882   5.060
 4966SOL    HW215798   2.349   6.961   5.050
 4967SOL     OW15799   3.528   5.697   5.632
 4967SOL    HW115800   3.566   5.710   5.540
 4967SOL    HW215801   3.582   5.630   5.682
 4968SOL     OW15802   6.596   1.887   3.635
 4968SOL    HW115803   6.509   1.936   3.628
 4968SOL    HW215804   6.669   1.952   3.658
 4969SOL     OW15805   2.672   6.736   2.862
 4969SOL    HW115806   2.593   6.768   2.809
 4969SOL    HW215807   2.746   6.712   2.799
 4970SOL     OW15808   1.748   2.690   2.832
 4970SOL    HW115809   1.706   2.699   2.923
 4970SOL    HW215810   1.710   2.610   2.786
 4971SOL     OW15811   5.959   5.655   3.514
 4971SOL    HW115812   5.935   5.558   3.506
 4971SOL    HW215813   6.051   5.664   3.552
 4972SOL     OW15814   1.547   3.495   0.485
 4972SOL    HW115815   1.595   3.562   0.542
 4972SOL    HW215816   1.449   3.513   0.488
 4973SOL     OW15817   1.732   7.008   2.406
 4973SOL    HW115818   1.654   6.954   2.438
 4973SOL    HW215819   1.810   6.947   2.391
 4974SOL     OW15820   6.109   4.509   0.951
 4974SOL    HW115821   6.036   4.442   0.937
 4974SOL    HW215822   6.197   4.466   0.931
 4975SOL     OW15823   5.588   4.377   5.672
 4975SOL    HW115824   5.610   4.280   5.684
 4975SOL    HW215825   5.631   4.430   5.745
 4976SOL     OW15826   2.411   0.443   3.134
 4976SOL    HW115827   2.443   0.512   3.069
 4976SOL    HW215828   2.439   0.468   3.227
 4977SOL     OW15829   3.862   4.594   0.020
 4977SOL    HW115830   3.792   4.649   0.065
 4977SOL    HW215831   3.824   4.505   7.017
 4978SOL     OW15832   6.920   3.608   4.940
 4978SOL    HW115833   6.992   3.665   4.980
 4978SOL    HW215834   6.944   3.512   4.952
 4979SOL     OW15835   0.318   0.182   6.153
 4979SOL    HW115836   0.307   0.165   6.056
 4979SOL    HW215837   0.229   0.204   6.193
 4980SOL     OW15838   5.387   6.609   3.090
 4980SOL    HW115839   5.315   6.544   3.115
 4980SOL    HW215840   5.387   6.622   2.991
 4981SOL     OW15841   5.192   6.206   6.842
 4981SOL    HW115842   5.133   6.185   6.763
 4981SOL    HW215843   5.175   6.140   6.914
 4982SOL     OW15844   2.743   1.421   6.161
 4982SOL    HW115845   2.748   1.507   6.212
 4982SOL    HW215846   2.666   1.425   6.097
 4983SOL     OW15847   5.903   2.532   5.015
 4983SOL    HW115848   5.879   2.494   4.926
 4983SOL    HW215849   5.985   2.487   5.050
 4984SOL     OW15850   5.522   4.351   3.611
 4984SOL    HW115851   5.573   4.436   3.599
 4984SOL    HW215852   5.542   4.290   3.534
 4985SOL     OW15853   6.224   6.333   3.567
 4985SOL    HW115854   6.219   6.263   3.639
 4985SOL    HW215855   6.142   6.327   3.510
 4986SOL     OW15856   6.042   3.947   1.977
 4986SOL    HW115857   6.031   3.872   2.042
 4986SOL    HW215858   6.118   4.005   2.005
 4987SOL     OW15859   1.047   0.184   1.291
 4987SOL    HW115860   1.064   0.206   1.387
 4987SOL    HW215861   1.000   0.261   1.248
 4988SOL     OW15862   5.175   0.815   3.315
 4988SOL    HW115863   5.117   0.781   3.241
 4988SOL    HW215864   5.173   0.751   3.391
 4989SOL     OW15865   4.890   0.110   1.849
 4989SOL    HW115866   4.853   0.020   1.823
 4989SOL    HW215867   4.828   0.182   1.817
 4990SOL     OW15868   1.899   2.018   5.192
 4990SOL    HW115869   1.805   2.037   5.163
 4990SOL    HW215870   1.957   2.096   5.170
 4991SOL     OW15871   6.385   4.762   4.717
 4991SOL    HW115872   6.386   4.855   4.678
 4991SOL    HW215873   6.291   4.733   4.732
 4992SOL     OW15874   5.047   0.948   4.607
 4992SOL    HW115875   5.069   0.904   4.520
 4992SOL    HW215876   5.096   1.036   4.613
 4993SOL     OW15877   3.089   5.726   3.952
 4993SOL    HW115878   3.138   5.662   4.010
 4993SOL    HW215879   3.133   5.816   3.957
 4994SOL     OW15880   2.049   0.121   3.243
 4994SOL    HW115881   2.057   0.204   3.298
 4994SOL    HW215882   2.140   0.086   3.221
 4995SOL     OW15883   0.068   2.643   5.664
 4995SOL    HW115884   0.142   2.691   5.711
 4995SOL    HW215885   0.035   2.569   5.722
 4996SOL     OW15886   1.297   1.231   2.769
 4996SOL    HW115887   1.326   1.235   2.673
 4996SOL    HW215888   1.270   1.137   2.792
 4997SOL     OW15889   5.258   2.083   3.189
 4997SOL    HW115890   5.244   2.146   3.266
 4997SOL    HW215891   5.257   1.989   3.223
 4998SOL     OW15892   2.073   4.234   4.957
 4998SOL    HW115893   2.000   4.206   5.019
 4998SOL    HW215894   2.149   4.170   4.964
 4999SOL     OW15895   6.110   4.384   0.616
 4999SOL    HW115896   6.131   4.305   0.558
 4999SOL    HW215897   6.041   4.440   0.570
 5000SOL     OW15898   2.673   6.921   3.623
 5000SOL    HW115899   2.660   6.848   3.555
 5000SOL    HW215900   2.722   6.997   3.580
 5001SOL     OW15901   0.408   4.108   0.655
 5001SOL    HW115902   0.397   4.052   0.572
 5001SOL    HW215903   0.499   4.094   0.692
 5002SOL     OW15904   1.039   3.191   3.308
 5002SOL    HW115905   1.089   3.108   3.331
 5002SOL    HW215906   0.957   3.197   3.365
 5003SOL     OW15907   2.623   6.272   2.609
 5003SOL    HW115908   2.642   6.182   2.570
 5003SOL    HW215909   2.693   6.294   2.677
 5004SOL     OW15910   3.404   5.050   5.904
 5004SOL    HW115911   3.495   5.087   5.921
 5004SOL    HW215912   3.335   5.111   5.945
 5005SOL     OW15913   3.102   2.441   0.638
 5005SOL    HW115914   3.176   2.484   0.586
 5005SOL    HW215915   3.121   2.449   0.736
 5006SOL     OW15916   5.294   0.371   0.440
 5006SOL    HW115917   5.360   0.439   0.472
 5006SOL    HW215918   5.315   0.282   0.479
 5007SOL     OW15919   1.511   0.160   6.809
 5007SOL    HW115920   1.529   0.068   6.844
 5007SOL    HW215921   1.592   0.216   6.820
 5008SOL     OW15922   6.785   6.654   3.413
 5008SOL    HW115923   6.695   6.638   3.371
 5008SOL    HW215924   6.833   6.725   3.361
 5009SOL     OW15925   1.489   6.289   0.889
 5009SOL    HW115926   1.560   6.222   0.910
 5009SOL    HW215927   1.526   6.357   0.825
 5010SOL     OW15928   3.368   3.531   2.872
 5010SOL    HW115929   3.372   3.629   2.853
 5010SOL    HW215930   3.378   3.480   2.786
 5011SOL     OW15931   1.717   3.785   2.854
 5011SOL    HW115932   1.636   3.843   2.868
 5011SOL    HW215933   1.796   3.829   2.895
 5012SOL     OW15934   5.273   4.495   6.534
 5012SOL    HW115935   5.243   4.412   6.487
 5012SOL    HW215936   5.262   4.574   6.473
 5013SOL     OW15937   4.857   1.820   0.021
 5013SOL    HW115938   4.883   1.732   0.062
 5013SOL    HW215939   4.846   1.809   6.944
 5014SOL     OW15940   5.307   4.471   0.794
 5014SOL    HW115941   5.340   4.526   0.718
 5014SOL    HW215942   5.358   4.385   0.798
 5015SOL     OW15943   4.677   2.106   4.257
 5015SOL    HW115944   4.677   2.132   4.161
 5015SOL    HW215945   4.635   2.016   4.267
 5016SOL     OW15946   2.145   2.594   0.851
 5016SOL    HW115947   2.077   2.666   0.861
 5016SOL    HW215948   2.099   2.508   0.830
 5017SOL     OW15949   1.941   2.275   0.119
 5017SOL    HW115950   1.940   2.364   0.165
 5017SOL    HW215951   1.876   2.213   0.163
 5018SOL     OW15952   0.012   4.432   2.077
 5018SOL    HW115953   0.070   4.507   2.107
 5018SOL    HW215954   6.958   4.419   2.142
 5019SOL     OW15955   1.335   4.654   6.743
 5019SOL    HW115956   1.280   4.637   6.824
 5019SOL    HW215957   1.297   4.730   6.691
 5020SOL     OW15958   4.962   6.897   6.129
 5020SOL    HW115959   4.879   6.884   6.075
 5020SOL    HW215960   5.041   6.862   6.078
 5021SOL     OW15961   1.580   1.998   6.057
 5021SOL    HW115962   1.545   2.000   6.151
 5021SOL    HW215963   1.618   1.908   6.038
 5022SOL     OW15964   1.244   0.901   0.380
 5022SOL    HW115965   1.290   0.989   0.393
 5022SOL    HW215966   1.287   0.832   0.439
 5023SOL     OW15967   6.414   3.176   1.002
 5023SOL    HW115968   6.349   3.196   1.075
 5023SOL    HW215969   6.371   3.194   0.913
 5024SOL     OW15970   5.673   5.851   2.706
 5024SOL    HW115971   5.589   5.870   2.755
 5024SOL    HW215972   5.738   5.925   2.720
 5025SOL     OW15973   3.844   1.996   2.054
 5025SOL    HW115974   3.791   2.080   2.052
 5025SOL    HW215975   3.789   1.920   2.020
 5026SOL     OW15976   6.184   6.016   6.267
 5026SOL    HW115977   6.105   6.056   6.221
 5026SOL    HW215978   6.262   6.013   6.204
 5027SOL     OW15979   1.136   6.246   2.333
 5027SOL    HW115980   1.163   6.161   2.287
 5027SOL    HW215981   1.080   6.300   2.271
 5028SOL     OW15982   0.819   0.395   3.434
 5028SOL    HW115983   0.877   0.373   3.513
 5028SOL    HW215984   0.733   0.345   3.441
 5029SOL     OW15985   0.118   2.723   3.046
 5029SOL    HW115986   0.156   2.735   2.954
 5029SOL    HW215987   0.192   2.710   3.111
 5030SOL     OW15988   6.578   0.169   6.385
 5030SOL    HW115989   6.553   0.187   6.290
 5030SOL    HW215990   6.581   0.255   6.436
 5031SOL     OW15991   6.016   0.774   4.658
 5031SOL    HW115992   6.056   0.845   4.599
 5031SOL    HW215993   5.964   0.817   4.732
 5032SOL     OW15994   1.384   3.692   0.817
 5032SOL    HW115995   1.468   3.723   0.772
 5032SOL    HW215996   1.405   3.617   0.879
 5033SOL     OW15997   3.336   6.510   6.562
 5033SOL    HW115998   3.295   6.602   6.555
 5033SOL    HW215999   3.351   6.473   6.471
 5034SOL     OW16000   5.899   1.049   2.806
 5034SOL    HW116001   5.916   1.081   2.713
 5034SOL    HW216002   5.802   1.024   2.816
 5035SOL     OW16003   0.061   4.374   0.387
 5035SOL    HW116004   0.085   4.389   0.483
 5035SOL    HW216005   0.121   4.303   0.349
 5036SOL     OW16006   0.135   5.049   6.949
 5036SOL    HW116007   0.125   5.137   6.902
 5036SOL    HW216008   0.144   5.064   0.026
 5037SOL     OW16009   5.280   2.530   3.082
 5037SOL    HW116010   5.371   2.562   3.058
 5037SOL    HW216011   5.212   2.596   3.049
 5038SOL     OW16012   2.192   4.043   6.475
 5038SOL    HW116013   2.178   3.994   6.389
 5038SOL    HW216014   2.283   4.084   6.475
 5039SOL     OW16015   3.276   4.039   5.396
 5039SOL    HW116016   3.189   4.057   5.349
 5039SOL    HW216017   3.259   3.990   5.482
 5040SOL     OW16018   2.099   5.120   5.770
 5040SOL    HW116019   2.189   5.127   5.728
 5040SOL    HW216020   2.091   5.188   5.843
 5041SOL     OW16021   1.596   1.852   1.633
 5041SOL    HW116022   1.619   1.949   1.646
 5041SOL    HW216023   1.671   1.806   1.587
 5042SOL     OW16024   6.004   3.200   0.705
 5042SOL    HW116025   5.944   3.274   0.676
 5042SOL    HW216026   5.962   3.112   0.684
 5043SOL     OW16027   2.885   1.034   5.729
 5043SOL    HW116028   2.859   0.973   5.804
 5043SOL    HW216029   2.856   1.127   5.751
 5044SOL     OW16030   6.918   6.209   2.394
 5044SOL    HW116031   6.981   6.217   2.472
 5044SOL    HW216032   6.916   6.114   2.363
 5045SOL     OW16033   6.135   2.544   0.289
 5045SOL    HW116034   6.159   2.550   0.386
 5045SOL    HW216035   6.052   2.595   0.272
 5046SOL     OW16036   3.500   4.174   3.936
 5046SOL    HW116037   3.401   4.171   3.945
 5046SOL    HW216038   3.542   4.175   4.027
 5047SOL     OW16039   0.277   3.396   2.405
 5047SOL    HW116040   0.372   3.368   2.400
 5047SOL    HW216041   0.269   3.478   2.463
 5048SOL     OW16042   0.658   1.149   1.818
 5048SOL    HW116043   0.610   1.144   1.906
 5048SOL    HW216044   0.657   1.060   1.774
 5049SOL     OW16045   6.642   1.936   5.022
 5049SOL    HW116046   6.605   1.860   5.076
 5049SOL    HW216047   6.581   2.015   5.029
 5050SOL     OW16048   1.096   0.449   2.043
 5050SOL    HW116049   1.056   0.504   2.117
 5050SOL    HW216050   1.170   0.393   2.080
 5051SOL     OW16051   4.293   3.502   0.883
 5051SOL    HW116052   4.379   3.467   0.847
 5051SOL    HW216053   4.228   3.427   0.894
 5052SOL     OW16054   2.242   5.990   6.209
 5052SOL    HW116055   2.224   6.063   6.274
 5052SOL    HW216056   2.319   6.015   6.151
 5053SOL     OW16057   2.133   3.826   3.687
 5053SOL    HW116058   2.035   3.842   3.686
 5053SOL    HW216059   2.180   3.904   3.727
 5054SOL     OW16060   3.586   6.007   5.036
 5054SOL    HW116061   3.566   6.010   5.134
 5054SOL    HW216062   3.613   6.098   5.005
 5055SOL     OW16063   2.217   6.858   5.651
 5055SOL    HW116064   2.290   6.917   5.617
 5055SOL    HW216065   2.256   6.771   5.681
 5056SOL     OW16066   6.177   4.128   0.544
 5056SOL    HW116067   6.084   4.094   0.532
 5056SOL    HW216068   6.229   4.114   0.459
 5057SOL     OW16069   6.855   5.839   5.289
 5057SOL    HW116070   6.803   5.924   5.276
 5057SOL    HW216071   6.812   5.765   5.237
 5058SOL     OW16072   2.766   3.174   5.324
 5058SOL    HW116073   2.689   3.125   5.283
 5058SOL    HW216074   2.850   3.122   5.309
 5059SOL     OW16075   5.603   2.822   3.115
 5059SOL    HW116076   5.619   2.866   3.203
 5059SOL    HW216077   5.592   2.723   3.129
 5060SOL     OW16078   0.282   2.478   5.536
 5060SOL    HW116079   0.188   2.443   5.531
 5060SOL    HW216080   0.283   2.564   5.587
 5061SOL     OW16081   3.625   3.135   3.072
 5061SOL    HW116082   3.679   3.053   3.094
 5061SOL    HW216083   3.682   3.216   3.084
 5062SOL     OW16084   5.591   0.309   3.006
 5062SOL    HW116085   5.587   0.404   2.975
 5062SOL    HW216086   5.578   0.305   3.105
 5063SOL     OW16087   1.306   6.986   2.245
 5063SOL    HW116088   1.299   6.887   2.257
 5063SOL    HW216089   1.286   0.010   2.332
 5064SOL     OW16090   4.272   3.962   1.640
 5064SOL    HW116091   4.362   3.936   1.675
 5064SOL    HW216092   4.282   4.036   1.573
 5065SOL     OW16093   1.448   1.802   3.613
 5065SOL    HW116094   1.495   1.802   3.524
 5065SOL    HW216095   1.470   1.717   3.662
 5066SOL     OW16096   3.614   4.437   0.800
 5066SOL    HW116097   3.585   4.507   0.865
 5066SOL    HW216098   3.625   4.350   0.847
 5067SOL     OW16099   3.326   0.972   2.483
 5067SOL    HW116100   3.384   0.892   2.497
 5067SOL    HW216101   3.309   1.016   2.571
 5068SOL     OW16102   3.081   4.832   6.901
 5068SOL    HW116103   3.122   4.742   6.917
 5068SOL    HW216104   3.152   4.897   6.872
 5069SOL     OW16105   2.111   2.467   6.031
 5069SOL    HW116106   2.030   2.430   6.075
 5069SOL    HW216107   2.092   2.484   5.934
 5070SOL     OW16108   5.169   4.791   4.071
 5070SOL    HW116109   5.159   4.705   4.120
 5070SOL    HW216110   5.257   4.792   4.023
 5071SOL     OW16111   4.085   1.378   3.795
 5071SOL    HW116112   4.158   1.417   3.850
 5071SOL    HW216113   4.000   1.427   3.814
 5072SOL     OW16114   1.129   0.700   1.591
 5072SOL    HW116115   1.204   0.658   1.641
 5072SOL    HW216116   1.047   0.643   1.597
 5073SOL     OW16117   1.672   4.440   0.819
 5073SOL    HW116118   1.575   4.417   0.814
 5073SOL    HW216119   1.686   4.532   0.782
 5074SOL     OW16120   3.167   2.039   1.693
 5074SOL    HW116121   3.225   2.031   1.774
 5074SOL    HW216122   3.138   2.134   1.682
 5075SOL     OW16123   1.654   2.199   5.853
 5075SOL    HW116124   1.639   2.143   5.934
 5075SOL    HW216125   1.609   2.287   5.864
 5076SOL     OW16126   5.282   0.256   0.937
 5076SOL    HW116127   5.211   0.186   0.925
 5076SOL    HW216128   5.371   0.216   0.915
 5077SOL     OW16129   1.682   4.507   5.884
 5077SOL    HW116130   1.737   4.496   5.801
 5077SOL    HW216131   1.632   4.593   5.880
 5078SOL     OW16132   0.500   0.814   4.080
 5078SOL    HW116133   0.583   0.794   4.132
 5078SOL    HW216134   0.498   0.910   4.055
 5079SOL     OW16135   2.233   3.041   4.645
 5079SOL    HW116136   2.160   3.058   4.711
 5079SOL    HW216137   2.240   2.943   4.627
 5080SOL     OW16138   6.159   6.427   5.894
 5080SOL    HW116139   6.087   6.483   5.852
 5080SOL    HW216140   6.247   6.474   5.886
 5081SOL     OW16141   2.774   3.792   5.563
 5081SOL    HW116142   2.808   3.837   5.645
 5081SOL    HW216143   2.742   3.861   5.498
 5082SOL     OW16144   4.989   5.883   1.568
 5082SOL    HW116145   5.004   5.854   1.662
 5082SOL    HW216146   4.958   5.978   1.567
 5083SOL     OW16147   2.627   0.690   2.583
 5083SOL    HW116148   2.634   0.789   2.595
 5083SOL    HW216149   2.530   0.664   2.574
 5084SOL     OW16150   1.102   4.523   3.778
 5084SOL    HW116151   1.062   4.565   3.697
 5084SOL    HW216152   1.149   4.439   3.753
 5085SOL     OW16153   6.378   2.513   6.157
 5085SOL    HW116154   6.388   2.599   6.106
 5085SOL    HW216155   6.468   2.483   6.189
 5086SOL     OW16156   1.305   5.081   2.782
 5086SOL    HW116157   1.310   4.982   2.794
 5086SOL    HW216158   1.351   5.107   2.697
 5087SOL     OW16159   1.069   5.348   2.191
 5087SOL    HW116160   1.089   5.400   2.108
 5087SOL    HW216161   1.068   5.250   2.169
 5088SOL     OW16162   6.028   0.104   3.656
 5088SOL    HW116163   6.045   0.154   3.570
 5088SOL    HW216164   6.088   0.025   3.661
 5089SOL     OW16165   6.296   4.245   4.080
 5089SOL    HW116166   6.197   4.242   4.091
 5089SOL    HW216167   6.319   4.289   3.993
 5090SOL     OW16168   2.075   3.637   2.613
 5090SOL    HW116169   2.103   3.709   2.550
 5090SOL    HW216170   1.975   3.638   2.623
 5091SOL     OW16171   6.788   1.646   1.589
 5091SOL    HW116172   6.784   1.722   1.654
 5091SOL    HW216173   6.699   1.634   1.545
 5092SOL     OW16174   3.490   3.645   3.247
 5092SOL    HW116175   3.450   3.621   3.335
 5092SOL    HW216176   3.587   3.619   3.246
 5093SOL     OW16177   3.335   0.834   0.600
 5093SOL    HW116178   3.419   0.804   0.646
 5093SOL    HW216179   3.333   0.934   0.598
 5094SOL     OW16180   2.361   5.483   6.280
 5094SOL    HW116181   2.384   5.534   6.197
 5094SOL    HW216182   2.378   5.385   6.264
 5095SOL     OW16183   6.344   2.206   2.935
 5095SOL    HW116184   6.432   2.198   2.888
 5095SOL    HW216185   6.331   2.128   2.995
 5096SOL     OW16186   3.983   5.296   6.234
 5096SOL    HW116187   3.891   5.328   6.256
 5096SOL    HW216188   4.034   5.370   6.191
 5097SOL     OW16189   0.812   0.188   6.186
 5097SOL    HW116190   0.721   0.219   6.158
 5097SOL    HW216191   0.881   0.232   6.128
 5098SOL     OW16192   2.708   0.835   2.056
 5098SOL    HW116193   2.648   0.793   2.123
 5098SOL    HW216194   2.729   0.929   2.083
 5099SOL     OW16195   0.422   0.060   1.006
 5099SOL    HW116196   0.459   0.032   1.094
 5099SOL    HW216197   0.496   0.097   0.949
 5100SOL     OW16198   3.108   5.778   4.321
 5100SOL    HW116199   3.109   5.841   4.399
 5100SOL    HW216200   3.014   5.747   4.305
 5101SOL     OW16201   4.451   0.243   6.616
 5101SOL    HW116202   4.460   0.302   6.536
 5101SOL    HW216203   4.355   0.239   6.644
 5102SOL     OW16204   5.435   6.498   3.888
 5102SOL    HW116205   5.387   6.571   3.839
 5102SOL    HW216206   5.388   6.478   3.974
 5103SOL     OW16207   0.291   0.652   4.081
 5103SOL    HW116208   0.360   0.724   4.084
 5103SOL    HW216209   0.218   0.673   4.146
 5104SOL     OW16210   1.796   5.759   1.939
 5104SOL    HW116211   1.755   5.836   1.891
 5104SOL    HW216212   1.895   5.762   1.930
 5105SOL     OW16213   2.449   2.178   0.428
 5105SOL    HW116214   2.422   2.173   0.331
 5105SOL    HW216215   2.544   2.209   0.434
 5106SOL     OW16216   4.281   2.158   0.507
 5106SOL    HW116217   4.339   2.191   0.433
 5106SOL    HW216218   4.238   2.237   0.553
 5107SOL     OW16219   3.931   1.715   1.531
 5107SOL    HW116220   3.946   1.811   1.556
 5107SOL    HW216221   3.845   1.708   1.480
 5108SOL     OW16222   3.989   3.981   4.889
 5108SOL    HW116223   4.032   3.896   4.920
 5108SOL    HW216224   3.991   4.048   4.963
 5109SOL     OW16225   0.973   2.039   6.814
 5109SOL    HW116226   0.950   2.022   6.718
 5109SOL    HW216227   0.908   2.104   6.854
 5110SOL     OW16228   0.541   0.489   5.945
 5110SOL    HW116229   0.616   0.546   5.977
 5110SOL    HW216230   0.556   0.465   5.849
 5111SOL     OW16231   1.452   0.516   4.714
 5111SOL    HW116232   1.494   0.531   4.625
 5111SOL    HW216233   1.449   0.602   4.765
 5112SOL     OW16234   1.631   6.900   3.270
 5112SOL    HW116235   1.705   6.963   3.294
 5112SOL    HW216236   1.667   6.828   3.210
 5113SOL     OW16237   1.717   6.660   1.001
 5113SOL    HW116238   1.643   6.694   1.059
 5113SOL    HW216239   1.679   6.603   0.928
 5114SOL     OW16240   3.886   0.714   6.915
 5114SOL    HW116241   3.973   0.726   6.868
 5114SOL    HW216242   3.861   0.617   6.915
 5115SOL     OW16243   1.335   4.880   4.108
 5115SOL    HW116244   1.288   4.840   4.187
 5115SOL    HW216245   1.410   4.937   4.140
 5116SOL     OW16246   1.077   6.886   6.669
 5116SOL    HW116247   1.062   6.968   6.724
 5116SOL    HW216248   1.018   6.813   6.702
 5117SOL     OW16249   1.880   3.851   4.290
 5117SOL    HW116250   1.919   3.774   4.340
 5117SOL    HW216251   1.791   3.875   4.329
 5118SOL     OW16252   4.978   1.287   6.730
 5118SOL    HW116253   5.077   1.291   6.717
 5118SOL    HW216254   4.935   1.362   6.678
 5119SOL     OW16255   5.420   0.511   2.391
 5119SOL    HW116256   5.365   0.466   2.320
 5119SOL    HW216257   5.409   0.462   2.477
 5120SOL     OW16258   3.780   0.551   4.225
 5120SOL    HW116259   3.854   0.486   4.207
 5120SOL    HW216260   3.703   0.532   4.163
 5121SOL     OW16261   3.226   2.100   6.910
 5121SOL    HW116262   3.179   2.122   6.825
 5121SOL    HW216263   3.166   2.046   6.969
 5122SOL     OW16264   3.433   6.405   3.533
 5122SOL    HW116265   3.516   6.460   3.535
 5122SOL    HW216266   3.448   6.326   3.473
 5123SOL     OW16267   4.062   2.255   4.265
 5123SOL    HW116268   3.967   2.281   4.285
 5123SOL    HW216269   4.063   2.189   4.190
 5124SOL     OW16270   2.315   5.417   4.843
 5124SOL    HW116271   2.243   5.441   4.778
 5124SOL    HW216272   2.375   5.348   4.803
 5125SOL     OW16273   6.369   3.109   3.694
 5125SOL    HW116274   6.394   3.187   3.636
 5125SOL    HW216275   6.269   3.104   3.701
 5126SOL     OW16276   5.664   5.596   5.732
 5126SOL    HW116277   5.649   5.607   5.634
 5126SOL    HW216278   5.733   5.661   5.763
 5127SOL     OW16279   0.746   4.226   6.968
 5127SOL    HW116280   0.746   4.153   0.015
 5127SOL    HW216281   0.828   4.281   6.978
 5128SOL     OW16282   6.926   0.601   6.257
 5128SOL    HW116283   6.888   0.513   6.283
 5128SOL    HW216284   6.863   0.648   6.195
 5129SOL     OW16285   6.156   6.966   2.446
 5129SOL    HW116286   6.226   7.018   2.397
 5129SOL    HW216287   6.066   7.002   2.423
 5130SOL     OW16288   0.252   5.552   4.000
 5130SOL    HW116289   0.295   5.550   3.910
 5130SOL    HW216290   0.317   5.585   4.068
 5131SOL     OW16291   1.981   5.271   4.006
 5131SOL    HW116292   1.977   5.176   4.036
 5131SOL    HW216293   1.924   5.283   3.924
 5132SOL     OW16294   3.439   2.619   6.735
 5132SOL    HW116295   3.532   2.591   6.760
 5132SOL    HW216296   3.435   2.719   6.727
 5133SOL     OW16297   1.830   5.755   6.906
 5133SOL    HW116298   1.783   5.809   6.836
 5133SOL    HW216299   1.820   5.800   6.995
 5134SOL     OW16300   0.707   2.898   2.678
 5134SOL    HW116301   0.730   2.981   2.729
 5134SOL    HW216302   0.767   2.891   2.598
 5135SOL     OW16303   5.607   3.225   4.570
 5135SOL    HW116304   5.674   3.223   4.645
 5135SOL    HW216305   5.515   3.234   4.609
 5136SOL     OW16306   4.713   0.843   5.950
 5136SOL    HW116307   4.619   0.825   5.921
 5136SOL    HW216308   4.736   0.785   6.028
 5137SOL     OW16309   4.989   3.341   5.222
 5137SOL    HW116310   4.949   3.381   5.304
 5137SOL    HW216311   4.968   3.244   5.218
 5138SOL     OW16312   3.501   3.204   5.111
 5138SOL    HW116313   3.552   3.273   5.162
 5138SOL    HW216314   3.412   3.241   5.083
 5139SOL     OW16315   1.727   1.020   2.931
 5139SOL    HW116316   1.663   1.094   2.909
 5139SOL    HW216317   1.799   1.018   2.861
 5140SOL     OW16318   4.152   2.796   6.733
 5140SOL    HW116319   4.137   2.844   6.819
 5140SOL    HW216320   4.080   2.727   6.721
 5141SOL     OW16321   6.520   3.821   0.657
 5141SOL    HW116322   6.578   3.895   0.624
 5141SOL    HW216323   6.562   3.733   0.634
 5142SOL     OW16324   6.428   6.980   3.498
 5142SOL    HW116325   6.365   6.913   3.460
 5142SOL    HW216326   6.516   6.936   3.515
 5143SOL     OW16327   6.391   4.333   3.835
 5143SOL    HW116328   6.359   4.333   3.740
 5143SOL    HW216329   6.487   4.307   3.838
 5144SOL     OW16330   0.523   4.673   5.910
 5144SOL    HW116331   0.610   4.718   5.890
 5144SOL    HW216332   0.472   4.659   5.825
 5145SOL     OW16333   3.107   5.163   5.920
 5145SOL    HW116334   3.094   5.214   6.005
 5145SOL    HW216335   3.018   5.137   5.884
 5146SOL     OW16336   3.757   4.061   5.460
 5146SOL    HW116337   3.720   4.040   5.369
 5146SOL    HW216338   3.688   4.041   5.529
 5147SOL     OW16339   0.208   5.193   2.501
 5147SOL    HW116340   0.231   5.125   2.571
 5147SOL    HW216341   0.196   5.282   2.544
 5148SOL     OW16342   6.654   6.235   1.831
 5148SOL    HW116343   6.662   6.230   1.732
 5148SOL    HW216344   6.740   6.269   1.870
 5149SOL     OW16345   6.273   5.322   3.239
 5149SOL    HW116346   6.335   5.272   3.179
 5149SOL    HW216347   6.180   5.286   3.230
 5150SOL     OW16348   2.495   5.622   3.083
 5150SOL    HW116349   2.592   5.629   3.057
 5150SOL    HW216350   2.488   5.599   3.180
 5151SOL     OW16351   6.362   2.455   1.443
 5151SOL    HW116352   6.441   2.486   1.390
 5151SOL    HW216353   6.334   2.365   1.410
 5152SOL     OW16354   1.910   4.352   0.026
 5152SOL    HW116355   1.811   4.342   0.035
 5152SOL    HW216356   1.943   4.287   6.979
 5153SOL     OW16357   1.990   0.926   0.285
 5153SOL    HW116358   1.954   0.859   0.220
 5153SOL    HW216359   2.080   0.957   0.255
 5154SOL     OW16360   1.153   2.836   6.078
 5154SOL    HW116361   1.054   2.845   6.090
 5154SOL    HW216362   1.176   2.741   6.058
 5155SOL     OW16363   4.614   0.237   1.884
 5155SOL    HW116364   4.667   0.308   1.838
 5155SOL    HW216365   4.601   0.262   1.980
 5156SOL     OW16366   5.282   3.662   6.063
 5156SOL    HW116367   5.192   3.653   6.106
 5156SOL    HW216368   5.348   3.699   6.129
 5157SOL     OW16369   3.857   2.046   3.220
 5157SOL    HW116370   3.946   2.061   3.177
 5157SOL    HW216371   3.855   2.093   3.309
 5158SOL     OW16372   3.433   1.547   1.863
 5158SOL    HW116373   3.339   1.564   1.890
 5158SOL    HW216374   3.469   1.627   1.815
 5159SOL     OW16375   6.840   3.408   4.495
 5159SOL    HW116376   6.810   3.486   4.552
 5159SOL    HW216377   6.903   3.441   4.425
 5160SOL     OW16378   6.730   5.262   2.888
 5160SOL    HW116379   6.797   5.223   2.952
 5160SOL    HW216380   6.690   5.344   2.928
 5161SOL     OW16381   1.701   3.900   5.579
 5161SOL    HW116382   1.754   3.954   5.644
 5161SOL    HW216383   1.647   3.832   5.628
 5162SOL     OW16384   1.281   4.813   3.213
 5162SOL    HW116385   1.374   4.826   3.248
 5162SOL    HW216386   1.257   4.891   3.155
 5163SOL     OW16387   3.775   6.499   0.283
 5163SOL    HW116388   3.691   6.450   0.261
 5163SOL    HW216389   3.752   6.591   0.317
 5164SOL     OW16390   4.082   2.455   6.939
 5164SOL    HW116391   4.003   2.407   6.899
 5164SOL    HW216392   4.049   2.530   6.996
 5165SOL     OW16393   6.239   4.430   5.707
 5165SOL    HW116394   6.247   4.472   5.616
 5165SOL    HW216395   6.329   4.398   5.737
 5166SOL     OW16396   0.625   5.283   2.573
 5166SOL    HW116397   0.557   5.226   2.619
 5166SOL    HW216398   0.717   5.254   2.601
 5167SOL     OW16399   6.772   6.452   6.481
 5167SOL    HW116400   6.794   6.391   6.557
 5167SOL    HW216401   6.850   6.514   6.465
 5168SOL     OW16402   5.449   3.929   2.080
 5168SOL    HW116403   5.461   3.913   1.982
 5168SOL    HW216404   5.390   3.858   2.119
 5169SOL     OW16405   3.962   2.069   4.514
 5169SOL    HW116406   3.893   2.010   4.556
 5169SOL    HW216407   3.929   2.100   4.425
 5170SOL     OW16408   0.568   4.194   5.401
 5170SOL    HW116409   0.635   4.120   5.404
 5170SOL    HW216410   0.565   4.240   5.490
 5171SOL     OW16411   0.985   5.553   4.630
 5171SOL    HW116412   0.948   5.644   4.648
 5171SOL    HW216413   1.042   5.524   4.707
 5172SOL     OW16414   1.137   2.565   2.416
 5172SOL    HW116415   1.076   2.534   2.488
 5172SOL    HW216416   1.229   2.530   2.432
 5173SOL     OW16417   5.012   4.778   6.169
 5173SOL    HW116418   4.974   4.697   6.123
 5173SOL    HW216419   5.026   4.851   6.102
 5174SOL     OW16420   2.314   4.853   3.480
 5174SOL    HW116421   2.317   4.908   3.564
 5174SOL    HW216422   2.390   4.879   3.421
 5175SOL     OW16423   2.827   3.360   0.108
 5175SOL    HW116424   2.825   3.269   0.149
 5175SOL    HW216425   2.796   3.355   0.014
 5176SOL     OW16426   4.527   3.055   6.782
 5176SOL    HW116427   4.607   3.043   6.840
 5176SOL    HW216428   4.530   2.989   6.707
 5177SOL     OW16429   4.898   0.751   6.978
 5177SOL    HW116430   4.911   0.809   0.038
 5177SOL    HW216431   4.946   0.664   6.991
 5178SOL     OW16432   1.398   4.404   2.456
 5178SOL    HW116433   1.334   4.438   2.525
 5178SOL    HW216434   1.353   4.334   2.400
 5179SOL     OW16435   4.097   5.778   3.593
 5179SOL    HW116436   4.047   5.738   3.670
 5179SOL    HW216437   4.032   5.804   3.522
 5180SOL     OW16438   2.622   2.624   1.052
 5180SOL    HW116439   2.625   2.529   1.084
 5180SOL    HW216440   2.535   2.665   1.077
 5181SOL     OW16441   5.872   1.431   2.458
 5181SOL    HW116442   5.772   1.426   2.456
 5181SOL    HW216443   5.909   1.403   2.369
 5182SOL     OW16444   3.879   4.446   1.419
 5182SOL    HW116445   3.838   4.355   1.429
 5182SOL    HW216446   3.811   4.515   1.441
 5183SOL     OW16447   4.490   1.559   3.282
 5183SOL    HW116448   4.494   1.460   3.293
 5183SOL    HW216449   4.574   1.591   3.239
 5184SOL     OW16450   0.651   1.828   4.373
 5184SOL    HW116451   0.604   1.833   4.461
 5184SOL    HW216452   0.603   1.885   4.307
 5185SOL     OW16453   5.368   0.835   2.121
 5185SOL    HW116454   5.302   0.904   2.089
 5185SOL    HW216455   5.404   0.786   2.042
 5186SOL     OW16456   6.685   3.012   0.794
 5186SOL    HW116457   6.773   3.007   0.841
 5186SOL    HW216458   6.618   2.956   0.843
 5187SOL     OW16459   0.834   6.661   4.279
 5187SOL    HW116460   0.795   6.737   4.330
 5187SOL    HW216461   0.769   6.631   4.209
 5188SOL     OW16462   0.614   5.602   0.778
 5188SOL    HW116463   0.663   5.602   0.691
 5188SOL    HW216464   0.676   5.578   0.852
 5189SOL     OW16465   4.033   4.571   0.759
 5189SOL    HW116466   4.077   4.554   0.847
 5189SOL    HW216467   3.950   4.515   0.752
 5190SOL     OW16468   0.727   2.139   4.167
 5190SOL    HW116469   0.690   2.227   4.137
 5190SOL    HW216470   0.653   2.080   4.196
 5191SOL     OW16471   4.129   0.402   1.822
 5191SOL    HW116472   4.138   0.384   1.724
 5191SOL    HW216473   4.123   0.316   1.872
 5192SOL     OW16474   2.814   5.609   3.144
 5192SOL    HW116475   2.901   5.577   3.106
 5192SOL    HW216476   2.813   5.593   3.242
 5193SOL     OW16477   5.136   4.273   4.688
 5193SOL    HW116478   5.118   4.250   4.784
 5193SOL    HW216479   5.234   4.270   4.671
 5194SOL     OW16480   4.613   2.109   0.594
 5194SOL    HW116481   4.571   2.033   0.544
 5194SOL    HW216482   4.563   2.126   0.678
 5195SOL     OW16483   5.757   6.533   4.302
 5195SOL    HW116484   5.726   6.585   4.223
 5195SOL    HW216485   5.848   6.497   4.284
 5196SOL     OW16486   3.602   4.805   0.567
 5196SOL    HW116487   3.515   4.798   0.519
 5196SOL    HW216488   3.589   4.857   0.652
 5197SOL     OW16489   1.875   5.573   5.253
 5197SOL    HW116490   1.801   5.612   5.309
 5197SOL    HW216491   1.963   5.603   5.289
 5198SOL     OW16492   4.411   6.561   3.104
 5198SOL    HW116493   4.502   6.521   3.118
 5198SOL    HW216494   4.384   6.612   3.185
 5199SOL     OW16495   1.388   5.663   0.414
 5199SOL    HW116496   1.410   5.664   0.512
 5199SOL    HW216497   1.351   5.752   0.387
 5200SOL     OW16498   1.365   2.502   5.056
 5200SOL    HW116499   1.286   2.559   5.035
 5200SOL    HW216500   1.443   2.559   5.080
 5201SOL     OW16501   0.190   6.631   4.019
 5201SOL    HW116502   0.222   6.652   3.927
 5201SOL    HW216503   0.212   6.706   4.080
 5202SOL     OW16504   5.954   4.145   5.353
 5202SOL    HW116505   5.968   4.162   5.451
 5202SOL    HW216506   5.926   4.050   5.340
 5203SOL     OW16507   2.499   1.347   6.550
 5203SOL    HW116508   2.402   1.342   6.574
 5203SOL    HW216509   2.555   1.346   6.633
 5204SOL     OW16510   4.449   6.185   6.855
 5204SOL    HW116511   4.436   6.257   6.787
 5204SOL    HW216512   4.480   6.227   6.941
 5205SOL     OW16513   0.482   5.799   0.933
 5205SOL    HW116514   0.444   5.875   0.881
 5205SOL    HW216515   0.522   5.732   0.871
 5206SOL     OW16516   0.632   5.109   0.247
 5206SOL    HW116517   0.533   5.117   0.245
 5206SOL    HW216518   0.673   5.194   0.214
 5207SOL     OW16519   1.240   6.341   3.857
 5207SOL    HW116520   1.177   6.325   3.781
 5207SOL    HW216521   1.295   6.259   3.872
 5208SOL     OW16522   5.088   2.310   6.826
 5208SOL    HW116523   5.124   2.216   6.830
 5208SOL    HW216524   4.993   2.310   6.855
 5209SOL     OW16525   5.746   0.090   1.994
 5209SOL    HW116526   5.828   0.084   2.051
 5209SOL    HW216527   5.711   7.020   1.976
 5210SOL     OW16528   4.545   3.106   0.303
 5210SOL    HW116529   4.600   3.100   0.386
 5210SOL    HW216530   4.588   3.054   0.229
 5211SOL     OW16531   3.908   2.273   5.816
 5211SOL    HW116532   3.855   2.312   5.740
 5211SOL    HW216533   3.971   2.204   5.781
 5212SOL     OW16534   0.366   2.688   0.781
 5212SOL    HW116535   0.417   2.773   0.795
 5212SOL    HW216536   0.302   2.674   0.856
 5213SOL     OW16537   4.452   3.974   0.097
 5213SOL    HW116538   4.360   4.012   0.110
 5213SOL    HW216539   4.508   4.039   0.047
 5214SOL     OW16540   5.194   2.189   6.475
 5214SOL    HW116541   5.171   2.214   6.381
 5214SOL    HW216542   5.290   2.159   6.479
 5215SOL     OW16543   1.198   4.502   4.097
 5215SOL    HW116544   1.167   4.528   4.006
 5215SOL    HW216545   1.257   4.422   4.091
 5216SOL     OW16546   4.345   4.878   1.629
 5216SOL    HW116547   4.417   4.812   1.607
 5216SOL    HW216548   4.339   4.890   1.728
 5217SOL     OW16549   3.459   5.446   4.153
 5217SOL    HW116550   3.528   5.397   4.207
 5217SOL    HW216551   3.375   5.456   4.207
 5218SOL     OW16552   0.955   0.769   2.040
 5218SOL    HW116553   1.013   0.763   1.959
 5218SOL    HW216554   1.007   0.744   2.121
 5219SOL     OW16555   3.981   1.267   5.122
 5219SOL    HW116556   3.942   1.225   5.204
 5219SOL    HW216557   4.062   1.321   5.147
 5220SOL     OW16558   1.408   6.316   2.329
 5220SOL    HW116559   1.459   6.239   2.368
 5220SOL    HW216560   1.314   6.288   2.312
 5221SOL     OW16561   6.019   1.506   3.388
 5221SOL    HW116562   5.940   1.559   3.417
 5221SOL    HW216563   6.012   1.413   3.423
 5222SOL     OW16564   4.313   6.608   2.858
 5222SOL    HW116565   4.351   6.589   2.948
 5222SOL    HW216566   4.214   6.616   2.864
 5223SOL     OW16567   6.273   2.895   0.488
 5223SOL    HW116568   6.276   2.920   0.585
 5223SOL    HW216569   6.182   2.859   0.466
 5224SOL     OW16570   6.404   2.784   4.521
 5224SOL    HW116571   6.439   2.820   4.607
 5224SOL    HW216572   6.306   2.766   4.530
 5225SOL     OW16573   0.182   0.583   3.825
 5225SOL    HW116574   0.208   0.487   3.812
 5225SOL    HW216575   0.221   0.616   3.911
 5226SOL     OW16576   0.035   0.034   4.810
 5226SOL    HW116577   0.134   0.035   4.824
 5226SOL    HW216578   7.014   0.107   4.863
 5227SOL     OW16579   0.306   3.362   5.230
 5227SOL    HW116580   0.271   3.286   5.175
 5227SOL    HW216581   0.233   3.429   5.243
 5228SOL     OW16582   6.300   2.602   0.874
 5228SOL    HW116583   6.325   2.621   0.779
 5228SOL    HW216584   6.298   2.687   0.927
 5229SOL     OW16585   2.529   6.425   0.320
 5229SOL    HW116586   2.606   6.488   0.322
 5229SOL    HW216587   2.452   6.468   0.272
 5230SOL     OW16588   0.512   5.874   1.950
 5230SOL    HW116589   0.564   5.878   1.865
 5230SOL    HW216590   0.515   5.964   1.994
 5231SOL     OW16591   4.911   2.438   4.629
 5231SOL    HW116592   4.843   2.504   4.596
 5231SOL    HW216593   4.868   2.376   4.694
 5232SOL     OW16594   1.933   3.855   6.065
 5232SOL    HW116595   1.933   3.799   6.148
 5232SOL    HW216596   1.842   3.893   6.050
 5233SOL     OW16597   4.240   1.262   2.245
 5233SOL    HW116598   4.228   1.247   2.343
 5233SOL    HW216599   4.336   1.250   2.221
 5234SOL     OW16600   2.711   1.946   5.986
 5234SOL    HW116601   2.801   1.910   6.014
 5234SOL    HW216602   2.640   1.880   6.010
 5235SOL     OW16603   1.836   2.683   0.632
 5235SOL    HW116604   1.919   2.682   0.576
 5235SOL    HW216605   1.767   2.741   0.588
 5236SOL     OW16606   4.840   5.191   1.706
 5236SOL    HW116607   4.932   5.228   1.720
 5236SOL    HW216608   4.784   5.211   1.787
 5237SOL     OW16609   1.367   1.203   4.981
 5237SOL    HW116610   1.405   1.295   4.984
 5237SOL    HW216611   1.268   1.208   4.971
 5238SOL     OW16612   0.703   4.319   0.391
 5238SOL    HW116613   0.767   4.395   0.378
 5238SOL    HW216614   0.625   4.350   0.447
 5239SOL     OW16615   3.526   2.880   4.688
 5239SOL    HW116616   3.438   2.883   4.736
 5239SOL    HW216617   3.511   2.857   4.592
 5240SOL     OW16618   3.254   2.620   5.563
 5240SOL    HW116619   3.179   2.679   5.591
 5240SOL    HW216620   3.244   2.530   5.605
 5241SOL     OW16621   0.536   5.212   4.590
 5241SOL    HW116622   0.520   5.150   4.667
 5241SOL    HW216623   0.450   5.256   4.564
 5242SOL     OW16624   6.451   6.735   0.205
 5242SOL    HW116625   6.413   6.684   0.283
 5242SOL    HW216626   6.453   6.676   0.124
 5243SOL     OW16627   1.536   5.525   1.309
 5243SOL    HW116628   1.479   5.451   1.273
 5243SOL    HW216629   1.490   5.567   1.388
 5244SOL     OW16630   3.143   5.425   6.753
 5244SOL    HW116631   3.078   5.451   6.682
 5244SOL    HW216632   3.230   5.470   6.736
 5245SOL     OW16633   4.139   4.630   0.005
 5245SOL    HW116634   4.041   4.645   0.021
 5245SOL    HW216635   4.157   4.532   7.020
 5246SOL     OW16636   5.969   3.593   1.862
 5246SOL    HW116637   5.976   3.627   1.768
 5246SOL    HW216638   5.958   3.494   1.861
 5247SOL     OW16639   1.683   0.855   6.844
 5247SOL    HW116640   1.647   0.948   6.835
 5247SOL    HW216641   1.688   0.812   6.754
 5248SOL     OW16642   5.734   1.625   3.422
 5248SOL    HW116643   5.754   1.537   3.379
 5248SOL    HW216644   5.737   1.615   3.521
 5249SOL     OW16645   0.526   5.279   6.219
 5249SOL    HW116646   0.536   5.212   6.293
 5249SOL    HW216647   0.574   5.245   6.138
 5250SOL     OW16648   2.054   5.587   6.518
 5250SOL    HW116649   2.126   5.632   6.464
 5250SOL    HW216650   2.002   5.656   6.568
 5251SOL     OW16651   0.500   3.617   0.179
 5251SOL    HW116652   0.404   3.589   0.174
 5251SOL    HW216653   0.556   3.538   0.206
 5252SOL     OW16654   1.953   6.689   0.453
 5252SOL    HW116655   2.034   6.724   0.501
 5252SOL    HW216656   1.915   6.612   0.504
 5253SOL     OW16657   6.096   4.713   4.738
 5253SOL    HW116658   6.080   4.800   4.691
 5253SOL    HW216659   6.008   4.673   4.765
 5254SOL     OW16660   4.390   0.757   3.066
 5254SOL    HW116661   4.388   0.659   3.085
 5254SOL    HW216662   4.424   0.772   2.974
 5255SOL     OW16663   5.773   1.658   5.219
 5255SOL    HW116664   5.682   1.684   5.252
 5255SOL    HW216665   5.770   1.647   5.120
 5256SOL     OW16666   4.327   1.424   3.603
 5256SOL    HW116667   4.369   1.365   3.672
 5256SOL    HW216668   4.269   1.368   3.543
 5257SOL     OW16669   5.207   6.755   1.888
 5257SOL    HW116670   5.155   6.725   1.808
 5257SOL    HW216671   5.293   6.796   1.858
 5258SOL     OW16672   5.836   3.292   1.376
 5258SOL    HW116673   5.783   3.348   1.439
 5258SOL    HW216674   5.933   3.320   1.380
 5259SOL     OW16675   5.114   6.319   2.168
 5259SOL    HW116676   5.173   6.284   2.240
 5259SOL    HW216677   5.162   6.393   2.119
 5260SOL     OW16678   4.669   3.403   0.433
 5260SOL    HW116679   4.730   3.332   0.467
 5260SOL    HW216680   4.577   3.365   0.423
 5261SOL     OW16681   0.320   3.864   6.720
 5261SOL    HW116682   0.276   3.937   6.772
 5261SOL    HW216683   0.375   3.904   6.647
 5262SOL     OW16684   2.951   0.949   3.507
 5262SOL    HW116685   3.026   0.913   3.451
 5262SOL    HW216686   2.988   1.007   3.579
 5263SOL     OW16687   2.237   1.612   3.812
 5263SOL    HW116688   2.202   1.637   3.721
 5263SOL    HW216689   2.242   1.512   3.819
 5264SOL     OW16690   6.592   2.345   2.468
 5264SOL    HW116691   6.508   2.393   2.492
 5264SOL    HW216692   6.660   2.411   2.436
 5265SOL     OW16693   6.576   3.893   3.942
 5265SOL    HW116694   6.510   3.859   4.010
 5265SOL    HW216695   6.651   3.828   3.933
 5266SOL     OW16696   3.193   5.452   0.767
 5266SOL    HW116697   3.097   5.449   0.738
 5266SOL    HW216698   3.235   5.536   0.735
 5267SOL     OW16699   5.783   3.638   5.363
 5267SOL    HW116700   5.742   3.572   5.426
 5267SOL    HW216701   5.713   3.671   5.299
 5268SOL     OW16702   5.693   0.990   6.443
 5268SOL    HW116703   5.652   0.905   6.408
 5268SOL    HW216704   5.788   0.972   6.470
 5269SOL     OW16705   1.554   6.392   3.253
 5269SOL    HW116706   1.496   6.311   3.241
 5269SOL    HW216707   1.650   6.365   3.250
 5270SOL     OW16708   5.925   1.036   0.927
 5270SOL    HW116709   5.964   1.120   0.892
 5270SOL    HW216710   5.919   1.040   1.026
 5271SOL     OW16711   6.134   5.602   5.017
 5271SOL    HW116712   6.067   5.529   5.034
 5271SOL    HW216713   6.085   5.687   4.995
 5272SOL     OW16714   3.080   5.593   2.018
 5272SOL    HW116715   3.077   5.554   2.110
 5272SOL    HW216716   3.048   5.524   1.952
 5273SOL     OW16717   6.710   3.097   3.798
 5273SOL    HW116718   6.707   3.051   3.887
 5273SOL    HW216719   6.722   3.028   3.726
 5274SOL     OW16720   6.816   6.586   2.608
 5274SOL    HW116721   6.850   6.564   2.699
 5274SOL    HW216722   6.890   6.577   2.542
 5275SOL     OW16723   3.670   2.103   1.170
 5275SOL    HW116724   3.603   2.091   1.097
 5275SOL    HW216725   3.644   2.048   1.249
 5276SOL     OW16726   2.071   0.624   1.007
 5276SOL    HW116727   1.979   0.631   0.967
 5276SOL    HW216728   2.116   0.714   1.003
 5277SOL     OW16729   1.633   1.594   2.686
 5277SOL    HW116730   1.714   1.634   2.729
 5277SOL    HW216731   1.611   1.646   2.603
 5278SOL     OW16732   6.500   0.135   3.723
 5278SOL    HW116733   6.446   0.214   3.753
 5278SOL    HW216734   6.457   0.095   3.642
 5279SOL     OW16735   1.993   4.677   6.322
 5279SOL    HW116736   2.093   4.683   6.323
 5279SOL    HW216737   1.961   4.679   6.227
 5280SOL     OW16738   2.328   6.247   5.073
 5280SOL    HW116739   2.398   6.198   5.126
 5280SOL    HW216740   2.339   6.225   4.976
 5281SOL     OW16741   0.098   2.475   2.947
 5281SOL    HW116742   0.097   2.566   2.989
 5281SOL    HW216743   0.086   2.406   3.018
 5282SOL     OW16744   2.479   1.780   3.380
 5282SOL    HW116745   2.404   1.753   3.440
 5282SOL    HW216746   2.443   1.827   3.300
 5283SOL     OW16747   4.327   6.624   1.088
 5283SOL    HW116748   4.288   6.564   1.018
 5283SOL    HW216749   4.328   6.577   1.176
 5284SOL     OW16750   4.766   3.988   3.426
 5284SOL    HW116751   4.815   3.975   3.340
 5284SOL    HW216752   4.771   3.905   3.481
 5285SOL     OW16753   2.581   4.857   3.853
 5285SOL    HW116754   2.662   4.864   3.912
 5285SOL    HW216755   2.540   4.948   3.842
 5286SOL     OW16756   1.418   4.613   0.484
 5286SOL    HW116757   1.374   4.649   0.566
 5286SOL    HW216758   1.470   4.531   0.507
 5287SOL     OW16759   2.762   6.711   0.669
 5287SOL    HW116760   2.695   6.645   0.703
 5287SOL    HW216761   2.853   6.670   0.672
 5288SOL     OW16762   3.281   0.272   1.579
 5288SOL    HW116763   3.264   0.282   1.481
 5288SOL    HW216764   3.194   0.262   1.627
 5289SOL     OW16765   1.552   4.947   6.226
 5289SOL    HW116766   1.527   4.883   6.299
 5289SOL    HW216767   1.620   4.904   6.166
 5290SOL     OW16768   1.392   5.024   5.169
 5290SOL    HW116769   1.394   5.124   5.165
 5290SOL    HW216770   1.474   4.991   5.217
 5291SOL     OW16771   2.416   4.852   6.098
 5291SOL    HW116772   2.407   4.914   6.176
 5291SOL    HW216773   2.348   4.878   6.029
 5292SOL     OW16774   6.242   3.122   6.949
 5292SOL    HW116775   6.210   3.067   6.872
 5292SOL    HW216776   6.202   3.214   6.943
 5293SOL     OW16777   0.601   0.570   4.827
 5293SOL    HW116778   0.601   0.482   4.874
 5293SOL    HW216779   0.507   0.603   4.817
 5294SOL     OW16780   4.966   3.309   5.667
 5294SOL    HW116781   5.011   3.355   5.744
 5294SOL    HW216782   5.034   3.262   5.612
 5295SOL     OW16783   5.950   0.638   2.833
 5295SOL    HW116784   6.001   0.682   2.760
 5295SOL    HW216785   5.911   0.707   2.894
 5296SOL     OW16786   2.465   5.251   0.153
 5296SOL    HW116787   2.464   5.161   0.197
 5296SOL    HW216788   2.371   5.283   0.141
 5297SOL     OW16789   2.139   2.111   1.769
 5297SOL    HW116790   2.211   2.044   1.788
 5297SOL    HW216791   2.164   2.198   1.812
 5298SOL     OW16792   0.796   5.634   0.514
 5298SOL    HW116793   0.893   5.610   0.520
 5298SOL    HW216794   0.744   5.554   0.486
 5299SOL     OW16795   2.734   2.245   0.723
 5299SOL    HW116796   2.784   2.269   0.806
 5299SOL    HW216797   2.647   2.293   0.721
 5300SOL     OW16798   0.423   5.831   2.533
 5300SOL    HW116799   0.449   5.756   2.594
 5300SOL    HW216800   0.492   5.841   2.461
 5301SOL     OW16801   4.325   1.877   0.554
 5301SOL    HW116802   4.298   1.963   0.510
 5301SOL    HW216803   4.409   1.843   0.512
 5302SOL     OW16804   5.765   4.452   2.945
 5302SOL    HW116805   5.832   4.446   2.871
 5302SOL    HW216806   5.767   4.367   2.998
 5303SOL     OW16807   6.526   6.169   3.382
 5303SOL    HW116808   6.517   6.125   3.471
 5303SOL    HW216809   6.457   6.241   3.373
 5304SOL     OW16810   6.880   1.818   5.968
 5304SOL    HW116811   6.917   1.757   6.038
 5304SOL    HW216812   6.785   1.840   5.990
 5305SOL     OW16813   1.425   6.725   4.666
 5305SOL    HW116814   1.403   6.635   4.703
 5305SOL    HW216815   1.482   6.776   4.731
 5306SOL     OW16816   0.276   5.754   4.977
 5306SOL    HW116817   0.290   5.723   5.071
 5306SOL    HW216818   0.331   5.697   4.916
 5307SOL     OW16819   4.321   0.010   6.960
 5307SOL    HW116820   4.351   6.940   6.987
 5307SOL    HW216821   4.402   0.066   6.941
 5308SOL     OW16822   0.688   6.922   4.929
 5308SOL    HW116823   0.724   6.967   4.847
 5308SOL    HW216824   0.658   6.830   4.906
 5309SOL     OW16825   3.211   3.561   2.440
 5309SOL    HW116826   3.115   3.554   2.466
 5309SOL    HW216827   3.261   3.482   2.476
 5310SOL     OW16828   5.474   2.874   1.957
 5310SOL    HW116829   5.544   2.911   1.898
 5310SOL    HW216830   5.389   2.863   1.905
 5311SOL     OW16831   0.155   5.605   0.973
 5311SOL    HW116832   0.154   5.615   1.073
 5311SOL    HW216833   0.212   5.526   0.948
 5312SOL     OW16834   0.252   4.140   2.418
 5312SOL    HW116835   0.166   4.182   2.391
 5312SOL    HW216836   0.293   4.094   2.340
 5313SOL     OW16837   0.911   5.519   0.211
 5313SOL    HW116838   0.995   5.466   0.224
 5313SOL    HW216839   0.934   5.611   0.180
 5314SOL     OW16840   3.430   5.027   0.325
 5314SOL    HW116841   3.423   4.930   0.303
 5314SOL    HW216842   3.360   5.051   0.392
 5315SOL     OW16843   3.738   4.057   1.217
 5315SOL    HW116844   3.763   4.117   1.141
 5315SOL    HW216845   3.799   3.977   1.219
 5316SOL     OW16846   6.696   5.335   5.200
 5316SOL    HW116847   6.665   5.283   5.120
 5316SOL    HW216848   6.745   5.274   5.263
 5317SOL     OW16849   6.788   0.965   4.982
 5317SOL    HW116850   6.833   0.905   4.916
 5317SOL    HW216851   6.692   0.938   4.992
 5318SOL     OW16852   0.793   2.085   5.813
 5318SOL    HW116853   0.771   2.072   5.910
 5318SOL    HW216854   0.709   2.103   5.762
 5319SOL     OW16855   4.846   6.716   0.122
 5319SOL    HW116856   4.812   6.643   0.063
 5319SOL    HW216857   4.802   6.802   0.097
 5320SOL     OW16858   5.698   4.922   6.920
 5320SOL    HW116859   5.622   4.900   6.859
 5320SOL    HW216860   5.696   4.861   6.999
 5321SOL     OW16861   0.908   4.518   2.862
 5321SOL    HW116862   0.978   4.454   2.895
 5321SOL    HW216863   0.942   4.611   2.867
 5322SOL     OW16864   3.555   6.543   6.106
 5322SOL    HW116865   3.565   6.579   6.199
 5322SOL    HW216866   3.580   6.614   6.040
 5323SOL     OW16867   3.532   3.092   0.971
 5323SOL    HW116868   3.489   3.002   0.971
 5323SOL    HW216869   3.529   3.131   1.063
 5324SOL     OW16870   3.666   2.621   1.770
 5324SOL    HW116871   3.635   2.679   1.845
 5324SOL    HW216872   3.681   2.528   1.804
 5325SOL     OW16873   6.196   6.415   3.136
 5325SOL    HW116874   6.124   6.396   3.069
 5325SOL    HW216875   6.165   6.389   3.227
 5326SOL     OW16876   6.596   5.154   2.683
 5326SOL    HW116877   6.651   5.095   2.624
 5326SOL    HW216878   6.643   5.169   2.769
 5327SOL     OW16879   0.359   5.389   5.730
 5327SOL    HW116880   0.374   5.348   5.640
 5327SOL    HW216881   0.380   5.487   5.726
 5328SOL     OW16882   4.166   2.829   5.879
 5328SOL    HW116883   4.142   2.862   5.971
 5328SOL    HW216884   4.090   2.846   5.817
 5329SOL     OW16885   6.948   3.821   6.428
 5329SOL    HW116886   6.948   3.897   6.362
 5329SOL    HW216887   6.960   3.857   6.520
 5330SOL     OW16888   3.011   4.750   6.626
 5330SOL    HW116889   2.957   4.834   6.624
 5330SOL    HW216890   3.042   4.732   6.720
 5331SOL     OW16891   5.263   1.573   1.101
 5331SOL    HW116892   5.258   1.601   1.005
 5331SOL    HW216893   5.237   1.650   1.160
 5332SOL     OW16894   6.597   4.318   6.942
 5332SOL    HW116895   6.682   4.299   6.992
 5332SOL    HW216896   6.524   4.338   7.008
 5333SOL     OW16897   1.075   0.443   3.576
 5333SOL    HW116898   1.158   0.479   3.620
 5333SOL    HW216899   1.048   0.358   3.620
 5334SOL     OW16900   3.588   5.186   5.356
 5334SOL    HW116901   3.581   5.089   5.335
 5334SOL    HW216902   3.564   5.240   5.275
 5335SOL     OW16903   0.623   5.121   2.338
 5335SOL    HW116904   0.631   5.198   2.402
 5335SOL    HW216905   0.698   5.057   2.353
 5336SOL     OW16906   1.875   2.193   3.612
 5336SOL    HW116907   1.897   2.098   3.631
 5336SOL    HW216908   1.820   2.199   3.528
 5337SOL     OW16909   5.878   4.633   1.502
 5337SOL    HW116910   5.903   4.537   1.494
 5337SOL    HW216911   5.911   4.683   1.422
 5338SOL     OW16912   5.260   1.231   6.303
 5338SOL    HW116913   5.201   1.152   6.323
 5338SOL    HW216914   5.263   1.290   6.384
 5339SOL     OW16915   5.835   1.308   3.056
 5339SOL    HW116916   5.902   1.330   2.985
 5339SOL    HW216917   5.846   1.213   3.084
 5340SOL     OW16918   5.775   3.983   1.155
 5340SOL    HW116919   5.838   3.961   1.230
 5340SOL    HW216920   5.800   3.930   1.074
 5341SOL     OW16921   3.287   4.781   5.168
 5341SOL    HW116922   3.205   4.756   5.219
 5341SOL    HW216923   3.324   4.700   5.122
 5342SOL     OW16924   5.464   6.340   4.788
 5342SOL    HW116925   5.405   6.282   4.844
 5342SOL    HW216926   5.422   6.353   4.698
 5343SOL     OW16927   3.891   3.662   4.350
 5343SOL    HW116928   3.858   3.597   4.281
 5343SOL    HW216929   3.908   3.750   4.308
 5344SOL     OW16930   0.418   1.337   0.238
 5344SOL    HW116931   0.460   1.275   0.171
 5344SOL    HW216932   0.489   1.370   0.300
 5345SOL     OW16933   4.940   0.626   6.713
 5345SOL    HW116934   4.938   0.645   6.615
 5345SOL    HW216935   4.928   0.711   6.765
 5346SOL     OW16936   2.835   5.553   4.522
 5346SOL    HW116937   2.756   5.516   4.571
 5346SOL    HW216938   2.919   5.513   4.559
 5347SOL     OW16939   6.663   3.684   3.390
 5347SOL    HW116940   6.679   3.743   3.470
 5347SOL    HW216941   6.632   3.740   3.313
 5348SOL     OW16942   0.139   1.212   6.305
 5348SOL    HW116943   0.156   1.145   6.233
 5348SOL    HW216944   0.220   1.269   6.317
 5349SOL     OW16945   2.542   3.184   1.351
 5349SOL    HW116946   2.560   3.221   1.442
 5349SOL    HW216947   2.616   3.209   1.289
 5350SOL     OW16948   2.537   6.649   5.340
 5350SOL    HW116949   2.517   6.586   5.265
 5350SOL    HW216950   2.451   6.683   5.379
 5351SOL     OW16951   0.341   5.341   2.312
 5351SOL    HW116952   0.342   5.429   2.359
 5351SOL    HW216953   0.333   5.268   2.380
 5352SOL     OW16954   2.539   4.800   3.131
 5352SOL    HW116955   2.561   4.710   3.169
 5352SOL    HW216956   2.559   4.871   3.199
 5353SOL     OW16957   3.687   5.747   4.054
 5353SOL    HW116958   3.731   5.742   3.965
 5353SOL    HW216959   3.691   5.841   4.088
 5354SOL     OW16960   2.127   4.944   0.601
 5354SOL    HW116961   2.151   4.897   0.516
 5354SOL    HW216962   2.132   4.880   0.677
 5355SOL     OW16963   6.034   5.028   4.364
 5355SOL    HW116964   6.036   5.012   4.462
 5355SOL    HW216965   5.956   5.086   4.342
 5356SOL     OW16966   6.634   3.679   2.218
 5356SOL    HW116967   6.705   3.701   2.151
 5356SOL    HW216968   6.582   3.599   2.186
 5357SOL     OW16969   4.156   4.541   1.009
 5357SOL    HW116970   4.206   4.459   1.037
 5357SOL    HW216971   4.093   4.567   1.082
 5358SOL     OW16972   4.532   2.238   1.311
 5358SOL    HW116973   4.550   2.158   1.254
 5358SOL    HW216974   4.615   2.292   1.320
 5359SOL     OW16975   2.484   1.808   5.999
 5359SOL    HW116976   2.434   1.893   5.984
 5359SOL    HW216977   2.436   1.753   6.068
 5360SOL     OW16978   5.358   6.239   3.676
 5360SOL    HW116979   5.386   6.319   3.624
 5360SOL    HW216980   5.267   6.254   3.714
 5361SOL     OW16981   2.241   6.701   4.242
 5361SOL    HW116982   2.183   6.756   4.182
 5361SOL    HW216983   2.284   6.760   4.310
 5362SOL     OW16984   6.379   5.638   2.705
 5362SOL    HW116985   6.331   5.600   2.785
 5362SOL    HW216986   6.374   5.737   2.708
 5363SOL     OW16987   5.391   6.458   5.805
 5363SOL    HW116988   5.490   6.465   5.818
 5363SOL    HW216989   5.372   6.428   5.711
 5364SOL     OW16990   6.260   6.780   1.676
 5364SOL    HW116991   6.290   6.702   1.622
 5364SOL    HW216992   6.273   6.760   1.773
 5365SOL     OW16993   3.252   2.932   2.338
 5365SOL    HW116994   3.329   2.923   2.402
 5365SOL    HW216995   3.258   2.860   2.269
 5366SOL     OW16996   0.111   6.920   2.383
 5366SOL    HW116997   0.088   6.854   2.455
 5366SOL    HW216998   0.202   6.957   2.399
 5367SOL     OW16999   6.845   6.371   1.318
 5367SOL    HW117000   6.814   6.465   1.305
 5367SOL    HW217001   6.886   6.337   1.234
 5368SOL     OW17002   6.345   6.792   2.546
 5368SOL    HW117003   6.288   6.873   2.560
 5368SOL    HW217004   6.314   6.743   2.465
 5369SOL     OW17005   2.961   6.142   1.252
 5369SOL    HW117006   3.035   6.083   1.220
 5369SOL    HW217007   2.982   6.175   1.344
 5370SOL     OW17008   4.074   3.649   1.022
 5370SOL    HW117009   4.121   3.623   0.938
 5370SOL    HW217010   3.995   3.589   1.036
 5371SOL     OW17011   6.824   5.151   5.390
 5371SOL    HW117012   6.828   5.202   5.475
 5371SOL    HW217013   6.913   5.107   5.374
 5372SOL     OW17014   1.091   6.031   2.683
 5372SOL    HW117015   0.996   6.040   2.655
 5372SOL    HW217016   1.144   6.107   2.644
 5373SOL     OW17017   4.263   6.635   5.600
 5373SOL    HW117018   4.325   6.558   5.617
 5373SOL    HW217019   4.249   6.685   5.686
 5374SOL     OW17020   2.426   4.403   0.494
 5374SOL    HW117021   2.417   4.364   0.586
 5374SOL    HW217022   2.428   4.503   0.501
 5375SOL     OW17023   0.566   5.858   5.875
 5375SOL    HW117024   0.499   5.923   5.909
 5375SOL    HW217025   0.644   5.854   5.938
 5376SOL     OW17026   1.122   2.571   1.409
 5376SOL    HW117027   1.177   2.653   1.399
 5376SOL    HW217028   1.130   2.515   1.327
 5377SOL     OW17029   1.363   0.307   3.242
 5377SOL    HW117030   1.452   0.348   3.260
 5377SOL    HW217031   1.292   0.377   3.252
 5378SOL     OW17032   6.820   0.152   1.802
 5378SOL    HW117033   6.793   0.139   1.706
 5378SOL    HW217034   6.912   0.118   1.816
 5379SOL     OW17035   1.213   3.744   5.013
 5379SOL    HW117036   1.163   3.791   5.086
 5379SOL    HW217037   1.311   3.757   5.027
 5380SOL     OW17038   2.653   6.933   1.110
 5380SOL    HW117039   2.639   6.957   1.014
 5380SOL    HW217040   2.565   6.931   1.157
 5381SOL     OW17041   6.870   5.903   2.420
 5381SOL    HW117042   6.775   5.909   2.451
 5381SOL    HW217043   6.877   5.835   2.347
 5382SOL     OW17044   2.797   2.282   2.607
 5382SOL    HW117045   2.769   2.310   2.516
 5382SOL    HW217046   2.722   2.299   2.672
 5383SOL     OW17047   1.266   2.304   4.289
 5383SOL    HW117048   1.257   2.298   4.189
 5383SOL    HW217049   1.203   2.375   4.323
 5384SOL     OW17050   4.410   5.662   4.695
 5384SOL    HW117051   4.467   5.744   4.693
 5384SOL    HW217052   4.318   5.686   4.727
 5385SOL     OW17053   5.281   2.699   5.185
 5385SOL    HW117054   5.239   2.621   5.232
 5385SOL    HW217055   5.227   2.781   5.201
 5386SOL     OW17056   5.925   1.241   4.144
 5386SOL    HW117057   6.019   1.261   4.116
 5386SOL    HW217058   5.864   1.313   4.110
 5387SOL     OW17059   2.511   6.589   3.517
 5387SOL    HW117060   2.584   6.657   3.507
 5387SOL    HW217061   2.423   6.631   3.496
 5388SOL     OW17062   1.364   6.650   2.624
 5388SOL    HW117063   1.384   6.700   2.707
 5388SOL    HW217064   1.449   6.628   2.576
 5389SOL     OW17065   3.801   1.907   4.697
 5389SOL    HW117066   3.747   1.876   4.619
 5389SOL    HW217067   3.743   1.959   4.759
 5390SOL     OW17068   5.257   4.547   3.638
 5390SOL    HW117069   5.328   4.522   3.571
 5390SOL    HW217070   5.238   4.645   3.631
 5391SOL     OW17071   2.671   1.685   6.781
 5391SOL    HW117072   2.716   1.596   6.780
 5391SOL    HW217073   2.687   1.732   6.694
 5392SOL     OW17074   5.556   3.961   1.290
 5392SOL    HW117075   5.635   4.009   1.253
 5392SOL    HW217076   5.516   3.901   1.219
 5393SOL     OW17077   4.967   0.804   5.144
 5393SOL    HW117078   4.949   0.843   5.054
 5393SOL    HW217079   5.059   0.829   5.173
 5394SOL     OW17080   0.852   5.707   1.220
 5394SOL    HW117081   0.886   5.663   1.303
 5394SOL    HW217082   0.917   5.693   1.145
 5395SOL     OW17083   5.062   0.736   1.484
 5395SOL    HW117084   5.045   0.809   1.419
 5395SOL    HW217085   5.058   0.648   1.437
 5396SOL     OW17086   5.418   4.984   1.853
 5396SOL    HW117087   5.448   5.079   1.863
 5396SOL    HW217088   5.470   4.925   1.914
 5397SOL     OW17089   0.276   2.338   2.035
 5397SOL    HW117090   0.306   2.243   2.026
 5397SOL    HW217091   0.332   2.396   1.975
 5398SOL     OW17092   2.730   2.221   3.685
 5398SOL    HW117093   2.649   2.248   3.737
 5398SOL    HW217094   2.715   2.241   3.588
 5399SOL     OW17095   2.910   0.047   6.447
 5399SOL    HW117096   2.903   7.007   6.526
 5399SOL    HW217097   2.994   0.028   6.397
 5400SOL     OW17098   3.038   3.482   0.460
 5400SOL    HW117099   3.019   3.526   0.548
 5400SOL    HW217100   3.002   3.388   0.462
 5401SOL     OW17101   5.598   4.000   2.467
 5401SOL    HW117102   5.524   3.941   2.500
 5401SOL    HW217103   5.598   4.000   2.367
 5402SOL     OW17104   2.555   6.548   0.736
 5402SOL    HW117105   2.542   6.473   0.671
 5402SOL    HW217106   2.467   6.571   0.778
 5403SOL     OW17107   5.105   3.440   6.332
 5403SOL    HW117108   5.114   3.396   6.243
 5403SOL    HW217109   5.119   3.538   6.323
 5404SOL     OW17110   0.863   6.824   1.454
 5404SOL    HW117111   0.903   6.880   1.527
 5404SOL    HW217112   0.790   6.768   1.492
 5405SOL     OW17113   6.110   4.788   0.185
 5405SOL    HW117114   6.153   4.860   0.240
 5405SOL    HW217115   6.178   4.748   0.124
 5406SOL     OW17116   2.231   1.021   4.985
 5406SOL    HW117117   2.133   1.040   4.989
 5406SOL    HW217118   2.282   1.095   5.030
 5407SOL     OW17119   3.540   1.500   0.904
 5407SOL    HW117120   3.448   1.467   0.927
 5407SOL    HW217121   3.608   1.445   0.953
 5408SOL     OW17122   3.747   1.325   4.972
 5408SOL    HW117123   3.828   1.327   5.029
 5408SOL    HW217124   3.694   1.409   4.985
 5409SOL     OW17125   6.320   1.497   2.485
 5409SOL    HW117126   6.320   1.428   2.557
 5409SOL    HW217127   6.383   1.571   2.509
 5410SOL     OW17128   0.942   2.483   6.604
 5410SOL    HW117129   1.033   2.478   6.646
 5410SOL    HW217130   0.882   2.540   6.660
 5411SOL     OW17131   4.797   4.928   6.333
 5411SOL    HW117132   4.782   5.022   6.305
 5411SOL    HW217133   4.734   4.868   6.285
 5412SOL     OW17134   2.563   1.047   6.440
 5412SOL    HW117135   2.572   1.037   6.341
 5412SOL    HW217136   2.554   1.144   6.463
 5413SOL     OW17137   0.637   6.960   6.896
 5413SOL    HW117138   0.565   6.893   6.874
 5413SOL    HW217139   0.626   6.990   6.990
 5414SOL     OW17140   6.349   4.632   5.081
 5414SOL    HW117141   6.403   4.579   5.146
 5414SOL    HW217142   6.359   4.729   5.100
 5415SOL     OW17143   2.724   6.305   0.770
 5415SOL    HW117144   2.765   6.219   0.802
 5415SOL    HW217145   2.695   6.294   0.675
 5416SOL     OW17146   2.561   4.644   4.966
 5416SOL    HW117147   2.494   4.573   4.990
 5416SOL    HW217148   2.652   4.616   4.995
 5417SOL     OW17149   3.531   0.022   4.939
 5417SOL    HW117150   3.535   0.015   4.839
 5417SOL    HW217151   3.498   0.113   4.964
 5418SOL     OW17152   5.466   5.694   5.121
 5418SOL    HW117153   5.563   5.669   5.122
 5418SOL    HW217154   5.429   5.689   5.213
 5419SOL     OW17155   3.927   5.873   0.573
 5419SOL    HW117156   3.848   5.816   0.552
 5419SOL    HW217157   3.921   5.958   0.520
 5420SOL     OW17158   2.020   2.354   0.768
 5420SOL    HW117159   1.927   2.353   0.730
 5420SOL    HW217160   2.022   2.299   0.851
 5421SOL     OW17161   3.098   5.348   1.257
 5421SOL    HW117162   3.020   5.287   1.252
 5421SOL    HW217163   3.165   5.313   1.322
 5422SOL     OW17164   1.403   5.310   5.070
 5422SOL    HW117165   1.443   5.336   5.157
 5422SOL    HW217166   1.472   5.265   5.013
 5423SOL     OW17167   5.522   4.861   0.568
 5423SOL    HW117168   5.437   4.914   0.576
 5423SOL    HW217169   5.569   4.862   0.656
 5424SOL     OW17170   5.192   3.974   4.349
 5424SOL    HW117171   5.163   4.068   4.366
 5424SOL    HW217172   5.157   3.915   4.422
 5425SOL     OW17173   6.620   2.512   4.420
 5425SOL    HW117174   6.531   2.486   4.381
 5425SOL    HW217175   6.619   2.609   4.443
 5426SOL     OW17176   4.692   5.506   2.185
 5426SOL    HW117177   4.768   5.504   2.120
 5426SOL    HW217178   4.616   5.558   2.145
 5427SOL     OW17179   5.489   3.099   0.468
 5427SOL    HW117180   5.418   3.073   0.534
 5427SOL    HW217181   5.518   3.018   0.417
 5428SOL     OW17182   5.291   6.525   2.070
 5428SOL    HW117183   5.322   6.568   2.154
 5428SOL    HW217184   5.261   6.596   2.006
 5429SOL     OW17185   2.006   0.170   4.853
 5429SOL    HW117186   1.957   0.129   4.930
 5429SOL    HW217187   2.000   0.110   4.773
 5430SOL     OW17188   1.924   3.144   4.754
 5430SOL    HW117189   1.850   3.089   4.793
 5430SOL    HW217190   1.959   3.207   4.824
 5431SOL     OW17191   3.183   3.795   6.512
 5431SOL    HW117192   3.214   3.709   6.552
 5431SOL    HW217193   3.147   3.854   6.585
 5432SOL     OW17194   4.376   5.132   6.586
 5432SOL    HW117195   4.399   5.228   6.570
 5432SOL    HW217196   4.432   5.074   6.528
 5433SOL     OW17197   0.767   6.998   1.242
 5433SOL    HW117198   0.817   6.930   1.296
 5433SOL    HW217199   0.767   6.969   1.146
 5434SOL     OW17200   4.222   1.131   4.708
 5434SOL    HW117201   4.126   1.150   4.730
 5434SOL    HW217202   4.230   1.107   4.611
 5435SOL     OW17203   6.223   3.766   0.566
 5435SOL    HW117204   6.180   3.803   0.648
 5435SOL    HW217205   6.321   3.786   0.567
 5436SOL     OW17206   6.512   4.074   4.148
 5436SOL    HW117207   6.538   4.005   4.080
 5436SOL    HW217208   6.446   4.138   4.107
 5437SOL     OW17209   3.083   5.073   5.493
 5437SOL    HW117210   3.179   5.096   5.510
 5437SOL    HW217211   3.063   5.083   5.395
 5438SOL     OW17212   5.257   4.475   1.870
 5438SOL    HW117213   5.199   4.553   1.894
 5438SOL    HW217214   5.344   4.507   1.833
 5439SOL     OW17215   0.500   3.643   6.809
 5439SOL    HW117216   0.518   3.708   6.882
 5439SOL    HW217217   0.468   3.691   6.727
 5440SOL     OW17218   6.493   6.599   3.795
 5440SOL    HW117219   6.405   6.607   3.747
 5440SOL    HW217220   6.555   6.542   3.741
 5441SOL     OW17221   5.213   3.536   3.090
 5441SOL    HW117222   5.279   3.462   3.104
 5441SOL    HW217223   5.172   3.561   3.178
 5442SOL     OW17224   4.112   0.093   3.777
 5442SOL    HW117225   4.132   0.068   3.872
 5442SOL    HW217226   4.088   0.011   3.725
 5443SOL     OW17227   4.956   5.871   3.903
 5443SOL    HW117228   4.910   5.886   3.991
 5443SOL    HW217229   4.983   5.959   3.865
 5444SOL     OW17230   0.141   0.898   3.604
 5444SOL    HW117231   0.072   0.967   3.628
 5444SOL    HW217232   0.104   0.839   3.532
 5445SOL     OW17233   5.665   4.565   3.550
 5445SOL    HW117234   5.633   4.653   3.515
 5445SOL    HW217235   5.717   4.517   3.480
 5446SOL     OW17236   5.918   5.191   4.628
 5446SOL    HW117237   5.873   5.248   4.560
 5446SOL    HW217238   5.852   5.166   4.700
 5447SOL     OW17239   1.813   1.550   1.029
 5447SOL    HW117240   1.745   1.518   0.963
 5447SOL    HW217241   1.892   1.488   1.028
 5448SOL     OW17242   4.146   4.894   3.804
 5448SOL    HW117243   4.240   4.874   3.777
 5448SOL    HW217244   4.131   4.860   3.897
 5449SOL     OW17245   1.701   1.251   1.337
 5449SOL    HW117246   1.604   1.256   1.361
 5449SOL    HW217247   1.730   1.337   1.296
 5450SOL     OW17248   3.225   6.766   1.167
 5450SOL    HW117249   3.294   6.829   1.132
 5450SOL    HW217250   3.156   6.749   1.096
 5451SOL     OW17251   1.931   5.765   3.724
 5451SOL    HW117252   2.027   5.791   3.708
 5451SOL    HW217253   1.876   5.848   3.736
 5452SOL     OW17254   2.559   4.601   1.408
 5452SOL    HW117255   2.460   4.587   1.416
 5452SOL    HW217256   2.606   4.546   1.477
 5453SOL     OW17257   5.292   3.707   2.126
 5453SOL    HW117258   5.202   3.710   2.169
 5453SOL    HW217259   5.295   3.633   2.059
 5454SOL     OW17260   5.677   5.787   1.118
 5454SOL    HW117261   5.604   5.751   1.059
 5454SOL    HW217262   5.751   5.822   1.061
 5455SOL     OW17263   0.440   1.994   3.738
 5455SOL    HW117264   0.428   1.897   3.756
 5455SOL    HW217265   0.471   2.040   3.822
 5456SOL     OW17266   3.343   1.669   6.316
 5456SOL    HW117267   3.331   1.630   6.225
 5456SOL    HW217268   3.424   1.727   6.317
 5457SOL     OW17269   6.909   2.186   1.349
 5457SOL    HW117270   6.941   2.105   1.300
 5457SOL    HW217271   6.955   2.267   1.313
 5458SOL     OW17272   6.824   4.926   0.689
 5458SOL    HW117273   6.855   5.009   0.642
 5458SOL    HW217274   6.773   4.950   0.772
 5459SOL     OW17275   2.036   4.948   5.257
 5459SOL    HW117276   2.013   4.855   5.227
 5459SOL    HW217277   2.089   4.994   5.186
 5460SOL     OW17278   3.018   0.141   2.192
 5460SOL    HW117279   2.986   0.210   2.258
 5460SOL    HW217280   3.015   0.051   2.234
 5461SOL     OW17281   1.007   0.995   4.666
 5461SOL    HW117282   0.999   1.017   4.763
 5461SOL    HW217283   1.083   0.931   4.653
 5462SOL     OW17284   5.581   5.944   6.714
 5462SOL    HW117285   5.649   6.017   6.726
 5462SOL    HW217286   5.577   5.888   6.797
 5463SOL     OW17287   0.351   1.785   0.249
 5463SOL    HW117288   0.307   1.775   0.339
 5463SOL    HW217289   0.448   1.805   0.261
 5464SOL     OW17290   6.253   6.015   4.926
 5464SOL    HW117291   6.176   5.959   4.896
 5464SOL    HW217292   6.339   5.971   4.899
 5465SOL     OW17293   6.534   0.462   3.237
 5465SOL    HW117294   6.515   0.371   3.273
 5465SOL    HW217295   6.589   0.455   3.154
 5466SOL     OW17296   5.707   2.721   5.996
 5466SOL    HW117297   5.630   2.751   6.053
 5466SOL    HW217298   5.774   2.673   6.053
 5467SOL     OW17299   5.919   3.944   3.132
 5467SOL    HW117300   5.903   3.984   3.042
 5467SOL    HW217301   5.932   3.846   3.123
 5468SOL     OW17302   0.345   2.310   4.349
 5468SOL    HW117303   0.267   2.303   4.411
 5468SOL    HW217304   0.318   2.277   4.258
 5469SOL     OW17305   3.045   5.654   5.772
 5469SOL    HW117306   3.037   5.635   5.675
 5469SOL    HW217307   2.959   5.693   5.805
 5470SOL     OW17308   3.877   5.280   4.258
 5470SOL    HW117309   3.835   5.348   4.198
 5470SOL    HW217310   3.942   5.225   4.206
 5471SOL     OW17311   5.904   0.416   2.100
 5471SOL    HW117312   5.818   0.422   2.151
 5471SOL    HW217313   5.894   0.465   2.014
 5472SOL     OW17314   3.018   3.946   6.686
 5472SOL    HW117315   3.041   3.867   6.744
 5472SOL    HW217316   2.926   3.977   6.708
 5473SOL     OW17317   1.322   3.793   0.216
 5473SOL    HW117318   1.326   3.701   0.177
 5473SOL    HW217319   1.380   3.799   0.296
 5474SOL     OW17320   0.825   5.353   4.481
 5474SOL    HW117321   0.904   5.401   4.519
 5474SOL    HW217322   0.779   5.301   4.553
 5475SOL     OW17323   1.786   2.092   0.255
 5475SOL    HW117324   1.828   2.002   0.271
 5475SOL    HW217325   1.693   2.079   0.220
 5476SOL     OW17326   1.930   4.528   4.929
 5476SOL    HW117327   1.975   4.498   4.844
 5476SOL    HW217328   1.945   4.460   5.001
 5477SOL     OW17329   2.212   3.939   3.181
 5477SOL    HW117330   2.271   3.865   3.149
 5477SOL    HW217331   2.250   4.026   3.149
 5478SOL     OW17332   4.535   6.594   5.384
 5478SOL    HW117333   4.631   6.615   5.365
 5478SOL    HW217334   4.525   6.497   5.405
 5479SOL     OW17335   4.854   1.922   4.904
 5479SOL    HW117336   4.868   1.972   4.819
 5479SOL    HW217337   4.939   1.922   4.957
 5480SOL     OW17338   5.450   5.085   5.277
 5480SOL    HW117339   5.392   5.004   5.268
 5480SOL    HW217340   5.481   5.114   5.187
 5481SOL     OW17341   4.788   1.464   4.696
 5481SOL    HW117342   4.809   1.529   4.768
 5481SOL    HW217343   4.775   1.513   4.609
 5482SOL     OW17344   3.718   3.710   2.044
 5482SOL    HW117345   3.738   3.691   2.141
 5482SOL    HW217346   3.712   3.808   2.030
 5483SOL     OW17347   0.640   2.137   5.382
 5483SOL    HW117348   0.714   2.151   5.316
 5483SOL    HW217349   0.563   2.196   5.358
 5484SOL     OW17350   5.315   0.458   4.091
 5484SOL    HW117351   5.244   0.418   4.148
 5484SOL    HW217352   5.286   0.549   4.060
 5485SOL     OW17353   2.916   0.000   5.095
 5485SOL    HW117354   2.875   0.074   5.148
 5485SOL    HW217355   3.003   0.031   5.058
 5486SOL     OW17356   1.755   5.681   4.513
 5486SOL    HW117357   1.662   5.700   4.481
 5486SOL    HW217358   1.799   5.766   4.541
 5487SOL     OW17359   5.112   2.907   6.934
 5487SOL    HW117360   5.074   2.817   6.913
 5487SOL    HW217361   5.190   2.925   6.874
 5488SOL     OW17362   5.270   1.155   0.544
 5488SOL    HW117363   5.304   1.197   0.628
 5488SOL    HW217364   5.346   1.111   0.496
 5489SOL     OW17365   0.925   5.404   0.795
 5489SOL    HW117366   0.987   5.326   0.796
 5489SOL    HW217367   0.862   5.396   0.719
 5490SOL     OW17368   3.647   0.362   0.755
 5490SOL    HW117369   3.609   0.322   0.839
 5490SOL    HW217370   3.574   0.370   0.687
 5491SOL     OW17371   1.940   4.144   6.826
 5491SOL    HW117372   1.996   4.069   6.790
 5491SOL    HW217373   1.854   4.108   6.861
 5492SOL     OW17374   0.967   1.943   6.552
 5492SOL    HW117375   1.002   1.851   6.534
 5492SOL    HW217376   0.975   1.999   6.469
 5493SOL     OW17377   4.074   3.668   3.768
 5493SOL    HW117378   4.128   3.649   3.686
 5493SOL    HW217379   3.977   3.661   3.746
 5494SOL     OW17380   6.729   2.668   6.640
 5494SOL    HW117381   6.671   2.629   6.568
 5494SOL    HW217382   6.774   2.595   6.691
 5495SOL     OW17383   3.688   2.396   1.511
 5495SOL    HW117384   3.616   2.422   1.575
 5495SOL    HW217385   3.767   2.457   1.522
 5496SOL     OW17386   2.467   0.489   3.436
 5496SOL    HW117387   2.427   0.541   3.512
 5496SOL    HW217388   2.456   0.391   3.454
 5497SOL     OW17389   0.510   2.283   3.920
 5497SOL    HW117390   0.579   2.243   3.860
 5497SOL    HW217391   0.554   2.343   3.986
 5498SOL     OW17392   5.399   6.735   1.384
 5498SOL    HW117393   5.364   6.645   1.412
 5498SOL    HW217394   5.450   6.726   1.299
 5499SOL     OW17395   0.130   1.071   4.000
 5499SOL    HW117396   0.197   1.144   4.010
 5499SOL    HW217397   0.065   1.074   4.076
 5500SOL     OW17398   1.656   0.064   0.355
 5500SOL    HW117399   1.568   0.028   0.385
 5500SOL    HW217400   1.650   0.094   0.260
 5501SOL     OW17401   4.208   6.868   0.877
 5501SOL    HW117402   4.132   6.932   0.864
 5501SOL    HW217403   4.235   6.869   0.973
 5502SOL     OW17404   5.614   3.757   6.982
 5502SOL    HW117405   5.591   3.662   6.962
 5502SOL    HW217406   5.561   3.789   0.039
 5503SOL     OW17407   6.592   5.307   3.263
 5503SOL    HW117408   6.682   5.342   3.237
 5503SOL    HW217409   6.523   5.340   3.198
 5504SOL     OW17410   4.361   1.288   4.876
 5504SOL    HW117411   4.323   1.221   4.814
 5504SOL    HW217412   4.418   1.353   4.825
 5505SOL     OW17413   1.960   5.507   4.447
 5505SOL    HW117414   1.871   5.553   4.454
 5505SOL    HW217415   1.963   5.452   4.363
 5506SOL     OW17416   1.059   1.330   6.369
 5506SOL    HW117417   1.098   1.312   6.460
 5506SOL    HW217418   1.133   1.336   6.302
 5507SOL     OW17419   2.608   0.223   3.789
 5507SOL    HW117420   2.636   0.140   3.838
 5507SOL    HW217421   2.518   0.252   3.821
 5508SOL     OW17422   2.259   0.773   6.446
 5508SOL    HW117423   2.206   0.844   6.492
 5508SOL    HW217424   2.236   0.771   6.349
 5509SOL     OW17425   0.496   6.288   0.584
 5509SOL    HW117426   0.559   6.336   0.523
 5509SOL    HW217427   0.517   6.313   0.679
 5510SOL     OW17428   4.801   6.306   0.732
 5510SOL    HW117429   4.747   6.379   0.689
 5510SOL    HW217430   4.839   6.340   0.818
 5511SOL     OW17431   2.639   0.619   4.323
 5511SOL    HW117432   2.687   0.607   4.410
 5511SOL    HW217433   2.543   0.595   4.334
 5512SOL     OW17434   5.956   2.275   1.802
 5512SOL    HW117435   6.051   2.274   1.832
 5512SOL    HW217436   5.951   2.259   1.704
 5513SOL     OW17437   4.098   4.654   6.390
 5513SOL    HW117438   4.068   4.741   6.431
 5513SOL    HW217439   4.185   4.626   6.432
 5514SOL     OW17440   4.665   6.163   3.126
 5514SOL    HW117441   4.574   6.160   3.166
 5514SOL    HW217442   4.727   6.104   3.178
 5515SOL     OW17443   0.006   4.636   1.376
 5515SOL    HW117444   7.000   4.729   1.400
 5515SOL    HW217445   0.084   4.608   1.433
 5516SOL     OW17446   1.069   3.598   6.112
 5516SOL    HW117447   1.167   3.602   6.095
 5516SOL    HW217448   1.046   3.509   6.153
 5517SOL     OW17449   2.093   3.250   2.177
 5517SOL    HW117450   2.119   3.307   2.099
 5517SOL    HW217451   2.085   3.307   2.258
 5518SOL     OW17452   6.073   6.936   6.559
 5518SOL    HW117453   6.132   6.856   6.545
 5518SOL    HW217454   5.979   6.912   6.536
 5519SOL     OW17455   5.159   3.159   2.936
 5519SOL    HW117456   5.232   3.089   2.936
 5519SOL    HW217457   5.196   3.245   2.903
 5520SOL     OW17458   6.922   5.711   2.234
 5520SOL    HW117459   6.890   5.617   2.229
 5520SOL    HW217460   6.933   5.747   2.141
 5521SOL     OW17461   4.658   6.978   1.443
 5521SOL    HW117462   4.647   6.902   1.378
 5521SOL    HW217463   4.754   6.984   1.470
 5522SOL     OW17464   6.696   5.184   1.207
 5522SOL    HW117465   6.638   5.263   1.186
 5522SOL    HW217466   6.790   5.204   1.181
 5523SOL     OW17467   3.946   0.123   1.942
 5523SOL    HW117468   4.029   0.161   1.984
 5523SOL    HW217469   3.902   0.192   1.886
 5524SOL     OW17470   5.198   5.084   5.007
 5524SOL    HW117471   5.263   5.143   5.056
 5524SOL    HW217472   5.130   5.141   4.960
 5525SOL     OW17473   6.967   2.876   0.181
 5525SOL    HW117474   0.033   2.871   0.230
 5525SOL    HW217475   6.939   2.971   0.171
 5526SOL     OW17476   5.014   4.745   4.766
 5526SOL    HW117477   4.996   4.819   4.702
 5526SOL    HW217478   4.967   4.662   4.736
 5527SOL     OW17479   6.485   3.612   4.661
 5527SOL    HW117480   6.489   3.637   4.758
 5527SOL    HW217481   6.569   3.564   4.635
 5528SOL     OW17482   1.152   1.859   6.922
 5528SOL    HW117483   1.106   1.936   6.878
 5528SOL    HW217484   1.168   1.787   6.854
 5529SOL     OW17485   2.180   0.404   4.096
 5529SOL    HW117486   2.234   0.473   4.144
 5529SOL    HW217487   2.083   0.426   4.105
 5530SOL     OW17488   6.787   2.189   2.279
 5530SOL    HW117489   6.717   2.166   2.347
 5530SOL    HW217490   6.831   2.275   2.305
 5531SOL     OW17491   4.037   3.055   2.287
 5531SOL    HW117492   4.105   2.982   2.296
 5531SOL    HW217493   3.971   3.049   2.361
 5532SOL     OW17494   1.504   2.567   0.385
 5532SOL    HW117495   1.433   2.630   0.417
 5532SOL    HW217496   1.512   2.491   0.449
 5533SOL     OW17497   3.615   0.859   3.177
 5533SOL    HW117498   3.591   0.816   3.264
 5533SOL    HW217499   3.714   0.874   3.174
 5534SOL     OW17500   1.041   2.111   5.951
 5534SOL    HW117501   1.056   2.072   6.042
 5534SOL    HW217502   0.965   2.064   5.906
 5535SOL     OW17503   0.564   3.518   3.725
 5535SOL    HW117504   0.511   3.539   3.643
 5535SOL    HW217505   0.599   3.424   3.719
 5536SOL     OW17506   2.668   0.887   4.214
 5536SOL    HW117507   2.665   0.808   4.275
 5536SOL    HW217508   2.634   0.860   4.124
 5537SOL     OW17509   2.758   0.433   2.808
 5537SOL    HW117510   2.788   0.523   2.840
 5537SOL    HW217511   2.821   0.364   2.843
 5538SOL     OW17512   2.756   0.131   5.285
 5538SOL    HW117513   2.742   0.220   5.242
 5538SOL    HW217514   2.818   0.141   5.363
 5539SOL     OW17515   1.366   3.475   0.183
 5539SOL    HW117516   1.465   3.479   0.194
 5539SOL    HW217517   1.323   3.464   0.272
 5540SOL     OW17518   5.744   3.462   3.713
 5540SOL    HW117519   5.648   3.450   3.688
 5540SOL    HW217520   5.797   3.381   3.685
 5541SOL     OW17521   5.898   0.998   6.091
 5541SOL    HW117522   5.810   0.951   6.089
 5541SOL    HW217523   5.951   0.974   6.010
 5542SOL     OW17524   6.174   5.411   6.154
 5542SOL    HW117525   6.148   5.344   6.084
 5542SOL    HW217526   6.099   5.421   6.219
 5543SOL     OW17527   3.463   5.438   5.760
 5543SOL    HW117528   3.363   5.433   5.768
 5543SOL    HW217529   3.496   5.358   5.709
 5544SOL     OW17530   5.717   6.797   6.024
 5544SOL    HW117531   5.722   6.735   6.102
 5544SOL    HW217532   5.737   6.747   5.940
 5545SOL     OW17533   4.164   1.739   2.732
 5545SOL    HW117534   4.068   1.716   2.714
 5545SOL    HW217535   4.216   1.737   2.646
 5546SOL     OW17536   0.859   6.562   4.766
 5546SOL    HW117537   0.831   6.517   4.852
 5546SOL    HW217538   0.800   6.530   4.692
 5547SOL     OW17539   3.577   0.113   4.650
 5547SOL    HW117540   3.526   0.129   4.565
 5547SOL    HW217541   3.651   0.179   4.658
 5548SOL     OW17542   5.936   3.444   5.704
 5548SOL    HW117543   5.896   3.495   5.628
 5548SOL    HW217544   5.878   3.455   5.785
 5549SOL     OW17545   4.936   3.699   0.934
 5549SOL    HW117546   4.912   3.789   0.898
 5549SOL    HW217547   4.915   3.696   1.032
 5550SOL     OW17548   2.152   4.530   2.309
 5550SOL    HW117549   2.123   4.555   2.216
 5550SOL    HW217550   2.227   4.464   2.304
 5551SOL     OW17551   2.078   5.687   3.084
 5551SOL    HW117552   2.115   5.731   3.166
 5551SOL    HW217553   2.009   5.746   3.042
 5552SOL     OW17554   6.412   0.314   0.150
 5552SOL    HW117555   6.396   0.244   0.220
 5552SOL    HW217556   6.509   0.314   0.125
 5553SOL     OW17557   5.123   6.263   0.235
 5553SOL    HW117558   5.163   6.200   0.301
 5553SOL    HW217559   5.082   6.212   0.160
 5554SOL     OW17560   4.931   1.714   6.060
 5554SOL    HW117561   5.016   1.715   6.006
 5554SOL    HW217562   4.873   1.790   6.031
 5555SOL     OW17563   1.853   3.899   3.714
 5555SOL    HW117564   1.817   3.970   3.773
 5555SOL    HW217565   1.798   3.894   3.631
 5556SOL     OW17566   6.882   1.219   3.374
 5556SOL    HW117567   6.899   1.313   3.345
 5556SOL    HW217568   6.846   1.218   3.467
 5557SOL     OW17569   3.515   6.899   3.156
 5557SOL    HW117570   3.540   6.995   3.144
 5557SOL    HW217571   3.547   6.846   3.077
 5558SOL     OW17572   4.563   3.498   6.037
 5558SOL    HW117573   4.608   3.484   6.125
 5558SOL    HW217574   4.631   3.510   5.966
 5559SOL     OW17575   1.753   0.193   2.200
 5559SOL    HW117576   1.757   0.118   2.267
 5559SOL    HW217577   1.834   0.251   2.210
 5560SOL     OW17578   1.109   6.537   2.566
 5560SOL    HW117579   1.135   6.441   2.554
 5560SOL    HW217580   1.192   6.593   2.571
 5561SOL     OW17581   1.286   1.885   3.926
 5561SOL    HW117582   1.195   1.848   3.905
 5561SOL    HW217583   1.355   1.818   3.900
 5562SOL     OW17584   3.539   2.238   6.735
 5562SOL    HW117585   3.450   2.192   6.733
 5562SOL    HW217586   3.610   2.172   6.710
 5563SOL     OW17587   4.412   5.227   2.403
 5563SOL    HW117588   4.315   5.246   2.388
 5563SOL    HW217589   4.422   5.165   2.481
 5564SOL     OW17590   4.216   0.730   1.464
 5564SOL    HW117591   4.280   0.674   1.516
 5564SOL    HW217592   4.268   0.797   1.409
 5565SOL     OW17593   4.583   1.651   6.207
 5565SOL    HW117594   4.649   1.630   6.279
 5565SOL    HW217595   4.631   1.667   6.121
 5566SOL     OW17596   1.491   5.128   6.990
 5566SOL    HW117597   1.539   5.122   6.902
 5566SOL    HW217598   1.456   5.038   7.015
 5567SOL     OW17599   0.202   3.397   1.703
 5567SOL    HW117600   0.295   3.384   1.667
 5567SOL    HW217601   0.142   3.327   1.664
 5568SOL     OW17602   4.471   1.698   4.007
 5568SOL    HW117603   4.412   1.686   3.928
 5568SOL    HW217604   4.442   1.636   4.080
 5569SOL     OW17605   1.643   1.616   2.297
 5569SOL    HW117606   1.672   1.553   2.369
 5569SOL    HW217607   1.623   1.705   2.338
 5570SOL     OW17608   6.199   4.454   4.679
 5570SOL    HW117609   6.211   4.470   4.581
 5570SOL    HW217610   6.179   4.541   4.725
 5571SOL     OW17611   6.904   5.651   0.976
 5571SOL    HW117612   6.877   5.737   0.932
 5571SOL    HW217613   7.002   5.636   0.962
 5572SOL     OW17614   1.440   2.254   5.186
 5572SOL    HW117615   1.398   2.263   5.276
 5572SOL    HW217616   1.396   2.318   5.123
 5573SOL     OW17617   2.264   4.393   6.068
 5573SOL    HW117618   2.282   4.472   6.126
 5573SOL    HW217619   2.181   4.347   6.099
 5574SOL     OW17620   6.473   1.701   2.715
 5574SOL    HW117621   6.403   1.660   2.774
 5574SOL    HW217622   6.429   1.761   2.648
 5575SOL     OW17623   6.983   1.249   1.172
 5575SOL    HW117624   6.970   1.160   1.218
 5575SOL    HW217625   6.895   1.280   1.135
 5576SOL     OW17626   1.273   5.476   2.284
 5576SOL    HW117627   1.213   5.409   2.239
 5576SOL    HW217628   1.349   5.500   2.223
 5577SOL     OW17629   2.786   2.800   5.421
 5577SOL    HW117630   2.853   2.727   5.408
 5577SOL    HW217631   2.696   2.768   5.394
 5578SOL     OW17632   3.743   3.775   0.016
 5578SOL    HW117633   3.754   3.786   0.115
 5578SOL    HW217634   3.694   3.854   7.001
 5579SOL     OW17635   0.835   3.370   5.873
 5579SOL    HW117636   0.929   3.347   5.898
 5579SOL    HW217637   0.778   3.288   5.874
 5580SOL     OW17638   4.982   2.479   6.167
 5580SOL    HW117639   4.887   2.497   6.194
 5580SOL    HW217640   5.016   2.555   6.113
 5581SOL     OW17641   2.215   0.363   2.071
 5581SOL    HW117642   2.232   0.332   1.977
 5581SOL    HW217643   2.256   0.453   2.084
 5582SOL     OW17644   3.329   3.634   4.699
 5582SOL    HW117645   3.342   3.733   4.696
 5582SOL    HW217646   3.245   3.613   4.748
 5583SOL     OW17647   4.263   0.671   2.700
 5583SOL    HW117648   4.185   0.675   2.763
 5583SOL    HW217649   4.340   0.719   2.741
 5584SOL     OW17650   5.808   4.481   3.814
 5584SOL    HW117651   5.879   4.520   3.872
 5584SOL    HW217652   5.847   4.458   3.725
 5585SOL     OW17653   4.970   6.195   4.040
 5585SOL    HW117654   5.058   6.158   4.073
 5585SOL    HW217655   4.969   6.294   4.052
 5586SOL     OW17656   0.440   2.380   6.876
 5586SOL    HW117657   0.353   2.429   6.873
 5586SOL    HW217658   0.423   2.282   6.889
 5587SOL     OW17659   3.880   6.129   2.784
 5587SOL    HW117660   3.927   6.205   2.829
 5587SOL    HW217661   3.864   6.152   2.688
 5588SOL     OW17662   2.218   6.286   2.775
 5588SOL    HW117663   2.146   6.269   2.842
 5588SOL    HW217664   2.305   6.252   2.811
 5589SOL     OW17665   5.692   3.961   5.045
 5589SOL    HW117666   5.675   4.037   5.108
 5589SOL    HW217667   5.788   3.932   5.053
 5590SOL     OW17668   6.527   5.297   3.904
 5590SOL    HW117669   6.513   5.287   3.806
 5590SOL    HW217670   6.512   5.209   3.949
 5591SOL     OW17671   5.616   1.489   6.896
 5591SOL    HW117672   5.661   1.553   6.959
 5591SOL    HW217673   5.682   1.421   6.865
 5592SOL     OW17674   6.827   4.762   3.078
 5592SOL    HW117675   6.912   4.810   3.053
 5592SOL    HW217676   6.780   4.733   2.995
 5593SOL     OW17677   0.110   2.836   6.090
 5593SOL    HW117678   0.027   2.813   6.040
 5593SOL    HW217679   0.177   2.876   6.027
 5594SOL     OW17680   3.506   1.304   6.454
 5594SOL    HW117681   3.499   1.205   6.467
 5594SOL    HW217682   3.543   1.346   6.537
 5595SOL     OW17683   6.398   0.556   5.588
 5595SOL    HW117684   6.470   0.489   5.607
 5595SOL    HW217685   6.366   0.545   5.494
 5596SOL     OW17686   4.855   0.364   2.944
 5596SOL    HW117687   4.859   0.280   2.890
 5596SOL    HW217688   4.939   0.417   2.931
 5597SOL     OW17689   6.160   1.960   5.461
 5597SOL    HW117690   6.071   1.915   5.455
 5597SOL    HW217691   6.150   2.046   5.510
 5598SOL     OW17692   6.096   3.354   4.119
 5598SOL    HW117693   6.195   3.344   4.111
 5598SOL    HW217694   6.074   3.448   4.146
 5599SOL     OW17695   0.806   2.965   1.952
 5599SOL    HW117696   0.823   2.892   1.885
 5599SOL    HW217697   0.889   2.981   2.006
 5600SOL     OW17698   2.266   0.227   2.362
 5600SOL    HW117699   2.337   0.276   2.311
 5600SOL    HW217700   2.186   0.286   2.372
 5601SOL     OW17701   2.981   1.058   6.384
 5601SOL    HW117702   2.932   1.145   6.391
 5601SOL    HW217703   3.029   1.040   6.469
 5602SOL     OW17704   0.658   0.159   1.988
 5602SOL    HW117705   0.594   0.179   2.062
 5602SOL    HW217706   0.674   0.241   1.934
 5603SOL     OW17707   5.433   2.294   0.151
 5603SOL    HW117708   5.343   2.335   0.170
 5603SOL    HW217709   5.441   2.207   0.198
 5604SOL     OW17710   6.493   2.471   5.201
 5604SOL    HW117711   6.433   2.498   5.126
 5604SOL    HW217712   6.559   2.544   5.219
 5605SOL     OW17713   0.959   0.549   4.580
 5605SOL    HW117714   0.921   0.508   4.663
 5605SOL    HW217715   1.050   0.585   4.599
 5606SOL     OW17716   5.635   0.646   0.766
 5606SOL    HW117717   5.693   0.728   0.765
 5606SOL    HW217718   5.594   0.635   0.856
 5607SOL     OW17719   5.813   1.111   3.865
 5607SOL    HW117720   5.879   1.185   3.847
 5607SOL    HW217721   5.851   1.024   3.832
 5608SOL     OW17722   6.360   0.833   3.259
 5608SOL    HW117723   6.414   0.866   3.182
 5608SOL    HW217724   6.296   0.905   3.288
 5609SOL     OW17725   4.741   6.009   2.193
 5609SOL    HW117726   4.669   6.072   2.222
 5609SOL    HW217727   4.713   5.962   2.109
 5610SOL     OW17728   5.250   4.128   1.704
 5610SOL    HW117729   5.346   4.148   1.723
 5610SOL    HW217730   5.200   4.214   1.693
 5611SOL     OW17731   0.734   5.127   3.508
 5611SOL    HW117732   0.824   5.161   3.535
 5611SOL    HW217733   0.664   5.164   3.568
 5612SOL     OW17734   4.303   3.233   6.747
 5612SOL    HW117735   4.395   3.197   6.729
 5612SOL    HW217736   4.307   3.333   6.753
 5613SOL     OW17737   5.176   5.388   5.199
 5613SOL    HW117738   5.103   5.324   5.221
 5613SOL    HW217739   5.245   5.386   5.271
 5614SOL     OW17740   5.534   3.308   5.162
 5614SOL    HW117741   5.573   3.225   5.201
 5614SOL    HW217742   5.607   3.364   5.123
 5615SOL     OW17743   6.979   1.425   4.107
 5615SOL    HW117744   6.985   1.480   4.190
 5615SOL    HW217745   6.962   1.330   4.132
 5616SOL     OW17746   1.824   2.596   4.851
 5616SOL    HW117747   1.729   2.612   4.825
 5616SOL    HW217748   1.830   2.586   4.951
 5617SOL     OW17749   1.885   4.755   5.401
 5617SOL    HW117750   1.957   4.824   5.414
 5617SOL    HW217751   1.837   4.773   5.315
 5618SOL     OW17752   6.779   4.951   4.059
 5618SOL    HW117753   6.863   4.992   4.094
 5618SOL    HW217754   6.799   4.904   3.973
 5619SOL     OW17755   3.794   3.541   4.123
 5619SOL    HW117756   3.772   3.447   4.098
 5619SOL    HW217757   3.877   3.570   4.075
 5620SOL     OW17758   4.231   4.120   0.184
 5620SOL    HW117759   4.305   4.155   0.242
 5620SOL    HW217760   4.146   4.117   0.238
 5621SOL     OW17761   1.667   3.109   0.161
 5621SOL    HW117762   1.652   3.134   0.257
 5621SOL    HW217763   1.579   3.092   0.117
 5622SOL     OW17764   4.564   0.183   5.806
 5622SOL    HW117765   4.543   0.143   5.896
 5622SOL    HW217766   4.646   0.239   5.814
 5623SOL     OW17767   4.508   6.238   4.799
 5623SOL    HW117768   4.605   6.232   4.820
 5623SOL    HW217769   4.491   6.317   4.741
 5624SOL     OW17770   0.280   4.573   3.859
 5624SOL    HW117771   0.292   4.632   3.939
 5624SOL    HW217772   0.189   4.532   3.862
 5625SOL     OW17773   0.297   6.971   5.636
 5625SOL    HW117774   0.341   6.883   5.618
 5625SOL    HW217775   0.198   6.958   5.646
 5626SOL     OW17776   2.654   6.153   4.008
 5626SOL    HW117777   2.581   6.192   3.952
 5626SOL    HW217778   2.635   6.056   4.024
 5627SOL     OW17779   0.316   4.833   6.578
 5627SOL    HW117780   0.262   4.905   6.536
 5627SOL    HW217781   0.311   4.840   6.678
 5628SOL     OW17782   1.668   3.114   1.447
 5628SOL    HW117783   1.763   3.112   1.415
 5628SOL    HW217784   1.615   3.044   1.399
 5629SOL     OW17785   4.619   3.319   1.729
 5629SOL    HW117786   4.705   3.290   1.689
 5629SOL    HW217787   4.566   3.238   1.757
 5630SOL     OW17788   1.669   4.583   6.974
 5630SOL    HW117789   1.645   4.493   7.010
 5630SOL    HW217790   1.639   4.590   6.879
 5631SOL     OW17791   4.871   1.581   2.106
 5631SOL    HW117792   4.879   1.501   2.047
 5631SOL    HW217793   4.777   1.589   2.139
 5632SOL     OW17794   3.099   2.380   5.413
 5632SOL    HW117795   3.161   2.386   5.492
 5632SOL    HW217796   3.153   2.358   5.332
 5633SOL     OW17797   5.713   4.657   4.536
 5633SOL    HW117798   5.615   4.641   4.527
 5633SOL    HW217799   5.763   4.585   4.488
 5634SOL     OW17800   1.962   4.883   4.366
 5634SOL    HW117801   1.924   4.916   4.280
 5634SOL    HW217802   2.002   4.960   4.416
 5635SOL     OW17803   1.769   6.687   6.762
 5635SOL    HW117804   1.731   6.755   6.699
 5635SOL    HW217805   1.712   6.683   6.845
 5636SOL     OW17806   6.010   6.851   4.926
 5636SOL    HW117807   5.967   6.930   4.970
 5636SOL    HW217808   5.957   6.825   4.845
 5637SOL     OW17809   4.144   6.466   3.667
 5637SOL    HW117810   4.165   6.450   3.763
 5637SOL    HW217811   4.228   6.491   3.618
 5638SOL     OW17812   6.672   3.841   0.950
 5638SOL    HW117813   6.673   3.776   0.874
 5638SOL    HW217814   6.753   3.826   1.007
 5639SOL     OW17815   2.953   0.300   2.418
 5639SOL    HW117816   3.049   0.303   2.448
 5639SOL    HW217817   2.898   0.354   2.481
 5640SOL     OW17818   3.722   0.565   2.591
 5640SOL    HW117819   3.767   0.604   2.671
 5640SOL    HW217820   3.774   0.486   2.558
 5641SOL     OW17821   0.722   4.489   5.596
 5641SOL    HW117822   0.769   4.518   5.512
 5641SOL    HW217823   0.789   4.468   5.667
 5642SOL     OW17824   0.279   5.881   5.366
 5642SOL    HW117825   0.202   5.864   5.427
 5642SOL    HW217826   0.268   5.970   5.322
 5643SOL     OW17827   3.731   1.095   4.487
 5643SOL    HW117828   3.754   1.028   4.416
 5643SOL    HW217829   3.760   1.186   4.457
 5644SOL     OW17830   3.435   6.892   4.681
 5644SOL    HW117831   3.476   6.978   4.650
 5644SOL    HW217832   3.508   6.827   4.703
 5645SOL     OW17833   5.135   4.813   2.809
 5645SOL    HW117834   5.143   4.713   2.803
 5645SOL    HW217835   5.223   4.855   2.785
 5646SOL     OW17836   0.570   5.573   3.344
 5646SOL    HW117837   0.601   5.631   3.269
 5646SOL    HW217838   0.573   5.477   3.316
 5647SOL     OW17839   4.658   7.008   0.343
 5647SOL    HW117840   4.640   6.914   0.373
 5647SOL    HW217841   4.741   0.020   0.388
 5648SOL     OW17842   1.654   0.095   3.796
 5648SOL    HW117843   1.633   7.021   3.818
 5648SOL    HW217844   1.650   0.150   3.879
 5649SOL     OW17845   0.620   0.275   4.900
 5649SOL    HW117846   0.564   0.279   4.817
 5649SOL    HW217847   0.705   0.227   4.880
 5650SOL     OW17848   1.190   5.255   0.465
 5650SOL    HW117849   1.118   5.267   0.533
 5650SOL    HW217850   1.198   5.338   0.410
 5651SOL     OW17851   1.029   1.109   1.291
 5651SOL    HW117852   1.089   1.035   1.322
 5651SOL    HW217853   0.946   1.111   1.347
 5652SOL     OW17854   6.943   6.701   1.941
 5652SOL    HW117855   6.998   6.740   2.016
 5652SOL    HW217856   6.848   6.694   1.971
 5653SOL     OW17857   0.044   6.473   6.805
 5653SOL    HW117858   6.998   6.524   6.860
 5653SOL    HW217859   7.018   6.408   6.747
 5654SOL     OW17860   6.524   0.284   5.699
 5654SOL    HW117861   6.562   0.333   5.621
 5654SOL    HW217862   6.582   0.299   5.779
 5655SOL     OW17863   1.219   3.784   4.577
 5655SOL    HW117864   1.272   3.863   4.610
 5655SOL    HW217865   1.130   3.816   4.543
 5656SOL     OW17866   7.010   3.875   6.738
 5656SOL    HW117867   0.001   3.777   6.755
 5656SOL    HW217868   0.063   3.926   6.781
 5657SOL     OW17869   5.758   1.816   0.365
 5657SOL    HW117870   5.845   1.866   0.368
 5657SOL    HW217871   5.684   1.882   0.352
 5658SOL     OW17872   3.650   4.405   6.259
 5658SOL    HW117873   3.722   4.337   6.269
 5658SOL    HW217874   3.682   4.492   6.297
 5659SOL     OW17875   4.030   3.126   4.280
 5659SOL    HW117876   3.977   3.071   4.344
 5659SOL    HW217877   4.110   3.163   4.326
 5660SOL     OW17878   5.503   0.568   0.547
 5660SOL    HW117879   5.546   0.609   0.627
 5660SOL    HW217880   5.567   0.506   0.502
 5661SOL     OW17881   1.610   5.014   5.315
 5661SOL    HW117882   1.663   4.955   5.254
 5661SOL    HW217883   1.667   5.091   5.345
 5662SOL     OW17884   2.785   6.160   3.430
 5662SOL    HW117885   2.752   6.246   3.469
 5662SOL    HW217886   2.747   6.083   3.482
 5663SOL     OW17887   2.129   3.338   0.511
 5663SOL    HW117888   2.178   3.258   0.546
 5663SOL    HW217889   2.148   3.348   0.413
 5664SOL     OW17890   6.821   4.026   4.769
 5664SOL    HW117891   6.761   4.022   4.850
 5664SOL    HW217892   6.808   4.113   4.722
 5665SOL     OW17893   2.022   1.235   0.071
 5665SOL    HW117894   1.992   1.148   0.110
 5665SOL    HW217895   1.954   1.305   0.091
 5666SOL     OW17896   6.088   6.490   1.747
 5666SOL    HW117897   6.010   6.535   1.703
 5666SOL    HW217898   6.156   6.559   1.773
 5667SOL     OW17899   0.952   5.278   4.235
 5667SOL    HW117900   0.892   5.277   4.315
 5667SOL    HW217901   1.042   5.243   4.260
 5668SOL     OW17902   5.492   1.926   4.376
 5668SOL    HW117903   5.433   2.007   4.378
 5668SOL    HW217904   5.436   1.844   4.389
 5669SOL     OW17905   0.050   3.217   6.839
 5669SOL    HW117906   0.013   3.124   6.843
 5669SOL    HW217907   0.118   3.230   6.911
 5670SOL     OW17908   6.876   2.760   3.651
 5670SOL    HW117909   6.831   2.691   3.707
 5670SOL    HW217910   6.808   2.810   3.597
 5671SOL     OW17911   6.773   6.571   0.144
 5671SOL    HW117912   6.801   6.621   0.062
 5671SOL    HW217913   6.824   6.485   0.149
 5672SOL     OW17914   3.408   4.596   6.608
 5672SOL    HW117915   3.341   4.539   6.559
 5672SOL    HW217916   3.375   4.615   6.700
 5673SOL     OW17917   0.792   0.114   2.288
 5673SOL    HW117918   0.819   0.146   2.197
 5673SOL    HW217919   0.813   0.017   2.296
 5674SOL     OW17920   0.505   5.054   4.834
 5674SOL    HW117921   0.540   4.982   4.894
 5674SOL    HW217922   0.406   5.044   4.824
 5675SOL     OW17923   3.961   2.634   6.687
 5675SOL    HW117924   3.875   2.627   6.737
 5675SOL    HW217925   3.944   2.625   6.589
 5676SOL     OW17926   1.774   2.895   2.148
 5676SOL    HW117927   1.845   2.828   2.124
 5676SOL    HW217928   1.686   2.865   2.110
 5677SOL     OW17929   0.807   1.324   1.052
 5677SOL    HW117930   0.737   1.333   1.122
 5677SOL    HW217931   0.764   1.323   0.961
 5678SOL     OW17932   4.071   6.317   2.935
 5678SOL    HW117933   4.039   6.412   2.933
 5678SOL    HW217934   4.074   6.285   3.030
 5679SOL     OW17935   0.386   1.097   3.687
 5679SOL    HW117936   0.377   1.022   3.753
 5679SOL    HW217937   0.309   1.095   3.623
 5680SOL     OW17938   1.430   5.014   5.821
 5680SOL    HW117939   1.505   5.048   5.877
 5680SOL    HW217940   1.350   5.073   5.832
 5681SOL     OW17941   6.853   4.384   0.672
 5681SOL    HW117942   6.904   4.342   0.597
 5681SOL    HW217943   6.902   4.369   0.758
 5682SOL     OW17944   2.229   4.794   5.624
 5682SOL    HW117945   2.305   4.738   5.656
 5682SOL    HW217946   2.250   4.832   5.534
 5683SOL     OW17947   3.864   0.857   6.124
 5683SOL    HW117948   3.935   0.890   6.186
 5683SOL    HW217949   3.840   0.763   6.148
 5684SOL     OW17950   2.608   2.866   5.882
 5684SOL    HW117951   2.607   2.829   5.789
 5684SOL    HW217952   2.514   2.888   5.910
 5685SOL     OW17953   1.915   3.053   2.303
 5685SOL    HW117954   1.961   3.110   2.234
 5685SOL    HW217955   1.855   2.987   2.257
 5686SOL     OW17956   3.457   1.410   5.830
 5686SOL    HW117957   3.477   1.355   5.749
 5686SOL    HW217958   3.396   1.485   5.804
 5687SOL     OW17959   0.683   4.712   6.856
 5687SOL    HW117960   0.648   4.799   6.821
 5687SOL    HW217961   0.754   4.678   6.795
 5688SOL     OW17962   0.607   2.442   1.059
 5688SOL    HW117963   0.659   2.518   1.018
 5688SOL    HW217964   0.599   2.368   0.992
 5689SOL     OW17965   3.932   0.803   0.517
 5689SOL    HW117966   3.962   0.895   0.492
 5689SOL    HW217967   4.002   0.759   0.573
 5690SOL     OW17968   2.492   6.017   0.175
 5690SOL    HW117969   2.416   6.034   0.238
 5690SOL    HW217970   2.486   6.081   0.098
 5691SOL     OW17971   3.013   0.602   2.041
 5691SOL    HW117972   2.973   0.666   1.976
 5691SOL    HW217973   3.045   0.520   1.992
 5692SOL     OW17974   5.950   3.494   0.652
 5692SOL    HW117975   5.854   3.522   0.651
 5692SOL    HW217976   5.995   3.531   0.733
 5693SOL     OW17977   5.838   2.139   2.167
 5693SOL    HW117978   5.823   2.199   2.088
 5693SOL    HW217979   5.773   2.163   2.240
 5694SOL     OW17980   0.734   1.546   3.331
 5694SOL    HW117981   0.807   1.615   3.330
 5694SOL    HW217982   0.772   1.458   3.357
 5695SOL     OW17983   1.330   2.577   2.702
 5695SOL    HW117984   1.356   2.653   2.643
 5695SOL    HW217985   1.241   2.596   2.743
 5696SOL     OW17986   1.381   1.338   3.202
 5696SOL    HW117987   1.328   1.255   3.187
 5696SOL    HW217988   1.477   1.314   3.219
 5697SOL     OW17989   5.913   2.191   1.533
 5697SOL    HW117990   5.986   2.190   1.464
 5697SOL    HW217991   5.861   2.277   1.525
 5698SOL     OW17992   0.931   3.564   3.866
 5698SOL    HW117993   0.850   3.614   3.896
 5698SOL    HW217994   0.958   3.597   3.775
 5699SOL     OW17995   0.786   2.214   3.144
 5699SOL    HW117996   0.745   2.291   3.096
 5699SOL    HW217997   0.764   2.219   3.241
 5700SOL     OW17998   0.045   6.744   3.666
 5700SOL    HW117999   7.006   6.796   3.727
 5700SOL    HW218000   0.127   6.717   3.716
 5701SOL     OW18001   1.346   0.829   2.227
 5701SOL    HW118002   1.339   0.868   2.135
 5701SOL    HW218003   1.262   0.778   2.247
 5702SOL     OW18004   2.482   5.869   5.275
 5702SOL    HW118005   2.401   5.832   5.229
 5702SOL    HW218006   2.496   5.964   5.247
 5703SOL     OW18007   6.725   4.421   1.476
 5703SOL    HW118008   6.661   4.375   1.537
 5703SOL    HW218009   6.755   4.358   1.405
 5704SOL     OW18010   4.694   4.594   2.134
 5704SOL    HW118011   4.731   4.660   2.200
 5704SOL    HW218012   4.659   4.514   2.183
 5705SOL     OW18013   5.023   0.643   0.225
 5705SOL    HW118014   4.976   0.583   0.290
 5705SOL    HW218015   4.964   0.720   0.201
 5706SOL     OW18016   6.945   3.980   0.867
 5706SOL    HW118017   0.009   3.980   0.816
 5706SOL    HW218018   6.898   3.893   0.852
 5707SOL     OW18019   0.268   6.492   0.352
 5707SOL    HW118020   0.308   6.408   0.313
 5707SOL    HW218021   0.232   6.472   0.443
 5708SOL     OW18022   5.470   5.975   1.735
 5708SOL    HW118023   5.411   6.054   1.721
 5708SOL    HW218024   5.458   5.940   1.828
 5709SOL     OW18025   1.366   0.422   2.340
 5709SOL    HW118026   1.373   0.510   2.387
 5709SOL    HW218027   1.458   0.394   2.309
 5710SOL     OW18028   2.938   3.194   0.512
 5710SOL    HW118029   3.034   3.203   0.538
 5710SOL    HW218030   2.928   3.120   0.446
 5711SOL     OW18031   5.291   1.097   2.007
 5711SOL    HW118032   5.387   1.069   2.003
 5711SOL    HW218033   5.281   1.188   1.967
 5712SOL     OW18034   6.732   0.083   6.663
 5712SOL    HW118035   6.667   0.100   6.588
 5712SOL    HW218036   6.825   0.087   6.628
 5713SOL     OW18037   3.176   2.484   1.560
 5713SOL    HW118038   3.097   2.534   1.595
 5713SOL    HW218039   3.233   2.546   1.506
 5714SOL     OW18040   0.022   5.827   0.312
 5714SOL    HW118041   0.094   5.895   0.325
 5714SOL    HW218042   0.009   5.775   0.396
 5715SOL     OW18043   1.164   6.860   3.320
 5715SOL    HW118044   1.117   6.807   3.249
 5715SOL    HW218045   1.229   6.923   3.278
 5716SOL     OW18046   1.444   4.172   0.178
 5716SOL    HW118047   1.389   4.252   0.201
 5716SOL    HW218048   1.395   4.116   0.111
 5717SOL     OW18049   1.852   5.207   0.858
 5717SOL    HW118050   1.764   5.252   0.853
 5717SOL    HW218051   1.880   5.179   0.766
 5718SOL     OW18052   0.420   2.751   5.429
 5718SOL    HW118053   0.399   2.764   5.526
 5718SOL    HW218054   0.434   2.654   5.411
 5719SOL     OW18055   2.785   1.814   6.497
 5719SOL    HW118056   2.882   1.811   6.473
 5719SOL    HW218057   2.757   1.908   6.515
 5720SOL     OW18058   1.735   5.238   4.429
 5720SOL    HW118059   1.752   5.306   4.358
 5720SOL    HW218060   1.819   5.187   4.446
 5721SOL     OW18061   0.172   3.709   1.023
 5721SOL    HW118062   0.206   3.618   1.048
 5721SOL    HW218063   0.183   3.771   1.102
 5722SOL     OW18064   6.392   1.317   4.982
 5722SOL    HW118065   6.438   1.400   4.949
 5722SOL    HW218066   6.390   1.318   5.082
 5723SOL     OW18067   4.072   3.331   0.880
 5723SOL    HW118068   3.988   3.360   0.925
 5723SOL    HW218069   4.075   3.369   0.787
 5724SOL     OW18070   5.561   2.814   4.973
 5724SOL    HW118071   5.463   2.828   4.959
 5724SOL    HW218072   5.612   2.871   4.909
 5725SOL     OW18073   4.939   5.370   4.253
 5725SOL    HW118074   4.913   5.324   4.169
 5725SOL    HW218075   4.856   5.399   4.302
 5726SOL     OW18076   0.478   4.878   4.587
 5726SOL    HW118077   0.556   4.867   4.647
 5726SOL    HW218078   0.503   4.935   4.509
 5727SOL     OW18079   6.761   1.380   3.870
 5727SOL    HW118080   6.682   1.417   3.919
 5727SOL    HW218081   6.818   1.328   3.933
 5728SOL     OW18082   3.877   0.608   6.584
 5728SOL    HW118083   3.865   0.659   6.669
 5728SOL    HW218084   3.966   0.562   6.585
 5729SOL     OW18085   1.217   1.285   0.471
 5729SOL    HW118086   1.206   1.260   0.567
 5729SOL    HW218087   1.202   1.384   0.461
 5730SOL     OW18088   4.407   5.228   6.092
 5730SOL    HW118089   4.429   5.153   6.153
 5730SOL    HW218090   4.376   5.192   6.004
 5731SOL     OW18091   0.490   6.726   3.763
 5731SOL    HW118092   0.540   6.794   3.708
 5731SOL    HW218093   0.418   6.772   3.815
 5732SOL     OW18094   6.729   5.556   4.465
 5732SOL    HW118095   6.657   5.577   4.400
 5732SOL    HW218096   6.737   5.457   4.476
 5733SOL     OW18097   4.266   6.499   5.162
 5733SOL    HW118098   4.258   6.528   5.066
 5733SOL    HW218099   4.356   6.459   5.176
 5734SOL     OW18100   1.373   6.694   5.514
 5734SOL    HW118101   1.424   6.637   5.579
 5734SOL    HW218102   1.418   6.783   5.505
 5735SOL     OW18103   4.251   2.035   2.127
 5735SOL    HW118104   4.178   2.044   2.195
 5735SOL    HW218105   4.306   2.119   2.127
 5736SOL     OW18106   6.018   4.287   0.089
 5736SOL    HW118107   5.998   4.211   0.152
 5736SOL    HW218108   6.000   4.373   0.136
 5737SOL     OW18109   5.176   6.661   0.573
 5737SOL    HW118110   5.218   6.701   0.492
 5737SOL    HW218111   5.132   6.575   0.549
 5738SOL     OW18112   2.685   3.240   6.104
 5738SOL    HW118113   2.664   3.278   6.014
 5738SOL    HW218114   2.689   3.140   6.099
 5739SOL     OW18115   1.374   0.536   5.250
 5739SOL    HW118116   1.413   0.577   5.332
 5739SOL    HW218117   1.448   0.507   5.188
 5740SOL     OW18118   4.354   3.714   1.490
 5740SOL    HW118119   4.337   3.697   1.392
 5740SOL    HW218120   4.301   3.793   1.519
 5741SOL     OW18121   0.312   3.583   4.515
 5741SOL    HW118122   0.352   3.672   4.494
 5741SOL    HW218123   0.244   3.594   4.588
 5742SOL     OW18124   5.484   6.614   2.227
 5742SOL    HW118125   5.496   6.703   2.185
 5742SOL    HW218126   5.537   6.609   2.312
 5743SOL     OW18127   2.618   4.997   5.387
 5743SOL    HW118128   2.522   4.982   5.412
 5743SOL    HW218129   2.675   4.926   5.429
 5744SOL     OW18130   4.776   0.901   2.031
 5744SOL    HW118131   4.678   0.919   2.017
 5744SOL    HW218132   4.804   0.823   1.975
 5745SOL     OW18133   1.735   0.721   4.222
 5745SOL    HW118134   1.771   0.662   4.293
 5745SOL    HW218135   1.809   0.751   4.163
 5746SOL     OW18136   6.066   6.933   1.580
 5746SOL    HW118137   6.141   6.875   1.613
 5746SOL    HW218138   6.040   6.904   1.488
 5747SOL     OW18139   6.910   4.071   2.888
 5747SOL    HW118140   6.840   4.021   2.837
 5747SOL    HW218141   6.872   4.156   2.923
 5748SOL     OW18142   1.197   5.502   0.301
 5748SOL    HW118143   1.216   5.470   0.208
 5748SOL    HW218144   1.280   5.542   0.339
 5749SOL     OW18145   1.544   6.709   5.008
 5749SOL    HW118146   1.465   6.732   5.064
 5749SOL    HW218147   1.627   6.719   5.062
 5750SOL     OW18148   6.033   6.248   4.614
 5750SOL    HW118149   5.933   6.243   4.616
 5750SOL    HW218150   6.062   6.329   4.563
 5751SOL     OW18151   2.904   2.220   4.193
 5751SOL    HW118152   2.888   2.304   4.141
 5751SOL    HW218153   2.819   2.189   4.233
 5752SOL     OW18154   6.409   0.777   0.398
 5752SOL    HW118155   6.314   0.770   0.366
 5752SOL    HW218156   6.410   0.775   0.498
 5753SOL     OW18157   3.885   3.479   5.084
 5753SOL    HW118158   3.903   3.567   5.129
 5753SOL    HW218159   3.799   3.485   5.033
 5754SOL     OW18160   6.730   4.167   0.945
 5754SOL    HW118161   6.787   4.085   0.934
 5754SOL    HW218162   6.675   4.179   0.862
 5755SOL     OW18163   2.157   3.213   6.278
 5755SOL    HW118164   2.064   3.234   6.249
 5755SOL    HW218165   2.210   3.181   6.200
 5756SOL     OW18166   6.188   6.905   3.671
 5756SOL    HW118167   6.241   6.930   3.589
 5756SOL    HW218168   6.169   6.807   3.669
 5757SOL     OW18169   6.655   5.997   2.917
 5757SOL    HW118170   6.559   6.006   2.941
 5757SOL    HW218171   6.681   6.070   2.854
 5758SOL     OW18172   2.556   0.983   5.099
 5758SOL    HW118173   2.480   1.042   5.126
 5758SOL    HW218174   2.559   0.904   5.159
 5759SOL     OW18175   4.743   1.357   6.834
 5759SOL    HW118176   4.785   1.442   6.800
 5759SOL    HW218177   4.795   1.279   6.802
 5760SOL     OW18178   0.605   4.760   1.133
 5760SOL    HW118179   0.604   4.789   1.228
 5760SOL    HW218180   0.665   4.819   1.080
 5761SOL     OW18181   5.802   6.856   6.580
 5761SOL    HW118182   5.712   6.833   6.542
 5761SOL    HW218183   5.841   6.775   6.625
 5762SOL     OW18184   4.777   5.953   0.107
 5762SOL    HW118185   4.772   5.867   0.158
 5762SOL    HW218186   4.697   5.963   0.049
 5763SOL     OW18187   0.043   0.389   6.940
 5763SOL    HW118188   7.002   0.318   6.974
 5763SOL    HW218189   0.105   0.417   7.012
 5764SOL     OW18190   4.560   5.145   5.621
 5764SOL    HW118191   4.522   5.145   5.714
 5764SOL    HW218192   4.658   5.125   5.625
 5765SOL     OW18193   6.502   3.474   6.979
 5765SOL    HW118194   6.481   3.419   0.038
 5765SOL    HW218195   6.593   3.513   6.988
 5766SOL     OW18196   2.441   2.618   7.009
 5766SOL    HW118197   2.446   2.638   6.911
 5766SOL    HW218198   2.366   2.555   0.005
 5767SOL     OW18199   1.899   0.513   0.435
 5767SOL    HW118200   1.980   0.535   0.490
 5767SOL    HW218201   1.888   0.414   0.430
 5768SOL     OW18202   0.126   6.398   3.166
 5768SOL    HW118203   0.200   6.424   3.228
 5768SOL    HW218204   0.068   6.330   3.211
 5769SOL     OW18205   2.214   5.643   4.691
 5769SOL    HW118206   2.139   5.582   4.718
 5769SOL    HW218207   2.182   5.706   4.620
 5770SOL     OW18208   5.698   0.316   0.495
 5770SOL    HW118209   5.775   0.379   0.503
 5770SOL    HW218210   5.725   0.225   0.526
 5771SOL     OW18211   1.437   6.056   3.402
 5771SOL    HW118212   1.436   6.151   3.432
 5771SOL    HW218213   1.417   5.996   3.479
 5772SOL     OW18214   6.078   2.397   0.833
 5772SOL    HW118215   6.000   2.377   0.893
 5772SOL    HW218216   6.125   2.479   0.865
 5773SOL     OW18217   4.451   1.234   3.944
 5773SOL    HW118218   4.516   1.186   4.003
 5773SOL    HW218219   4.435   1.181   3.862
 5774SOL     OW18220   2.818   5.777   3.899
 5774SOL    HW118221   2.907   5.759   3.938
 5774SOL    HW218222   2.824   5.855   3.836
 5775SOL     OW18223   1.719   0.903   2.075
 5775SOL    HW118224   1.675   0.947   1.997
 5775SOL    HW218225   1.680   0.937   2.160
 5776SOL     OW18226   6.550   0.736   5.791
 5776SOL    HW118227   6.488   0.779   5.726
 5776SOL    HW218228   6.498   0.676   5.852
 5777SOL     OW18229   6.597   0.469   4.957
 5777SOL    HW118230   6.661   0.418   5.015
 5777SOL    HW218231   6.642   0.490   4.870
 5778SOL     OW18232   2.066   0.134   1.361
 5778SOL    HW118233   1.997   0.167   1.425
 5778SOL    HW218234   2.130   0.207   1.340
 5779SOL     OW18235   4.029   1.716   0.610
 5779SOL    HW118236   4.096   1.657   0.565
 5779SOL    HW218237   4.056   1.731   0.705
 5780SOL     OW18238   6.045   5.191   3.151
 5780SOL    HW118239   6.066   5.137   3.233
 5780SOL    HW218240   5.948   5.179   3.128
 5781SOL     OW18241   0.504   4.077   4.724
 5781SOL    HW118242   0.573   4.148   4.735
 5781SOL    HW218243   0.545   3.987   4.739
 5782SOL     OW18244   1.444   1.023   1.064
 5782SOL    HW118245   1.454   0.926   1.041
 5782SOL    HW218246   1.526   1.072   1.037
 5783SOL     OW18247   1.877   0.437   1.555
 5783SOL    HW118248   1.838   0.461   1.465
 5783SOL    HW218249   1.976   0.425   1.546
 5784SOL     OW18250   6.381   6.700   0.480
 5784SOL    HW118251   6.299   6.645   0.468
 5784SOL    HW218252   6.379   6.744   0.570
 5785SOL     OW18253   1.697   1.800   0.984
 5785SOL    HW118254   1.710   1.876   1.047
 5785SOL    HW218255   1.714   1.713   1.031
 5786SOL     OW18256   0.500   4.103   0.288
 5786SOL    HW118257   0.552   4.185   0.312
 5786SOL    HW218258   0.481   4.050   0.370
 5787SOL     OW18259   4.452   2.582   5.203
 5787SOL    HW118260   4.427   2.627   5.289
 5787SOL    HW218261   4.377   2.524   5.172
 5788SOL     OW18262   2.978   1.123   1.515
 5788SOL    HW118263   3.048   1.191   1.538
 5788SOL    HW218264   2.991   1.093   1.420
 5789SOL     OW18265   3.535   3.775   6.428
 5789SOL    HW118266   3.488   3.791   6.341
 5789SOL    HW218267   3.588   3.690   6.422
 5790SOL     OW18268   0.310   4.636   5.060
 5790SOL    HW118269   0.216   4.653   5.029
 5790SOL    HW218270   0.329   4.538   5.053
 5791SOL     OW18271   3.070   2.176   2.470
 5791SOL    HW118272   3.034   2.244   2.534
 5791SOL    HW218273   3.013   2.174   2.388
 5792SOL     OW18274   5.679   3.023   1.820
 5792SOL    HW118275   5.693   2.946   1.757
 5792SOL    HW218276   5.755   3.026   1.885
 5793SOL     OW18277   6.009   0.647   4.097
 5793SOL    HW118278   6.028   0.637   4.195
 5793SOL    HW218279   5.910   0.650   4.082
 5794SOL     OW18280   2.786   0.276   6.558
 5794SOL    HW118281   2.845   0.222   6.498
 5794SOL    HW218282   2.695   0.283   6.516
 5795SOL     OW18283   6.791   0.252   1.558
 5795SOL    HW118284   6.833   0.320   1.618
 5795SOL    HW218285   6.845   0.243   1.475
 5796SOL     OW18286   4.314   0.952   6.464
 5796SOL    HW118287   4.333   0.971   6.560
 5796SOL    HW218288   4.339   0.857   6.444
 5797SOL     OW18289   5.221   1.928   0.541
 5797SOL    HW118290   5.303   1.870   0.537
 5797SOL    HW218291   5.228   1.992   0.617
 5798SOL     OW18292   0.222   5.209   4.584
 5798SOL    HW118293   0.253   5.248   4.497
 5798SOL    HW218294   0.273   5.125   4.603
 5799SOL     OW18295   0.312   0.555   4.406
 5799SOL    HW118296   0.313   0.655   4.403
 5799SOL    HW218297   0.223   0.523   4.438
 5800SOL     OW18298   1.178   6.741   2.033
 5800SOL    HW118299   1.254   6.774   1.977
 5800SOL    HW218300   1.159   6.646   2.011
 5801SOL     OW18301   2.151   2.227   3.489
 5801SOL    HW118302   2.053   2.245   3.496
 5801SOL    HW218303   2.193   2.231   3.580
 5802SOL     OW18304   6.379   3.016   2.810
 5802SOL    HW118305   6.294   3.059   2.839
 5802SOL    HW218306   6.456   3.057   2.858
 5803SOL     OW18307   1.875   5.854   2.982
 5803SOL    HW118308   1.811   5.814   3.048
 5803SOL    HW218309   1.909   5.941   3.018
 5804SOL     OW18310   0.032   5.682   3.578
 5804SOL    HW118311   0.082   5.673   3.492
 5804SOL    HW218312   7.003   5.768   3.579
 5805SOL     OW18313   1.560   3.130   0.654
 5805SOL    HW118314   1.618   3.176   0.720
 5805SOL    HW218315   1.578   3.165   0.562
 5806SOL     OW18316   0.246   4.984   4.757
 5806SOL    HW118317   0.158   4.959   4.797
 5806SOL    HW218318   0.298   4.901   4.735
 5807SOL     OW18319   1.012   5.807   0.197
 5807SOL    HW118320   1.016   5.853   0.286
 5807SOL    HW218321   1.105   5.779   0.170
 5808SOL     OW18322   6.970   6.597   4.122
 5808SOL    HW118323   0.032   6.610   4.068
 5808SOL    HW218324   6.990   6.537   4.199
 5809SOL     OW18325   6.633   1.720   5.318
 5809SOL    HW118326   6.721   1.722   5.366
 5809SOL    HW218327   6.622   1.633   5.271
 5810SOL     OW18328   4.944   0.805   5.446
 5810SOL    HW118329   5.031   0.757   5.456
 5810SOL    HW218330   4.931   0.831   5.351
 5811SOL     OW18331   3.604   1.560   4.995
 5811SOL    HW118332   3.544   1.535   5.071
 5811SOL    HW218333   3.670   1.629   5.025
 5812SOL     OW18334   5.030   3.302   6.103
 5812SOL    HW118335   5.037   3.226   6.038
 5812SOL    HW218336   4.933   3.319   6.123
 5813SOL     OW18337   2.960   0.607   0.752
 5813SOL    HW118338   2.996   0.581   0.663
 5813SOL    HW218339   2.930   0.525   0.801
 5814SOL     OW18340   0.135   3.297   2.199
 5814SOL    HW118341   0.193   3.305   2.118
 5814SOL    HW218342   0.179   3.344   2.276
 5815SOL     OW18343   4.356   1.576   4.232
 5815SOL    HW118344   4.403   1.518   4.299
 5815SOL    HW218345   4.273   1.613   4.274
 5816SOL     OW18346   5.136   4.522   0.468
 5816SOL    HW118347   5.057   4.525   0.406
 5816SOL    HW218348   5.169   4.615   0.483
 5817SOL     OW18349   5.995   4.938   5.358
 5817SOL    HW118350   6.056   5.009   5.321
 5817SOL    HW218351   6.005   4.935   5.458
 5818SOL     OW18352   0.038   5.819   5.485
 5818SOL    HW118353   0.039   5.743   5.550
 5818SOL    HW218354   6.985   5.804   5.419
 5819SOL     OW18355   3.608   6.435   6.959
 5819SOL    HW118356   3.642   6.515   6.910
 5819SOL    HW218357   3.534   6.462   7.020
 5820SOL     OW18358   4.216   4.747   2.867
 5820SOL    HW118359   4.293   4.721   2.924
 5820SOL    HW218360   4.140   4.777   2.925
 5821SOL     OW18361   6.680   1.223   1.865
 5821SOL    HW118362   6.601   1.162   1.860
 5821SOL    HW218363   6.746   1.198   1.794
 5822SOL     OW18364   1.846   2.747   1.570
 5822SOL    HW118365   1.814   2.820   1.630
 5822SOL    HW218366   1.786   2.740   1.490
 5823SOL     OW18367   2.986   6.960   4.546
 5823SOL    HW118368   2.938   0.019   4.582
 5823SOL    HW218369   3.038   6.916   4.619
 5824SOL     OW18370   0.002   6.182   3.255
 5824SOL    HW118371   6.983   6.098   3.219
 5824SOL    HW218372   6.964   6.219   3.327
 5825SOL     OW18373   0.120   6.555   4.698
 5825SOL    HW118374   0.116   6.458   4.673
 5825SOL    HW218375   0.073   6.610   4.629
 5826SOL     OW18376   0.599   6.085   6.226
 5826SOL    HW118377   0.506   6.114   6.246
 5826SOL    HW218378   0.661   6.122   6.296
 5827SOL     OW18379   1.895   3.625   4.488
 5827SOL    HW118380   1.852   3.607   4.400
 5827SOL    HW218381   1.917   3.539   4.533
 5828SOL     OW18382   4.939   1.362   2.764
 5828SOL    HW118383   4.912   1.399   2.853
 5828SOL    HW218384   5.036   1.379   2.749
 5829SOL     OW18385   1.818   0.639   4.494
 5829SOL    HW118386   1.782   0.726   4.528
 5829SOL    HW218387   1.811   0.570   4.566
 5830SOL     OW18388   5.540   0.195   5.811
 5830SOL    HW118389   5.572   0.187   5.717
 5830SOL    HW218390   5.484   0.277   5.821
 5831SOL     OW18391   1.289   0.721   6.081
 5831SOL    HW118392   1.370   0.672   6.111
 5831SOL    HW218393   1.260   0.786   6.151
 5832SOL     OW18394   3.161   4.543   6.913
 5832SOL    HW118395   3.133   4.503   7.000
 5832SOL    HW218396   3.116   4.495   6.838
 5833SOL     OW18397   4.073   3.274   5.119
 5833SOL    HW118398   3.987   3.323   5.108
 5833SOL    HW218399   4.055   3.183   5.157
 5834SOL     OW18400   6.809   4.061   6.744
 5834SOL    HW118401   6.894   4.009   6.736
 5834SOL    HW218402   6.734   4.010   6.702
 5835SOL     OW18403   5.383   2.318   2.686
 5835SOL    HW118404   5.350   2.304   2.779
 5835SOL    HW218405   5.478   2.289   2.680
 5836SOL     OW18406   2.977   0.482   1.588
 5836SOL    HW118407   3.004   0.404   1.644
 5836SOL    HW218408   3.045   0.555   1.597
 5837SOL     OW18409   3.470   3.119   0.049
 5837SOL    HW118410   3.400   3.047   0.052
 5837SOL    HW218411   3.534   3.099   6.996
 5838SOL     OW18412   2.850   1.680   0.881
 5838SOL    HW118413   2.825   1.738   0.804
 5838SOL    HW218414   2.949   1.675   0.888
 5839SOL     OW18415   0.897   2.183   0.610
 5839SOL    HW118416   0.828   2.129   0.658
 5839SOL    HW218417   0.983   2.132   0.608
 5840SOL     OW18418   0.960   4.051   6.749
 5840SOL    HW118419   0.966   4.000   6.664
 5840SOL    HW218420   0.867   4.087   6.760
 5841SOL     OW18421   5.351   1.142   1.536
 5841SOL    HW118422   5.275   1.140   1.600
 5841SOL    HW218423   5.437   1.134   1.586
 5842SOL     OW18424   4.704   3.112   1.451
 5842SOL    HW118425   4.731   3.039   1.514
 5842SOL    HW218426   4.646   3.073   1.379
 5843SOL     OW18427   1.244   4.784   1.684
 5843SOL    HW118428   1.269   4.836   1.602
 5843SOL    HW218429   1.237   4.687   1.662
 5844SOL     OW18430   1.745   5.928   6.460
 5844SOL    HW118431   1.691   5.988   6.400
 5844SOL    HW218432   1.700   5.840   6.468
 5845SOL     OW18433   0.620   0.041   1.714
 5845SOL    HW118434   0.561   6.992   1.676
 5845SOL    HW218435   0.626   0.031   1.813
 5846SOL     OW18436   6.460   3.523   5.775
 5846SOL    HW118437   6.425   3.436   5.810
 5846SOL    HW218438   6.439   3.596   5.840
 5847SOL     OW18439   2.611   2.450   2.033
 5847SOL    HW118440   2.710   2.436   2.035
 5847SOL    HW218441   2.567   2.387   2.097
 5848SOL     OW18442   1.590   5.470   3.000
 5848SOL    HW118443   1.523   5.401   2.973
 5848SOL    HW218444   1.603   5.535   2.925
 5849SOL     OW18445   1.917   0.577   5.113
 5849SOL    HW118446   1.857   0.603   5.188
 5849SOL    HW218447   1.975   0.501   5.141
 5850SOL     OW18448   0.300   3.626   2.037
 5850SOL    HW118449   0.345   3.640   2.125
 5850SOL    HW218450   0.213   3.676   2.036
 5851SOL     OW18451   5.189   3.763   3.556
 5851SOL    HW118452   5.165   3.853   3.591
 5851SOL    HW218453   5.282   3.764   3.519
 5852SOL     OW18454   5.374   6.562   2.582
 5852SOL    HW118455   5.403   6.471   2.552
 5852SOL    HW218456   5.292   6.589   2.532
 5853SOL     OW18457   3.829   5.290   5.295
 5853SOL    HW118458   3.913   5.236   5.296
 5853SOL    HW218459   3.755   5.239   5.339
 5854SOL     OW18460   4.498   3.540   5.590
 5854SOL    HW118461   4.438   3.485   5.533
 5854SOL    HW218462   4.527   3.621   5.540
 5855SOL     OW18463   1.489   1.128   4.319
 5855SOL    HW118464   1.574   1.129   4.373
 5855SOL    HW218465   1.412   1.146   4.380
 5856SOL     OW18466   1.425   5.883   3.642
 5856SOL    HW118467   1.448   5.816   3.712
 5856SOL    HW218468   1.477   5.967   3.657
 5857SOL     OW18469   6.247   3.406   5.228
 5857SOL    HW118470   6.248   3.373   5.323
 5857SOL    HW218471   6.303   3.345   5.171
 5858SOL     OW18472   2.366   2.252   2.767
 5858SOL    HW118473   2.298   2.310   2.724
 5858SOL    HW218474   2.360   2.159   2.729
 5859SOL     OW18475   6.474   6.249   1.502
 5859SOL    HW118476   6.473   6.229   1.404
 5859SOL    HW218477   6.568   6.251   1.535
 5860SOL     OW18478   6.938   4.807   3.461
 5860SOL    HW118479   6.975   4.824   3.552
 5860SOL    HW218480   6.967   4.717   3.430
 5861SOL     OW18481   5.663   0.968   4.047
 5861SOL    HW118482   5.731   1.021   3.998
 5861SOL    HW218483   5.699   0.877   4.066
 5862SOL     OW18484   5.895   5.386   1.175
 5862SOL    HW118485   5.844   5.301   1.165
 5862SOL    HW218486   5.873   5.429   1.263
 5863SOL     OW18487   2.773   2.287   4.802
 5863SOL    HW118488   2.708   2.223   4.844
 5863SOL    HW218489   2.865   2.247   4.804
 5864SOL     OW18490   3.459   4.089   2.495
 5864SOL    HW118491   3.452   4.102   2.397
 5864SOL    HW218492   3.368   4.069   2.533
 5865SOL     OW18493   5.582   0.426   4.951
 5865SOL    HW118494   5.642   0.424   5.031
 5865SOL    HW218495   5.498   0.475   4.975
 5866SOL     OW18496   3.550   3.198   1.213
 5866SOL    HW118497   3.645   3.221   1.194
 5866SOL    HW218498   3.509   3.270   1.269
 5867SOL     OW18499   2.410   3.487   1.376
 5867SOL    HW118500   2.348   3.510   1.452
 5867SOL    HW218501   2.424   3.388   1.373
 5868SOL     OW18502   2.268   1.626   5.867
 5868SOL    HW118503   2.353   1.623   5.816
 5868SOL    HW218504   2.223   1.715   5.852
 5869SOL     OW18505   2.302   5.802   2.950
 5869SOL    HW118506   2.386   5.803   3.004
 5869SOL    HW218507   2.235   5.740   2.991
 5870SOL     OW18508   5.599   6.209   5.065
 5870SOL    HW118509   5.621   6.121   5.024
 5870SOL    HW218510   5.523   6.251   5.015
 5871SOL     OW18511   3.497   3.562   1.896
 5871SOL    HW118512   3.490   3.516   1.985
 5871SOL    HW218513   3.592   3.586   1.879
 5872SOL     OW18514   4.169   6.667   1.562
 5872SOL    HW118515   4.177   6.584   1.618
 5872SOL    HW218516   4.140   6.743   1.620
 5873SOL     OW18517   3.613   0.431   2.071
 5873SOL    HW118518   3.678   0.507   2.074
 5873SOL    HW218519   3.542   0.450   2.004
 5874SOL     OW18520   2.219   4.435   5.282
 5874SOL    HW118521   2.219   4.336   5.265
 5874SOL    HW218522   2.129   4.463   5.315
 5875SOL     OW18523   4.196   1.553   0.437
 5875SOL    HW118524   4.243   1.631   0.396
 5875SOL    HW218525   4.146   1.502   0.366
 5876SOL     OW18526   4.052   3.385   1.647
 5876SOL    HW118527   4.035   3.474   1.690
 5876SOL    HW218528   4.011   3.384   1.556
 5877SOL     OW18529   6.718   6.437   1.010
 5877SOL    HW118530   6.699   6.527   0.971
 5877SOL    HW218531   6.816   6.420   1.009
 5878SOL     OW18532   0.083   5.486   4.481
 5878SOL    HW118533   0.072   5.577   4.440
 5878SOL    HW218534   0.167   5.444   4.446
 5879SOL     OW18535   1.639   4.286   6.996
 5879SOL    HW118536   1.625   4.217   6.926
 5879SOL    HW218537   1.576   4.270   0.051
 5880SOL     OW18538   4.383   4.368   6.839
 5880SOL    HW118539   4.416   4.300   6.774
 5880SOL    HW218540   4.338   4.322   6.916
 5881SOL     OW18541   0.691   6.757   2.944
 5881SOL    HW118542   0.640   6.733   3.026
 5881SOL    HW218543   0.679   6.686   2.875
 5882SOL     OW18544   0.420   6.014   1.568
 5882SOL    HW118545   0.393   6.110   1.573
 5882SOL    HW218546   0.359   5.959   1.625
 5883SOL     OW18547   1.068   1.055   6.194
 5883SOL    HW118548   1.111   0.969   6.221
 5883SOL    HW218549   1.138   1.127   6.189
 5884SOL     OW18550   2.890   1.699   4.606
 5884SOL    HW118551   2.911   1.796   4.619
 5884SOL    HW218552   2.831   1.668   4.681
 5885SOL     OW18553   0.755   0.662   3.316
 5885SOL    HW118554   0.773   0.566   3.339
 5885SOL    HW218555   0.774   0.676   3.219
 5886SOL     OW18556   1.275   2.097   4.885
 5886SOL    HW118557   1.226   2.086   4.799
 5886SOL    HW218558   1.240   2.032   4.953
 5887SOL     OW18559   2.719   1.619   3.214
 5887SOL    HW118560   2.657   1.639   3.290
 5887SOL    HW218561   2.770   1.702   3.191
 5888SOL     OW18562   2.878   1.186   1.804
 5888SOL    HW118563   2.793   1.238   1.809
 5888SOL    HW218564   2.864   1.105   1.746
 5889SOL     OW18565   1.403   6.647   0.570
 5889SOL    HW118566   1.484   6.608   0.527
 5889SOL    HW218567   1.327   6.582   0.562
 5890SOL     OW18568   2.249   1.135   3.938
 5890SOL    HW118569   2.317   1.149   4.010
 5890SOL    HW218570   2.294   1.139   3.848
 5891SOL     OW18571   3.917   3.063   6.110
 5891SOL    HW118572   3.884   3.033   6.021
 5891SOL    HW218573   3.857   3.136   6.145
 5892SOL     OW18574   0.595   5.409   1.608
 5892SOL    HW118575   0.521   5.476   1.611
 5892SOL    HW218576   0.576   5.336   1.674
 5893SOL     OW18577   1.972   3.876   4.030
 5893SOL    HW118578   2.053   3.823   4.008
 5893SOL    HW218579   1.947   3.860   4.126
 5894SOL     OW18580   6.777   4.755   4.244
 5894SOL    HW118581   6.800   4.684   4.178
 5894SOL    HW218582   6.766   4.842   4.197
 5895SOL     OW18583   5.455   4.063   4.253
 5895SOL    HW118584   5.389   4.028   4.318
 5895SOL    HW218585   5.407   4.113   4.180
 5896SOL     OW18586   4.240   0.844   0.245
 5896SOL    HW118587   4.301   0.924   0.247
 5896SOL    HW218588   4.164   0.862   0.183
 5897SOL     OW18589   3.931   0.625   1.453
 5897SOL    HW118590   4.022   0.658   1.431
 5897SOL    HW218591   3.866   0.660   1.385
 5898SOL     OW18592   1.843   6.433   3.216
 5898SOL    HW118593   1.820   6.483   3.133
 5898SOL    HW218594   1.876   6.341   3.192
 5899SOL     OW18595   5.034   5.816   5.864
 5899SOL    HW118596   5.069   5.876   5.792
 5899SOL    HW218597   5.071   5.844   5.953
 5900SOL     OW18598   5.565   5.144   3.562
 5900SOL    HW118599   5.577   5.157   3.661
 5900SOL    HW218600   5.596   5.226   3.514
 5901SOL     OW18601   2.640   0.649   0.450
 5901SOL    HW118602   2.592   0.722   0.499
 5901SOL    HW218603   2.610   0.561   0.485
 5902SOL     OW18604   6.561   2.743   5.982
 5902SOL    HW118605   6.562   2.694   5.895
 5902SOL    HW218606   6.573   2.841   5.965
 5903SOL     OW18607   4.606   4.654   0.078
 5903SOL    HW118608   4.630   4.616   7.011
 5903SOL    HW218609   4.687   4.654   0.138
 5904SOL     OW18610   1.025   4.196   1.530
 5904SOL    HW118611   1.043   4.217   1.626
 5904SOL    HW218612   1.001   4.099   1.521
 5905SOL     OW18613   6.492   5.824   3.230
 5905SOL    HW118614   6.432   5.745   3.219
 5905SOL    HW218615   6.486   5.882   3.149
 5906SOL     OW18616   4.107   2.126   3.697
 5906SOL    HW118617   4.075   2.155   3.787
 5906SOL    HW218618   4.176   2.055   3.708
 5907SOL     OW18619   0.393   5.189   1.190
 5907SOL    HW118620   0.449   5.167   1.269
 5907SOL    HW218621   0.386   5.289   1.181
 5908SOL     OW18622   0.484   2.658   6.371
 5908SOL    HW118623   0.404   2.641   6.312
 5908SOL    HW218624   0.546   2.580   6.367
 5909SOL     OW18625   6.695   5.751   0.466
 5909SOL    HW118626   6.678   5.653   0.456
 5909SOL    HW218627   6.679   5.797   0.378
 5910SOL     OW18628   6.863   3.430   3.663
 5910SOL    HW118629   6.784   3.387   3.621
 5910SOL    HW218630   6.903   3.369   3.731
 5911SOL     OW18631   6.548   6.590   6.752
 5911SOL    HW118632   6.572   6.667   6.692
 5911SOL    HW218633   6.530   6.625   6.844
 5912SOL     OW18634   6.691   1.114   6.066
 5912SOL    HW118635   6.729   1.023   6.083
 5912SOL    HW218636   6.637   1.111   5.981
 5913SOL     OW18637   4.752   2.954   6.300
 5913SOL    HW118638   4.773   3.052   6.294
 5913SOL    HW218639   4.708   2.924   6.215
 5914SOL     OW18640   1.285   4.916   6.647
 5914SOL    HW118641   1.244   4.914   6.556
 5914SOL    HW218642   1.344   4.996   6.656
 5915SOL     OW18643   4.618   5.769   1.147
 5915SOL    HW118644   4.652   5.725   1.230
 5915SOL    HW218645   4.571   5.854   1.171
 5916SOL     OW18646   5.680   6.348   3.960
 5916SOL    HW118647   5.767   6.395   3.977
 5916SOL    HW218648   5.606   6.415   3.953
 5917SOL     OW18649   3.040   3.291   4.364
 5917SOL    HW118650   3.106   3.362   4.338
 5917SOL    HW218651   2.962   3.334   4.410
 5918SOL     OW18652   1.925   4.139   5.186
 5918SOL    HW118653   2.017   4.166   5.214
 5918SOL    HW218654   1.910   4.043   5.210
 5919SOL     OW18655   3.991   3.078   2.979
 5919SOL    HW118656   4.072   3.115   3.025
 5919SOL    HW218657   3.932   3.033   3.047
 5920SOL     OW18658   4.478   1.381   6.575
 5920SOL    HW118659   4.541   1.455   6.596
 5920SOL    HW218660   4.430   1.354   6.659
 5921SOL     OW18661   3.451   5.347   6.296
 5921SOL    HW118662   3.531   5.407   6.290
 5921SOL    HW218663   3.479   5.257   6.330
 5922SOL     OW18664   5.205   4.086   2.965
 5922SOL    HW118665   5.236   4.001   3.009
 5922SOL    HW218666   5.181   4.066   2.870
 5923SOL     OW18667   0.100   1.700   1.887
 5923SOL    HW118668   0.117   1.728   1.981
 5923SOL    HW218669   0.112   1.778   1.826
 5924SOL     OW18670   6.898   6.924   2.778
 5924SOL    HW118671   6.959   6.995   2.743
 5924SOL    HW218672   6.803   6.949   2.758
 5925SOL     OW18673   4.184   6.733   2.084
 5925SOL    HW118674   4.221   6.747   1.992
 5925SOL    HW218675   4.257   6.746   2.151
 5926SOL     OW18676   4.000   5.641   2.182
 5926SOL    HW118677   3.912   5.601   2.158
 5926SOL    HW218678   3.999   5.667   2.279
 5927SOL     OW18679   1.506   4.591   2.718
 5927SOL    HW118680   1.414   4.631   2.711
 5927SOL    HW218681   1.563   4.626   2.644
 5928SOL     OW18682   3.554   6.789   1.357
 5928SOL    HW118683   3.510   6.861   1.409
 5928SOL    HW218684   3.485   6.723   1.326
 5929SOL     OW18685   6.690   0.349   5.905
 5929SOL    HW118686   6.656   0.388   5.991
 5929SOL    HW218687   6.788   0.369   5.896
 5930SOL     OW18688   6.622   3.865   2.950
 5930SOL    HW118689   6.709   3.831   2.985
 5930SOL    HW218690   6.638   3.913   2.863
 5931SOL     OW18691   0.104   5.820   3.280
 5931SOL    HW118692   0.115   5.889   3.209
 5931SOL    HW218693   0.170   5.835   3.353
 5932SOL     OW18694   3.291   0.308   1.064
 5932SOL    HW118695   3.239   0.368   1.003
 5932SOL    HW218696   3.271   0.332   1.159
 5933SOL     OW18697   6.744   4.909   3.802
 5933SOL    HW118698   6.778   4.824   3.762
 5933SOL    HW218699   6.657   4.933   3.761
 5934SOL     OW18700   3.911   3.044   4.748
 5934SOL    HW118701   3.843   3.076   4.815
 5934SOL    HW218702   3.965   2.971   4.788
 5935SOL     OW18703   6.309   5.150   6.335
 5935SOL    HW118704   6.308   5.085   6.259
 5935SOL    HW218705   6.354   5.234   6.306
 5936SOL     OW18706   3.059   2.293   1.672
 5936SOL    HW118707   3.110   2.370   1.635
 5936SOL    HW218708   3.024   2.317   1.763
 5937SOL     OW18709   6.286   3.494   2.347
 5937SOL    HW118710   6.199   3.446   2.363
 5937SOL    HW218711   6.308   3.550   2.427
 5938SOL     OW18712   6.453   5.162   3.050
 5938SOL    HW118713   6.536   5.129   3.095
 5938SOL    HW218714   6.431   5.103   2.972
 5939SOL     OW18715   2.578   6.434   2.875
 5939SOL    HW118716   2.625   6.460   2.959
 5939SOL    HW218717   2.642   6.437   2.798
 5940SOL     OW18718   4.698   5.256   2.319
 5940SOL    HW118719   4.613   5.241   2.368
 5940SOL    HW218720   4.701   5.349   2.283
 5941SOL     OW18721   5.561   3.137   2.091
 5941SOL    HW118722   5.589   3.064   2.029
 5941SOL    HW218723   5.469   3.167   2.068
 5942SOL     OW18724   5.721   3.613   0.341
 5942SOL    HW118725   5.623   3.594   0.344
 5942SOL    HW218726   5.761   3.569   0.260
 5943SOL     OW18727   3.313   4.105   5.782
 5943SOL    HW118728   3.239   4.042   5.804
 5943SOL    HW218729   3.342   4.153   5.865
 5944SOL     OW18730   0.017   2.450   0.942
 5944SOL    HW118731   0.100   2.498   0.913
 5944SOL    HW218732   6.975   2.444   0.864
 5945SOL     OW18733   6.683   4.994   5.148
 5945SOL    HW118734   6.749   4.919   5.141
 5945SOL    HW218735   6.705   5.051   5.227
 5946SOL     OW18736   3.762   3.569   6.107
 5946SOL    HW118737   3.673   3.527   6.090
 5946SOL    HW218738   3.752   3.644   6.173
 5947SOL     OW18739   3.251   3.214   2.401
 5947SOL    HW118740   3.168   3.255   2.363
 5947SOL    HW218741   3.257   3.119   2.372
 5948SOL     OW18742   4.242   4.756   2.602
 5948SOL    HW118743   4.229   4.724   2.695
 5948SOL    HW218744   4.188   4.838   2.586
 5949SOL     OW18745   5.247   3.933   1.507
 5949SOL    HW118746   5.343   3.907   1.511
 5949SOL    HW218747   5.228   4.005   1.574
 5950SOL     OW18748   5.314   1.113   5.431
 5950SOL    HW118749   5.257   1.196   5.430
 5950SOL    HW218750   5.367   1.108   5.346
 5951SOL     OW18751   1.366   5.412   3.487
 5951SOL    HW118752   1.378   5.315   3.468
 5951SOL    HW218753   1.453   5.452   3.515
 5952SOL     OW18754   5.272   4.773   3.483
 5952SOL    HW118755   5.240   4.860   3.445
 5952SOL    HW218756   5.220   4.698   3.442
 5953SOL     OW18757   6.272   3.265   5.473
 5953SOL    HW118758   6.340   3.191   5.476
 5953SOL    HW218759   6.225   3.270   5.561
 5954SOL     OW18760   6.159   5.271   5.423
 5954SOL    HW118761   6.184   5.224   5.339
 5954SOL    HW218762   6.077   5.326   5.408
 5955SOL     OW18763   4.756   5.579   2.440
 5955SOL    HW118764   4.707   5.540   2.362
 5955SOL    HW218765   4.818   5.651   2.408
 5956SOL     OW18766   4.515   1.710   4.597
 5956SOL    HW118767   4.501   1.624   4.645
 5956SOL    HW218768   4.583   1.698   4.525
 5957SOL     OW18769   3.313   1.187   4.926
 5957SOL    HW118770   3.298   1.263   4.862
 5957SOL    HW218771   3.300   1.100   4.878
 5958SOL     OW18772   5.461   6.361   2.824
 5958SOL    HW118773   5.418   6.446   2.791
 5958SOL    HW218774   5.499   6.310   2.746
 5959SOL     OW18775   4.249   2.937   5.450
 5959SOL    HW118776   4.213   3.016   5.400
 5959SOL    HW218777   4.180   2.865   5.451
 5960SOL     OW18778   4.106   5.350   4.907
 5960SOL    HW118779   4.194   5.382   4.942
 5960SOL    HW218780   4.059   5.298   4.978
 5961SOL     OW18781   4.818   1.805   2.900
 5961SOL    HW118782   4.895   1.867   2.918
 5961SOL    HW218783   4.743   1.857   2.859
 5962SOL     OW18784   6.115   6.176   0.217
 5962SOL    HW118785   6.108   6.263   0.168
 5962SOL    HW218786   6.132   6.193   0.314
 5963SOL     OW18787   3.845   3.734   6.769
 5963SOL    HW118788   3.798   3.767   6.851
 5963SOL    HW218789   3.918   3.671   6.796
 5964SOL     OW18790   0.919   6.200   5.450
 5964SOL    HW118791   0.844   6.179   5.513
 5964SOL    HW218792   1.002   6.152   5.480
 5965SOL     OW18793   2.029   1.618   6.991
 5965SOL    HW118794   2.059   1.575   0.055
 5965SOL    HW218795   1.930   1.631   6.993
 5966SOL     OW18796   2.105   6.372   5.664
 5966SOL    HW118797   2.075   6.356   5.758
 5966SOL    HW218798   2.135   6.285   5.623
 5967SOL     OW18799   3.173   0.350   6.096
 5967SOL    HW118800   3.266   0.313   6.089
 5967SOL    HW218801   3.174   0.447   6.073
 5968SOL     OW18802   5.536   2.233   0.563
 5968SOL    HW118803   5.585   2.315   0.594
 5968SOL    HW218804   5.542   2.163   0.634
 5969SOL     OW18805   6.275   0.095   6.706
 5969SOL    HW118806   6.226   0.011   6.681
 5969SOL    HW218807   6.280   0.103   6.805
 5970SOL     OW18808   0.228   4.314   2.875
 5970SOL    HW118809   0.154   4.381   2.873
 5970SOL    HW218810   0.271   4.309   2.785
 5971SOL     OW18811   0.246   1.553   2.590
 5971SOL    HW118812   0.175   1.547   2.520
 5971SOL    HW218813   0.308   1.629   2.567
 5972SOL     OW18814   5.572   6.082   6.310
 5972SOL    HW118815   5.527   6.013   6.367
 5972SOL    HW218816   5.644   6.127   6.363
 5973SOL     OW18817   1.598   3.497   2.068
 5973SOL    HW118818   1.509   3.483   2.113
 5973SOL    HW218819   1.633   3.409   2.035
 5974SOL     OW18820   5.606   5.566   6.675
 5974SOL    HW118821   5.598   5.604   6.768
 5974SOL    HW218822   5.556   5.479   6.671
 5975SOL     OW18823   4.569   7.010   1.158
 5975SOL    HW118824   4.630   6.983   1.084
 5975SOL    HW218825   4.475   6.988   1.134
 5976SOL     OW18826   4.065   2.459   6.061
 5976SOL    HW118827   4.030   2.444   6.153
 5976SOL    HW218828   4.015   2.400   5.996
 5977SOL     OW18829   1.583   5.911   0.196
 5977SOL    HW118830   1.572   5.913   0.295
 5977SOL    HW218831   1.530   5.985   0.155
 5978SOL     OW18832   4.070   5.722   1.915
 5978SOL    HW118833   4.038   5.801   1.965
 5978SOL    HW218834   4.082   5.645   1.978
 5979SOL     OW18835   5.741   0.439   2.722
 5979SOL    HW118836   5.755   0.438   2.623
 5979SOL    HW218837   5.795   0.513   2.762
 5980SOL     OW18838   3.313   3.952   0.856
 5980SOL    HW118839   3.322   4.047   0.887
 5980SOL    HW218840   3.402   3.907   0.860
 5981SOL     OW18841   5.572   2.167   1.464
 5981SOL    HW118842   5.540   2.250   1.509
 5981SOL    HW218843   5.618   2.108   1.531
 5982SOL     OW18844   6.333   2.455   1.775
 5982SOL    HW118845   6.380   2.404   1.848
 5982SOL    HW218846   6.290   2.390   1.712
 5983SOL     OW18847   1.083   1.459   3.563
 5983SOL    HW118848   1.119   1.544   3.524
 5983SOL    HW218849   0.985   1.467   3.576
 5984SOL     OW18850   5.737   5.545   3.135
 5984SOL    HW118851   5.661   5.494   3.095
 5984SOL    HW218852   5.707   5.637   3.159
 5985SOL     OW18853   6.886   3.251   4.024
 5985SOL    HW118854   6.981   3.280   4.012
 5985SOL    HW218855   6.839   3.252   3.936
 5986SOL     OW18856   3.238   4.079   4.212
 5986SOL    HW118857   3.293   4.152   4.251
 5986SOL    HW218858   3.223   4.096   4.115
 5987SOL     OW18859   5.755   6.819   3.781
 5987SOL    HW118860   5.818   6.805   3.857
 5987SOL    HW218861   5.706   6.906   3.792
 5988SOL     OW18862   4.346   0.466   5.817
 5988SOL    HW118863   4.302   0.498   5.901
 5988SOL    HW218864   4.444   0.480   5.823
 5989SOL     OW18865   2.743   5.832   6.489
 5989SOL    HW118866   2.772   5.787   6.574
 5989SOL    HW218867   2.678   5.904   6.511
 5990SOL     OW18868   3.291   3.672   0.650
 5990SOL    HW118869   3.193   3.692   0.646
 5990SOL    HW218870   3.319   3.659   0.745
 5991SOL     OW18871   3.534   5.260   6.607
 5991SOL    HW118872   3.624   5.298   6.585
 5991SOL    HW218873   3.538   5.160   6.601
 5992SOL     OW18874   3.790   0.306   1.804
 5992SOL    HW118875   3.821   0.396   1.773
 5992SOL    HW218876   3.697   0.290   1.770
 5993SOL     OW18877   3.712   4.592   6.032
 5993SOL    HW118878   3.719   4.684   6.069
 5993SOL    HW218879   3.798   4.543   6.048
 5994SOL     OW18880   6.566   2.573   1.617
 5994SOL    HW118881   6.625   2.507   1.665
 5994SOL    HW218882   6.474   2.535   1.611
 5995SOL     OW18883   4.903   3.474   2.474
 5995SOL    HW118884   4.924   3.388   2.426
 5995SOL    HW218885   4.850   3.533   2.414
 5996SOL     OW18886   0.744   6.011   1.340
 5996SOL    HW118887   0.651   5.986   1.314
 5996SOL    HW218888   0.743   6.097   1.392
 5997SOL     OW18889   0.063   5.448   2.626
 5997SOL    HW118890   0.018   5.379   2.570
 5997SOL    HW218891   0.039   5.539   2.593
 5998SOL     OW18892   6.319   1.294   3.402
 5998SOL    HW118893   6.278   1.260   3.317
 5998SOL    HW218894   6.309   1.224   3.474
 5999SOL     OW18895   2.402   2.587   1.717
 5999SOL    HW118896   2.431   2.495   1.689
 5999SOL    HW218897   2.380   2.587   1.814
 6000SOL     OW18898   2.726   6.962   0.408
 6000SOL    HW118899   2.820   6.941   0.437
 6000SOL    HW218900   2.707   6.914   0.322
 6001SOL     OW18901   0.313   4.475   6.802
 6001SOL    HW118902   0.396   4.449   6.852
 6001SOL    HW218903   0.339   4.515   6.714
 6002SOL     OW18904   5.904   0.791   0.500
 6002SOL    HW118905   5.835   0.843   0.449
 6002SOL    HW218906   5.993   0.801   0.455
 6003SOL     OW18907   6.008   1.899   4.613
 6003SOL    HW118908   6.028   1.983   4.562
 6003SOL    HW218909   5.915   1.869   4.591
 6004SOL     OW18910   6.895   3.766   3.053
 6004SOL    HW118911   6.987   3.786   3.020
 6004SOL    HW218912   6.899   3.702   3.129
 6005SOL     OW18913   4.896   5.065   4.350
 6005SOL    HW118914   4.864   5.160   4.359
 6005SOL    HW218915   4.823   5.009   4.311
 6006SOL     OW18916   2.600   1.298   5.248
 6006SOL    HW118917   2.651   1.356   5.184
 6006SOL    HW218918   2.659   1.272   5.323
 6007SOL     OW18919   5.263   3.904   5.933
 6007SOL    HW118920   5.270   3.823   5.991
 6007SOL    HW218921   5.239   3.876   5.840
 6008SOL     OW18922   2.414   4.457   5.079
 6008SOL    HW118923   2.449   4.364   5.084
 6008SOL    HW218924   2.335   4.466   5.139
 6009SOL     OW18925   2.342   1.038   3.146
 6009SOL    HW118926   2.266   1.053   3.210
 6009SOL    HW218927   2.378   1.126   3.116
 6010SOL     OW18928   1.187   5.165   4.340
 6010SOL    HW118929   1.132   5.086   4.369
 6010SOL    HW218930   1.283   5.138   4.336
 6011SOL     OW18931   5.285   2.918   2.892
 6011SOL    HW118932   5.232   2.839   2.924
 6011SOL    HW218933   5.335   2.893   2.809
 6012SOL     OW18934   5.641   0.832   0.387
 6012SOL    HW118935   5.572   0.881   0.441
 6012SOL    HW218936   5.644   0.736   0.417
 6013SOL     OW18937   5.209   2.179   2.512
 6013SOL    HW118938   5.275   2.216   2.578
 6013SOL    HW218939   5.116   2.196   2.544
 6014SOL     OW18940   4.029   3.779   2.844
 6014SOL    HW118941   3.960   3.850   2.858
 6014SOL    HW218942   3.986   3.697   2.806
 6015SOL     OW18943   6.473   3.737   4.388
 6015SOL    HW118944   6.471   3.686   4.474
 6015SOL    HW218945   6.479   3.835   4.408
 6016SOL     OW18946   6.410   1.787   5.464
 6016SOL    HW118947   6.504   1.780   5.430
 6016SOL    HW218948   6.364   1.863   5.418
 6017SOL     OW18949   6.624   4.629   3.790
 6017SOL    HW118950   6.613   4.632   3.690
 6017SOL    HW218951   6.539   4.657   3.834
 6018SOL     OW18952   3.872   0.588   6.166
 6018SOL    HW118953   3.964   0.551   6.151
 6018SOL    HW218954   3.827   0.537   6.239
 6019SOL     OW18955   0.482   3.064   4.136
 6019SOL    HW118956   0.525   3.047   4.225
 6019SOL    HW218957   0.475   3.162   4.121
 6020SOL     OW18958   0.815   4.868   0.907
 6020SOL    HW118959   0.869   4.931   0.964
 6020SOL    HW218960   0.876   4.803   0.862
 6021SOL     OW18961   4.336   0.416   2.688
 6021SOL    HW118962   4.299   0.509   2.678
 6021SOL    HW218963   4.428   0.412   2.649
 6022SOL     OW18964   5.529   1.512   3.918
 6022SOL    HW118965   5.578   1.442   3.866
 6022SOL    HW218966   5.592   1.585   3.943
 6023SOL     OW18967   5.976   1.358   1.564
 6023SOL    HW118968   5.883   1.323   1.552
 6023SOL    HW218969   6.033   1.328   1.487
 6024SOL     OW18970   2.103   4.736   2.681
 6024SOL    HW118971   2.114   4.647   2.637
 6024SOL    HW218972   2.006   4.753   2.698
 6025SOL     OW18973   3.950   1.689   3.378
 6025SOL    HW118974   3.908   1.757   3.438
 6025SOL    HW218975   4.036   1.725   3.342
 6026SOL     OW18976   6.751   4.101   5.324
 6026SOL    HW118977   6.774   4.176   5.386
 6026SOL    HW218978   6.828   4.084   5.262
 6027SOL     OW18979   0.537   2.962   5.669
 6027SOL    HW118980   0.464   3.021   5.702
 6027SOL    HW218981   0.593   3.012   5.603
 6028SOL     OW18982   6.541   4.761   0.391
 6028SOL    HW118983   6.611   4.726   0.453
 6028SOL    HW218984   6.453   4.718   0.411
 6029SOL     OW18985   2.213   6.959   4.954
 6029SOL    HW118986   2.272   6.988   4.879
 6029SOL    HW218987   2.144   6.895   4.918
 6030SOL     OW18988   4.025   5.396   2.513
 6030SOL    HW118989   4.100   5.459   2.531
 6030SOL    HW218990   3.938   5.446   2.515
 6031SOL     OW18991   2.887   5.628   4.272
 6031SOL    HW118992   2.861   5.628   4.368
 6031SOL    HW218993   2.826   5.689   4.221
 6032SOL     OW18994   2.411   4.462   2.656
 6032SOL    HW118995   2.453   4.507   2.578
 6032SOL    HW218996   2.441   4.506   2.741
 6033SOL     OW18997   2.583   2.020   2.831
 6033SOL    HW118998   2.665   1.966   2.809
 6033SOL    HW218999   2.609   2.115   2.848
 6034SOL     OW19000   1.439   7.011   5.174
 6034SOL    HW119001   1.495   6.936   5.208
 6034SOL    HW219002   1.475   0.076   5.209
 6035SOL     OW19003   0.579   1.640   2.067
 6035SOL    HW119004   0.505   1.637   1.999
 6035SOL    HW219005   0.557   1.708   2.137
 6036SOL     OW19006   4.921   4.720   3.287
 6036SOL    HW119007   4.906   4.800   3.345
 6036SOL    HW219008   4.933   4.749   3.192
 6037SOL     OW19009   4.359   6.286   0.278
 6037SOL    HW119010   4.389   6.206   0.331
 6037SOL    HW219011   4.418   6.297   0.198
 6038SOL     OW19012   1.787   2.821   5.895
 6038SOL    HW119013   1.733   2.761   5.835
 6038SOL    HW219014   1.778   2.789   5.990
 6039SOL     OW19015   3.087   3.161   3.049
 6039SOL    HW119016   3.021   3.147   3.123
 6039SOL    HW219017   3.142   3.078   3.037
 6040SOL     OW19018   1.318   1.559   0.518
 6040SOL    HW119019   1.261   1.560   0.600
 6040SOL    HW219020   1.405   1.603   0.536
 6041SOL     OW19021   2.780   0.330   5.078
 6041SOL    HW119022   2.751   0.420   5.045
 6041SOL    HW219023   2.761   0.261   5.008
 6042SOL     OW19024   4.608   6.477   2.474
 6042SOL    HW119025   4.560   6.438   2.553
 6042SOL    HW219026   4.554   6.551   2.436
 6043SOL     OW19027   1.020   5.238   5.665
 6043SOL    HW119028   0.984   5.155   5.707
 6043SOL    HW219029   0.988   5.318   5.715
 6044SOL     OW19030   1.224   2.831   1.378
 6044SOL    HW119031   1.316   2.833   1.339
 6044SOL    HW219032   1.192   2.925   1.392
 6045SOL     OW19033   6.005   4.247   2.510
 6045SOL    HW119034   5.960   4.335   2.490
 6045SOL    HW219035   6.035   4.206   2.424
 6046SOL     OW19036   3.702   2.228   0.043
 6046SOL    HW119037   3.629   2.251   0.107
 6046SOL    HW219038   3.791   2.232   0.090
 6047SOL     OW19039   5.194   1.771   1.940
 6047SOL    HW119040   5.139   1.827   1.879
 6047SOL    HW219041   5.145   1.758   2.027
 6048SOL     OW19042   4.451   5.312   5.355
 6048SOL    HW119043   4.466   5.250   5.432
 6048SOL    HW219044   4.497   5.399   5.372
 6049SOL     OW19045   4.978   3.473   0.242
 6049SOL    HW119046   5.038   3.449   0.166
 6049SOL    HW219047   4.884   3.480   0.210
 6050SOL     OW19048   3.532   5.862   5.865
 6050SOL    HW119049   3.497   5.811   5.786
 6050SOL    HW219050   3.583   5.800   5.924
 6051SOL     OW19051   1.897   6.248   3.843
 6051SOL    HW119052   1.862   6.337   3.870
 6051SOL    HW219053   1.982   6.259   3.791
 6052SOL     OW19054   5.802   1.139   0.310
 6052SOL    HW119055   5.764   1.225   0.276
 6052SOL    HW219056   5.753   1.062   0.270
 6053SOL     OW19057   4.271   1.374   6.753
 6053SOL    HW119058   4.286   1.455   6.810
 6053SOL    HW219059   4.192   1.388   6.694
 6054SOL     OW19060   2.083   3.391   0.193
 6054SOL    HW119061   2.136   3.427   0.116
 6054SOL    HW219062   2.040   3.468   0.241
 6055SOL     OW19063   4.788   6.642   5.432
 6055SOL    HW119064   4.776   6.726   5.484
 6055SOL    HW219065   4.874   6.598   5.459
 6056SOL     OW19066   5.017   3.277   4.550
 6056SOL    HW119067   4.971   3.216   4.614
 6056SOL    HW219068   5.022   3.369   4.589
 6057SOL     OW19069   6.330   1.900   3.062
 6057SOL    HW119070   6.369   1.898   2.971
 6057SOL    HW219071   6.400   1.928   3.128
 6058SOL     OW19072   4.573   3.521   1.471
 6058SOL    HW119073   4.542   3.452   1.536
 6058SOL    HW219074   4.518   3.603   1.480
 6059SOL     OW19075   4.971   4.839   5.828
 6059SOL    HW119076   5.000   4.832   5.733
 6059SOL    HW219077   4.934   4.752   5.859
 6060SOL     OW19078   2.608   3.543   6.294
 6060SOL    HW119079   2.549   3.463   6.285
 6060SOL    HW219080   2.589   3.589   6.381
 6061SOL     OW19081   3.658   2.951   0.626
 6061SOL    HW119082   3.631   2.860   0.659
 6061SOL    HW219083   3.744   2.945   0.575
 6062SOL     OW19084   2.373   1.214   5.118
 6062SOL    HW119085   2.288   1.234   5.168
 6062SOL    HW219086   2.451   1.248   5.171
 6063SOL     OW19087   4.177   2.899   6.269
 6063SOL    HW119088   4.083   2.866   6.276
 6063SOL    HW219089   4.179   2.984   6.218
 6064SOL     OW19090   1.043   6.051   1.331
 6064SOL    HW119091   1.069   5.997   1.411
 6064SOL    HW219092   0.944   6.044   1.317
 6065SOL     OW19093   0.854   6.557   2.393
 6065SOL    HW119094   0.864   6.552   2.293
 6065SOL    HW219095   0.943   6.575   2.434
 6066SOL     OW19096   4.914   1.167   6.098
 6066SOL    HW119097   4.944   1.172   6.193
 6066SOL    HW219098   4.914   1.258   6.058
 6067SOL     OW19099   5.656   0.989   5.423
 6067SOL    HW119100   5.592   0.940   5.363
 6067SOL    HW219101   5.705   1.058   5.370
 6068SOL     OW19102   5.166   3.267   4.894
 6068SOL    HW119103   5.071   3.286   4.919
 6068SOL    HW219104   5.216   3.236   4.975
 6069SOL     OW19105   5.947   2.798   5.209
 6069SOL    HW119106   6.034   2.847   5.202
 6069SOL    HW219107   5.912   2.782   5.117
 6070SOL     OW19108   2.727   2.697   0.812
 6070SOL    HW119109   2.680   2.697   0.900
 6070SOL    HW219110   2.740   2.603   0.781
 6071SOL     OW19111   5.641   5.700   4.688
 6071SOL    HW119112   5.619   5.736   4.597
 6071SOL    HW219113   5.557   5.694   4.743
 6072SOL     OW19114   6.659   6.948   1.249
 6072SOL    HW119115   6.707   7.006   1.315
 6072SOL    HW219116   6.722   6.919   1.178
 6073SOL     OW19117   5.636   3.225   6.948
 6073SOL    HW119118   5.665   3.159   7.017
 6073SOL    HW219119   5.552   3.193   6.905
 6074SOL     OW19120   0.803   6.039   2.671
 6074SOL    HW119121   0.752   6.041   2.585
 6074SOL    HW219122   0.798   5.947   2.710
 6075SOL     OW19123   5.641   0.672   5.746
 6075SOL    HW119124   5.699   0.622   5.810
 6075SOL    HW219125   5.695   0.699   5.666
 6076SOL     OW19126   3.188   5.541   4.167
 6076SOL    HW119127   3.157   5.596   4.245
 6076SOL    HW219128   3.185   5.444   4.191
 6077SOL     OW19129   6.004   5.636   0.848
 6077SOL    HW119130   6.075   5.652   0.780
 6077SOL    HW219131   5.955   5.722   0.866
 6078SOL     OW19132   4.777   4.879   0.686
 6078SOL    HW119133   4.698   4.900   0.744
 6078SOL    HW219134   4.858   4.924   0.723
 6079SOL     OW19135   4.488   3.755   6.002
 6079SOL    HW119136   4.575   3.794   5.972
 6079SOL    HW219137   4.505   3.673   6.057
 6080SOL     OW19138   0.161   6.408   1.314
 6080SOL    HW119139   0.120   6.390   1.225
 6080SOL    HW219140   0.131   6.497   1.348
 6081SOL     OW19141   6.632   2.695   5.235
 6081SOL    HW119142   6.661   2.713   5.329
 6081SOL    HW219143   6.693   2.742   5.172
 6082SOL     OW19144   1.890   1.420   3.442
 6082SOL    HW119145   1.913   1.389   3.349
 6082SOL    HW219146   1.960   1.387   3.506
 6083SOL     OW19147   6.297   5.926   0.178
 6083SOL    HW119148   6.362   5.957   0.247
 6083SOL    HW219149   6.229   5.997   0.161
 6084SOL     OW19150   0.601   6.867   3.465
 6084SOL    HW119151   0.596   6.915   3.552
 6084SOL    HW219152   0.513   6.825   3.444
 6085SOL     OW19153   0.010   6.143   0.301
 6085SOL    HW119154   0.088   6.080   0.310
 6085SOL    HW219155   6.996   6.165   0.391
 6086SOL     OW19156   3.478   1.049   5.963
 6086SOL    HW119157   3.396   1.093   5.926
 6086SOL    HW219158   3.517   1.106   6.035
 6087SOL     OW19159   3.583   5.631   1.148
 6087SOL    HW119160   3.580   5.555   1.213
 6087SOL    HW219161   3.491   5.654   1.118
 6088SOL     OW19162   5.337   6.220   4.448
 6088SOL    HW119163   5.238   6.214   4.459
 6088SOL    HW219164   5.364   6.316   4.435
 6089SOL     OW19165   5.101   3.113   1.850
 6089SOL    HW119166   5.021   3.071   1.894
 6089SOL    HW219167   5.073   3.196   1.801
 6090SOL     OW19168   2.109   5.674   5.335
 6090SOL    HW119169   2.167   5.656   5.256
 6090SOL    HW219170   2.091   5.772   5.342
 6091SOL     OW19171   1.843   1.152   0.314
 6091SOL    HW119172   1.799   1.152   0.224
 6091SOL    HW219173   1.883   1.061   0.331
 6092SOL     OW19174   4.203   0.104   2.305
 6092SOL    HW119175   4.220   0.180   2.368
 6092SOL    HW219176   4.107   0.076   2.313
 6093SOL     OW19177   2.071   3.419   1.773
 6093SOL    HW119178   2.013   3.339   1.764
 6093SOL    HW219179   2.135   3.406   1.849
 6094SOL     OW19180   2.238   6.339   2.030
 6094SOL    HW119181   2.151   6.356   1.983
 6094SOL    HW219182   2.257   6.414   2.094
 6095SOL     OW19183   5.285   4.011   1.005
 6095SOL    HW119184   5.216   4.011   1.077
 6095SOL    HW219185   5.328   4.101   1.000
 6096SOL     OW19186   6.160   6.391   4.046
 6096SOL    HW119187   6.084   6.439   4.002
 6096SOL    HW219188   6.136   6.370   4.141
 6097SOL     OW19189   2.134   5.685   2.037
 6097SOL    HW119190   2.130   5.763   1.974
 6097SOL    HW219191   2.147   5.719   2.131
 6098SOL     OW19192   1.520   1.470   5.233
 6098SOL    HW119193   1.584   1.467   5.156
 6098SOL    HW219194   1.427   1.479   5.200
 6099SOL     OW19195   5.850   6.423   0.211
 6099SOL    HW119196   5.848   6.336   0.161
 6099SOL    HW219197   5.875   6.497   0.149
 6100SOL     OW19198   5.450   6.163   0.785
 6100SOL    HW119199   5.450   6.149   0.884
 6100SOL    HW219200   5.365   6.127   0.746
 6101SOL     OW19201   6.356   3.310   3.989
 6101SOL    HW119202   6.299   3.345   3.915
 6101SOL    HW219203   6.430   3.374   4.008
 6102SOL     OW19204   3.218   6.412   2.923
 6102SOL    HW119205   3.284   6.453   2.986
 6102SOL    HW219206   3.267   6.355   2.857
 6103SOL     OW19207   6.667   1.918   1.471
 6103SOL    HW119208   6.589   1.888   1.416
 6103SOL    HW219209   6.652   1.893   1.567
 6104SOL     OW19210   6.100   0.756   5.486
 6104SOL    HW119211   6.143   0.836   5.526
 6104SOL    HW219212   6.168   0.703   5.435
 6105SOL     OW19213   3.396   6.537   0.086
 6105SOL    HW119214   3.300   6.512   0.094
 6105SOL    HW219215   3.408   6.634   0.108
 6106SOL     OW19216   1.578   3.737   6.672
 6106SOL    HW119217   1.520   3.814   6.699
 6106SOL    HW219218   1.668   3.770   6.646
 6107SOL     OW19219   4.119   5.551   4.389
 6107SOL    HW119220   4.159   5.631   4.435
 6107SOL    HW219221   4.025   5.538   4.421
 6108SOL     OW19222   1.902   3.163   1.864
 6108SOL    HW119223   1.995   3.126   1.866
 6108SOL    HW219224   1.837   3.088   1.849
 6109SOL     OW19225   5.835   2.007   5.142
 6109SOL    HW119226   5.850   1.910   5.161
 6109SOL    HW219227   5.859   2.027   5.047
 6110SOL     OW19228   3.744   4.166   0.588
 6110SOL    HW119229   3.754   4.124   0.498
 6110SOL    HW219230   3.742   4.265   0.578
 6111SOL     OW19231   1.944   4.119   2.478
 6111SOL    HW119232   1.881   4.083   2.409
 6111SOL    HW219233   1.899   4.122   2.567
 6112SOL     OW19234   3.635   0.210   2.283
 6112SOL    HW119235   3.662   0.134   2.224
 6112SOL    HW219236   3.647   0.296   2.233
 6113SOL     OW19237   2.718   1.041   6.719
 6113SOL    HW119238   2.661   0.997   6.789
 6113SOL    HW219239   2.692   1.007   6.629
 6114SOL     OW19240   5.406   4.835   1.634
 6114SOL    HW119241   5.420   4.897   1.711
 6114SOL    HW219242   5.315   4.793   1.640
 6115SOL     OW19243   5.467   7.021   4.295
 6115SOL    HW119244   5.429   0.070   4.355
 6115SOL    HW219245   5.527   0.042   4.227
 6116SOL     OW19246   3.886   1.454   6.126
 6116SOL    HW119247   3.946   1.386   6.084
 6116SOL    HW219248   3.855   1.420   6.215
 6117SOL     OW19249   1.555   1.149   3.442
 6117SOL    HW119250   1.620   1.184   3.374
 6117SOL    HW219251   1.515   1.064   3.408
 6118SOL     OW19252   0.027   0.873   2.073
 6118SOL    HW119253   0.122   0.904   2.067
 6118SOL    HW219254   6.988   0.953   2.073
 6119SOL     OW19255   0.626   3.892   6.623
 6119SOL    HW119256   0.565   3.885   6.543
 6119SOL    HW219257   0.636   3.989   6.648
 6120SOL     OW19258   3.373   6.351   5.060
 6120SOL    HW119259   3.460   6.338   5.109
 6120SOL    HW219260   3.299   6.363   5.127
 6121SOL     OW19261   0.464   3.520   5.674
 6121SOL    HW119262   0.559   3.516   5.643
 6121SOL    HW219263   0.407   3.564   5.604
 6122SOL     OW19264   4.229   5.440   0.495
 6122SOL    HW119265   4.170   5.424   0.575
 6122SOL    HW219266   4.274   5.354   0.470
 6123SOL     OW19267   5.217   6.878   6.764
 6123SOL    HW119268   5.120   6.880   6.788
 6123SOL    HW219269   5.228   6.907   6.669
 6124SOL     OW19270   2.164   6.977   5.900
 6124SOL    HW119271   2.187   6.972   5.802
 6124SOL    HW219272   2.141   0.051   5.923
 6125SOL     OW19273   2.126   4.773   0.380
 6125SOL    HW119274   2.027   4.778   0.391
 6125SOL    HW219275   2.153   4.678   0.363
 6126SOL     OW19276   1.058   6.873   4.354
 6126SOL    HW119277   1.028   6.964   4.385
 6126SOL    HW219278   1.001   6.803   4.398
 6127SOL     OW19279   3.205   0.428   0.839
 6127SOL    HW119280   3.222   0.493   0.765
 6127SOL    HW219281   3.113   0.390   0.831
 6128SOL     OW19282   5.534   3.898   0.186
 6128SOL    HW119283   5.626   3.895   0.226
 6128SOL    HW219284   5.467   3.912   0.259
 6129SOL     OW19285   7.014   3.406   3.126
 6129SOL    HW119286   6.967   3.484   3.168
 6129SOL    HW219287   0.073   3.383   3.179
 6130SOL     OW19288   5.819   2.383   2.653
 6130SOL    HW119289   5.742   2.385   2.589
 6130SOL    HW219290   5.827   2.472   2.697
 6131SOL     OW19291   0.288   1.435   5.309
 6131SOL    HW119292   0.333   1.362   5.362
 6131SOL    HW219293   0.219   1.394   5.250
 6132SOL     OW19294   4.786   1.960   0.280
 6132SOL    HW119295   4.869   2.002   0.317
 6132SOL    HW219296   4.806   1.915   0.194
 6133SOL     OW19297   1.672   3.228   2.029
 6133SOL    HW119298   1.748   3.230   1.964
 6133SOL    HW219299   1.690   3.160   2.100
 6134SOL     OW19300   3.928   4.868   6.470
 6134SOL    HW119301   3.895   4.874   6.564
 6134SOL    HW219302   3.972   4.955   6.445
 6135SOL     OW19303   0.455   0.738   1.082
 6135SOL    HW119304   0.534   0.747   1.143
 6135SOL    HW219305   0.454   0.814   1.017
 6136SOL     OW19306   1.276   3.135   2.143
 6136SOL    HW119307   1.233   3.078   2.214
 6136SOL    HW219308   1.299   3.224   2.182
 6137SOL     OW19309   6.625   3.113   3.009
 6137SOL    HW119310   6.696   3.181   2.991
 6137SOL    HW219311   6.663   3.022   2.998
 6138SOL     OW19312   3.629   6.405   2.914
 6138SOL    HW119313   3.637   6.382   2.817
 6138SOL    HW219314   3.653   6.325   2.969
 6139SOL     OW19315   1.716   6.835   6.149
 6139SOL    HW119316   1.675   6.867   6.234
 6139SOL    HW219317   1.784   6.901   6.117
 6140SOL     OW19318   0.767   6.130   1.934
 6140SOL    HW119319   0.824   6.198   1.888
 6140SOL    HW219320   0.738   6.061   1.867
 6141SOL     OW19321   0.262   6.656   6.789
 6141SOL    HW119322   0.320   6.679   6.711
 6141SOL    HW219323   0.187   6.597   6.759
 6142SOL     OW19324   1.153   6.629   6.992
 6142SOL    HW119325   1.215   6.642   0.048
 6142SOL    HW219326   1.142   6.532   6.974
 6143SOL     OW19327   6.962   3.602   1.496
 6143SOL    HW119328   6.909   3.682   1.523
 6143SOL    HW219329   0.024   3.597   1.551
 6144SOL     OW19330   5.396   4.565   3.043
 6144SOL    HW119331   5.322   4.631   3.037
 6144SOL    HW219332   5.364   4.476   3.011
 6145SOL     OW19333   4.859   5.208   3.105
 6145SOL    HW119334   4.928   5.246   3.168
 6145SOL    HW219335   4.769   5.246   3.127
 6146SOL     OW19336   3.262   5.931   3.992
 6146SOL    HW119337   3.251   5.977   4.079
 6146SOL    HW219338   3.329   5.857   4.002
 6147SOL     OW19339   2.239   2.107   4.636
 6147SOL    HW119340   2.208   2.135   4.546
 6147SOL    HW219341   2.301   2.177   4.673
 6148SOL     OW19342   5.391   6.542   4.951
 6148SOL    HW119343   5.404   6.458   4.898
 6148SOL    HW219344   5.470   6.555   5.011
 6149SOL     OW19345   2.491   6.080   1.274
 6149SOL    HW119346   2.477   6.173   1.308
 6149SOL    HW219347   2.408   6.026   1.291
 6150SOL     OW19348   4.472   5.430   6.737
 6150SOL    HW119349   4.379   5.465   6.725
 6150SOL    HW219350   4.511   5.406   6.648
 6151SOL     OW19351   6.171   4.351   6.103
 6151SOL    HW119352   6.194   4.436   6.056
 6151SOL    HW219353   6.206   4.354   6.197
 6152SOL     OW19354   6.360   4.978   4.538
 6152SOL    HW119355   6.339   5.074   4.552
 6152SOL    HW219356   6.421   4.968   4.459
 6153SOL     OW19357   4.928   4.244   1.435
 6153SOL    HW119358   4.999   4.262   1.503
 6153SOL    HW219359   4.924   4.319   1.370
 6154SOL     OW19360   5.624   2.245   2.806
 6154SOL    HW119361   5.633   2.157   2.853
 6154SOL    HW219362   5.714   2.278   2.779
 6155SOL     OW19363   1.782   1.672   3.866
 6155SOL    HW119364   1.843   1.675   3.945
 6155SOL    HW219365   1.765   1.577   3.840
 6156SOL     OW19366   4.031   3.991   1.335
 6156SOL    HW119367   4.030   4.087   1.307
 6156SOL    HW219368   4.014   3.985   1.434
 6157SOL     OW19369   0.120   1.081   4.678
 6157SOL    HW119370   0.194   1.131   4.721
 6157SOL    HW219371   0.106   0.994   4.726
 6158SOL     OW19372   3.447   2.277   5.693
 6158SOL    HW119373   3.474   2.263   5.789
 6158SOL    HW219374   3.485   2.204   5.637
 6159SOL     OW19375   5.407   2.792   2.240
 6159SOL    HW119376   5.376   2.837   2.157
 6159SOL    HW219377   5.429   2.696   2.221
 6160SOL     OW19378   5.032   1.636   6.570
 6160SOL    HW119379   5.131   1.637   6.585
 6160SOL    HW219380   5.010   1.697   6.494
 6161SOL     OW19381   4.630   1.198   4.976
 6161SOL    HW119382   4.669   1.249   5.054
 6161SOL    HW219383   4.532   1.215   4.972
 6162SOL     OW19384   0.582   5.980   3.287
 6162SOL    HW119385   0.599   5.924   3.206
 6162SOL    HW219386   0.558   6.073   3.259
 6163SOL     OW19387   6.465   6.805   1.013
 6163SOL    HW119388   6.456   6.884   1.074
 6163SOL    HW219389   6.556   6.805   0.972
 6164SOL     OW19390   4.098   3.808   2.143
 6164SOL    HW119391   4.122   3.803   2.046
 6164SOL    HW219392   4.131   3.725   2.190
 6165SOL     OW19393   4.956   1.564   0.025
 6165SOL    HW119394   4.914   1.473   0.029
 6165SOL    HW219395   4.952   1.598   6.952
 6166SOL     OW19396   5.581   1.589   6.645
 6166SOL    HW119397   5.677   1.590   6.616
 6166SOL    HW219398   5.575   1.551   6.737
 6167SOL     OW19399   1.194   5.587   3.235
 6167SOL    HW119400   1.197   5.534   3.150
 6167SOL    HW219401   1.106   5.575   3.279
 6168SOL     OW19402   1.877   4.020   2.004
 6168SOL    HW119403   1.956   3.966   1.977
 6168SOL    HW219404   1.855   4.086   1.931
 6169SOL     OW19405   0.756   2.273   0.376
 6169SOL    HW119406   0.803   2.245   0.460
 6169SOL    HW219407   0.822   2.306   0.310
 6170SOL     OW19408   1.566   3.924   5.328
 6170SOL    HW119409   1.539   4.016   5.300
 6170SOL    HW219410   1.596   3.925   5.423
 6171SOL     OW19411   0.611   3.006   0.534
 6171SOL    HW119412   0.589   3.048   0.446
 6171SOL    HW219413   0.694   2.950   0.524
 6172SOL     OW19414   1.670   2.897   2.423
 6172SOL    HW119415   1.736   2.823   2.429
 6172SOL    HW219416   1.646   2.913   2.328
 6173SOL     OW19417   6.832   5.509   1.997
 6173SOL    HW119418   6.897   5.469   1.933
 6173SOL    HW219419   6.830   5.455   2.081
 6174SOL     OW19420   5.769   4.744   3.726
 6174SOL    HW119421   5.750   4.652   3.692
 6174SOL    HW219422   5.745   4.811   3.656
 6175SOL     OW19423   4.580   0.540   3.708
 6175SOL    HW119424   4.578   0.466   3.775
 6175SOL    HW219425   4.556   0.504   3.618
 6176SOL     OW19426   4.980   4.030   6.225
 6176SOL    HW119427   4.967   4.123   6.260
 6176SOL    HW219428   4.904   3.972   6.255
 6177SOL     OW19429   5.587   0.898   1.088
 6177SOL    HW119430   5.586   0.976   1.026
 6177SOL    HW219431   5.573   0.929   1.182
 6178SOL     OW19432   4.693   5.023   2.637
 6178SOL    HW119433   4.682   5.029   2.538
 6178SOL    HW219434   4.788   5.002   2.659
 6179SOL     OW19435   6.738   4.224   3.307
 6179SOL    HW119436   6.752   4.274   3.392
 6179SOL    HW219437   6.776   4.132   3.315
 6180SOL     OW19438   3.506   4.499   0.199
 6180SOL    HW119439   3.487   4.492   0.101
 6180SOL    HW219440   3.529   4.408   0.236
 6181SOL     OW19441   4.288   6.901   1.138
 6181SOL    HW119442   4.310   6.804   1.147
 6181SOL    HW219443   4.243   6.933   1.222
 6182SOL     OW19444   5.370   3.497   5.307
 6182SOL    HW119445   5.365   3.581   5.254
 6182SOL    HW219446   5.438   3.435   5.266
 6183SOL     OW19447   1.219   2.290   3.044
 6183SOL    HW119448   1.276   2.370   3.060
 6183SOL    HW219449   1.269   2.208   3.071
 6184SOL     OW19450   2.069   0.050   6.774
 6184SOL    HW119451   2.079   0.061   6.675
 6184SOL    HW219452   2.029   6.983   6.794
 6185SOL     OW19453   0.728   3.828   5.767
 6185SOL    HW119454   0.683   3.753   5.814
 6185SOL    HW219455   0.779   3.793   5.688
 6186SOL     OW19456   0.417   0.209   0.046
 6186SOL    HW119457   0.387   0.199   0.141
 6186SOL    HW219458   0.444   0.304   0.029
 6187SOL     OW19459   4.820   4.685   3.705
 6187SOL    HW119460   4.769   4.630   3.638
 6187SOL    HW219461   4.869   4.758   3.658
 6188SOL     OW19462   2.137   1.063   0.649
 6188SOL    HW119463   2.220   1.103   0.687
 6188SOL    HW219464   2.060   1.124   0.664
 6189SOL     OW19465   4.596   4.448   3.228
 6189SOL    HW119466   4.634   4.497   3.150
 6189SOL    HW219467   4.501   4.477   3.244
 6190SOL     OW19468   0.982   4.199   5.584
 6190SOL    HW119469   0.966   4.290   5.622
 6190SOL    HW219470   1.075   4.169   5.608
 6191SOL     OW19471   3.039   1.769   0.019
 6191SOL    HW119472   3.014   1.865   0.004
 6191SOL    HW219473   2.957   1.717   0.043
 6192SOL     OW19474   3.549   2.625   5.592
 6192SOL    HW119475   3.450   2.635   5.603
 6192SOL    HW219476   3.570   2.584   5.503
 6193SOL     OW19477   4.983   0.687   2.142
 6193SOL    HW119478   4.939   0.741   2.070
 6193SOL    HW219479   4.916   0.667   2.214
 6194SOL     OW19480   1.397   6.974   1.877
 6194SOL    HW119481   1.485   6.979   1.830
 6194SOL    HW219482   1.400   0.009   1.959
 6195SOL     OW19483   3.748   6.303   5.883
 6195SOL    HW119484   3.791   6.213   5.880
 6195SOL    HW219485   3.661   6.301   5.834
 6196SOL     OW19486   5.717   2.996   1.437
 6196SOL    HW119487   5.747   3.091   1.426
 6196SOL    HW219488   5.676   2.964   1.352
 6197SOL     OW19489   3.929   4.766   1.066
 6197SOL    HW119490   4.028   4.783   1.068
 6197SOL    HW219491   3.899   4.760   0.971
 6198SOL     OW19492   3.998   6.299   2.183
 6198SOL    HW119493   3.997   6.398   2.168
 6198SOL    HW219494   4.004   6.279   2.280
 6199SOL     OW19495   0.809   1.049   0.395
 6199SOL    HW119496   0.875   1.000   0.452
 6199SOL    HW219497   0.835   1.146   0.391
 6200SOL     OW19498   1.475   1.453   5.964
 6200SOL    HW119499   1.483   1.422   6.059
 6200SOL    HW219500   1.539   1.529   5.949
 6201SOL     OW19501   0.838   3.867   4.978
 6201SOL    HW119502   0.899   3.946   4.983
 6201SOL    HW219503   0.889   3.787   4.946
 6202SOL     OW19504   3.654   1.586   2.075
 6202SOL    HW119505   3.689   1.601   2.167
 6202SOL    HW219506   3.606   1.498   2.072
 6203SOL     OW19507   0.044   6.220   2.654
 6203SOL    HW119508   0.066   6.123   2.646
 6203SOL    HW219509   0.119   6.274   2.616
 6204SOL     OW19510   0.731   4.794   4.728
 6204SOL    HW119511   0.778   4.736   4.661
 6204SOL    HW219512   0.797   4.859   4.767
 6205SOL     OW19513   6.413   5.716   0.029
 6205SOL    HW119514   6.357   5.633   0.031
 6205SOL    HW219515   6.359   5.794   0.061
 6206SOL     OW19516   6.133   1.826   3.590
 6206SOL    HW119517   6.145   1.823   3.491
 6206SOL    HW219518   6.103   1.737   3.623
 6207SOL     OW19519   0.527   4.867   5.056
 6207SOL    HW119520   0.541   4.909   5.146
 6207SOL    HW219521   0.444   4.811   5.059
 6208SOL     OW19522   5.365   2.387   5.987
 6208SOL    HW119523   5.294   2.458   5.986
 6208SOL    HW219524   5.358   2.331   5.905
 6209SOL     OW19525   4.166   5.780   6.579
 6209SOL    HW119526   4.232   5.855   6.594
 6209SOL    HW219527   4.081   5.801   6.627
 6210SOL     OW19528   5.473   3.400   3.669
 6210SOL    HW119529   5.452   3.398   3.571
 6210SOL    HW219530   5.390   3.422   3.720
 6211SOL     OW19531   3.020   6.562   5.554
 6211SOL    HW119532   3.044   6.624   5.628
 6211SOL    HW219533   2.943   6.504   5.581
 6212SOL     OW19534   2.248   5.261   4.389
 6212SOL    HW119535   2.255   5.348   4.437
 6212SOL    HW219536   2.318   5.198   4.422
 6213SOL     OW19537   6.481   0.419   0.514
 6213SOL    HW119538   6.522   0.447   0.601
 6213SOL    HW219539   6.524   0.469   0.439
 6214SOL     OW19540   4.654   4.914   4.292
 6214SOL    HW119541   4.619   4.997   4.336
 6214SOL    HW219542   4.637   4.835   4.352
 6215SOL     OW19543   4.053   2.007   0.582
 6215SOL    HW119544   4.128   2.062   0.548
 6215SOL    HW219545   4.074   1.910   0.569
 6216SOL     OW19546   6.272   1.482   2.223
 6216SOL    HW119547   6.296   1.488   2.320
 6216SOL    HW219548   6.191   1.425   2.212
 6217SOL     OW19549   0.393   3.564   2.626
 6217SOL    HW119550   0.467   3.628   2.650
 6217SOL    HW219551   0.414   3.474   2.663
 6218SOL     OW19552   3.905   6.082   6.854
 6218SOL    HW119553   3.939   5.998   6.810
 6218SOL    HW219554   3.933   6.161   6.800
 6219SOL     OW19555   1.666   2.201   4.687
 6219SOL    HW119556   1.598   2.257   4.640
 6219SOL    HW219557   1.715   2.257   4.753
 6220SOL     OW19558   2.491   1.528   4.345
 6220SOL    HW119559   2.501   1.608   4.286
 6220SOL    HW219560   2.417   1.470   4.311
 6221SOL     OW19561   5.796   5.868   6.993
 6221SOL    HW119562   5.842   5.875   0.060
 6221SOL    HW219563   5.862   5.886   6.919
 6222SOL     OW19564   1.036   6.209   1.724
 6222SOL    HW119565   0.962   6.269   1.752
 6222SOL    HW219566   1.122   6.239   1.766
 6223SOL     OW19567   1.171   4.989   3.887
 6223SOL    HW119568   1.217   4.959   3.970
 6223SOL    HW219569   1.107   4.918   3.857
 6224SOL     OW19570   2.960   1.632   5.940
 6224SOL    HW119571   2.981   1.628   6.038
 6224SOL    HW219572   2.954   1.539   5.904
 6225SOL     OW19573   4.059   3.582   6.857
 6225SOL    HW119574   4.127   3.550   6.792
 6225SOL    HW219575   4.046   3.513   6.928
 6226SOL     OW19576   0.206   1.802   5.757
 6226SOL    HW119577   0.288   1.859   5.748
 6226SOL    HW219578   0.207   1.731   5.687
 6227SOL     OW19579   3.080   5.555   5.046
 6227SOL    HW119580   3.134   5.473   5.063
 6227SOL    HW219581   3.130   5.615   4.983
 6228SOL     OW19582   1.392   3.353   2.236
 6228SOL    HW119583   1.470   3.291   2.245
 6228SOL    HW219584   1.400   3.427   2.302
 6229SOL     OW19585   0.736   2.221   3.407
 6229SOL    HW119586   0.778   2.160   3.474
 6229SOL    HW219587   0.644   2.244   3.436
 6230SOL     OW19588   0.548   1.839   3.354
 6230SOL    HW119589   0.519   1.923   3.399
 6230SOL    HW219590   0.566   1.856   3.258
 6231SOL     OW19591   6.208   6.220   0.474
 6231SOL    HW119592   6.164   6.271   0.548
 6231SOL    HW219593   6.215   6.123   0.500
 6232SOL     OW19594   6.732   1.118   0.656
 6232SOL    HW119595   6.760   1.103   0.561
 6232SOL    HW219596   6.806   1.091   0.717
 6233SOL     OW19597   6.912   1.779   1.081
 6233SOL    HW119598   6.955   1.840   1.147
 6233SOL    HW219599   6.961   1.693   1.077
 6234SOL     OW19600   6.785   0.996   5.537
 6234SOL    HW119601   6.846   0.918   5.553
 6234SOL    HW219602   6.802   1.066   5.606
 6235SOL     OW19603   0.088   6.762   1.003
 6235SOL    HW119604   0.129   6.673   1.024
 6235SOL    HW219605   0.105   6.825   1.078
 6236SOL     OW19606   1.004   3.912   1.037
 6236SOL    HW119607   1.073   3.962   1.090
 6236SOL    HW219608   0.922   3.968   1.029
 6237SOL     OW19609   3.741   0.448   6.404
 6237SOL    HW119610   3.782   0.493   6.483
 6237SOL    HW219611   3.663   0.502   6.372
 6238SOL     OW19612   3.782   5.083   2.861
 6238SOL    HW119613   3.821   5.075   2.770
 6238SOL    HW219614   3.793   5.177   2.894
 6239SOL     OW19615   2.821   0.947   1.666
 6239SOL    HW119616   2.869   0.986   1.588
 6239SOL    HW219617   2.745   0.891   1.635
 6240SOL     OW19618   2.070   3.555   5.772
 6240SOL    HW119619   2.046   3.482   5.709
 6240SOL    HW219620   2.150   3.604   5.737
 6241SOL     OW19621   3.064   0.048   1.423
 6241SOL    HW119622   2.982   0.055   1.367
 6241SOL    HW219623   3.043   7.021   1.508
 6242SOL     OW19624   4.352   0.700   4.204
 6242SOL    HW119625   4.270   0.684   4.149
 6242SOL    HW219626   4.347   0.645   4.288
 6243SOL     OW19627   6.440   6.816   5.059
 6243SOL    HW119628   6.470   6.764   4.980
 6243SOL    HW219629   6.361   6.873   5.034
 6244SOL     OW19630   6.228   2.662   2.424
 6244SOL    HW119631   6.297   2.618   2.367
 6244SOL    HW219632   6.274   2.718   2.494
 6245SOL     OW19633   1.678   4.158   0.357
 6245SOL    HW119634   1.592   4.166   0.306
 6245SOL    HW219635   1.746   4.109   0.302
 6246SOL     OW19636   1.606   2.264   5.538
 6246SOL    HW119637   1.641   2.351   5.503
 6246SOL    HW219638   1.621   2.259   5.637
 6247SOL     OW19639   0.279   5.333   4.335
 6247SOL    HW119640   0.373   5.363   4.319
 6247SOL    HW219641   0.230   5.329   4.248
 6248SOL     OW19642   3.353   3.307   6.890
 6248SOL    HW119643   3.419   3.338   6.822
 6248SOL    HW219644   3.389   3.226   6.937
 6249SOL     OW19645   6.913   4.123   0.589
 6249SOL    HW119646   7.010   4.127   0.562
 6249SOL    HW219647   6.907   4.111   0.688
 6250SOL     OW19648   6.669   0.348   0.046
 6250SOL    HW119649   6.729   0.397   7.005
 6250SOL    HW219650   6.722   0.315   0.124
 6251SOL     OW19651   3.693   5.992   6.232
 6251SOL    HW119652   3.737   5.922   6.176
 6251SOL    HW219653   3.710   6.082   6.193
 6252SOL     OW19654   2.218   6.132   5.574
 6252SOL    HW119655   2.304   6.184   5.579
 6252SOL    HW219656   2.238   6.034   5.571
 6253SOL     OW19657   2.228   5.039   3.903
 6253SOL    HW119658   2.291   5.095   3.958
 6253SOL    HW219659   2.241   5.061   3.806
 6254SOL     OW19660   5.692   1.351   1.502
 6254SOL    HW119661   5.613   1.408   1.479
 6254SOL    HW219662   5.660   1.266   1.544
 6255SOL     OW19663   3.216   0.586   0.590
 6255SOL    HW119664   3.264   0.671   0.610
 6255SOL    HW219665   3.159   0.599   0.509
 6256SOL     OW19666   3.626   5.354   1.619
 6256SOL    HW119667   3.711   5.377   1.666
 6256SOL    HW219668   3.634   5.261   1.581
 6257SOL     OW19669   4.890   2.031   0.844
 6257SOL    HW119670   4.819   1.962   0.848
 6257SOL    HW219671   4.908   2.057   0.749
 6258SOL     OW19672   3.594   0.738   3.443
 6258SOL    HW119673   3.534   0.796   3.497
 6258SOL    HW219674   3.549   0.650   3.426
 6259SOL     OW19675   1.746   2.650   6.973
 6259SOL    HW119676   1.730   2.681   0.046
 6259SOL    HW219677   1.741   2.728   6.911
 6260SOL     OW19678   3.387   5.646   0.321
 6260SOL    HW119679   3.469   5.687   0.281
 6260SOL    HW219680   3.390   5.654   0.421
 6261SOL     OW19681   3.923   1.367   7.020
 6261SOL    HW119682   3.854   1.439   7.009
 6261SOL    HW219683   3.893   1.285   6.972
 6262SOL     OW19684   2.441   6.295   1.839
 6262SOL    HW119685   2.373   6.298   1.913
 6262SOL    HW219686   2.480   6.203   1.834
 6263SOL     OW19687   7.020   0.556   4.707
 6263SOL    HW119688   0.079   0.519   4.754
 6263SOL    HW219689   0.014   0.554   4.608
 6264SOL     OW19690   1.725   0.228   1.912
 6264SOL    HW119691   1.744   0.141   1.866
 6264SOL    HW219692   1.744   0.218   2.010
 6265SOL     OW19693   3.834   3.311   0.481
 6265SOL    HW119694   3.748   3.287   0.526
 6265SOL    HW219695   3.816   3.371   0.404
 6266SOL     OW19696   4.055   0.667   4.134
 6266SOL    HW119697   4.048   0.644   4.037
 6266SOL    HW219698   4.000   0.748   4.153
 6267SOL     OW19699   2.503   0.115   5.912
 6267SOL    HW119700   2.437   0.055   5.866
 6267SOL    HW219701   2.510   0.089   6.008
 6268SOL     OW19702   2.754   0.229   3.199
 6268SOL    HW119703   2.839   0.176   3.191
 6268SOL    HW219704   2.775   0.326   3.193
 6269SOL     OW19705   0.400   6.655   1.904
 6269SOL    HW119706   0.322   6.626   1.960
 6269SOL    HW219707   0.430   6.746   1.934
 6270SOL     OW19708   1.660   0.194   6.173
 6270SOL    HW119709   1.696   0.261   6.238
 6270SOL    HW219710   1.587   0.141   6.215
 6271SOL     OW19711   6.253   2.307   6.467
 6271SOL    HW119712   6.273   2.306   6.369
 6271SOL    HW219713   6.336   2.289   6.519
 6272SOL     OW19714   0.826   2.741   0.085
 6272SOL    HW119715   0.780   2.670   0.032
 6272SOL    HW219716   0.811   2.725   0.183
 6273SOL     OW19717   0.747   6.315   2.833
 6273SOL    HW119718   0.773   6.221   2.811
 6273SOL    HW219719   0.649   6.319   2.852
 6274SOL     OW19720   3.479   6.236   5.782
 6274SOL    HW119721   3.526   6.152   5.755
 6274SOL    HW219722   3.384   6.233   5.751
 6275SOL     OW19723   2.483   6.609   6.544
 6275SOL    HW119724   2.463   6.594   6.447
 6275SOL    HW219725   2.440   6.536   6.598
 6276SOL     OW19726   2.100   4.414   3.767
 6276SOL    HW119727   2.156   4.471   3.706
 6276SOL    HW219728   2.081   4.465   3.851
 6277SOL     OW19729   4.784   3.219   1.043
 6277SOL    HW119730   4.812   3.129   1.009
 6277SOL    HW219731   4.833   3.239   1.128
 6278SOL     OW19732   5.672   6.928   4.680
 6278SOL    HW119733   5.676   6.857   4.609
 6278SOL    HW219734   5.764   6.966   4.693
 6279SOL     OW19735   4.019   6.448   6.866
 6279SOL    HW119736   3.957   6.516   6.826
 6279SOL    HW219737   4.038   6.376   6.799
 6280SOL     OW19738   1.133   1.974   5.065
 6280SOL    HW119739   1.215   1.940   5.111
 6280SOL    HW219740   1.052   1.946   5.116
 6281SOL     OW19741   0.176   4.812   4.435
 6281SOL    HW119742   0.258   4.825   4.380
 6281SOL    HW219743   0.114   4.750   4.387
 6282SOL     OW19744   0.131   5.707   5.998
 6282SOL    HW119745   0.099   5.667   5.912
 6282SOL    HW219746   0.204   5.651   6.036
 6283SOL     OW19747   6.975   3.376   5.083
 6283SOL    HW119748   0.002   3.290   5.071
 6283SOL    HW219749   7.000   3.418   5.170
 6284SOL     OW19750   0.763   5.243   4.743
 6284SOL    HW119751   0.769   5.216   4.839
 6284SOL    HW219752   0.667   5.256   4.718
 6285SOL     OW19753   0.296   3.329   4.580
 6285SOL    HW119754   0.307   3.414   4.530
 6285SOL    HW219755   0.208   3.329   4.628
 6286SOL     OW19756   6.056   1.550   4.239
 6286SOL    HW119757   6.134   1.495   4.270
 6286SOL    HW219758   6.063   1.565   4.141
 6287SOL     OW19759   3.508   4.925   5.049
 6287SOL    HW119760   3.442   4.868   5.098
 6287SOL    HW219761   3.460   4.984   4.984
 6288SOL     OW19762   5.163   4.555   2.452
 6288SOL    HW119763   5.229   4.492   2.492
 6288SOL    HW219764   5.147   4.631   2.515
 6289SOL     OW19765   1.871   4.843   0.782
 6289SOL    HW119766   1.883   4.940   0.762
 6289SOL    HW219767   1.961   4.802   0.802
 6290SOL     OW19768   6.478   5.201   5.950
 6290SOL    HW119769   6.567   5.222   5.908
 6290SOL    HW219770   6.467   5.257   6.032
 6291SOL     OW19771   4.100   3.442   4.194
 6291SOL    HW119772   4.036   3.369   4.169
 6291SOL    HW219773   4.166   3.407   4.260
 6292SOL     OW19774   1.582   1.999   4.822
 6292SOL    HW119775   1.550   2.038   4.908
 6292SOL    HW219776   1.605   2.072   4.758
 6293SOL     OW19777   4.383   1.038   0.696
 6293SOL    HW119778   4.420   1.044   0.603
 6293SOL    HW219779   4.289   1.075   0.696
 6294SOL     OW19780   3.546   6.465   4.151
 6294SOL    HW119781   3.604   6.489   4.073
 6294SOL    HW219782   3.452   6.493   4.132
 6295SOL     OW19783   5.845   4.481   5.502
 6295SOL    HW119784   5.871   4.396   5.548
 6295SOL    HW219785   5.761   4.468   5.450
 6296SOL     OW19786   0.531   6.197   5.979
 6296SOL    HW119787   0.617   6.240   5.948
 6296SOL    HW219788   0.543   6.164   6.072
 6297SOL     OW19789   5.484   0.869   4.494
 6297SOL    HW119790   5.540   0.933   4.547
 6297SOL    HW219791   5.443   0.802   4.556
 6298SOL     OW19792   1.676   3.582   6.883
 6298SOL    HW119793   1.749   3.641   6.917
 6298SOL    HW219794   1.628   3.629   6.808
 6299SOL     OW19795   6.075   2.068   0.926
 6299SOL    HW119796   6.061   2.016   1.010
 6299SOL    HW219797   5.987   2.083   0.881
 6300SOL     OW19798   6.304   1.200   0.158
 6300SOL    HW119799   6.273   1.252   0.079
 6300SOL    HW219800   6.323   1.263   0.234
 6301SOL     OW19801   4.094   6.834   0.527
 6301SOL    HW119802   4.148   6.915   0.551
 6301SOL    HW219803   4.155   6.755   0.515
 6302SOL     OW19804   1.333   0.502   3.638
 6302SOL    HW119805   1.364   0.416   3.597
 6302SOL    HW219806   1.406   0.539   3.696
 6303SOL     OW19807   1.872   1.149   3.769
 6303SOL    HW119808   1.862   1.180   3.863
 6303SOL    HW219809   1.955   1.094   3.760
 6304SOL     OW19810   2.532   1.494   1.236
 6304SOL    HW119811   2.584   1.509   1.152
 6304SOL    HW219812   2.578   1.424   1.292
 6305SOL     OW19813   6.361   6.820   0.725
 6305SOL    HW119814   6.265   6.812   0.751
 6305SOL    HW219815   6.417   6.826   0.807
 6306SOL     OW19816   0.365   4.328   4.337
 6306SOL    HW119817   0.395   4.251   4.280
 6306SOL    HW219818   0.423   4.407   4.319
 6307SOL     OW19819   3.516   4.193   4.774
 6307SOL    HW119820   3.587   4.123   4.779
 6307SOL    HW219821   3.520   4.251   4.855
 6308SOL     OW19822   2.297   1.842   4.532
 6308SOL    HW119823   2.269   1.937   4.519
 6308SOL    HW219824   2.265   1.809   4.620
 6309SOL     OW19825   6.001   4.648   5.361
 6309SOL    HW119826   5.989   4.747   5.370
 6309SOL    HW219827   5.943   4.601   5.428
 6310SOL     OW19828   2.514   6.022   3.030
 6310SOL    HW119829   2.474   6.110   3.055
 6310SOL    HW219830   2.466   5.984   2.951
 6311SOL     OW19831   5.088   1.331   5.795
 6311SOL    HW119832   5.152   1.262   5.829
 6311SOL    HW219833   5.135   1.419   5.789
 6312SOL     OW19834   6.678   6.639   5.549
 6312SOL    HW119835   6.637   6.683   5.470
 6312SOL    HW219836   6.719   6.709   5.608
 6313SOL     OW19837   6.723   5.941   4.373
 6313SOL    HW119838   6.667   5.859   4.373
 6313SOL    HW219839   6.731   5.976   4.279
 6314SOL     OW19840   3.884   6.848   1.473
 6314SOL    HW119841   3.859   6.796   1.392
 6314SOL    HW219842   3.909   6.786   1.547
 6315SOL     OW19843   2.000   2.749   5.375
 6315SOL    HW119844   2.062   2.676   5.403
 6315SOL    HW219845   2.052   2.822   5.331
 6316SOL     OW19846   5.217   2.061   6.871
 6316SOL    HW119847   5.207   1.965   6.899
 6316SOL    HW219848   5.297   2.069   6.811
 6317SOL     OW19849   4.490   5.084   1.434
 6317SOL    HW119850   4.445   5.022   1.499
 6317SOL    HW219851   4.450   5.175   1.441
 6318SOL     OW19852   3.817   6.819   5.807
 6318SOL    HW119853   3.877   6.873   5.748
 6318SOL    HW219854   3.788   6.874   5.885
 6319SOL     OW19855   6.654   1.775   4.690
 6319SOL    HW119856   6.728   1.812   4.747
 6319SOL    HW219857   6.586   1.847   4.673
 6320SOL     OW19858   6.305   6.502   5.370
 6320SOL    HW119859   6.273   6.460   5.285
 6320SOL    HW219860   6.227   6.519   5.431
 6321SOL     OW19861   3.975   4.192   0.792
 6321SOL    HW119862   4.056   4.186   0.734
 6321SOL    HW219863   3.893   4.177   0.736
 6322SOL     OW19864   2.020   2.872   0.738
 6322SOL    HW119865   2.060   2.865   0.647
 6322SOL    HW219866   1.928   2.831   0.737
 6323SOL     OW19867   2.448   2.450   1.375
 6323SOL    HW119868   2.444   2.416   1.469
 6323SOL    HW219869   2.430   2.374   1.312
 6324SOL     OW19870   4.783   0.780   0.556
 6324SOL    HW119871   4.879   0.809   0.564
 6324SOL    HW219872   4.735   0.800   0.642
 6325SOL     OW19873   2.169   3.091   2.551
 6325SOL    HW119874   2.175   3.013   2.614
 6325SOL    HW219875   2.117   3.164   2.594
 6326SOL     OW19876   5.180   4.721   1.636
 6326SOL    HW119877   5.147   4.679   1.720
 6326SOL    HW219878   5.102   4.752   1.581
 6327SOL     OW19879   0.566   1.158   5.047
 6327SOL    HW119880   0.468   1.158   5.065
 6327SOL    HW219881   0.598   1.253   5.038
 6328SOL     OW19882   3.507   3.682   0.319
 6328SOL    HW119883   3.443   3.641   0.254
 6328SOL    HW219884   3.503   3.633   0.406
 6329SOL     OW19885   1.620   2.752   3.069
 6329SOL    HW119886   1.544   2.712   3.120
 6329SOL    HW219887   1.633   2.847   3.095
 6330SOL     OW19888   5.373   0.171   1.546
 6330SOL    HW119889   5.294   0.125   1.504
 6330SOL    HW219890   5.401   0.247   1.487
 6331SOL     OW19891   6.209   2.432   5.551
 6331SOL    HW119892   6.158   2.459   5.633
 6331SOL    HW219893   6.176   2.484   5.472
 6332SOL     OW19894   7.004   3.053   0.701
 6332SOL    HW119895   6.968   3.038   0.793
 6332SOL    HW219896   0.049   2.981   0.679
 6333SOL     OW19897   4.764   5.996   5.092
 6333SOL    HW119898   4.767   6.063   5.017
 6333SOL    HW219899   4.710   5.917   5.064
 6334SOL     OW19900   2.996   1.186   2.427
 6334SOL    HW119901   2.971   1.277   2.394
 6334SOL    HW219902   3.064   1.145   2.367
 6335SOL     OW19903   4.397   0.623   0.398
 6335SOL    HW119904   4.345   0.557   0.451
 6335SOL    HW219905   4.334   0.690   0.358
 6336SOL     OW19906   1.235   2.691   6.464
 6336SOL    HW119907   1.257   2.786   6.446
 6336SOL    HW219908   1.136   2.681   6.477
 6337SOL     OW19909   4.974   4.823   5.284
 6337SOL    HW119910   5.062   4.830   5.238
 6337SOL    HW219911   4.909   4.777   5.223
 6338SOL     OW19912   3.468   2.071   4.131
 6338SOL    HW119913   3.473   2.073   4.231
 6338SOL    HW219914   3.372   2.074   4.104
 6339SOL     OW19915   0.770   3.746   3.319
 6339SOL    HW119916   0.806   3.827   3.272
 6339SOL    HW219917   0.845   3.682   3.337
 6340SOL     OW19918   1.815   5.109   1.802
 6340SOL    HW119919   1.770   5.032   1.757
 6340SOL    HW219920   1.870   5.075   1.879
 6341SOL     OW19921   0.253   3.857   4.583
 6341SOL    HW119922   0.304   3.801   4.649
 6341SOL    HW219923   0.288   3.950   4.585
 6342SOL     OW19924   1.974   1.011   2.155
 6342SOL    HW119925   1.892   1.022   2.100
 6342SOL    HW219926   2.003   0.915   2.154
 6343SOL     OW19927   4.708   1.650   6.470
 6343SOL    HW119928   4.634   1.642   6.536
 6343SOL    HW219929   4.768   1.570   6.476
 6344SOL     OW19930   5.244   2.006   4.612
 6344SOL    HW119931   5.259   2.051   4.524
 6344SOL    HW219932   5.149   1.975   4.618
 6345SOL     OW19933   6.029   2.870   2.707
 6345SOL    HW119934   5.952   2.915   2.751
 6345SOL    HW219935   6.000   2.831   2.620
 6346SOL     OW19936   6.923   5.559   4.235
 6346SOL    HW119937   6.960   5.479   4.282
 6346SOL    HW219938   6.826   5.568   4.257
 6347SOL     OW19939   1.752   1.077   1.079
 6347SOL    HW119940   1.708   1.143   1.140
 6347SOL    HW219941   1.851   1.091   1.083
 6348SOL     OW19942   1.778   2.776   6.161
 6348SOL    HW119943   1.832   2.741   6.237
 6348SOL    HW219944   1.764   2.875   6.172
 6349SOL     OW19945   2.301   0.826   1.283
 6349SOL    HW119946   2.244   0.745   1.294
 6349SOL    HW219947   2.371   0.828   1.354
 6350SOL     OW19948   0.619   5.139   4.139
 6350SOL    HW119949   0.529   5.101   4.115
 6350SOL    HW219950   0.650   5.200   4.066
 6351SOL     OW19951   6.132   3.520   3.875
 6351SOL    HW119952   6.058   3.469   3.918
 6351SOL    HW219953   6.140   3.610   3.918
 6352SOL     OW19954   3.416   6.589   4.610
 6352SOL    HW119955   3.325   6.575   4.650
 6352SOL    HW219956   3.414   6.670   4.551
 6353SOL     OW19957   1.362   6.825   5.993
 6353SOL    HW119958   1.456   6.848   5.966
 6353SOL    HW219959   1.298   6.857   5.923
 6354SOL     OW19960   2.616   5.092   2.915
 6354SOL    HW119961   2.656   5.099   3.006
 6354SOL    HW219962   2.685   5.057   2.851
 6355SOL     OW19963   0.916   4.981   6.991
 6355SOL    HW119964   0.948   5.073   7.014
 6355SOL    HW219965   0.852   4.950   0.040
 6356SOL     OW19966   5.076   5.753   1.819
 6356SOL    HW119967   5.158   5.713   1.778
 6356SOL    HW219968   5.095   5.847   1.846
 6357SOL     OW19969   6.113   3.560   2.787
 6357SOL    HW119970   6.077   3.648   2.819
 6357SOL    HW219971   6.197   3.539   2.837
 6358SOL     OW19972   0.571   2.407   6.638
 6358SOL    HW119973   0.625   2.323   6.629
 6358SOL    HW219974   0.510   2.400   6.717
 6359SOL     OW19975   6.250   0.490   0.309
 6359SOL    HW119976   6.304   0.471   0.227
 6359SOL    HW219977   6.310   0.488   0.389
 6360SOL     OW19978   1.389   4.586   4.399
 6360SOL    HW119979   1.314   4.618   4.342
 6360SOL    HW219980   1.354   4.555   4.487
 6361SOL     OW19981   1.179   6.583   0.821
 6361SOL    HW119982   1.231   6.668   0.808
 6361SOL    HW219983   1.141   6.554   0.733
 6362SOL     OW19984   7.011   6.110   6.902
 6362SOL    HW119985   0.026   6.034   6.849
 6362SOL    HW219986   7.015   6.087   7.000
 6363SOL     OW19987   1.852   5.303   3.758
 6363SOL    HW119988   1.794   5.249   3.819
 6363SOL    HW219989   1.845   5.267   3.665
 6364SOL     OW19990   2.402   1.770   5.316
 6364SOL    HW119991   2.406   1.759   5.216
 6364SOL    HW219992   2.328   1.834   5.339
 6365SOL     OW19993   5.720   0.153   3.977
 6365SOL    HW119994   5.658   0.109   3.913
 6365SOL    HW219995   5.813   0.151   3.940
 6366SOL     OW19996   1.194   5.855   5.723
 6366SOL    HW119997   1.232   5.804   5.646
 6366SOL    HW219998   1.128   5.797   5.772
 6367SOL     OW19999   3.755   1.401   4.673
 6367SOL    HW120000   3.775   1.423   4.769
 6367SOL    HW220001   3.784   1.477   4.615
 6368SOL     OW20002   3.429   5.321   3.510
 6368SOL    HW120003   3.387   5.232   3.528
 6368SOL    HW220004   3.438   5.334   3.412
 6369SOL     OW20005   2.373   6.316   4.541
 6369SOL    HW120006   2.313   6.390   4.510
 6369SOL    HW220007   2.456   6.315   4.485
 6370SOL     OW20008   0.213   3.385   3.265
 6370SOL    HW120009   0.263   3.332   3.334
 6370SOL    HW220010   0.193   3.476   3.301
 6371SOL     OW20011   4.774   4.619   3.011
 6371SOL    HW120012   4.711   4.603   2.935
 6371SOL    HW220013   4.784   4.717   3.027
 6372SOL     OW20014   1.735   0.996   1.581
 6372SOL    HW120015   1.689   0.937   1.515
 6372SOL    HW220016   1.702   1.090   1.573
 6373SOL     OW20017   4.737   4.214   2.487
 6373SOL    HW120018   4.744   4.119   2.517
 6373SOL    HW220019   4.827   4.248   2.461
 6374SOL     OW20020   4.004   3.861   3.133
 6374SOL    HW120021   4.049   3.812   3.058
 6374SOL    HW220022   3.963   3.945   3.098
 6375SOL     OW20023   0.257   1.808   3.498
 6375SOL    HW120024   0.329   1.797   3.567
 6375SOL    HW220025   0.174   1.763   3.529
 6376SOL     OW20026   5.300   2.529   4.967
 6376SOL    HW120027   5.376   2.466   4.980
 6376SOL    HW220028   5.314   2.610   5.024
 6377SOL     OW20029   0.038   1.607   5.230
 6377SOL    HW120030   0.132   1.591   5.260
 6377SOL    HW220031   7.000   1.534   5.265
 6378SOL     OW20032   4.531   4.879   4.000
 6378SOL    HW120033   4.615   4.890   4.052
 6378SOL    HW220034   4.494   4.787   4.016
 6379SOL     OW20035   1.289   4.476   4.627
 6379SOL    HW120036   1.192   4.496   4.641
 6379SOL    HW220037   1.337   4.483   4.715
 6380SOL     OW20038   0.595   1.824   5.248
 6380SOL    HW120039   0.623   1.917   5.274
 6380SOL    HW220040   0.561   1.825   5.154
 6381SOL     OW20041   4.008   2.964   1.841
 6381SOL    HW120042   3.993   2.940   1.937
 6381SOL    HW220043   3.973   2.892   1.782
 6382SOL     OW20044   2.316   2.327   0.640
 6382SOL    HW120045   2.253   2.404   0.634
 6382SOL    HW220046   2.367   2.319   0.555
 6383SOL     OW20047   2.062   2.499   3.015
 6383SOL    HW120048   1.970   2.512   3.052
 6383SOL    HW220049   2.096   2.587   2.981
 6384SOL     OW20050   6.188   3.961   2.762
 6384SOL    HW120051   6.094   3.928   2.771
 6384SOL    HW220052   6.248   3.907   2.821
 6385SOL     OW20053   0.042   3.903   3.342
 6385SOL    HW120054   6.971   3.866   3.332
 6385SOL    HW220055   0.069   3.901   3.438
 6386SOL     OW20056   2.198   4.634   5.868
 6386SOL    HW120057   2.214   4.718   5.920
 6386SOL    HW220058   2.180   4.657   5.773
 6387SOL     OW20059   6.798   1.709   6.542
 6387SOL    HW120060   6.816   1.741   6.448
 6387SOL    HW220061   6.732   1.634   6.539
 6388SOL     OW20062   3.974   6.578   2.199
 6388SOL    HW120063   4.049   6.613   2.142
 6388SOL    HW220064   4.012   6.548   2.287
 6389SOL     OW20065   0.021   5.408   2.348
 6389SOL    HW120066   0.058   5.500   2.364
 6389SOL    HW220067   6.943   5.413   2.348
 6390SOL     OW20068   0.318   1.027   5.817
 6390SOL    HW120069   0.276   0.940   5.793
 6390SOL    HW220070   0.273   1.101   5.768
 6391SOL     OW20071   2.682   0.160   6.170
 6391SOL    HW120072   2.658   0.248   6.211
 6391SOL    HW220073   2.693   0.092   6.243
 6392SOL     OW20074   2.934   5.468   2.619
 6392SOL    HW120075   2.901   5.522   2.697
 6392SOL    HW220076   2.987   5.527   2.559
 6393SOL     OW20077   6.955   6.375   2.190
 6393SOL    HW120078   6.936   6.301   2.255
 6393SOL    HW220079   6.869   6.409   2.153
 6394SOL     OW20080   2.325   5.535   0.784
 6394SOL    HW120081   2.309   5.533   0.686
 6394SOL    HW220082   2.349   5.443   0.816
 6395SOL     OW20083   0.016   2.707   1.732
 6395SOL    HW120084   6.945   2.670   1.737
 6395SOL    HW220085   0.014   2.797   1.689
 6396SOL     OW20086   5.389   3.455   6.726
 6396SOL    HW120087   5.292   3.467   6.750
 6396SOL    HW220088   5.409   3.505   6.642
 6397SOL     OW20089   6.107   1.637   1.009
 6397SOL    HW120090   6.030   1.674   1.060
 6397SOL    HW220091   6.161   1.577   1.069
 6398SOL     OW20092   2.975   6.866   1.622
 6398SOL    HW120093   3.067   6.871   1.661
 6398SOL    HW220094   2.961   6.777   1.581
 6399SOL     OW20095   1.869   6.541   6.526
 6399SOL    HW120096   1.880   6.599   6.606
 6399SOL    HW220097   1.928   6.574   6.452
 6400SOL     OW20098   2.733   5.738   1.784
 6400SOL    HW120099   2.819   5.688   1.778
 6400SOL    HW220100   2.747   5.823   1.834
 6401SOL     OW20101   5.314   5.818   3.499
 6401SOL    HW120102   5.301   5.728   3.542
 6401SOL    HW220103   5.362   5.878   3.563
 6402SOL     OW20104   3.006   2.232   3.271
 6402SOL    HW120105   2.987   2.234   3.369
 6402SOL    HW220106   2.936   2.285   3.222
 6403SOL     OW20107   6.781   5.767   6.367
 6403SOL    HW120108   6.746   5.674   6.383
 6403SOL    HW220109   6.828   5.799   6.449
 6404SOL     OW20110   4.398   0.610   2.427
 6404SOL    HW120111   4.469   0.658   2.478
 6404SOL    HW220112   4.312   0.661   2.433
 6405SOL     OW20113   3.369   0.206   3.715
 6405SOL    HW120114   3.312   0.163   3.785
 6405SOL    HW220115   3.366   0.151   3.632
 6406SOL     OW20116   0.934   2.808   2.450
 6406SOL    HW120117   0.853   2.749   2.458
 6406SOL    HW220118   0.958   2.818   2.353
 6407SOL     OW20119   2.842   6.535   3.998
 6407SOL    HW120120   2.899   6.454   4.014
 6407SOL    HW220121   2.787   6.520   3.916
 6408SOL     OW20122   5.553   1.099   0.435
 6408SOL    HW120123   5.640   1.140   0.407
 6408SOL    HW220124   5.562   1.060   0.526
 6409SOL     OW20125   6.522   4.124   3.635
 6409SOL    HW120126   6.604   4.102   3.582
 6409SOL    HW220127   6.548   4.164   3.722
 6410SOL     OW20128   2.093   1.405   6.824
 6410SOL    HW120129   2.045   1.488   6.854
 6410SOL    HW220130   2.121   1.352   6.904
 6411SOL     OW20131   0.769   3.046   3.241
 6411SOL    HW120132   0.743   3.132   3.285
 6411SOL    HW220133   0.807   2.984   3.309
 6412SOL     OW20134   0.968   1.819   4.657
 6412SOL    HW120135   0.969   1.751   4.584
 6412SOL    HW220136   0.878   1.821   4.701
 6413SOL     OW20137   3.635   4.981   3.750
 6413SOL    HW120138   3.683   4.933   3.823
 6413SOL    HW220139   3.649   5.079   3.759
 6414SOL     OW20140   5.733   0.880   0.109
 6414SOL    HW120141   5.686   0.854   0.194
 6414SOL    HW220142   5.809   0.816   0.093
 6415SOL     OW20143   2.035   3.517   2.894
 6415SOL    HW120144   2.078   3.572   2.823
 6415SOL    HW220145   1.993   3.436   2.853
 6416SOL     OW20146   1.157   1.117   6.854
 6416SOL    HW120147   1.198   1.089   6.940
 6416SOL    HW220148   1.078   1.176   6.871
 6417SOL     OW20149   5.925   4.990   0.502
 6417SOL    HW120150   5.978   5.012   0.420
 6417SOL    HW220151   5.897   5.075   0.547
 6418SOL     OW20152   4.852   3.924   2.201
 6418SOL    HW120153   4.913   3.996   2.235
 6418SOL    HW220154   4.837   3.936   2.103
 6419SOL     OW20155   1.776   4.536   3.245
 6419SOL    HW120156   1.691   4.494   3.279
 6419SOL    HW220157   1.837   4.553   3.322
 6420SOL     OW20158   2.533   5.982   4.599
 6420SOL    HW120159   2.531   6.075   4.634
 6420SOL    HW220160   2.491   5.980   4.508
 6421SOL     OW20161   5.139   0.434   3.048
 6421SOL    HW120162   5.174   0.342   3.030
 6421SOL    HW220163   5.127   0.482   2.962
 6422SOL     OW20164   0.139   0.810   4.398
 6422SOL    HW120165   0.087   0.728   4.421
 6422SOL    HW220166   0.077   0.887   4.386
 6423SOL     OW20167   4.986   5.114   3.372
 6423SOL    HW120168   5.042   5.084   3.295
 6423SOL    HW220169   5.030   5.193   3.416
 6424SOL     OW20170   0.458   5.234   5.910
 6424SOL    HW120171   0.416   5.294   5.842
 6424SOL    HW220172   0.386   5.186   5.960
 6425SOL     OW20173   6.445   5.819   3.501
 6425SOL    HW120174   6.460   5.916   3.520
 6425SOL    HW220175   6.456   5.802   3.403
 6426SOL     OW20176   1.307   5.044   3.060
 6426SOL    HW120177   1.394   5.038   3.012
 6426SOL    HW220178   1.254   5.121   3.025
 6427SOL     OW20179   3.315   3.939   4.650
 6427SOL    HW120180   3.220   3.964   4.634
 6427SOL    HW220181   3.372   3.977   4.577
 6428SOL     OW20182   5.754   3.765   5.839
 6428SOL    HW120183   5.792   3.677   5.810
 6428SOL    HW220184   5.655   3.764   5.826
 6429SOL     OW20185   1.403   1.972   5.748
 6429SOL    HW120186   1.340   1.982   5.671
 6429SOL    HW220187   1.421   2.061   5.788
 6430SOL     OW20188   5.929   1.056   3.203
 6430SOL    HW120189   6.019   1.083   3.169
 6430SOL    HW220190   5.928   1.060   3.303
 6431SOL     OW20191   4.929   6.979   4.074
 6431SOL    HW120192   5.022   7.013   4.085
 6431SOL    HW220193   4.873   0.028   4.031
 6432SOL     OW20194   4.654   4.407   6.051
 6432SOL    HW120195   4.630   4.312   6.068
 6432SOL    HW220196   4.571   4.463   6.049
 6433SOL     OW20197   1.476   5.427   6.072
 6433SOL    HW120198   1.523   5.408   5.985
 6433SOL    HW220199   1.411   5.353   6.091
 6434SOL     OW20200   2.545   4.922   6.362
 6434SOL    HW120201   2.561   4.834   6.407
 6434SOL    HW220202   2.605   4.930   6.283
 6435SOL     OW20203   4.775   6.568   0.986
 6435SOL    HW120204   4.784   6.477   1.026
 6435SOL    HW220205   4.830   6.633   1.039
 6436SOL     OW20206   1.472   2.958   2.919
 6436SOL    HW120207   1.539   2.952   2.845
 6436SOL    HW220208   1.383   2.926   2.886
 6437SOL     OW20209   2.378   1.322   0.540
 6437SOL    HW120210   2.328   1.283   0.617
 6437SOL    HW220211   2.476   1.324   0.561
 6438SOL     OW20212   6.307   4.227   5.360
 6438SOL    HW120213   6.259   4.304   5.402
 6438SOL    HW220214   6.242   4.151   5.348
 6439SOL     OW20215   5.778   1.402   1.861
 6439SOL    HW120216   5.791   1.497   1.889
 6439SOL    HW220217   5.823   1.385   1.774
 6440SOL     OW20218   2.106   1.899   5.759
 6440SOL    HW120219   2.146   1.944   5.839
 6440SOL    HW220220   2.175   1.890   5.688
 6441SOL     OW20221   6.683   6.601   1.785
 6441SOL    HW120222   6.750   6.527   1.785
 6441SOL    HW220223   6.659   6.624   1.880
 6442SOL     OW20224   2.615   1.472   4.578
 6442SOL    HW120225   2.707   1.437   4.557
 6442SOL    HW220226   2.567   1.492   4.492
 6443SOL     OW20227   3.843   2.407   5.556
 6443SOL    HW120228   3.796   2.495   5.561
 6443SOL    HW220229   3.866   2.387   5.460
 6444SOL     OW20230   5.774   2.635   4.474
 6444SOL    HW120231   5.827   2.633   4.558
 6444SOL    HW220232   5.748   2.729   4.453
 6445SOL     OW20233   3.986   3.309   4.788
 6445SOL    HW120234   3.912   3.369   4.822
 6445SOL    HW220235   3.950   3.217   4.774
 6446SOL     OW20236   1.082   1.218   0.141
 6446SOL    HW120237   1.012   1.288   0.153
 6446SOL    HW220238   1.040   1.127   0.149
 6447SOL     OW20239   5.210   4.964   3.790
 6447SOL    HW120240   5.263   4.880   3.777
 6447SOL    HW220241   5.118   4.941   3.823
 6448SOL     OW20242   4.259   5.693   2.207
 6448SOL    HW120243   4.165   5.660   2.209
 6448SOL    HW220244   4.259   5.792   2.195
 6449SOL     OW20245   3.599   6.186   1.114
 6449SOL    HW120246   3.696   6.178   1.089
 6449SOL    HW220247   3.583   6.136   1.199
 6450SOL     OW20248   0.547   3.938   0.876
 6450SOL    HW120249   0.619   4.006   0.862
 6450SOL    HW220250   0.574   3.877   0.951
 6451SOL     OW20251   2.133   0.821   4.667
 6451SOL    HW120252   2.197   0.893   4.642
 6451SOL    HW220253   2.122   0.758   4.589
 6452SOL     OW20254   4.687   5.638   4.033
 6452SOL    HW120255   4.771   5.625   4.085
 6452SOL    HW220256   4.608   5.636   4.094
 6453SOL     OW20257   2.317   6.478   1.635
 6453SOL    HW120258   2.339   6.420   1.557
 6453SOL    HW220259   2.311   6.423   1.718
 6454SOL     OW20260   1.000   2.182   2.874
 6454SOL    HW120261   0.939   2.122   2.924
 6454SOL    HW220262   1.049   2.241   2.938
 6455SOL     OW20263   6.682   3.265   3.589
 6455SOL    HW120264   6.674   3.184   3.531
 6455SOL    HW220265   6.675   3.239   3.685
 6456SOL     OW20266   1.049   0.710   3.497
 6456SOL    HW120267   1.049   0.615   3.529
 6456SOL    HW220268   1.031   0.713   3.399
 6457SOL     OW20269   5.158   1.758   1.290
 6457SOL    HW120270   5.064   1.789   1.303
 6457SOL    HW220271   5.194   1.724   1.377
 6458SOL     OW20272   1.227   6.487   4.426
 6458SOL    HW120273   1.175   6.463   4.508
 6458SOL    HW220274   1.177   6.455   4.345
 6459SOL     OW20275   6.396   3.197   1.474
 6459SOL    HW120276   6.296   3.195   1.470
 6459SOL    HW220277   6.428   3.290   1.456
 6460SOL     OW20278   5.868   6.328   6.147
 6460SOL    HW120279   5.824   6.416   6.161
 6460SOL    HW220280   5.821   6.278   6.075
 6461SOL     OW20281   1.984   4.692   6.053
 6461SOL    HW120282   1.940   4.770   6.008
 6461SOL    HW220283   2.014   4.627   5.983
 6462SOL     OW20284   2.319   2.585   4.311
 6462SOL    HW120285   2.322   2.660   4.377
 6462SOL    HW220286   2.235   2.532   4.324
 6463SOL     OW20287   6.160   2.725   0.022
 6463SOL    HW120288   6.157   2.632   0.058
 6463SOL    HW220289   6.209   2.725   6.956
 6464SOL     OW20290   1.125   5.354   5.112
 6464SOL    HW120291   1.109   5.368   5.209
 6464SOL    HW220292   1.223   5.353   5.094
 6465SOL     OW20293   6.870   3.002   2.730
 6465SOL    HW120294   6.863   3.102   2.731
 6465SOL    HW220295   6.941   2.974   2.794
 6466SOL     OW20296   0.790   1.228   6.346
 6466SOL    HW120297   0.883   1.263   6.330
 6466SOL    HW220298   0.773   1.151   6.286
 6467SOL     OW20299   3.330   1.903   0.245
 6467SOL    HW120300   3.332   1.835   0.171
 6467SOL    HW220301   3.246   1.890   0.299
 6468SOL     OW20302   2.981   6.506   0.343
 6468SOL    HW120303   3.010   6.479   0.434
 6468SOL    HW220304   2.957   6.425   0.290
 6469SOL     OW20305   4.501   1.450   4.705
 6469SOL    HW120306   4.446   1.403   4.635
 6469SOL    HW220307   4.591   1.407   4.711
 6470SOL     OW20308   5.988   2.946   0.400
 6470SOL    HW120309   6.026   2.952   0.308
 6470SOL    HW220310   5.929   3.024   0.417
 6471SOL     OW20311   6.664   6.641   6.062
 6471SOL    HW120312   6.616   6.577   6.002
 6471SOL    HW220313   6.682   6.726   6.013
 6472SOL     OW20314   0.259   5.391   2.044
 6472SOL    HW120315   0.176   5.347   2.010
 6472SOL    HW220316   0.274   5.365   2.139
 6473SOL     OW20317   3.115   1.428   4.303
 6473SOL    HW120318   3.142   1.388   4.215
 6473SOL    HW220319   3.060   1.510   4.287
 6474SOL     OW20320   2.919   4.213   5.557
 6474SOL    HW120321   2.854   4.254   5.492
 6474SOL    HW220322   2.997   4.274   5.569
 6475SOL     OW20323   5.473   5.454   4.169
 6475SOL    HW120324   5.511   5.364   4.147
 6475SOL    HW220325   5.377   5.457   4.141
 6476SOL     OW20326   3.912   3.399   1.407
 6476SOL    HW120327   3.921   3.334   1.331
 6476SOL    HW220328   3.875   3.485   1.373
 6477SOL     OW20329   6.017   4.951   1.025
 6477SOL    HW120330   6.021   4.869   0.967
 6477SOL    HW220331   5.986   5.029   0.970
 6478SOL     OW20332   3.389   0.551   1.610
 6478SOL    HW120333   3.302   0.599   1.621
 6478SOL    HW220334   3.400   0.525   1.514
 6479SOL     OW20335   4.413   5.389   3.669
 6479SOL    HW120336   4.379   5.453   3.601
 6479SOL    HW220337   4.508   5.366   3.649
 6480SOL     OW20338   2.885   1.310   6.395
 6480SOL    HW120339   2.950   1.346   6.328
 6480SOL    HW220340   2.792   1.315   6.358
 6481SOL     OW20341   3.569   2.061   2.193
 6481SOL    HW120342   3.471   2.067   2.208
 6481SOL    HW220343   3.596   2.122   2.118
 6482SOL     OW20344   6.628   0.757   6.540
 6482SOL    HW120345   6.641   0.833   6.475
 6482SOL    HW220346   6.716   0.714   6.559
 6483SOL     OW20347   0.896   6.784   2.730
 6483SOL    HW120348   0.868   6.691   2.708
 6483SOL    HW220349   0.832   6.822   2.798
 6484SOL     OW20350   3.297   6.931   1.392
 6484SOL    HW120351   3.241   7.013   1.380
 6484SOL    HW220352   3.261   6.857   1.335
 6485SOL     OW20353   1.759   5.023   3.506
 6485SOL    HW120354   1.729   4.980   3.591
 6485SOL    HW220355   1.763   4.955   3.434
 6486SOL     OW20356   2.256   4.585   3.641
 6486SOL    HW120357   2.251   4.630   3.552
 6486SOL    HW220358   2.306   4.645   3.705
 6487SOL     OW20359   0.410   6.591   5.240
 6487SOL    HW120360   0.509   6.595   5.252
 6487SOL    HW220361   0.370   6.680   5.261
 6488SOL     OW20362   3.658   5.675   4.361
 6488SOL    HW120363   3.584   5.647   4.422
 6488SOL    HW220364   3.632   5.655   4.266
 6489SOL     OW20365   3.248   2.667   6.230
 6489SOL    HW120366   3.191   2.739   6.269
 6489SOL    HW220367   3.195   2.582   6.227
 6490SOL     OW20368   4.318   0.650   6.687
 6490SOL    HW120369   4.415   0.673   6.684
 6490SOL    HW220370   4.280   0.673   6.777
 6491SOL     OW20371   4.135   0.724   0.680
 6491SOL    HW120372   4.166   0.631   0.696
 6491SOL    HW220373   4.131   0.774   0.766
 6492SOL     OW20374   3.879   4.626   6.658
 6492SOL    HW120375   3.975   4.602   6.671
 6492SOL    HW220376   3.855   4.617   6.561
 6493SOL     OW20377   1.079   4.650   5.251
 6493SOL    HW120378   1.127   4.733   5.222
 6493SOL    HW220379   1.115   4.621   5.340
 6494SOL     OW20380   0.122   0.237   3.925
 6494SOL    HW120381   0.045   0.181   3.896
 6494SOL    HW220382   0.187   0.247   3.849
 6495SOL     OW20383   5.897   0.039   4.718
 6495SOL    HW120384   5.971   0.073   4.660
 6495SOL    HW220385   5.845   0.116   4.754
 6496SOL     OW20386   6.389   0.460   2.746
 6496SOL    HW120387   6.374   0.478   2.843
 6496SOL    HW220388   6.400   0.547   2.697
 6497SOL     OW20389   1.162   1.527   0.735
 6497SOL    HW120390   1.189   1.431   0.748
 6497SOL    HW220391   1.121   1.561   0.820
 6498SOL     OW20392   1.720   2.999   3.816
 6498SOL    HW120393   1.803   2.995   3.871
 6498SOL    HW220394   1.723   3.078   3.756
 6499SOL     OW20395   5.443   3.175   5.537
 6499SOL    HW120396   5.362   3.230   5.518
 6499SOL    HW220397   5.500   3.222   5.605
 6500SOL     OW20398   0.043   3.744   4.400
 6500SOL    HW120399   7.002   3.820   4.383
 6500SOL    HW220400   0.121   3.776   4.455
 6501SOL     OW20401   6.737   1.787   6.794
 6501SOL    HW120402   6.732   1.688   6.809
 6501SOL    HW220403   6.797   1.806   6.716
 6502SOL     OW20404   0.100   1.911   1.723
 6502SOL    HW120405   0.019   1.940   1.672
 6502SOL    HW220406   0.101   1.955   1.812
 6503SOL     OW20407   5.333   0.911   3.089
 6503SOL    HW120408   5.289   0.878   3.172
 6503SOL    HW220409   5.394   0.988   3.111
 6504SOL     OW20410   4.263   6.163   5.449
 6504SOL    HW120411   4.345   6.171   5.392
 6504SOL    HW220412   4.237   6.254   5.482
 6505SOL     OW20413   5.197   6.109   0.418
 6505SOL    HW120414   5.118   6.130   0.477
 6505SOL    HW220415   5.210   6.010   0.415
 6506SOL     OW20416   6.408   2.476   2.605
 6506SOL    HW120417   6.350   2.415   2.660
 6506SOL    HW220418   6.360   2.563   2.591
 6507SOL     OW20419   1.399   5.106   5.455
 6507SOL    HW120420   1.472   5.060   5.405
 6507SOL    HW220421   1.370   5.049   5.531
 6508SOL     OW20422   1.703   0.593   2.782
 6508SOL    HW120423   1.695   0.506   2.734
 6508SOL    HW220424   1.660   0.585   2.872
 6509SOL     OW20425   3.796   2.133   4.287
 6509SOL    HW120426   3.758   2.143   4.195
 6509SOL    HW220427   3.745   2.190   4.351
 6510SOL     OW20428   6.290   5.478   0.049
 6510SOL    HW120429   6.217   5.467   7.003
 6510SOL    HW220430   6.352   5.400   0.044
 6511SOL     OW20431   4.101   1.628   4.347
 6511SOL    HW120432   4.054   1.670   4.270
 6511SOL    HW220433   4.138   1.700   4.407
 6512SOL     OW20434   4.259   6.837   2.321
 6512SOL    HW120435   4.278   6.893   2.402
 6512SOL    HW220436   4.189   6.881   2.265
 6513SOL     OW20437   2.805   4.978   2.730
 6513SOL    HW120438   2.823   5.011   2.637
 6513SOL    HW220439   2.862   4.898   2.748
 6514SOL     OW20440   6.577   1.008   3.891
 6514SOL    HW120441   6.634   1.004   3.809
 6514SOL    HW220442   6.576   0.919   3.935
 6515SOL     OW20443   0.043   4.615   4.308
 6515SOL    HW120444   6.980   4.662   4.282
 6515SOL    HW220445   0.024   4.518   4.322
 6516SOL     OW20446   0.085   3.479   1.281
 6516SOL    HW120447   0.032   3.397   1.260
 6516SOL    HW220448   0.049   3.521   1.365
 6517SOL     OW20449   6.344   1.107   1.255
 6517SOL    HW120450   6.339   1.059   1.167
 6517SOL    HW220451   6.432   1.153   1.263
 6518SOL     OW20452   0.161   0.930   0.022
 6518SOL    HW120453   0.084   0.880   7.004
 6518SOL    HW220454   0.151   0.932   0.122
 6519SOL     OW20455   1.165   2.097   3.369
 6519SOL    HW120456   1.116   2.180   3.393
 6519SOL    HW220457   1.251   2.121   3.323
 6520SOL     OW20458   5.812   5.819   1.844
 6520SOL    HW120459   5.890   5.849   1.788
 6520SOL    HW220460   5.747   5.770   1.786
 6521SOL     OW20461   1.915   2.361   3.813
 6521SOL    HW120462   1.909   2.295   3.738
 6521SOL    HW220463   1.844   2.341   3.881
 6522SOL     OW20464   2.983   5.420   6.116
 6522SOL    HW120465   3.025   5.334   6.148
 6522SOL    HW220466   2.893   5.431   6.159
 6523SOL     OW20467   4.007   1.197   6.373
 6523SOL    HW120468   4.092   1.231   6.413
 6523SOL    HW220469   4.027   1.117   6.316
 6524SOL     OW20470   3.270   3.762   1.586
 6524SOL    HW120471   3.234   3.671   1.565
 6524SOL    HW220472   3.269   3.775   1.685
 6525SOL     OW20473   2.879   5.049   2.470
 6525SOL    HW120474   2.929   5.132   2.445
 6525SOL    HW220475   2.934   4.969   2.445
 6526SOL     OW20476   2.179   0.257   6.932
 6526SOL    HW120477   2.189   0.349   6.893
 6526SOL    HW220478   2.118   0.203   6.873
 6527SOL     OW20479   0.937   2.243   4.362
 6527SOL    HW120480   1.003   2.169   4.376
 6527SOL    HW220481   0.865   2.212   4.299
 6528SOL     OW20482   0.096   0.751   5.822
 6528SOL    HW120483   0.103   0.745   5.922
 6528SOL    HW220484   0.063   0.843   5.797
 6529SOL     OW20485   1.541   0.794   2.682
 6529SOL    HW120486   1.604   0.717   2.698
 6529SOL    HW220487   1.458   0.781   2.737
 6530SOL     OW20488   6.582   3.922   0.267
 6530SOL    HW120489   6.507   3.977   0.229
 6530SOL    HW220490   6.569   3.827   0.242
 6531SOL     OW20491   5.631   3.103   5.301
 6531SOL    HW120492   5.623   3.109   5.401
 6531SOL    HW220493   5.574   3.029   5.267
 6532SOL     OW20494   0.172   1.161   0.990
 6532SOL    HW120495   0.123   1.188   1.073
 6532SOL    HW220496   0.229   1.237   0.958
 6533SOL     OW20497   4.615   6.751   1.300
 6533SOL    HW120498   4.605   6.805   1.217
 6533SOL    HW220499   4.524   6.723   1.332
 6534SOL     OW20500   3.662   4.669   1.477
 6534SOL    HW120501   3.642   4.767   1.485
 6534SOL    HW220502   3.647   4.625   1.565
 6535SOL     OW20503   6.048   4.203   4.094
 6535SOL    HW120504   5.962   4.192   4.044
 6535SOL    HW220505   6.035   4.178   4.190
 6536SOL     OW20506   1.410   1.146   5.872
 6536SOL    HW120507   1.339   1.212   5.897
 6536SOL    HW220508   1.467   1.184   5.799
 6537SOL     OW20509   6.614   5.441   6.937
 6537SOL    HW120510   6.661   5.514   6.888
 6537SOL    HW220511   6.633   5.447   0.013
 6538SOL     OW20512   2.469   3.986   6.541
 6538SOL    HW120513   2.481   4.053   6.467
 6538SOL    HW220514   2.559   3.960   6.577
 6539SOL     OW20515   4.234   0.213   5.830
 6539SOL    HW120516   4.287   0.298   5.832
 6539SOL    HW220517   4.223   0.184   5.735
 6540SOL     OW20518   4.748   1.881   5.960
 6540SOL    HW120519   4.695   1.955   6.001
 6540SOL    HW220520   4.687   1.804   5.940
 6541SOL     OW20521   4.865   2.595   5.222
 6541SOL    HW120522   4.905   2.565   5.135
 6541SOL    HW220523   4.776   2.638   5.205
 6542SOL     OW20524   6.201   3.814   3.933
 6542SOL    HW120525   6.101   3.819   3.943
 6542SOL    HW220526   6.229   3.873   3.857
 6543SOL     OW20527   5.480   3.052   5.847
 6543SOL    HW120528   5.393   3.006   5.830
 6543SOL    HW220529   5.555   2.988   5.829
 6544SOL     OW20530   0.846   6.281   3.125
 6544SOL    HW120531   0.799   6.271   3.037
 6544SOL    HW220532   0.880   6.192   3.154
 6545SOL     OW20533   3.923   2.462   0.711
 6545SOL    HW120534   3.912   2.385   0.647
 6545SOL    HW220535   3.834   2.505   0.725
 6546SOL     OW20536   2.749   4.583   0.487
 6546SOL    HW120537   2.787   4.491   0.496
 6546SOL    HW220538   2.747   4.610   0.391
 6547SOL     OW20539   4.770   1.061   5.519
 6547SOL    HW120540   4.851   1.017   5.556
 6547SOL    HW220541   4.691   1.001   5.531
 6548SOL     OW20542   0.870   4.088   0.401
 6548SOL    HW120543   0.842   4.184   0.408
 6548SOL    HW220544   0.961   4.077   0.441
 6549SOL     OW20545   4.615   0.833   1.617
 6549SOL    HW120546   4.632   0.792   1.527
 6549SOL    HW220547   4.683   0.905   1.633
 6550SOL     OW20548   0.242   6.345   4.133
 6550SOL    HW120549   0.166   6.290   4.100
 6550SOL    HW220550   0.244   6.433   4.085
 6551SOL     OW20551   1.762   5.200   2.499
 6551SOL    HW120552   1.844   5.211   2.555
 6551SOL    HW220553   1.745   5.285   2.447
 6552SOL     OW20554   2.014   6.795   6.800
 6552SOL    HW120555   1.934   6.737   6.784
 6552SOL    HW220556   2.090   6.739   6.832
 6553SOL     OW20557   0.279   2.037   3.366
 6553SOL    HW120558   0.270   1.946   3.408
 6553SOL    HW220559   0.238   2.035   3.275
 6554SOL     OW20560   0.572   0.919   4.572
 6554SOL    HW120561   0.597   0.990   4.506
 6554SOL    HW220562   0.644   0.850   4.576
 6555SOL     OW20563   5.997   2.168   2.541
 6555SOL    HW120564   5.933   2.096   2.568
 6555SOL    HW220565   5.969   2.255   2.581
 6556SOL     OW20566   5.441   4.735   4.968
 6556SOL    HW120567   5.443   4.639   4.994
 6556SOL    HW220568   5.347   4.767   4.964
 6557SOL     OW20569   3.396   6.779   2.285
 6557SOL    HW120570   3.328   6.823   2.226
 6557SOL    HW220571   3.438   6.848   2.345
 6558SOL     OW20572   7.018   4.882   6.694
 6558SOL    HW120573   6.976   4.933   6.769
 6558SOL    HW220574   0.079   4.928   6.664
 6559SOL     OW20575   0.515   3.630   6.198
 6559SOL    HW120576   0.586   3.634   6.268
 6559SOL    HW220577   0.427   3.655   6.239
 6560SOL     OW20578   4.389   5.311   1.521
 6560SOL    HW120579   4.366   5.348   1.612
 6560SOL    HW220580   4.374   5.382   1.452
 6561SOL     OW20581   3.265   3.949   1.411
 6561SOL    HW120582   3.363   3.947   1.393
 6561SOL    HW220583   3.243   3.892   1.490
 6562SOL     OW20584   6.206   3.226   1.166
 6562SOL    HW120585   6.160   3.253   1.082
 6562SOL    HW220586   6.174   3.135   1.194
 6563SOL     OW20587   5.471   6.568   0.397
 6563SOL    HW120588   5.536   6.630   0.353
 6563SOL    HW220589   5.458   6.488   0.339
 6564SOL     OW20590   6.633   4.434   3.109
 6564SOL    HW120591   6.645   4.368   3.183
 6564SOL    HW220592   6.703   4.418   3.039
 6565SOL     OW20593   5.954   2.059   3.604
 6565SOL    HW120594   5.916   2.058   3.511
 6565SOL    HW220595   6.036   2.002   3.607
 6566SOL     OW20596   3.381   5.988   2.888
 6566SOL    HW120597   3.293   5.954   2.921
 6566SOL    HW220598   3.403   5.946   2.800
 6567SOL     OW20599   4.062   1.107   2.142
 6567SOL    HW120600   3.975   1.154   2.153
 6567SOL    HW220601   4.136   1.164   2.179
 6568SOL     OW20602   3.820   1.082   3.721
 6568SOL    HW120603   3.879   1.031   3.784
 6568SOL    HW220604   3.763   1.019   3.669
 6569SOL     OW20605   3.071   3.429   6.262
 6569SOL    HW120606   3.089   3.343   6.310
 6569SOL    HW220607   3.016   3.412   6.181
 6570SOL     OW20608   3.753   0.629   2.215
 6570SOL    HW120609   3.760   0.719   2.171
 6570SOL    HW220610   3.729   0.640   2.311
 6571SOL     OW20611   2.880   5.831   1.544
 6571SOL    HW120612   2.910   5.764   1.611
 6571SOL    HW220613   2.940   5.911   1.546
 6572SOL     OW20614   6.362   5.073   5.749
 6572SOL    HW120615   6.437   5.023   5.708
 6572SOL    HW220616   6.396   5.128   5.826
 6573SOL     OW20617   1.970   1.513   2.260
 6573SOL    HW120618   2.010   1.576   2.194
 6573SOL    HW220619   1.885   1.475   2.223
 6574SOL     OW20620   3.176   5.674   2.895
 6574SOL    HW120621   3.115   5.595   2.901
 6574SOL    HW220622   3.154   5.728   2.814
 6575SOL     OW20623   1.079   0.034   2.892
 6575SOL    HW120624   1.077   0.049   2.991
 6575SOL    HW220625   1.052   6.961   2.873
 6576SOL     OW20626   2.160   5.978   6.494
 6576SOL    HW120627   2.062   5.997   6.489
 6576SOL    HW220628   2.177   5.881   6.481
 6577SOL     OW20629   0.983   1.207   4.486
 6577SOL    HW120630   0.886   1.209   4.465
 6577SOL    HW220631   1.004   1.126   4.542
 6578SOL     OW20632   1.363   5.147   3.390
 6578SOL    HW120633   1.331   5.084   3.319
 6578SOL    HW220634   1.345   5.107   3.480
 6579SOL     OW20635   6.480   3.728   4.898
 6579SOL    HW120636   6.469   3.825   4.874
 6579SOL    HW220637   6.567   3.714   4.944
 6580SOL     OW20638   0.513   2.364   0.455
 6580SOL    HW120639   0.510   2.443   0.515
 6580SOL    HW220640   0.607   2.349   0.424
 6581SOL     OW20641   2.807   0.708   6.783
 6581SOL    HW120642   2.900   0.693   6.751
 6581SOL    HW220643   2.784   0.805   6.773
 6582SOL     OW20644   0.795   1.563   1.836
 6582SOL    HW120645   0.780   1.581   1.933
 6582SOL    HW220646   0.713   1.522   1.796
 6583SOL     OW20647   4.002   0.955   5.190
 6583SOL    HW120648   4.002   1.003   5.102
 6583SOL    HW220649   3.953   1.010   5.257
 6584SOL     OW20650   4.742   2.262   0.903
 6584SOL    HW120651   4.814   2.298   0.962
 6584SOL    HW220652   4.782   2.207   0.830
 6585SOL     OW20653   5.272   6.784   0.138
 6585SOL    HW120654   5.224   6.698   0.155
 6585SOL    HW220655   5.366   6.765   0.110
 6586SOL     OW20656   0.644   1.797   5.565
 6586SOL    HW120657   0.720   1.859   5.584
 6586SOL    HW220658   0.636   1.783   5.466
 6587SOL     OW20659   1.949   6.984   4.669
 6587SOL    HW120660   1.900   6.978   4.582
 6587SOL    HW220661   1.889   6.951   4.743
 6588SOL     OW20662   0.847   3.900   1.752
 6588SOL    HW120663   0.896   3.892   1.665
 6588SOL    HW220664   0.778   3.828   1.758
 6589SOL     OW20665   5.198   1.247   6.987
 6589SOL    HW120666   5.221   1.153   7.013
 6589SOL    HW220667   5.109   1.272   0.004
 6590SOL     OW20668   1.196   0.517   5.913
 6590SOL    HW120669   1.222   0.567   5.996
 6590SOL    HW220670   1.113   0.559   5.875
 6591SOL     OW20671   5.176   5.603   2.178
 6591SOL    HW120672   5.260   5.656   2.165
 6591SOL    HW220673   5.167   5.579   2.275
 6592SOL     OW20674   6.148   0.448   3.591
 6592SOL    HW120675   6.223   0.392   3.625
 6592SOL    HW220676   6.184   0.518   3.528
 6593SOL     OW20677   2.224   2.122   2.350
 6593SOL    HW120678   2.183   2.136   2.439
 6593SOL    HW220679   2.317   2.161   2.349
 6594SOL     OW20680   3.429   1.919   6.903
 6594SOL    HW120681   3.363   1.992   6.922
 6594SOL    HW220682   3.397   1.833   6.942
 6595SOL     OW20683   0.536   3.811   7.020
 6595SOL    HW120684   0.631   3.833   6.997
 6595SOL    HW220685   0.534   3.747   0.075
 6596SOL     OW20686   3.311   6.372   4.329
 6596SOL    HW120687   3.379   6.404   4.394
 6596SOL    HW220688   3.309   6.432   4.249
 6597SOL     OW20689   1.802   5.488   1.391
 6597SOL    HW120690   1.707   5.520   1.384
 6597SOL    HW220691   1.817   5.449   1.482
 6598SOL     OW20692   1.534   6.286   4.663
 6598SOL    HW120693   1.454   6.226   4.666
 6598SOL    HW220694   1.580   6.284   4.752
 6599SOL     OW20695   4.487   6.400   5.994
 6599SOL    HW120696   4.506   6.335   6.068
 6599SOL    HW220697   4.388   6.406   5.980
 6600SOL     OW20698   5.018   4.937   5.544
 6600SOL    HW120699   5.019   4.883   5.459
 6600SOL    HW220700   5.071   5.021   5.530
 6601SOL     OW20701   1.253   1.654   5.489
 6601SOL    HW120702   1.327   1.694   5.543
 6601SOL    HW220703   1.284   1.643   5.394
 6602SOL     OW20704   0.568   1.162   2.120
 6602SOL    HW120705   0.469   1.150   2.116
 6602SOL    HW220706   0.599   1.152   2.215
 6603SOL     OW20707   6.780   2.605   3.848
 6603SOL    HW120708   6.724   2.530   3.882
 6603SOL    HW220709   6.767   2.686   3.905
 6604SOL     OW20710   2.191   0.107   0.973
 6604SOL    HW120711   2.147   0.193   0.948
 6604SOL    HW220712   2.151   0.032   0.920
 6605SOL     OW20713   5.488   3.571   1.529
 6605SOL    HW120714   5.488   3.652   1.587
 6605SOL    HW220715   5.558   3.507   1.561
 6606SOL     OW20716   7.009   5.989   1.621
 6606SOL    HW120717   6.989   5.911   1.679
 6606SOL    HW220718   6.925   6.023   1.579
 6607SOL     OW20719   1.770   3.490   2.317
 6607SOL    HW120720   1.698   3.500   2.248
 6607SOL    HW220721   1.730   3.492   2.408
 6608SOL     OW20722   5.953   6.157   0.894
 6608SOL    HW120723   5.891   6.148   0.972
 6608SOL    HW220724   6.047   6.140   0.924
 6609SOL     OW20725   4.541   0.968   5.624
 6609SOL    HW120726   4.449   0.978   5.586
 6609SOL    HW220727   4.536   0.915   5.709
 6610SOL     OW20728   3.194   0.020   0.039
 6610SOL    HW120729   3.157   0.043   6.971
 6610SOL    HW220730   3.274   0.077   0.058
 6611SOL     OW20731   5.100   2.910   3.631
 6611SOL    HW120732   5.107   2.838   3.561
 6611SOL    HW220733   5.191   2.934   3.664
 6612SOL     OW20734   6.124   2.060   6.383
 6612SOL    HW120735   6.024   2.053   6.373
 6612SOL    HW220736   6.145   2.110   6.468
 6613SOL     OW20737   6.537   6.178   4.792
 6613SOL    HW120738   6.522   6.079   4.791
 6613SOL    HW220739   6.600   6.201   4.865
 6614SOL     OW20740   5.514   6.941   0.495
 6614SOL    HW120741   5.610   6.937   0.470
 6614SOL    HW220742   5.459   6.962   0.415
 6615SOL     OW20743   1.107   5.108   2.398
 6615SOL    HW120744   1.131   5.041   2.328
 6615SOL    HW220745   1.175   5.181   2.400
 6616SOL     OW20746   4.283   1.034   5.582
 6616SOL    HW120747   4.254   1.097   5.653
 6616SOL    HW220748   4.210   0.968   5.563
 6617SOL     OW20749   4.162   4.942   3.115
 6617SOL    HW120750   4.210   4.965   3.030
 6617SOL    HW220751   4.155   5.024   3.172
 6618SOL     OW20752   1.409   2.455   2.439
 6618SOL    HW120753   1.487   2.436   2.498
 6618SOL    HW220754   1.438   2.510   2.361
 6619SOL     OW20755   6.430   6.919   4.082
 6619SOL    HW120756   6.466   6.996   4.030
 6619SOL    HW220757   6.479   6.912   4.169
 6620SOL     OW20758   1.637   3.216   4.903
 6620SOL    HW120759   1.599   3.213   4.996
 6620SOL    HW220760   1.630   3.309   4.867
 6621SOL     OW20761   2.991   3.049   6.125
 6621SOL    HW120762   3.067   3.106   6.093
 6621SOL    HW220763   2.983   3.059   6.225
 6622SOL     OW20764   5.736   6.798   1.004
 6622SOL    HW120765   5.718   6.824   0.909
 6622SOL    HW220766   5.828   6.759   1.010
 6623SOL     OW20767   3.212   3.211   5.542
 6623SOL    HW120768   3.200   3.243   5.447
 6623SOL    HW220769   3.276   3.271   5.589
 6624SOL     OW20770   0.573   5.032   6.090
 6624SOL    HW120771   0.521   4.949   6.109
 6624SOL    HW220772   0.544   5.070   6.002
 6625SOL     OW20773   5.116   1.977   5.406
 6625SOL    HW120774   5.019   1.996   5.423
 6625SOL    HW220775   5.135   1.882   5.430
 6626SOL     OW20776   4.843   5.125   5.642
 6626SOL    HW120777   4.878   5.199   5.584
 6626SOL    HW220778   4.900   5.044   5.630
 6627SOL     OW20779   2.332   6.597   4.885
 6627SOL    HW120780   2.374   6.651   4.813
 6627SOL    HW220781   2.237   6.627   4.898
 6628SOL     OW20782   4.604   4.555   4.993
 6628SOL    HW120783   4.631   4.574   5.087
 6628SOL    HW220784   4.504   4.564   4.985
 6629SOL     OW20785   4.417   5.910   0.303
 6629SOL    HW120786   4.347   5.952   0.245
 6629SOL    HW220787   4.439   5.819   0.268
 6630SOL     OW20788   3.854   1.113   1.812
 6630SOL    HW120789   3.947   1.098   1.846
 6630SOL    HW220790   3.801   1.029   1.823
 6631SOL     OW20791   2.726   5.635   3.540
 6631SOL    HW120792   2.730   5.735   3.538
 6631SOL    HW220793   2.806   5.600   3.588
 6632SOL     OW20794   0.007   6.643   1.426
 6632SOL    HW120795   0.065   6.705   1.374
 6632SOL    HW220796   6.937   6.640   1.385
 6633SOL     OW20797   0.632   4.490   6.264
 6633SOL    HW120798   0.686   4.440   6.196
 6633SOL    HW220799   0.548   4.524   6.221
 6634SOL     OW20800   5.248   2.280   3.978
 6634SOL    HW120801   5.149   2.286   3.973
 6634SOL    HW220802   5.285   2.360   4.024
 6635SOL     OW20803   4.411   4.668   3.059
 6635SOL    HW120804   4.375   4.620   3.139
 6635SOL    HW220805   4.453   4.754   3.087
 6636SOL     OW20806   5.173   2.627   5.922
 6636SOL    HW120807   5.147   2.705   5.979
 6636SOL    HW220808   5.248   2.654   5.861
 6637SOL     OW20809   1.458   0.104   6.544
 6637SOL    HW120810   1.362   0.130   6.540
 6637SOL    HW220811   1.498   0.139   6.629
 6638SOL     OW20812   3.199   3.606   3.946
 6638SOL    HW120813   3.268   3.541   3.977
 6638SOL    HW220814   3.236   3.699   3.951
 6639SOL     OW20815   5.194   4.568   6.779
 6639SOL    HW120816   5.238   4.515   6.707
 6639SOL    HW220817   5.261   4.590   6.850
 6640SOL     OW20818   1.719   1.502   5.015
 6640SOL    HW120819   1.782   1.540   5.083
 6640SOL    HW220820   1.770   1.445   4.950
 6641SOL     OW20821   2.122   1.757   6.444
 6641SOL    HW120822   2.123   1.787   6.540
 6641SOL    HW220823   2.204   1.793   6.398
 6642SOL     OW20824   2.556   5.551   6.944
 6642SOL    HW120825   2.486   5.502   6.891
 6642SOL    HW220826   2.565   5.509   0.013
 6643SOL     OW20827   6.019   5.175   0.138
 6643SOL    HW120828   5.947   5.167   0.069
 6643SOL    HW220829   6.095   5.115   0.113
 6644SOL     OW20830   2.451   5.431   2.007
 6644SOL    HW120831   2.491   5.473   1.925
 6644SOL    HW220832   2.462   5.493   2.084
 6645SOL     OW20833   6.446   5.012   0.666
 6645SOL    HW120834   6.490   4.969   0.587
 6645SOL    HW220835   6.485   5.103   0.681
 6646SOL     OW20836   4.375   6.964   4.855
 6646SOL    HW120837   4.400   0.028   4.900
 6646SOL    HW220838   4.281   6.939   4.879
 6647SOL     OW20839   4.807   1.030   1.670
 6647SOL    HW120840   4.852   1.039   1.581
 6647SOL    HW220841   4.876   1.027   1.742
 6648SOL     OW20842   4.359   6.642   3.367
 6648SOL    HW120843   4.441   6.697   3.387
 6648SOL    HW220844   4.345   6.576   3.441
 6649SOL     OW20845   4.730   0.950   6.639
 6649SOL    HW120846   4.686   1.004   6.710
 6649SOL    HW220847   4.827   0.939   6.660
 6650SOL     OW20848   3.773   1.504   5.270
 6650SOL    HW120849   3.769   1.411   5.231
 6650SOL    HW220850   3.798   1.569   5.198
 6651SOL     OW20851   2.226   2.037   5.320
 6651SOL    HW120852   2.138   2.003   5.351
 6651SOL    HW220853   2.215   2.129   5.281
 6652SOL     OW20854   0.659   4.579   0.713
 6652SOL    HW120855   0.744   4.542   0.675
 6652SOL    HW220856   0.657   4.560   0.812
 6653SOL     OW20857   3.027   3.375   2.689
 6653SOL    HW120858   2.987   3.287   2.666
 6653SOL    HW220859   2.974   3.448   2.646
 6654SOL     OW20860   1.148   4.572   1.241
 6654SOL    HW120861   1.135   4.657   1.189
 6654SOL    HW220862   1.205   4.591   1.321
 6655SOL     OW20863   0.869   6.833   3.595
 6655SOL    HW120864   0.935   6.908   3.593
 6655SOL    HW220865   0.785   6.860   3.549
 6656SOL     OW20866   5.741   1.749   3.920
 6656SOL    HW120867   5.775   1.836   3.883
 6656SOL    HW220868   5.715   1.762   4.016
 6657SOL     OW20869   5.691   5.791   6.517
 6657SOL    HW120870   5.666   5.704   6.560
 6657SOL    HW220871   5.663   5.866   6.577
 6658SOL     OW20872   6.693   1.109   4.485
 6658SOL    HW120873   6.694   1.168   4.565
 6658SOL    HW220874   6.702   1.164   4.402
 6659SOL     OW20875   2.389   2.495   0.379
 6659SOL    HW120876   2.325   2.427   0.345
 6659SOL    HW220877   2.355   2.535   0.464
 6660SOL     OW20878   0.934   5.036   1.092
 6660SOL    HW120879   0.941   4.998   1.184
 6660SOL    HW220880   0.937   5.136   1.097
 6661SOL     OW20881   0.781   6.511   5.058
 6661SOL    HW120882   0.763   6.586   5.121
 6661SOL    HW220883   0.833   6.439   5.105
 6662SOL     OW20884   1.083   0.556   0.219
 6662SOL    HW120885   1.092   0.604   0.132
 6662SOL    HW220886   1.024   0.608   0.281
 6663SOL     OW20887   6.551   4.436   4.065
 6663SOL    HW120888   6.565   4.518   4.010
 6663SOL    HW220889   6.526   4.360   4.005
 6664SOL     OW20890   2.152   6.388   0.341
 6664SOL    HW120891   2.130   6.483   0.318
 6664SOL    HW220892   2.069   6.333   0.338
 6665SOL     OW20893   2.069   6.294   4.455
 6665SOL    HW120894   2.089   6.246   4.541
 6665SOL    HW220895   2.062   6.228   4.381
 6666SOL     OW20896   6.343   6.857   5.490
 6666SOL    HW120897   6.397   6.777   5.465
 6666SOL    HW220898   6.386   6.939   5.452
 6667SOL     OW20899   6.597   6.036   6.460
 6667SOL    HW120900   6.601   6.121   6.408
 6667SOL    HW220901   6.564   5.962   6.402
 6668SOL     OW20902   0.163   5.439   1.631
 6668SOL    HW120903   0.081   5.492   1.650
 6668SOL    HW220904   0.139   5.349   1.594
 6669SOL     OW20905   1.636   2.697   3.588
 6669SOL    HW120906   1.729   2.734   3.588
 6669SOL    HW220907   1.579   2.752   3.649
 6670SOL     OW20908   3.303   2.112   5.205
 6670SOL    HW120909   3.249   2.182   5.159
 6670SOL    HW220910   3.371   2.156   5.264
 6671SOL     OW20911   6.156   5.978   0.590
 6671SOL    HW120912   6.193   5.887   0.612
 6671SOL    HW220913   6.057   5.971   0.577
 6672SOL     OW20914   6.606   1.951   6.291
 6672SOL    HW120915   6.553   2.026   6.252
 6672SOL    HW220916   6.623   1.968   6.388
 6673SOL     OW20917   5.314   5.552   4.693
 6673SOL    HW120918   5.216   5.545   4.710
 6673SOL    HW220919   5.333   5.525   4.599
 6674SOL     OW20920   0.391   4.844   6.165
 6674SOL    HW120921   0.461   4.867   6.233
 6674SOL    HW220922   0.360   4.750   6.179
 6675SOL     OW20923   4.862   3.884   1.926
 6675SOL    HW120924   4.866   3.784   1.930
 6675SOL    HW220925   4.862   3.914   1.830
 6676SOL     OW20926   0.106   3.489   5.574
 6676SOL    HW120927   0.198   3.526   5.560
 6676SOL    HW220928   0.088   3.479   5.672
 6677SOL     OW20929   1.424   1.469   6.633
 6677SOL    HW120930   1.346   1.408   6.623
 6677SOL    HW220931   1.507   1.415   6.644
 6678SOL     OW20932   3.151   3.187   6.489
 6678SOL    HW120933   3.183   3.127   6.562
 6678SOL    HW220934   3.230   3.217   6.435
 6679SOL     OW20935   3.074   1.118   4.326
 6679SOL    HW120936   3.150   1.141   4.387
 6679SOL    HW220937   3.091   1.158   4.236
 6680SOL     OW20938   4.661   6.872   6.679
 6680SOL    HW120939   4.648   6.964   6.643
 6680SOL    HW220940   4.650   6.805   6.606
 6681SOL     OW20941   3.981   5.953   1.684
 6681SOL    HW120942   3.994   6.049   1.659
 6681SOL    HW220943   4.014   5.938   1.777
 6682SOL     OW20944   0.176   4.613   2.665
 6682SOL    HW120945   0.149   4.705   2.638
 6682SOL    HW220946   0.274   4.600   2.647
 6683SOL     OW20947   5.914   2.864   5.478
 6683SOL    HW120948   5.913   2.854   5.379
 6683SOL    HW220949   5.834   2.820   5.518
 6684SOL     OW20950   2.697   0.438   1.501
 6684SOL    HW120951   2.784   0.409   1.541
 6684SOL    HW220952   2.710   0.456   1.403
 6685SOL     OW20953   6.727   3.658   5.669
 6685SOL    HW120954   6.712   3.749   5.631
 6685SOL    HW220955   6.640   3.620   5.700
 6686SOL     OW20956   5.579   5.853   4.178
 6686SOL    HW120957   5.498   5.823   4.228
 6686SOL    HW220958   5.561   5.850   4.080
 6687SOL     OW20959   0.918   3.441   6.988
 6687SOL    HW120960   0.975   3.509   0.013
 6687SOL    HW220961   0.962   3.414   6.902
 6688SOL     OW20962   0.460   4.032   2.756
 6688SOL    HW120963   0.365   4.021   2.728
 6688SOL    HW220964   0.520   4.012   2.678
 6689SOL     OW20965   4.449   2.835   0.439
 6689SOL    HW120966   4.509   2.768   0.484
 6689SOL    HW220967   4.476   2.844   0.343
 6690SOL     OW20968   1.910   1.265   0.676
 6690SOL    HW120969   1.923   1.321   0.595
 6690SOL    HW220970   1.825   1.213   0.668
 6691SOL     OW20971   2.594   6.581   1.600
 6691SOL    HW120972   2.579   6.672   1.561
 6691SOL    HW220973   2.507   6.545   1.634
 6692SOL     OW20974   3.976   4.088   5.172
 6692SOL    HW120975   4.005   4.109   5.265
 6692SOL    HW220976   3.918   4.161   5.138
 6693SOL     OW20977   4.156   3.760   4.951
 6693SOL    HW120978   4.246   3.717   4.955
 6693SOL    HW220979   4.096   3.706   4.892
 6694SOL     OW20980   3.845   6.078   1.011
 6694SOL    HW120981   3.878   6.156   0.958
 6694SOL    HW220982   3.923   6.023   1.041
 6695SOL     OW20983   3.143   1.584   0.271
 6695SOL    HW120984   3.162   1.608   0.366
 6695SOL    HW220985   3.058   1.628   0.241
 6696SOL     OW20986   2.163   3.079   5.638
 6696SOL    HW120987   2.097   3.004   5.635
 6696SOL    HW220988   2.244   3.055   5.584
 6697SOL     OW20989   4.427   2.414   2.505
 6697SOL    HW120990   4.459   2.389   2.596
 6697SOL    HW220991   4.348   2.358   2.481
 6698SOL     OW20992   2.704   2.537   1.510
 6698SOL    HW120993   2.610   2.540   1.546
 6698SOL    HW220994   2.706   2.476   1.430
 6699SOL     OW20995   2.407   5.230   6.224
 6699SOL    HW120996   2.340   5.156   6.215
 6699SOL    HW220997   2.471   5.209   6.298
 6700SOL     OW20998   6.835   6.841   1.090
 6700SOL    HW120999   6.846   6.780   1.011
 6700SOL    HW221000   6.912   6.905   1.094
 6701SOL     OW21001   5.416   3.218   1.723
 6701SOL    HW121002   5.371   3.219   1.812
 6701SOL    HW221003   5.514   3.234   1.735
 6702SOL     OW21004   3.124   1.724   1.995
 6702SOL    HW121005   3.122   1.675   1.908
 6702SOL    HW221006   3.186   1.677   2.059
 6703SOL     OW21007   6.370   2.079   6.904
 6703SOL    HW121008   6.340   2.174   6.907
 6703SOL    HW221009   6.468   2.075   6.886
 6704SOL     OW21010   3.556   1.985   3.490
 6704SOL    HW121011   3.538   2.037   3.407
 6704SOL    HW221012   3.468   1.961   3.533
 6705SOL     OW21013   6.524   2.781   1.751
 6705SOL    HW121014   6.543   2.704   1.691
 6705SOL    HW221015   6.427   2.783   1.773
 6706SOL     OW21016   1.317   4.273   2.052
 6706SOL    HW121017   1.303   4.182   2.014
 6706SOL    HW221018   1.415   4.290   2.062
 6707SOL     OW21019   6.613   5.692   3.676
 6707SOL    HW121020   6.557   5.737   3.607
 6707SOL    HW221021   6.555   5.655   3.748
 6708SOL     OW21022   6.591   5.098   1.799
 6708SOL    HW121023   6.584   5.156   1.718
 6708SOL    HW221024   6.550   5.145   1.877
 6709SOL     OW21025   2.694   6.767   3.400
 6709SOL    HW121026   2.671   6.805   3.310
 6709SOL    HW221027   2.793   6.765   3.411
 6710SOL     OW21028   3.666   1.159   6.136
 6710SOL    HW121029   3.682   1.101   6.216
 6710SOL    HW221030   3.733   1.233   6.135
 6711SOL     OW21031   4.861   5.399   6.180
 6711SOL    HW121032   4.899   5.460   6.249
 6711SOL    HW221033   4.825   5.453   6.104
 6712SOL     OW21034   5.395   4.008   7.018
 6712SOL    HW121035   5.465   3.970   0.056
 6712SOL    HW221036   5.343   4.077   0.047
 6713SOL     OW21037   2.064   0.425   2.424
 6713SOL    HW121038   2.013   0.442   2.340
 6713SOL    HW221039   2.028   0.482   2.498
 6714SOL     OW21040   6.443   1.246   6.098
 6714SOL    HW121041   6.489   1.317   6.045
 6714SOL    HW221042   6.511   1.187   6.142
 6715SOL     OW21043   0.460   0.200   6.721
 6715SOL    HW121044   0.405   0.244   6.791
 6715SOL    HW221045   0.474   0.104   6.745
 6716SOL     OW21046   0.500   5.917   1.328
 6716SOL    HW121047   0.457   5.963   1.406
 6716SOL    HW221048   0.430   5.868   1.277
 6717SOL     OW21049   4.383   2.670   6.698
 6717SOL    HW121050   4.441   2.743   6.662
 6717SOL    HW221051   4.290   2.706   6.710
 6718SOL     OW21052   4.797   0.262   0.184
 6718SOL    HW121053   4.720   0.317   0.217
 6718SOL    HW221054   4.867   0.256   0.255
 6719SOL     OW21055   2.594   0.155   6.827
 6719SOL    HW121056   2.568   0.206   6.909
 6719SOL    HW221057   2.689   0.176   6.803
 6720SOL     OW21058   0.675   6.876   4.052
 6720SOL    HW121059   0.739   6.901   3.979
 6720SOL    HW221060   0.648   6.780   4.041
 6721SOL     OW21061   6.408   0.242   6.166
 6721SOL    HW121062   6.318   0.221   6.203
 6721SOL    HW221063   6.407   0.229   6.067
 6722SOL     OW21064   7.018   3.040   1.379
 6722SOL    HW121065   0.093   3.013   1.370
 6722SOL    HW221066   7.012   3.120   1.439
 6723SOL     OW21067   2.295   6.785   3.186
 6723SOL    HW121068   2.255   6.875   3.170
 6723SOL    HW221069   2.384   6.781   3.141
 6724SOL     OW21070   1.516   3.592   5.707
 6724SOL    HW121071   1.542   3.533   5.631
 6724SOL    HW221072   1.597   3.615   5.761
 6725SOL     OW21073   0.299   4.035   1.454
 6725SOL    HW121074   0.313   4.103   1.526
 6725SOL    HW221075   0.337   4.068   1.368
 6726SOL     OW21076   0.894   2.247   5.195
 6726SOL    HW121077   0.923   2.343   5.203
 6726SOL    HW221078   0.869   2.228   5.100
 6727SOL     OW21079   6.430   4.043   5.177
 6727SOL    HW121080   6.395   4.118   5.233
 6727SOL    HW221081   6.530   4.039   5.186
 6728SOL     OW21082   4.117   1.430   3.285
 6728SOL    HW121083   4.159   1.516   3.256
 6728SOL    HW221084   4.034   1.450   3.337
 6729SOL     OW21085   6.952   1.067   2.576
 6729SOL    HW121086   6.893   1.015   2.638
 6729SOL    HW221087   0.011   1.100   2.626
 6730SOL     OW21088   2.476   6.677   6.994
 6730SOL    HW121089   2.530   6.638   6.919
 6730SOL    HW221090   2.402   6.614   7.018
 6731SOL     OW21091   0.918   6.052   2.155
 6731SOL    HW121092   0.916   5.952   2.156
 6731SOL    HW221093   0.866   6.085   2.076
 6732SOL     OW21094   5.489   5.257   5.611
 6732SOL    HW121095   5.464   5.254   5.708
 6732SOL    HW221096   5.530   5.170   5.584
 6733SOL     OW21097   3.991   4.995   6.978
 6733SOL    HW121098   3.899   4.960   6.962
 6733SOL    HW221099   4.055   4.949   6.918
 6734SOL     OW21100   6.542   2.178   5.062
 6734SOL    HW121101   6.539   2.255   5.126
 6734SOL    HW221102   6.500   2.206   4.975
 6735SOL     OW21103   0.027   4.210   4.662
 6735SOL    HW121104   0.024   4.241   4.757
 6735SOL    HW221105   0.112   4.160   4.645
 6736SOL     OW21106   3.375   3.722   6.895
 6736SOL    HW121107   3.340   3.637   6.936
 6736SOL    HW221108   3.430   3.700   6.815
 6737SOL     OW21109   2.056   2.662   0.471
 6737SOL    HW121110   2.020   2.601   0.400
 6737SOL    HW221111   2.156   2.663   0.467
 6738SOL     OW21112   1.552   5.057   2.597
 6738SOL    HW121113   1.622   5.126   2.578
 6738SOL    HW221114   1.563   4.980   2.534
 6739SOL     OW21115   3.713   5.948   5.475
 6739SOL    HW121116   3.788   5.927   5.412
 6739SOL    HW221117   3.635   5.888   5.454
 6740SOL     OW21118   1.623   0.969   4.157
 6740SOL    HW121119   1.629   0.878   4.199
 6740SOL    HW221120   1.566   1.028   4.214
 6741SOL     OW21121   4.077   1.227   5.404
 6741SOL    HW121122   4.046   1.322   5.396
 6741SOL    HW221123   4.175   1.222   5.385
 6742SOL     OW21124   6.229   5.542   2.929
 6742SOL    HW121125   6.269   5.569   3.017
 6742SOL    HW221126   6.209   5.443   2.931
 6743SOL     OW21127   4.188   4.886   0.450
 6743SOL    HW121128   4.178   4.909   0.354
 6743SOL    HW221129   4.099   4.863   0.489
 6744SOL     OW21130   5.505   4.808   6.804
 6744SOL    HW121131   5.514   4.712   6.776
 6744SOL    HW221132   5.412   4.840   6.783
 6745SOL     OW21133   0.131   0.007   3.074
 6745SOL    HW121134   0.065   0.080   3.055
 6745SOL    HW221135   0.221   0.035   3.041
 6746SOL     OW21136   1.252   1.092   3.244
 6746SOL    HW121137   1.314   1.015   3.260
 6746SOL    HW221138   1.158   1.061   3.258
 6747SOL     OW21139   5.784   0.925   5.131
 6747SOL    HW121140   5.770   1.023   5.145
 6747SOL    HW221141   5.874   0.899   5.166
 6748SOL     OW21142   1.329   0.746   3.507
 6748SOL    HW121143   1.249   0.804   3.524
 6748SOL    HW221144   1.331   0.672   3.574
 6749SOL     OW21145   2.636   6.261   0.506
 6749SOL    HW121146   2.584   6.309   0.436
 6749SOL    HW221147   2.723   6.229   0.468
 6750SOL     OW21148   4.060   2.143   5.345
 6750SOL    HW121149   4.059   2.051   5.385
 6750SOL    HW221150   3.980   2.194   5.377
 6751SOL     OW21151   4.522   0.071   3.624
 6751SOL    HW121152   4.451   0.006   3.651
 6751SOL    HW221153   4.541   0.061   3.527
 6752SOL     OW21154   0.287   2.378   2.792
 6752SOL    HW121155   0.209   2.424   2.835
 6752SOL    HW221156   0.263   2.282   2.774
 6753SOL     OW21157   4.476   0.944   6.223
 6753SOL    HW121158   4.447   1.011   6.291
 6753SOL    HW221159   4.465   0.984   6.131
 6754SOL     OW21160   0.287   1.547   0.124
 6754SOL    HW121161   0.329   1.470   0.173
 6754SOL    HW221162   0.300   1.631   0.176
 6755SOL     OW21163   4.022   0.583   3.345
 6755SOL    HW121164   4.053   0.563   3.252
 6755SOL    HW221165   4.027   0.681   3.362
 6756SOL     OW21166   3.816   5.579   5.229
 6756SOL    HW121167   3.877   5.595   5.152
 6756SOL    HW221168   3.810   5.481   5.248
 6757SOL     OW21169   4.402   0.225   1.670
 6757SOL    HW121170   4.417   0.267   1.759
 6757SOL    HW221171   4.314   0.254   1.633
 6758SOL     OW21172   0.073   2.525   1.470
 6758SOL    HW121173   7.020   2.578   1.430
 6758SOL    HW221174   0.047   2.496   1.562
 6759SOL     OW21175   0.831   4.471   3.900
 6759SOL    HW121176   0.771   4.544   3.867
 6759SOL    HW221177   0.908   4.460   3.838
 6760SOL     OW21178   6.786   4.421   3.535
 6760SOL    HW121179   6.696   4.464   3.545
 6760SOL    HW221180   6.847   4.483   3.485
 6761SOL     OW21181   6.474   2.181   6.201
 6761SOL    HW121182   6.530   2.194   6.119
 6761SOL    HW221183   6.378   2.173   6.175
 6762SOL     OW21184   0.237   5.303   3.655
 6762SOL    HW121185   0.278   5.261   3.574
 6762SOL    HW221186   0.158   5.358   3.628
 6763SOL     OW21187   0.056   4.888   3.045
 6763SOL    HW121188   0.111   4.941   2.980
 6763SOL    HW221189   0.014   4.950   3.112
 6764SOL     OW21190   2.568   5.283   6.688
 6764SOL    HW121191   2.659   5.305   6.723
 6764SOL    HW221192   2.529   5.364   6.644
 6765SOL     OW21193   4.858   4.888   4.037
 6765SOL    HW121194   4.957   4.877   4.029
 6765SOL    HW221195   4.825   4.842   4.119
 6766SOL     OW21196   5.056   6.278   6.172
 6766SOL    HW121197   5.146   6.309   6.202
 6766SOL    HW221198   5.020   6.341   6.103
 6767SOL     OW21199   1.124   2.480   0.464
 6767SOL    HW121200   1.042   2.531   0.438
 6767SOL    HW221201   1.189   2.480   0.388
 6768SOL     OW21202   0.822   6.384   3.405
 6768SOL    HW121203   0.836   6.359   3.309
 6768SOL    HW221204   0.899   6.351   3.459
 6769SOL     OW21205   2.921   0.282   5.766
 6769SOL    HW121206   2.838   0.306   5.817
 6769SOL    HW221207   2.977   0.220   5.820
 6770SOL     OW21208   5.796   1.885   3.290
 6770SOL    HW121209   5.819   1.824   3.366
 6770SOL    HW221210   5.737   1.838   3.225
 6771SOL     OW21211   3.820   1.260   2.105
 6771SOL    HW121212   3.731   1.272   2.060
 6771SOL    HW221213   3.807   1.208   2.189
 6772SOL     OW21214   4.710   2.177   2.505
 6772SOL    HW121215   4.630   2.167   2.564
 6772SOL    HW221216   4.695   2.253   2.441
 6773SOL     OW21217   0.123   6.523   1.844
 6773SOL    HW121218   0.154   6.443   1.896
 6773SOL    HW221219   0.044   6.563   1.890
 6774SOL     OW21220   1.354   3.382   4.479
 6774SOL    HW121221   1.356   3.417   4.573
 6774SOL    HW221222   1.447   3.354   4.453
 6775SOL     OW21223   1.013   2.021   3.173
 6775SOL    HW121224   0.968   2.110   3.166
 6775SOL    HW221225   1.083   2.025   3.245
 6776SOL     OW21226   4.266   3.664   1.215
 6776SOL    HW121227   4.193   3.665   1.147
 6776SOL    HW221228   4.313   3.576   1.211
 6777SOL     OW21229   4.393   5.612   0.637
 6777SOL    HW121230   4.334   5.565   0.573
 6777SOL    HW221231   4.343   5.685   0.682
 6778SOL     OW21232   6.022   3.687   2.109
 6778SOL    HW121233   5.935   3.709   2.155
 6778SOL    HW221234   6.003   3.645   2.021
 6779SOL     OW21235   5.269   4.728   6.405
 6779SOL    HW121236   5.209   4.802   6.433
 6779SOL    HW221237   5.348   4.765   6.356
 6780SOL     OW21238   0.840   3.389   3.079
 6780SOL    HW121239   0.789   3.475   3.071
 6780SOL    HW221240   0.787   3.315   3.036
 6781SOL     OW21241   6.866   1.837   4.064
 6781SOL    HW121242   6.782   1.891   4.059
 6781SOL    HW221243   6.945   1.898   4.062
 6782SOL     OW21244   0.551   1.457   3.148
 6782SOL    HW121245   0.491   1.534   3.128
 6782SOL    HW221246   0.628   1.487   3.204
 6783SOL     OW21247   1.194   3.104   6.156
 6783SOL    HW121248   1.215   3.162   6.077
 6783SOL    HW221249   1.182   3.010   6.126
 6784SOL     OW21250   2.397   4.011   0.981
 6784SOL    HW121251   2.375   4.079   1.050
 6784SOL    HW221252   2.467   4.047   0.919
 6785SOL     OW21253   5.746   5.081   5.348
 6785SOL    HW121254   5.813   5.010   5.371
 6785SOL    HW221255   5.656   5.054   5.382
 6786SOL     OW21256   0.697   3.012   6.598
 6786SOL    HW121257   0.722   2.934   6.542
 6786SOL    HW221258   0.780   3.052   6.639
 6787SOL     OW21259   3.265   2.129   1.230
 6787SOL    HW121260   3.333   2.147   1.301
 6787SOL    HW221261   3.304   2.151   1.140
 6788SOL     OW21262   0.348   4.388   2.316
 6788SOL    HW121263   0.443   4.413   2.296
 6788SOL    HW221264   0.338   4.289   2.311
 6789SOL     OW21265   0.165   4.303   4.102
 6789SOL    HW121266   0.231   4.350   4.160
 6789SOL    HW221267   0.155   4.209   4.132
 6790SOL     OW21268   0.476   4.297   6.998
 6790SOL    HW121269   0.570   4.297   6.966
 6790SOL    HW221270   0.440   4.203   6.998
 6791SOL     OW21271   4.225   2.163   2.653
 6791SOL    HW121272   4.216   2.184   2.556
 6791SOL    HW221273   4.144   2.114   2.684
 6792SOL     OW21274   5.276   0.065   5.462
 6792SOL    HW121275   5.279   0.044   5.560
 6792SOL    HW221276   5.335   0.143   5.444
 6793SOL     OW21277   3.428   0.491   6.977
 6793SOL    HW121278   3.401   0.398   6.954
 6793SOL    HW221279   3.510   0.489   0.012
 6794SOL     OW21280   5.311   1.391   5.403
 6794SOL    HW121281   5.214   1.395   5.428
 6794SOL    HW221282   5.320   1.395   5.303
 6795SOL     OW21283   0.877   6.223   0.043
 6795SOL    HW121284   0.858   6.320   0.056
 6795SOL    HW221285   0.817   6.186   6.993
 6796SOL     OW21286   5.982   0.041   2.229
 6796SOL    HW121287   6.015   0.112   2.291
 6796SOL    HW221288   6.014   0.061   2.137
 6797SOL     OW21289   6.457   1.711   0.707
 6797SOL    HW121290   6.455   1.811   0.708
 6797SOL    HW221291   6.476   1.679   0.614
 6798SOL     OW21292   6.166   0.503   1.550
 6798SOL    HW121293   6.215   0.464   1.628
 6798SOL    HW221294   6.159   0.602   1.562
 6799SOL     OW21295   5.845   6.875   2.352
 6799SOL    HW121296   5.907   6.939   2.306
 6799SOL    HW221297   5.765   6.924   2.385
 6800SOL     OW21298   2.405   2.637   1.996
 6800SOL    HW121299   2.478   2.569   2.000
 6800SOL    HW221300   2.356   2.638   2.083
 6801SOL     OW21301   1.026   6.618   3.697
 6801SOL    HW121302   0.981   6.683   3.635
 6801SOL    HW221303   1.101   6.572   3.648
 6802SOL     OW21304   3.606   6.121   1.387
 6802SOL    HW121305   3.607   6.072   1.475
 6802SOL    HW221306   3.644   6.212   1.399
 6803SOL     OW21307   3.972   4.309   6.640
 6803SOL    HW121308   4.036   4.233   6.653
 6803SOL    HW221309   3.880   4.279   6.665
 6804SOL     OW21310   3.548   5.225   3.211
 6804SOL    HW121311   3.615   5.218   3.285
 6804SOL    HW221312   3.497   5.139   3.204
 6805SOL     OW21313   0.541   5.243   6.793
 6805SOL    HW121314   0.557   5.152   6.832
 6805SOL    HW221315   0.564   5.313   6.862
 6806SOL     OW21316   6.854   0.749   4.365
 6806SOL    HW121317   6.832   0.790   4.276
 6806SOL    HW221318   6.835   0.815   4.438
 6807SOL     OW21319   3.854   3.984   2.901
 6807SOL    HW121320   3.868   4.054   2.831
 6807SOL    HW221321   3.759   3.952   2.898
 6808SOL     OW21322   6.750   1.250   5.120
 6808SOL    HW121323   6.810   1.318   5.079
 6808SOL    HW221324   6.781   1.158   5.093
 6809SOL     OW21325   6.614   3.569   0.580
 6809SOL    HW121326   6.681   3.505   0.618
 6809SOL    HW221327   6.523   3.529   0.587
 6810SOL     OW21328   3.085   0.852   2.412
 6810SOL    HW121329   3.172   0.891   2.441
 6810SOL    HW221330   3.099   0.756   2.387
 6811SOL     OW21331   6.310   3.051   2.279
 6811SOL    HW121332   6.282   2.974   2.222
 6811SOL    HW221333   6.363   3.018   2.357
 6812SOL     OW21334   3.756   4.253   5.143
 6812SOL    HW121335   3.697   4.213   5.212
 6812SOL    HW221336   3.701   4.280   5.064
 6813SOL     OW21337   5.761   3.271   2.552
 6813SOL    HW121338   5.791   3.244   2.461
 6813SOL    HW221339   5.667   3.241   2.566
 6814SOL     OW21340   4.504   1.656   6.642
 6814SOL    HW121341   4.423   1.677   6.586
 6814SOL    HW221342   4.509   1.720   6.718
 6815SOL     OW21343   2.634   6.252   6.823
 6815SOL    HW121344   2.681   6.178   6.871
 6815SOL    HW221345   2.700   6.301   6.765
 6816SOL     OW21346   6.881   1.429   5.416
 6816SOL    HW121347   6.886   1.331   5.396
 6816SOL    HW221348   6.795   1.449   5.464
 6817SOL     OW21349   2.493   2.557   3.892
 6817SOL    HW121350   2.482   2.481   3.828
 6817SOL    HW221351   2.471   2.643   3.845
 6818SOL     OW21352   2.034   6.589   0.178
 6818SOL    HW121353   2.049   6.654   0.104
 6818SOL    HW221354   1.986   6.634   0.253
 6819SOL     OW21355   4.955   1.447   3.030
 6819SOL    HW121356   4.877   1.509   3.040
 6819SOL    HW221357   5.039   1.500   3.026
 6820SOL     OW21358   1.227   5.797   1.678
 6820SOL    HW121359   1.256   5.732   1.608
 6820SOL    HW221360   1.224   5.751   1.767
 6821SOL     OW21361   4.414   2.705   5.453
 6821SOL    HW121362   4.403   2.679   5.549
 6821SOL    HW221363   4.375   2.796   5.439
 6822SOL     OW21364   6.057   2.456   5.761
 6822SOL    HW121365   6.123   2.438   5.834
 6822SOL    HW221366   5.969   2.417   5.787
 6823SOL     OW21367   5.801   4.381   6.237
 6823SOL    HW121368   5.840   4.301   6.283
 6823SOL    HW221369   5.875   4.439   6.204
 6824SOL     OW21370   1.618   1.349   0.541
 6824SOL    HW121371   1.555   1.422   0.514
 6824SOL    HW221372   1.705   1.362   0.495
 6825SOL     OW21373   6.063   0.117   0.161
 6825SOL    HW121374   6.010   0.088   0.082
 6825SOL    HW221375   6.157   0.083   0.153
 6826SOL     OW21376   1.561   3.858   3.233
 6826SOL    HW121377   1.547   3.765   3.201
 6826SOL    HW221378   1.499   3.920   3.185
 6827SOL     OW21379   5.183   5.476   6.181
 6827SOL    HW121380   5.101   5.519   6.220
 6827SOL    HW221381   5.197   5.510   6.088
 6828SOL     OW21382   3.923   1.657   2.698
 6828SOL    HW121383   3.891   1.651   2.792
 6828SOL    HW221384   3.844   1.654   2.636
 6829SOL     OW21385   5.575   6.583   5.193
 6829SOL    HW121386   5.648   6.650   5.174
 6829SOL    HW221387   5.539   6.598   5.285
 6830SOL     OW21388   5.472   0.566   3.503
 6830SOL    HW121389   5.448   0.578   3.407
 6830SOL    HW221390   5.488   0.470   3.522
 6831SOL     OW21391   1.931   0.957   5.384
 6831SOL    HW121392   1.982   0.967   5.470
 6831SOL    HW221393   1.857   1.025   5.381
 6832SOL     OW21394   2.602   4.095   0.837
 6832SOL    HW121395   2.685   4.152   0.832
 6832SOL    HW221396   2.580   4.061   0.745
 6833SOL     OW21397   2.238   4.641   6.201
 6833SOL    HW121398   2.162   4.654   6.137
 6833SOL    HW221399   2.303   4.717   6.192
 6834SOL     OW21400   6.037   0.064   0.818
 6834SOL    HW121401   6.078   0.144   0.775
 6834SOL    HW221402   6.076   0.052   0.910
 6835SOL     OW21403   3.311   1.627   4.418
 6835SOL    HW121404   3.368   1.549   4.393
 6835SOL    HW221405   3.227   1.625   4.363
 6836SOL     OW21406   2.479   3.976   6.077
 6836SOL    HW121407   2.517   3.890   6.044
 6836SOL    HW221408   2.489   3.982   6.176
 6837SOL     OW21409   0.702   1.734   2.843
 6837SOL    HW121410   0.786   1.739   2.897
 6837SOL    HW221411   0.681   1.826   2.808
 6838SOL     OW21412   2.946   4.014   6.251
 6838SOL    HW121413   2.868   4.076   6.245
 6838SOL    HW221414   3.003   4.024   6.170
 6839SOL     OW21415   5.095   1.370   5.125
 6839SOL    HW121416   5.075   1.467   5.108
 6839SOL    HW221417   5.026   1.332   5.186
 6840SOL     OW21418   2.954   6.658   5.187
 6840SOL    HW121419   2.872   6.702   5.224
 6840SOL    HW221420   3.011   6.626   5.263
 6841SOL     OW21421   3.930   5.074   0.807
 6841SOL    HW121422   3.879   4.993   0.837
 6841SOL    HW221423   3.883   5.157   0.839
 6842SOL     OW21424   2.593   2.597   0.261
 6842SOL    HW121425   2.559   2.592   0.167
 6842SOL    HW221426   2.537   2.539   0.320
 6843SOL     OW21427   5.326   0.359   2.158
 6843SOL    HW121428   5.246   0.414   2.134
 6843SOL    HW221429   5.376   0.336   2.074
 6844SOL     OW21430   6.181   6.178   3.805
 6844SOL    HW121431   6.240   6.099   3.824
 6844SOL    HW221432   6.187   6.243   3.881
 6845SOL     OW21433   5.296   4.340   2.606
 6845SOL    HW121434   5.228   4.371   2.673
 6845SOL    HW221435   5.388   4.357   2.641
 6846SOL     OW21436   4.074   3.021   1.543
 6846SOL    HW121437   4.052   3.036   1.447
 6846SOL    HW221438   4.172   3.003   1.552
 6847SOL     OW21439   6.834   3.998   1.909
 6847SOL    HW121440   6.775   4.047   1.973
 6847SOL    HW221441   6.820   4.034   1.817
 6848SOL     OW21442   3.200   6.596   3.562
 6848SOL    HW121443   3.184   6.588   3.464
 6848SOL    HW221444   3.293   6.565   3.584
 6849SOL     OW21445   3.091   5.438   4.596
 6849SOL    HW121446   3.178   5.453   4.550
 6849SOL    HW221447   3.102   5.453   4.694
 6850SOL     OW21448   5.252   3.406   2.413
 6850SOL    HW121449   5.333   3.400   2.471
 6850SOL    HW221450   5.189   3.332   2.437
 6851SOL     OW21451   1.477   2.896   3.774
 6851SOL    HW121452   1.425   2.878   3.858
 6851SOL    HW221453   1.562   2.943   3.798
 6852SOL     OW21454   1.364   4.767   1.302
 6852SOL    HW121455   1.299   4.837   1.332
 6852SOL    HW221456   1.376   4.773   1.203
 6853SOL     OW21457   6.750   3.629   6.370
 6853SOL    HW121458   6.813   3.696   6.409
 6853SOL    HW221459   6.687   3.674   6.306
 6854SOL     OW21460   6.364   2.080   5.768
 6854SOL    HW121461   6.446   2.048   5.721
 6854SOL    HW221462   6.325   2.006   5.822
 6855SOL     OW21463   3.196   5.852   2.532
 6855SOL    HW121464   3.281   5.883   2.573
 6855SOL    HW221465   3.195   5.874   2.435
 6856SOL     OW21466   5.381   4.856   5.719
 6856SOL    HW121467   5.319   4.933   5.736
 6856SOL    HW221468   5.404   4.812   5.806
 6857SOL     OW21469   3.305   1.700   7.007
 6857SOL    HW121470   3.349   1.634   0.046
 6857SOL    HW221471   3.208   1.708   0.009
 6858SOL     OW21472   3.857   3.262   4.121
 6858SOL    HW121473   3.768   3.251   4.165
 6858SOL    HW221474   3.927   3.218   4.176
 6859SOL     OW21475   1.309   6.781   1.255
 6859SOL    HW121476   1.352   6.733   1.332
 6859SOL    HW221477   1.218   6.745   1.239
 6860SOL     OW21478   6.026   5.599   1.401
 6860SOL    HW121479   6.020   5.501   1.421
 6860SOL    HW221480   5.935   5.636   1.383
 6861SOL     OW21481   5.797   4.401   0.835
 6861SOL    HW121482   5.823   4.444   0.749
 6861SOL    HW221483   5.741   4.320   0.816
 6862SOL     OW21484   2.083   4.456   4.715
 6862SOL    HW121485   2.147   4.416   4.782
 6862SOL    HW221486   2.135   4.508   4.647
 6863SOL     OW21487   5.614   1.351   4.914
 6863SOL    HW121488   5.644   1.265   4.953
 6863SOL    HW221489   5.605   1.341   4.815
 6864SOL     OW21490   3.712   5.990   3.823
 6864SOL    HW121491   3.701   5.893   3.801
 6864SOL    HW221492   3.623   6.029   3.848
 6865SOL     OW21493   6.759   5.534   2.980
 6865SOL    HW121494   6.789   5.484   3.061
 6865SOL    HW221495   6.804   5.624   2.978
 6866SOL     OW21496   6.374   4.547   2.198
 6866SOL    HW121497   6.295   4.550   2.260
 6866SOL    HW221498   6.419   4.458   2.205
 6867SOL     OW21499   1.569   4.743   1.498
 6867SOL    HW121500   1.662   4.739   1.463
 6867SOL    HW221501   1.504   4.727   1.424
 6868SOL     OW21502   1.128   5.383   5.938
 6868SOL    HW121503   1.116   5.414   6.032
 6868SOL    HW221504   1.116   5.460   5.875
 6869SOL     OW21505   6.134   1.254   5.215
 6869SOL    HW121506   6.211   1.248   5.279
 6869SOL    HW221507   6.069   1.322   5.247
 6870SOL     OW21508   6.824   5.012   2.157
 6870SOL    HW121509   6.745   5.002   2.096
 6870SOL    HW221510   6.882   4.931   2.150
 6871SOL     OW21511   5.409   4.617   2.138
 6871SOL    HW121512   5.455   4.614   2.227
 6871SOL    HW221513   5.310   4.625   2.151
 6872SOL     OW21514   1.064   3.605   0.770
 6872SOL    HW121515   1.012   3.578   0.852
 6872SOL    HW221516   1.157   3.630   0.796
 6873SOL     OW21517   6.464   4.032   4.898
 6873SOL    HW121518   6.420   4.052   4.986
 6873SOL    HW221519   6.450   4.109   4.836
 6874SOL     OW21520   0.990   4.773   2.911
 6874SOL    HW121521   1.028   4.784   3.003
 6874SOL    HW221522   0.992   4.861   2.864
 6875SOL     OW21523   1.151   2.576   3.646
 6875SOL    HW121524   1.225   2.510   3.631
 6875SOL    HW221525   1.066   2.538   3.608
 6876SOL     OW21526   4.402   6.042   4.970
 6876SOL    HW121527   4.414   6.080   5.062
 6876SOL    HW221528   4.446   6.103   4.903
 6877SOL     OW21529   2.906   4.342   6.502
 6877SOL    HW121530   2.808   4.323   6.508
 6877SOL    HW221531   2.944   4.294   6.423
 6878SOL     OW21532   2.667   2.495   5.247
 6878SOL    HW121533   2.752   2.539   5.274
 6878SOL    HW221534   2.662   2.488   5.148
 6879SOL     OW21535   0.963   2.362   0.214
 6879SOL    HW121536   0.981   2.370   0.116
 6879SOL    HW221537   0.990   2.447   0.259
 6880SOL     OW21538   1.895   3.687   5.472
 6880SOL    HW121539   1.991   3.663   5.482
 6880SOL    HW221540   1.866   3.742   5.551
 6881SOL     OW21541   0.582   3.973   2.516
 6881SOL    HW121542   0.596   4.032   2.436
 6881SOL    HW221543   0.651   3.901   2.517
 6882SOL     OW21544   3.200   0.590   5.984
 6882SOL    HW121545   3.126   0.610   5.919
 6882SOL    HW221546   3.270   0.661   5.978
 6883SOL     OW21547   3.991   1.873   0.867
 6883SOL    HW121548   3.951   1.910   0.783
 6883SOL    HW221549   3.922   1.869   0.938
 6884SOL     OW21550   1.789   4.049   4.481
 6884SOL    HW121551   1.768   3.975   4.546
 6884SOL    HW221552   1.791   4.136   4.530
 6885SOL     OW21553   4.054   5.877   4.767
 6885SOL    HW121554   3.956   5.895   4.772
 6885SOL    HW221555   4.083   5.874   4.672
 6886SOL     OW21556   6.944   0.675   3.948
 6886SOL    HW121557   0.019   0.658   3.928
 6886SOL    HW221558   6.887   0.626   3.883
 6887SOL     OW21559   5.097   6.490   5.757
 6887SOL    HW121560   5.052   6.483   5.667
 6887SOL    HW221561   5.196   6.492   5.744
 6888SOL     OW21562   5.322   6.437   6.903
 6888SOL    HW121563   5.251   6.369   6.884
 6888SOL    HW221564   5.398   6.423   6.839
 6889SOL     OW21565   1.891   2.633   5.113
 6889SOL    HW121566   1.872   2.720   5.069
 6889SOL    HW221567   1.974   2.641   5.169
 6890SOL     OW21568   3.392   6.581   1.287
 6890SOL    HW121569   3.313   6.598   1.228
 6890SOL    HW221570   3.457   6.523   1.239
 6891SOL     OW21571   2.241   4.176   4.314
 6891SOL    HW121572   2.234   4.108   4.387
 6891SOL    HW221573   2.150   4.213   4.294
 6892SOL     OW21574   3.417   1.309   3.374
 6892SOL    HW121575   3.463   1.227   3.342
 6892SOL    HW221576   3.399   1.370   3.297
 6893SOL     OW21577   5.463   5.262   0.013
 6893SOL    HW121578   5.497   5.240   6.943
 6893SOL    HW221579   5.380   5.316   0.005
 6894SOL     OW21580   6.166   5.020   0.362
 6894SOL    HW121581   6.146   5.082   0.438
 6894SOL    HW221582   6.263   4.998   0.361
 6895SOL     OW21583   2.494   5.496   6.535
 6895SOL    HW121584   2.455   5.588   6.533
 6895SOL    HW221585   2.459   5.444   6.457
 6896SOL     OW21586   2.054   6.721   3.752
 6896SOL    HW121587   2.131   6.783   3.769
 6896SOL    HW221588   2.045   6.657   3.829
 6897SOL     OW21589   2.917   3.661   0.089
 6897SOL    HW121590   2.893   3.566   0.067
 6897SOL    HW221591   2.874   3.687   0.175
 6898SOL     OW21592   3.691   1.617   2.514
 6898SOL    HW121593   3.646   1.530   2.534
 6898SOL    HW221594   3.623   1.688   2.498
 6899SOL     OW21595   5.127   6.568   1.237
 6899SOL    HW121596   5.160   6.583   1.330
 6899SOL    HW221597   5.163   6.482   1.203
 6900SOL     OW21598   6.327   0.584   5.864
 6900SOL    HW121599   6.321   0.491   5.899
 6900SOL    HW221600   6.294   0.587   5.770
 6901SOL     OW21601   0.527   7.005   6.085
 6901SOL    HW121602   0.547   0.077   6.053
 6901SOL    HW221603   0.603   6.945   6.061
 6902SOL     OW21604   6.025   6.801   0.499
 6902SOL    HW121605   6.049   6.808   0.596
 6902SOL    HW221606   6.056   6.713   0.463
 6903SOL     OW21607   4.100   5.243   4.602
 6903SOL    HW121608   4.089   5.275   4.696
 6903SOL    HW221609   4.182   5.284   4.562
 6904SOL     OW21610   5.870   2.074   4.121
 6904SOL    HW121611   5.946   2.067   4.056
 6904SOL    HW221612   5.826   2.164   4.111
 6905SOL     OW21613   5.917   6.625   6.699
 6905SOL    HW121614   5.840   6.595   6.755
 6905SOL    HW221615   5.993   6.561   6.710
 6906SOL     OW21616   4.257   1.052   4.450
 6906SOL    HW121617   4.268   1.089   4.358
 6906SOL    HW221618   4.203   0.968   4.446
 6907SOL     OW21619   5.047   2.081   1.108
 6907SOL    HW121620   4.978   2.025   1.153
 6907SOL    HW221621   5.014   2.111   1.019
 6908SOL     OW21622   1.256   6.394   5.782
 6908SOL    HW121623   1.244   6.305   5.825
 6908SOL    HW221624   1.243   6.466   5.850
 6909SOL     OW21625   5.957   4.249   1.739
 6909SOL    HW121626   5.915   4.338   1.760
 6909SOL    HW221627   5.968   4.197   1.824
 6910SOL     OW21628   0.137   1.965   3.700
 6910SOL    HW121629   0.237   1.959   3.700
 6910SOL    HW221630   0.109   2.045   3.647
 6911SOL     OW21631   5.124   6.530   3.605
 6911SOL    HW121632   5.100   6.534   3.702
 6911SOL    HW221633   5.216   6.493   3.595
 6912SOL     OW21634   3.989   5.206   0.258
 6912SOL    HW121635   4.016   5.113   0.232
 6912SOL    HW221636   4.024   5.227   0.349
 6913SOL     OW21637   5.218   5.094   5.792
 6913SOL    HW121638   5.191   5.133   5.704
 6913SOL    HW221639   5.136   5.066   5.843
 6914SOL     OW21640   5.292   4.732   0.196
 6914SOL    HW121641   5.281   4.805   0.129
 6914SOL    HW221642   5.232   4.747   0.273
 6915SOL     OW21643   6.255   3.929   1.698
 6915SOL    HW121644   6.181   3.990   1.727
 6915SOL    HW221645   6.315   3.978   1.635
 6916SOL     OW21646   6.047   3.622   6.737
 6916SOL    HW121647   6.059   3.718   6.760
 6916SOL    HW221648   5.953   3.593   6.757
 6917SOL     OW21649   3.465   5.799   0.795
 6917SOL    HW121650   3.512   5.876   0.838
 6917SOL    HW221651   3.406   5.754   0.861
 6918SOL     OW21652   0.652   3.045   4.359
 6918SOL    HW121653   0.741   3.054   4.316
 6918SOL    HW221654   0.639   3.121   4.423
 6919SOL     OW21655   0.326   6.167   3.264
 6919SOL    HW121656   0.273   6.201   3.342
 6919SOL    HW221657   0.264   6.119   3.201
 6920SOL     OW21658   4.112   5.451   5.291
 6920SOL    HW121659   4.102   5.363   5.243
 6920SOL    HW221660   4.065   5.445   5.379
 6921SOL     OW21661   5.009   6.314   3.426
 6921SOL    HW121662   5.068   6.394   3.418
 6921SOL    HW221663   5.059   6.240   3.472
 6922SOL     OW21664   2.314   5.442   6.848
 6922SOL    HW121665   2.223   5.483   6.852
 6922SOL    HW221666   2.314   5.368   6.781
 6923SOL     OW21667   4.726   5.173   3.391
 6923SOL    HW121668   4.668   5.098   3.424
 6923SOL    HW221669   4.819   5.140   3.377
 6924SOL     OW21670   1.189   4.291   6.916
 6924SOL    HW121671   1.230   4.380   6.935
 6924SOL    HW221672   1.206   4.229   6.992
 6925SOL     OW21673   3.820   6.057   4.482
 6925SOL    HW121674   3.902   6.095   4.525
 6925SOL    HW221675   3.744   6.062   4.546
 6926SOL     OW21676   3.028   3.314   2.323
 6926SOL    HW121677   2.970   3.387   2.287
 6926SOL    HW221678   3.025   3.236   2.261
 6927SOL     OW21679   5.286   3.179   6.232
 6927SOL    HW121680   5.186   3.182   6.226
 6927SOL    HW221681   5.317   3.249   6.296
 6928SOL     OW21682   6.686   5.929   0.657
 6928SOL    HW121683   6.712   6.011   0.607
 6928SOL    HW221684   6.645   5.862   0.595
 6929SOL     OW21685   4.602   5.335   1.217
 6929SOL    HW121686   4.643   5.327   1.308
 6929SOL    HW221687   4.649   5.407   1.166
 6930SOL     OW21688   6.730   6.962   2.224
 6930SOL    HW121689   6.654   6.904   2.195
 6930SOL    HW221690   6.720   0.032   2.185
 6931SOL     OW21691   1.632   0.400   2.604
 6931SOL    HW121692   1.622   0.436   2.511
 6931SOL    HW221693   1.675   0.310   2.601
 6932SOL     OW21694   3.981   7.014   0.803
 6932SOL    HW121695   4.012   0.045   0.724
 6932SOL    HW221696   3.887   6.983   0.789
 6933SOL     OW21697   3.048   5.687   5.272
 6933SOL    HW121698   2.996   5.768   5.244
 6933SOL    HW221699   3.051   5.621   5.197
 6934SOL     OW21700   4.905   4.197   5.877
 6934SOL    HW121701   4.853   4.250   5.944
 6934SOL    HW221702   4.999   4.186   5.909
 6935SOL     OW21703   4.586   5.912   3.343
 6935SOL    HW121704   4.536   5.993   3.312
 6935SOL    HW221705   4.551   5.882   3.432
 6936SOL     OW21706   6.531   2.611   3.164
 6936SOL    HW121707   6.611   2.601   3.223
 6936SOL    HW221708   6.475   2.528   3.170
 6937SOL     OW21709   6.620   6.188   0.149
 6937SOL    HW121710   6.554   6.223   0.216
 6937SOL    HW221711   6.576   6.119   0.092
 6938SOL     OW21712   5.073   3.511   5.863
 6938SOL    HW121713   5.040   3.527   5.956
 6938SOL    HW221714   5.170   3.490   5.865
 6939SOL     OW21715   0.151   4.235   1.176
 6939SOL    HW121716   0.217   4.177   1.128
 6939SOL    HW221717   0.162   4.330   1.148
 6940SOL     OW21718   4.607   1.377   0.522
 6940SOL    HW121719   4.515   1.412   0.510
 6940SOL    HW221720   4.607   1.304   0.590
 6941SOL     OW21721   3.328   2.968   3.254
 6941SOL    HW121722   3.410   2.914   3.271
 6941SOL    HW221723   3.310   2.971   3.156
 6942SOL     OW21724   6.038   2.767   0.988
 6942SOL    HW121725   6.069   2.855   1.023
 6942SOL    HW221726   6.018   2.775   0.890
 6943SOL     OW21727   5.015   6.167   6.613
 6943SOL    HW121728   4.985   6.246   6.560
 6943SOL    HW221729   4.939   6.135   6.670
 6944SOL     OW21730   1.739   3.951   6.344
 6944SOL    HW121731   1.803   3.882   6.311
 6944SOL    HW221732   1.786   4.038   6.356
 6945SOL     OW21733   5.861   3.395   6.133
 6945SOL    HW121734   5.825   3.329   6.199
 6945SOL    HW221735   5.955   3.419   6.158
 6946SOL     OW21736   6.102   6.369   1.462
 6946SOL    HW121737   6.179   6.419   1.500
 6946SOL    HW221738   6.022   6.379   1.521
 6947SOL     OW21739   3.401   6.809   5.698
 6947SOL    HW121740   3.344   6.870   5.642
 6947SOL    HW221741   3.369   6.811   5.792
 6948SOL     OW21742   5.766   0.487   6.366
 6948SOL    HW121743   5.799   0.580   6.385
 6948SOL    HW221744   5.689   0.467   6.425
 6949SOL     OW21745   5.005   0.194   3.856
 6949SOL    HW121746   4.942   0.167   3.783
 6949SOL    HW221747   5.093   0.220   3.815
 6950SOL     OW21748   2.084   0.318   3.830
 6950SOL    HW121749   2.133   0.242   3.789
 6950SOL    HW221750   2.115   0.331   3.924
 6951SOL     OW21751   6.720   6.286   6.047
 6951SOL    HW121752   6.680   6.341   5.974
 6951SOL    HW221753   6.796   6.233   6.010
 6952SOL     OW21754   0.005   5.705   4.030
 6952SOL    HW121755   6.983   5.639   4.090
 6952SOL    HW221756   0.097   5.674   4.007
 6953SOL     OW21757   5.135   0.452   6.837
 6953SOL    HW121758   5.184   0.507   6.904
 6953SOL    HW221759   5.060   0.505   6.799
 6954SOL     OW21760   0.526   3.847   4.352
 6954SOL    HW121761   0.575   3.862   4.438
 6954SOL    HW221762   0.591   3.829   4.279
 6955SOL     OW21763   6.288   0.488   2.179
 6955SOL    HW121764   6.385   0.471   2.200
 6955SOL    HW221765   6.259   0.427   2.106
 6956SOL     OW21766   4.915   6.142   3.244
 6956SOL    HW121767   4.887   6.056   3.288
 6956SOL    HW221768   4.962   6.200   3.310
 6957SOL     OW21769   5.744   5.063   0.852
 6957SOL    HW121770   5.733   5.118   0.935
 6957SOL    HW221771   5.773   5.122   0.777
 6958SOL     OW21772   2.977   4.007   4.912
 6958SOL    HW121773   2.973   3.916   4.869
 6958SOL    HW221774   2.901   4.062   4.879
 6959SOL     OW21775   2.463   1.352   4.873
 6959SOL    HW121776   2.502   1.295   4.800
 6959SOL    HW221777   2.392   1.301   4.921
 6960SOL     OW21778   1.227   5.757   1.292
 6960SOL    HW121779   1.168   5.756   1.372
 6960SOL    HW221780   1.319   5.789   1.318
 6961SOL     OW21781   6.657   2.446   4.097
 6961SOL    HW121782   6.756   2.428   4.095
 6961SOL    HW221783   6.608   2.359   4.107
 6962SOL     OW21784   5.791   6.103   1.971
 6962SOL    HW121785   5.778   6.007   1.946
 6962SOL    HW221786   5.864   6.111   2.039
 6963SOL     OW21787   6.397   5.324   0.940
 6963SOL    HW121788   6.423   5.228   0.934
 6963SOL    HW221789   6.309   5.337   0.894
 6964SOL     OW21790   3.591   6.238   4.860
 6964SOL    HW121791   3.599   6.203   4.767
 6964SOL    HW221792   3.518   6.307   4.864
 6965SOL     OW21793   0.228   3.538   6.991
 6965SOL    HW121794   0.294   3.600   6.949
 6965SOL    HW221795   0.269   3.447   7.000
 6966SOL     OW21796   6.710   2.253   3.524
 6966SOL    HW121797   6.741   2.226   3.615
 6966SOL    HW221798   6.789   2.273   3.466
 6967SOL     OW21799   1.624   0.195   5.252
 6967SOL    HW121800   1.640   0.274   5.192
 6967SOL    HW221801   1.683   0.202   5.333
 6968SOL     OW21802   4.667   6.428   2.806
 6968SOL    HW121803   4.577   6.427   2.763
 6968SOL    HW221804   4.696   6.334   2.826
 6969SOL     OW21805   2.768   2.352   1.312
 6969SOL    HW121806   2.731   2.271   1.266
 6969SOL    HW221807   2.864   2.363   1.286
 6970SOL     OW21808   3.476   4.154   6.716
 6970SOL    HW121809   3.383   4.117   6.717
 6970SOL    HW221810   3.484   4.222   6.643
 6971SOL     OW21811   6.474   4.384   1.202
 6971SOL    HW121812   6.548   4.317   1.201
 6971SOL    HW221813   6.392   4.342   1.241
 6972SOL     OW21814   5.539   4.764   3.351
 6972SOL    HW121815   5.447   4.787   3.383
 6972SOL    HW221816   5.534   4.686   3.289
 6973SOL     OW21817   1.053   3.343   5.481
 6973SOL    HW121818   0.986   3.378   5.416
 6973SOL    HW221819   1.101   3.419   5.524
 6974SOL     OW21820   3.218   2.952   2.951
 6974SOL    HW121821   3.208   3.011   2.871
 6974SOL    HW221822   3.240   2.859   2.922
 6975SOL     OW21823   1.924   5.824   6.609
 6975SOL    HW121824   1.940   5.890   6.682
 6975SOL    HW221825   1.846   5.852   6.554
 6976SOL     OW21826   4.581   5.431   5.071
 6976SOL    HW121827   4.566   5.332   5.073
 6976SOL    HW221828   4.494   5.478   5.054
 6977SOL     OW21829   4.253   2.337   1.845
 6977SOL    HW121830   4.182   2.267   1.834
 6977SOL    HW221831   4.263   2.389   1.760
 6978SOL     OW21832   4.615   1.639   2.193
 6978SOL    HW121833   4.577   1.632   2.285
 6978SOL    HW221834   4.562   1.705   2.140
 6979SOL     OW21835   1.326   4.141   0.889
 6979SOL    HW121836   1.403   4.148   0.952
 6979SOL    HW221837   1.308   4.044   0.868
 6980SOL     OW21838   1.037   1.193   3.481
 6980SOL    HW121839   1.060   1.291   3.480
 6980SOL    HW221840   0.953   1.178   3.429
 6981SOL     OW21841   3.705   3.473   6.428
 6981SOL    HW121842   3.782   3.530   6.457
 6981SOL    HW221843   3.728   3.426   6.343
 6982SOL     OW21844   1.521   0.578   4.470
 6982SOL    HW121845   1.444   0.574   4.406
 6982SOL    HW221846   1.566   0.666   4.463
 6983SOL     OW21847   4.531   1.891   4.192
 6983SOL    HW121848   4.446   1.935   4.221
 6983SOL    HW221849   4.511   1.820   4.125
 6984SOL     OW21850   2.392   1.650   4.030
 6984SOL    HW121851   2.315   1.668   3.968
 6984SOL    HW221852   2.367   1.681   4.122
 6985SOL     OW21853   3.992   5.702   1.581
 6985SOL    HW121854   3.994   5.794   1.619
 6985SOL    HW221855   4.080   5.657   1.598
 6986SOL     OW21856   2.437   6.549   6.282
 6986SOL    HW121857   2.535   6.567   6.275
 6986SOL    HW221858   2.389   6.591   6.205
 6987SOL     OW21859   0.582   2.307   6.067
 6987SOL    HW121860   0.629   2.218   6.067
 6987SOL    HW221861   0.484   2.293   6.080
 6988SOL     OW21862   6.772   1.233   5.664
 6988SOL    HW121863   6.823   1.260   5.746
 6988SOL    HW221864   6.748   1.315   5.612
 6989SOL     OW21865   0.663   3.561   4.109
 6989SOL    HW121866   0.643   3.613   4.026
 6989SOL    HW221867   0.755   3.584   4.141
 6990SOL     OW21868   5.155   2.396   1.702
 6990SOL    HW121869   5.108   2.310   1.722
 6990SOL    HW221870   5.128   2.465   1.769
 6991SOL     OW21871   2.962   5.015   4.228
 6991SOL    HW121872   2.933   4.936   4.282
 6991SOL    HW221873   2.962   5.097   4.285
 6992SOL     OW21874   5.548   6.648   5.454
 6992SOL    HW121875   5.599   6.575   5.499
 6992SOL    HW221876   5.489   6.693   5.521
 6993SOL     OW21877   6.712   0.839   3.060
 6993SOL    HW121878   6.782   0.768   3.055
 6993SOL    HW221879   6.696   0.864   3.155
 6994SOL     OW21880   0.535   2.856   4.823
 6994SOL    HW121881   0.466   2.784   4.824
 6994SOL    HW221882   0.565   2.871   4.729
 6995SOL     OW21883   6.864   4.571   5.710
 6995SOL    HW121884   6.964   4.574   5.709
 6995SOL    HW221885   6.828   4.663   5.693
 6996SOL     OW21886   2.521   0.584   6.931
 6996SOL    HW121887   2.494   0.678   6.949
 6996SOL    HW221888   2.589   0.554   6.998
 6997SOL     OW21889   6.131   6.231   5.262
 6997SOL    HW121890   6.149   6.315   5.212
 6997SOL    HW221891   6.046   6.190   5.230
 6998SOL     OW21892   1.461   2.012   1.300
 6998SOL    HW121893   1.410   1.926   1.291
 6998SOL    HW221894   1.545   2.007   1.245
 6999SOL     OW21895   2.509   2.396   5.855
 6999SOL    HW121896   2.413   2.382   5.827
 6999SOL    HW221897   2.569   2.381   5.776
 7000SOL     OW21898   6.303   6.104   1.648
 7000SOL    HW121899   6.344   6.179   1.597
 7000SOL    HW221900   6.253   6.140   1.727
 7001SOL     OW21901   2.428   3.059   5.450
 7001SOL    HW121902   2.478   3.041   5.365
 7001SOL    HW221903   2.380   3.146   5.443
 7002SOL     OW21904   2.658   4.890   3.523
 7002SOL    HW121905   2.591   4.876   3.596
 7002SOL    HW221906   2.616   4.943   3.449
 7003SOL     OW21907   3.997   5.374   6.660
 7003SOL    HW121908   3.920   5.354   6.599
 7003SOL    HW221909   4.028   5.290   6.703
 7004SOL     OW21910   1.456   4.940   1.989
 7004SOL    HW121911   1.548   4.932   2.027
 7004SOL    HW221912   1.399   4.865   2.022
 7005SOL     OW21913   1.436   6.848   0.294
 7005SOL    HW121914   1.388   6.908   0.358
 7005SOL    HW221915   1.525   6.825   0.331
 7006SOL     OW21916   4.565   4.720   4.464
 7006SOL    HW121917   4.606   4.730   4.555
 7006SOL    HW221918   4.465   4.720   4.473
 7007SOL     OW21919   4.502   6.724   4.141
 7007SOL    HW121920   4.540   6.641   4.101
 7007SOL    HW221921   4.568   6.798   4.135
 7008SOL     OW21922   1.167   4.515   5.010
 7008SOL    HW121923   1.188   4.422   5.039
 7008SOL    HW221924   1.127   4.566   5.087
 7009SOL     OW21925   6.378   5.645   2.399
 7009SOL    HW121926   6.370   5.606   2.491
 7009SOL    HW221927   6.360   5.744   2.403
 7010SOL     OW21928   5.118   4.579   5.449
 7010SOL    HW121929   5.136   4.515   5.524
 7010SOL    HW221930   5.039   4.636   5.473
 7011SOL     OW21931   4.013   6.764   6.451
 7011SOL    HW121932   3.939   6.709   6.413
 7011SOL    HW221933   4.079   6.786   6.379
 7012SOL     OW21934   1.493   1.503   2.062
 7012SOL    HW121935   1.566   1.482   2.127
 7012SOL    HW221936   1.428   1.567   2.104
 7013SOL     OW21937   0.829   0.649   0.919
 7013SOL    HW121938   0.769   0.581   0.877
 7013SOL    HW221939   0.924   0.629   0.895
 7014SOL     OW21940   4.014   3.068   1.268
 7014SOL    HW121941   4.097   3.091   1.218
 7014SOL    HW221942   3.994   2.970   1.256
 7015SOL     OW21943   5.832   4.488   1.826
 7015SOL    HW121944   5.898   4.549   1.869
 7015SOL    HW221945   5.757   4.471   1.889
 7016SOL     OW21946   3.539   4.857   1.667
 7016SOL    HW121947   3.547   4.781   1.731
 7016SOL    HW221948   3.459   4.913   1.692
 7017SOL     OW21949   2.562   5.999   2.325
 7017SOL    HW121950   2.627   6.059   2.279
 7017SOL    HW221951   2.584   5.994   2.423
 7018SOL     OW21952   6.016   4.434   3.628
 7018SOL    HW121953   6.052   4.455   3.719
 7018SOL    HW221954   6.091   4.406   3.568
 7019SOL     OW21955   2.421   3.974   6.832
 7019SOL    HW121956   2.356   3.898   6.841
 7019SOL    HW221957   2.428   4.000   6.736
 7020SOL     OW21958   5.642   0.065   6.811
 7020SOL    HW121959   5.571   0.067   6.881
 7020SOL    HW221960   5.643   6.996   6.768
 7021SOL     OW21961   1.535   1.374   6.245
 7021SOL    HW121962   1.575   1.297   6.293
 7021SOL    HW221963   1.584   1.458   6.269
 7022SOL     OW21964   4.580   6.049   0.452
 7022SOL    HW121965   4.562   6.009   0.542
 7022SOL    HW221966   4.523   6.002   0.384
 7023SOL     OW21967   0.453   1.705   3.008
 7023SOL    HW121968   0.540   1.737   2.969
 7023SOL    HW221969   0.379   1.724   2.944
 7024SOL     OW21970   1.606   4.479   5.339
 7024SOL    HW121971   1.546   4.533   5.280
 7024SOL    HW221972   1.667   4.424   5.282
 7025SOL     OW21973   2.524   0.894   6.849
 7025SOL    HW121974   2.459   0.850   6.911
 7025SOL    HW221975   2.510   0.860   6.756
 7026SOL     OW21976   3.256   1.961   1.993
 7026SOL    HW121977   3.232   1.992   2.085
 7026SOL    HW221978   3.234   1.863   1.984
 7027SOL     OW21979   2.390   5.223   4.020
 7027SOL    HW121980   2.334   5.300   4.050
 7027SOL    HW221981   2.475   5.256   3.980
 7028SOL     OW21982   4.821   0.217   4.377
 7028SOL    HW121983   4.806   0.309   4.413
 7028SOL    HW221984   4.781   0.210   4.286
 7029SOL     OW21985   5.132   4.964   6.366
 7029SOL    HW121986   5.108   5.058   6.342
 7029SOL    HW221987   5.070   4.901   6.321
 7030SOL     OW21988   0.521   1.567   5.234
 7030SOL    HW121989   0.428   1.536   5.247
 7030SOL    HW221990   0.524   1.667   5.241
 7031SOL     OW21991   1.983   6.573   5.230
 7031SOL    HW121992   2.051   6.554   5.301
 7031SOL    HW221993   2.024   6.558   5.140
 7032SOL     OW21994   3.597   0.475   2.870
 7032SOL    HW121995   3.536   0.419   2.927
 7032SOL    HW221996   3.578   0.572   2.887
 7033SOL     OW21997   1.404   2.615   3.181
 7033SOL    HW121998   1.401   2.648   3.276
 7033SOL    HW221999   1.318   2.637   3.136
 7034SOL     OW22000   6.391   0.555   3.005
 7034SOL    HW122001   6.338   0.640   3.009
 7034SOL    HW222002   6.414   0.526   3.098
 7035SOL     OW22003   2.018   6.769   1.803
 7035SOL    HW122004   2.105   6.785   1.756
 7035SOL    HW222005   2.022   6.681   1.852
 7036SOL     OW22006   0.574   0.732   2.545
 7036SOL    HW122007   0.537   0.725   2.638
 7036SOL    HW222008   0.584   0.641   2.507
 7037SOL     OW22009   1.814   0.925   6.426
 7037SOL    HW122010   1.798   0.846   6.367
 7037SOL    HW222011   1.775   1.006   6.383
 7038SOL     OW22012   1.548   3.654   4.435
 7038SOL    HW122013   1.528   3.598   4.355
 7038SOL    HW222014   1.487   3.629   4.510
 7039SOL     OW22015   2.812   4.800   1.390
 7039SOL    HW122016   2.904   4.773   1.417
 7039SOL    HW222017   2.750   4.723   1.403
 7040SOL     OW22018   6.725   2.295   4.623
 7040SOL    HW122019   6.650   2.299   4.690
 7040SOL    HW222020   6.706   2.358   4.548
 7041SOL     OW22021   0.516   2.168   1.746
 7041SOL    HW122022   0.511   2.142   1.649
 7041SOL    HW222023   0.604   2.140   1.784
 7042SOL     OW22024   5.447   5.241   5.897
 7042SOL    HW122025   5.383   5.165   5.905
 7042SOL    HW222026   5.482   5.265   5.988
 7043SOL     OW22027   2.028   3.473   2.380
 7043SOL    HW122028   2.051   3.522   2.465
 7043SOL    HW222029   1.930   3.485   2.361
 7044SOL     OW22030   4.434   5.091   3.351
 7044SOL    HW122031   4.452   5.028   3.276
 7044SOL    HW222032   4.354   5.148   3.329
 7045SOL     OW22033   5.495   5.487   3.034
 7045SOL    HW122034   5.410   5.516   3.078
 7045SOL    HW222035   5.522   5.556   2.967
 7046SOL     OW22036   3.123   1.548   3.153
 7046SOL    HW122037   3.086   1.537   3.061
 7046SOL    HW222038   3.163   1.639   3.162
 7047SOL     OW22039   0.846   2.670   2.213
 7047SOL    HW122040   0.854   2.618   2.128
 7047SOL    HW222041   0.869   2.611   2.291
 7048SOL     OW22042   6.399   5.963   3.031
 7048SOL    HW122043   6.341   5.945   2.952
 7048SOL    HW222044   6.379   6.054   3.068
 7049SOL     OW22045   3.246   1.241   1.069
 7049SOL    HW122046   3.253   1.328   1.021
 7049SOL    HW222047   3.260   1.166   1.004
 7050SOL     OW22048   3.868   3.986   1.839
 7050SOL    HW122049   3.862   4.073   1.789
 7050SOL    HW222050   3.809   3.990   1.920
 7051SOL     OW22051   7.013   0.705   1.425
 7051SOL    HW122052   0.025   0.696   1.332
 7051SOL    HW222053   6.920   0.668   1.431
 7052SOL     OW22054   5.335   2.831   4.072
 7052SOL    HW122055   5.349   2.750   4.130
 7052SOL    HW222056   5.416   2.889   4.076
 7053SOL     OW22057   0.770   3.323   4.736
 7053SOL    HW122058   0.831   3.397   4.765
 7053SOL    HW222059   0.780   3.246   4.798
 7054SOL     OW22060   0.406   6.562   0.869
 7054SOL    HW122061   0.454   6.648   0.884
 7054SOL    HW222062   0.472   6.487   0.863
 7055SOL     OW22063   3.553   6.369   5.265
 7055SOL    HW122064   3.652   6.382   5.260
 7055SOL    HW222065   3.523   6.380   5.360
 7056SOL     OW22066   6.080   6.158   2.110
 7056SOL    HW122067   6.061   6.062   2.092
 7056SOL    HW222068   6.033   6.186   2.194
 7057SOL     OW22069   1.177   5.914   3.726
 7057SOL    HW122070   1.155   6.011   3.716
 7057SOL    HW222071   1.273   5.898   3.702
 7058SOL     OW22072   6.620   5.588   6.208
 7058SOL    HW122073   6.650   5.560   6.299
 7058SOL    HW222074   6.588   5.682   6.211
 7059SOL     OW22075   6.530   1.034   4.191
 7059SOL    HW122076   6.472   1.055   4.113
 7059SOL    HW222077   6.494   0.954   4.239
 7060SOL     OW22078   4.138   6.897   1.701
 7060SOL    HW122079   4.041   6.921   1.709
 7060SOL    HW222080   4.192   6.958   1.759
 7061SOL     OW22081   1.486   3.422   3.592
 7061SOL    HW122082   1.429   3.346   3.560
 7061SOL    HW222083   1.427   3.499   3.618
 7062SOL     OW22084   4.683   1.114   5.260
 7062SOL    HW122085   4.690   1.052   5.338
 7062SOL    HW222086   4.609   1.179   5.277
 7063SOL     OW22087   0.777   0.542   2.037
 7063SOL    HW122088   0.873   0.548   2.007
 7063SOL    HW222089   0.723   0.496   1.967
 7064SOL     OW22090   3.776   2.387   1.210
 7064SOL    HW122091   3.800   2.396   1.307
 7064SOL    HW222092   3.722   2.304   1.197
 7065SOL     OW22093   3.860   3.834   6.176
 7065SOL    HW122094   3.893   3.821   6.083
 7065SOL    HW222095   3.781   3.896   6.175
 7066SOL     OW22096   4.411   7.005   0.450
 7066SOL    HW122097   4.376   6.912   0.443
 7066SOL    HW222098   4.506   7.008   0.418
 7067SOL     OW22099   1.808   1.848   4.899
 7067SOL    HW122100   1.710   1.866   4.888
 7067SOL    HW222101   1.858   1.934   4.898
 7068SOL     OW22102   0.053   4.455   3.903
 7068SOL    HW122103   6.979   4.439   3.879
 7068SOL    HW222104   0.079   4.394   3.979
 7069SOL     OW22105   5.564   1.284   4.639
 7069SOL    HW122106   5.558   1.349   4.563
 7069SOL    HW222107   5.646   1.228   4.628
 7070SOL     OW22108   6.573   6.068   5.149
 7070SOL    HW122109   6.632   6.100   5.224
 7070SOL    HW222110   6.480   6.054   5.183
 7071SOL     OW22111   1.992   6.315   6.804
 7071SOL    HW122112   1.990   6.326   6.904
 7071SOL    HW222113   1.924   6.377   6.763
 7072SOL     OW22114   1.325   6.019   6.848
 7072SOL    HW122115   1.333   6.113   6.814
 7072SOL    HW222116   1.283   6.019   6.938
 7073SOL     OW22117   4.746   7.001   4.451
 7073SOL    HW122118   4.769   0.074   4.428
 7073SOL    HW222119   4.661   6.999   4.504
 7074SOL     OW22120   4.421   2.253   2.164
 7074SOL    HW122121   4.414   2.352   2.146
 7074SOL    HW222122   4.486   2.213   2.100
 7075SOL     OW22123   2.001   4.745   5.074
 7075SOL    HW122124   2.044   4.800   5.003
 7075SOL    HW222125   1.971   4.658   5.035
 7076SOL     OW22126   5.503   1.938   6.907
 7076SOL    HW122127   5.506   2.005   6.833
 7076SOL    HW222128   5.430   1.871   6.890
 7077SOL     OW22129   2.430   4.393   4.363
 7077SOL    HW122130   2.355   4.327   4.370
 7077SOL    HW222131   2.452   4.408   4.267
 7078SOL     OW22132   0.264   0.265   1.865
 7078SOL    HW122133   0.316   0.350   1.853
 7078SOL    HW222134   0.236   0.256   1.960
 7079SOL     OW22135   6.617   6.241   4.524
 7079SOL    HW122136   6.538   6.187   4.496
 7079SOL    HW222137   6.596   6.289   4.610
 7080SOL     OW22138   2.744   2.334   3.960
 7080SOL    HW122139   2.790   2.404   3.905
 7080SOL    HW222140   2.687   2.379   4.029
 7081SOL     OW22141   3.214   0.517   0.241
 7081SOL    HW122142   3.305   0.558   0.239
 7081SOL    HW222143   3.192   0.481   0.150
 7082SOL     OW22144   6.436   4.145   6.345
 7082SOL    HW122145   6.360   4.208   6.357
 7082SOL    HW222146   6.415   4.081   6.272
 7083SOL     OW22147   2.986   0.301   0.437
 7083SOL    HW122148   3.006   0.399   0.424
 7083SOL    HW222149   2.966   0.260   0.348
 7084SOL     OW22150   0.314   6.400   6.034
 7084SOL    HW122151   0.379   6.328   6.008
 7084SOL    HW222152   0.235   6.397   5.974
 7085SOL     OW22153   0.761   1.939   1.846
 7085SOL    HW122154   0.806   1.911   1.931
 7085SOL    HW222155   0.828   1.943   1.772
 7086SOL     OW22156   5.182   0.900   5.315
 7086SOL    HW122157   5.229   0.974   5.361
 7086SOL    HW222158   5.196   0.815   5.365
 7087SOL     OW22159   6.087   3.109   3.701
 7087SOL    HW122160   6.025   3.095   3.778
 7087SOL    HW222161   6.057   3.053   3.624
 7088SOL     OW22162   5.412   3.060   3.464
 7088SOL    HW122163   5.510   3.039   3.457
 7088SOL    HW222164   5.368   3.046   3.376
 7089SOL     OW22165   3.024   2.198   4.778
 7089SOL    HW122166   3.070   2.229   4.861
 7089SOL    HW222167   3.082   2.217   4.698
 7090SOL     OW22168   2.807   0.401   6.806
 7090SOL    HW122169   2.770   0.361   6.722
 7090SOL    HW222170   2.748   0.475   6.837
 7091SOL     OW22171   0.528   1.448   6.916
 7091SOL    HW122172   0.466   1.493   6.980
 7091SOL    HW222173   0.479   1.426   6.831
 7092SOL     OW22174   4.761   2.986   5.879
 7092SOL    HW122175   4.716   2.939   5.955
 7092SOL    HW222176   4.701   2.988   5.799
 7093SOL     OW22177   3.037   3.734   3.313
 7093SOL    HW122178   2.984   3.731   3.398
 7093SOL    HW222179   3.069   3.827   3.297
 7094SOL     OW22180   0.458   5.666   5.715
 7094SOL    HW122181   0.506   5.733   5.771
 7094SOL    HW222182   0.442   5.704   5.624
 7095SOL     OW22183   3.455   3.804   6.171
 7095SOL    HW122184   3.492   3.782   6.080
 7095SOL    HW222185   3.397   3.885   6.165
 7096SOL     OW22186   6.602   0.754   3.982
 7096SOL    HW122187   6.679   0.712   3.934
 7096SOL    HW222188   6.525   0.691   3.983
 7097SOL     OW22189   5.832   1.408   0.727
 7097SOL    HW122190   5.815   1.504   0.705
 7097SOL    HW222191   5.880   1.365   0.651
 7098SOL     OW22192   1.751   0.066   5.011
 7098SOL    HW122193   1.734   0.093   5.106
 7098SOL    HW222194   1.682   0.108   4.952
 7099SOL     OW22195   3.238   1.253   5.252
 7099SOL    HW122196   3.211   1.314   5.327
 7099SOL    HW222197   3.239   1.304   5.167
 7100SOL     OW22198   5.345   2.587   1.262
 7100SOL    HW122199   5.366   2.489   1.257
 7100SOL    HW222200   5.302   2.607   1.350
 7101SOL     OW22201   2.116   1.140   4.708
 7101SOL    HW122202   2.120   1.124   4.807
 7101SOL    HW222203   2.020   1.150   4.680
 7102SOL     OW22204   4.974   6.729   0.769
 7102SOL    HW122205   4.889   6.765   0.730
 7102SOL    HW222206   5.041   6.717   0.696
 7103SOL     OW22207   4.606   4.753   1.803
 7103SOL    HW122208   4.543   4.773   1.877
 7103SOL    HW222209   4.587   4.663   1.765
 7104SOL     OW22210   0.466   2.802   4.040
 7104SOL    HW122211   0.458   2.803   3.940
 7104SOL    HW222212   0.481   2.896   4.073
 7105SOL     OW22213   3.139   2.852   5.277
 7105SOL    HW122214   3.148   2.888   5.370
 7105SOL    HW222215   3.199   2.772   5.266
 7106SOL     OW22216   3.617   4.153   2.704
 7106SOL    HW122217   3.562   4.129   2.624
 7106SOL    HW222218   3.635   4.251   2.704
 7107SOL     OW22219   3.799   1.429   0.502
 7107SOL    HW122220   3.856   1.353   0.471
 7107SOL    HW222221   3.836   1.466   0.587
 7108SOL     OW22222   4.989   5.578   3.214
 7108SOL    HW122223   4.948   5.547   3.300
 7108SOL    HW222224   4.918   5.586   3.144
 7109SOL     OW22225   2.816   0.635   6.004
 7109SOL    HW122226   2.887   0.599   5.943
 7109SOL    HW222227   2.765   0.707   5.957
 7110SOL     OW22228   3.091   5.994   4.533
 7110SOL    HW122229   3.090   6.091   4.510
 7110SOL    HW222230   3.009   5.972   4.587
 7111SOL     OW22231   1.118   2.059   4.367
 7111SOL    HW122232   1.167   2.142   4.339
 7111SOL    HW222233   1.144   2.036   4.461
 7112SOL     OW22234   1.268   5.447   4.604
 7112SOL    HW122235   1.301   5.356   4.625
 7112SOL    HW222236   1.280   5.507   4.684
 7113SOL     OW22237   3.982   3.906   4.598
 7113SOL    HW122238   3.988   4.004   4.612
 7113SOL    HW222239   3.957   3.861   4.684
 7114SOL     OW22240   3.518   6.960   1.999
 7114SOL    HW122241   3.468   6.908   2.068
 7114SOL    HW222242   3.455   7.021   1.951
 7115SOL     OW22243   5.415   2.950   1.557
 7115SOL    HW122244   5.361   2.939   1.474
 7115SOL    HW222245   5.473   3.031   1.550
 7116SOL     OW22246   6.171   4.345   3.419
 7116SOL    HW122247   6.147   4.344   3.323
 7116SOL    HW222248   6.225   4.263   3.441
 7117SOL     OW22249   7.011   6.557   5.542
 7117SOL    HW122250   0.027   6.471   5.575
 7117SOL    HW222251   6.999   6.552   5.443
 7118SOL     OW22252   2.854   3.674   1.503
 7118SOL    HW122253   2.918   3.609   1.543
 7118SOL    HW222254   2.878   3.767   1.532
 7119SOL     OW22255   4.834   2.190   2.903
 7119SOL    HW122256   4.835   2.282   2.941
 7119SOL    HW222257   4.876   2.127   2.969
 7120SOL     OW22258   3.525   1.406   2.611
 7120SOL    HW122259   3.520   1.356   2.525
 7120SOL    HW222260   3.452   1.474   2.614
 7121SOL     OW22261   1.430   6.623   3.193
 7121SOL    HW122262   1.394   6.611   3.100
 7121SOL    HW222263   1.483   6.542   3.219
 7122SOL     OW22264   0.882   0.217   5.815
 7122SOL    HW122265   0.943   0.139   5.806
 7122SOL    HW222266   0.807   0.209   5.749
 7123SOL     OW22267   2.101   4.699   3.044
 7123SOL    HW122268   2.008   4.707   3.009
 7123SOL    HW222269   2.160   4.659   2.974
 7124SOL     OW22270   0.060   2.343   1.198
 7124SOL    HW122271   0.027   2.388   1.115
 7124SOL    HW222272   0.146   2.384   1.227
 7125SOL     OW22273   0.052   6.960   1.175
 7125SOL    HW122274   0.061   6.938   1.273
 7125SOL    HW222275   0.089   0.030   1.158
 7126SOL     OW22276   3.295   5.355   0.200
 7126SOL    HW122277   3.288   5.384   0.295
 7126SOL    HW222278   3.265   5.429   0.140
 7127SOL     OW22279   1.328   5.558   5.410
 7127SOL    HW122280   1.301   5.485   5.473
 7127SOL    HW222281   1.343   5.643   5.461
 7128SOL     OW22282   3.198   4.760   0.454
 7128SOL    HW122283   3.138   4.839   0.444
 7128SOL    HW222284   3.168   4.706   0.532
 7129SOL     OW22285   2.056   1.804   6.705
 7129SOL    HW122286   1.980   1.746   6.676
 7129SOL    HW222287   2.098   1.765   6.787
 7130SOL     OW22288   3.879   5.951   5.092
 7130SOL    HW122289   3.940   6.028   5.073
 7130SOL    HW222290   3.815   5.941   5.016
 7131SOL     OW22291   2.522   0.693   1.159
 7131SOL    HW122292   2.445   0.752   1.182
 7131SOL    HW222293   2.530   0.685   1.059
 7132SOL     OW22294   3.495   4.370   6.962
 7132SOL    HW122295   3.465   4.325   6.878
 7132SOL    HW222296   3.498   4.469   6.947
 7133SOL     OW22297   5.219   5.616   5.945
 7133SOL    HW122298   5.280   5.573   5.879
 7133SOL    HW222299   5.137   5.649   5.899
 7134SOL     OW22300   5.435   6.847   2.115
 7134SOL    HW122301   5.451   6.867   2.018
 7134SOL    HW222302   5.396   6.927   2.159
 7135SOL     OW22303   1.495   3.603   3.171
 7135SOL    HW122304   1.428   3.569   3.236
 7135SOL    HW222305   1.562   3.531   3.151
 7136SOL     OW22306   2.279   2.995   1.070
 7136SOL    HW122307   2.367   3.000   1.022
 7136SOL    HW222308   2.281   3.054   1.150
 7137SOL     OW22309   3.779   6.947   6.685
 7137SOL    HW122310   3.687   6.941   6.725
 7137SOL    HW222311   3.844   6.898   6.742
 7138SOL     OW22312   1.524   2.575   6.601
 7138SOL    HW122313   1.427   2.593   6.582
 7138SOL    HW222314   1.532   2.519   6.683
 7139SOL     OW22315   5.982   3.873   1.327
 7139SOL    HW122316   5.925   3.813   1.383
 7139SOL    HW222317   6.079   3.853   1.344
 7140SOL     OW22318   5.835   4.435   3.395
 7140SOL    HW122319   5.918   4.459   3.444
 7140SOL    HW222320   5.847   4.347   3.349
 7141SOL     OW22321   3.687   6.002   1.626
 7141SOL    HW122322   3.783   5.977   1.611
 7141SOL    HW222323   3.679   6.053   1.711
 7142SOL     OW22324   4.291   0.314   3.566
 7142SOL    HW122325   4.374   0.258   3.565
 7142SOL    HW222326   4.308   0.400   3.517
 7143SOL     OW22327   1.616   2.630   5.763
 7143SOL    HW122328   1.570   2.570   5.829
 7143SOL    HW222329   1.547   2.671   5.703
 7144SOL     OW22330   1.950   2.400   2.150
 7144SOL    HW122331   2.030   2.428   2.203
 7144SOL    HW222332   1.952   2.445   2.060
 7145SOL     OW22333   4.739   6.966   0.087
 7145SOL    HW122334   4.700   6.985   0.178
 7145SOL    HW222335   4.763   0.031   0.044
 7146SOL     OW22336   2.383   0.211   1.180
 7146SOL    HW122337   2.335   0.152   1.116
 7146SOL    HW222338   2.469   0.242   1.140
 7147SOL     OW22339   0.415   0.379   3.416
 7147SOL    HW122340   0.439   0.469   3.453
 7147SOL    HW222341   0.468   0.308   3.463
 7148SOL     OW22342   0.858   5.839   0.836
 7148SOL    HW122343   0.798   5.879   0.906
 7148SOL    HW222344   0.845   5.888   0.750
 7149SOL     OW22345   6.324   6.697   2.853
 7149SOL    HW122346   6.408   6.659   2.814
 7149SOL    HW222347   6.272   6.742   2.780
 7150SOL     OW22348   2.992   2.169   2.228
 7150SOL    HW122349   2.991   2.079   2.186
 7150SOL    HW222350   2.931   2.230   2.178
 7151SOL     OW22351   1.884   6.285   0.783
 7151SOL    HW122352   1.984   6.294   0.774
 7151SOL    HW222353   1.861   6.253   0.874
 7152SOL     OW22354   0.865   0.618   5.329
 7152SOL    HW122355   0.828   0.628   5.236
 7152SOL    HW222356   0.902   0.706   5.359
 7153SOL     OW22357   3.581   5.440   2.060
 7153SOL    HW122358   3.592   5.537   2.042
 7153SOL    HW222359   3.484   5.415   2.052
 7154SOL     OW22360   3.623   0.165   3.315
 7154SOL    HW122361   3.610   0.185   3.218
 7154SOL    HW222362   3.700   0.219   3.350
 7155SOL     OW22363   2.052   3.788   1.019
 7155SOL    HW122364   2.082   3.865   1.076
 7155SOL    HW222365   2.032   3.709   1.077
 7156SOL     OW22366   0.243   3.647   4.049
 7156SOL    HW122367   0.257   3.635   3.951
 7156SOL    HW222368   0.208   3.562   4.088
 7157SOL     OW22369   0.094   4.222   1.621
 7157SOL    HW122370   0.055   4.129   1.622
 7157SOL    HW222371   0.034   4.282   1.567
 7158SOL     OW22372   0.855   6.957   3.860
 7158SOL    HW122373   0.947   6.947   3.896
 7158SOL    HW222374   0.848   6.908   3.773
 7159SOL     OW22375   0.712   4.954   2.796
 7159SOL    HW122376   0.774   5.002   2.734
 7159SOL    HW222377   0.618   4.966   2.766
 7160SOL     OW22378   5.727   0.150   2.676
 7160SOL    HW122379   5.742   0.169   2.579
 7160SOL    HW222380   5.711   0.236   2.724
 7161SOL     OW22381   2.964   3.788   4.104
 7161SOL    HW122382   2.979   3.864   4.168
 7161SOL    HW222383   2.913   3.716   4.150
 7162SOL     OW22384   1.439   5.599   6.278
 7162SOL    HW122385   1.444   5.537   6.200
 7162SOL    HW222386   1.409   5.689   6.248
 7163SOL     OW22387   2.861   6.682   3.128
 7163SOL    HW122388   2.842   6.774   3.162
 7163SOL    HW222389   2.944   6.684   3.072
 7164SOL     OW22390   1.963   0.750   3.455
 7164SOL    HW122391   1.995   0.705   3.539
 7164SOL    HW222392   1.864   0.764   3.461
 7165SOL     OW22393   6.648   1.093   2.276
 7165SOL    HW122394   6.594   1.035   2.338
 7165SOL    HW222395   6.597   1.176   2.256
 7166SOL     OW22396   6.141   2.594   0.560
 7166SOL    HW122397   6.087   2.587   0.644
 7166SOL    HW222398   6.234   2.623   0.584
 7167SOL     OW22399   5.250   3.445   3.820
 7167SOL    HW122400   5.194   3.475   3.743
 7167SOL    HW222401   5.192   3.404   3.890
 7168SOL     OW22402   1.529   2.376   3.271
 7168SOL    HW122403   1.528   2.475   3.258
 7168SOL    HW222404   1.452   2.349   3.329
 7169SOL     OW22405   0.018   2.319   4.736
 7169SOL    HW122406   6.963   2.381   4.751
 7169SOL    HW222407   0.006   2.237   4.792
 7170SOL     OW22408   4.695   6.912   4.187
 7170SOL    HW122409   4.781   6.950   4.151
 7170SOL    HW222410   4.691   6.925   4.286
 7171SOL     OW22411   5.320   3.613   0.035
 7171SOL    HW122412   5.321   3.698   0.087
 7171SOL    HW222413   5.332   3.633   6.960
 7172SOL     OW22414   1.594   0.434   5.089
 7172SOL    HW122415   1.630   0.500   5.023
 7172SOL    HW222416   1.561   0.353   5.041
 7173SOL     OW22417   6.574   4.540   5.820
 7173SOL    HW122418   6.531   4.460   5.861
 7173SOL    HW222419   6.671   4.522   5.804
 7174SOL     OW22420   0.536   4.477   0.180
 7174SOL    HW122421   0.495   4.429   0.103
 7174SOL    HW222422   0.623   4.433   0.205
 7175SOL     OW22423   5.767   2.410   6.733
 7175SOL    HW122424   5.746   2.404   6.830
 7175SOL    HW222425   5.857   2.369   6.716
 7176SOL     OW22426   0.602   0.352   2.939
 7176SOL    HW122427   0.589   0.451   2.944
 7176SOL    HW222428   0.689   0.328   2.981
 7177SOL     OW22429   1.593   5.491   4.722
 7177SOL    HW122430   1.611   5.394   4.736
 7177SOL    HW222431   1.648   5.525   4.646
 7178SOL     OW22432   2.315   2.028   5.955
 7178SOL    HW122433   2.305   2.073   5.866
 7178SOL    HW222434   2.237   2.050   6.013
 7179SOL     OW22435   2.033   3.651   4.789
 7179SOL    HW122436   1.994   3.575   4.737
 7179SOL    HW222437   1.959   3.702   4.833
 7180SOL     OW22438   3.010   5.620   0.266
 7180SOL    HW122439   3.057   5.611   0.178
 7180SOL    HW222440   3.010   5.531   0.313
 7181SOL     OW22441   2.350   6.660   0.251
 7181SOL    HW122442   2.283   6.724   0.212
 7181SOL    HW222443   2.384   6.696   0.337
 7182SOL     OW22444   0.897   2.682   4.936
 7182SOL    HW122445   0.897   2.727   4.847
 7182SOL    HW222446   0.805   2.652   4.959
 7183SOL     OW22447   2.079   6.279   0.037
 7183SOL    HW122448   2.115   6.195   0.076
 7183SOL    HW222449   2.154   6.343   0.018
 7184SOL     OW22450   6.830   0.790   3.486
 7184SOL    HW122451   6.741   0.749   3.464
 7184SOL    HW222452   6.885   0.723   3.536
 7185SOL     OW22453   5.713   0.430   5.196
 7185SOL    HW122454   5.690   0.490   5.272
 7185SOL    HW222455   5.707   0.335   5.226
 7186SOL     OW22456   6.766   1.402   0.162
 7186SOL    HW122457   6.809   1.479   0.209
 7186SOL    HW222458   6.836   1.334   0.140
 7187SOL     OW22459   3.554   5.067   6.277
 7187SOL    HW122460   3.515   4.975   6.276
 7187SOL    HW222461   3.557   5.104   6.184
 7188SOL     OW22462   6.549   0.910   0.996
 7188SOL    HW122463   6.455   0.881   0.982
 7188SOL    HW222464   6.563   0.999   0.952
 7189SOL     OW22465   0.677   2.008   6.061
 7189SOL    HW122466   0.746   1.948   6.101
 7189SOL    HW222467   0.592   1.957   6.047
 7190SOL     OW22468   0.094   3.819   2.942
 7190SOL    HW122469   0.154   3.896   2.963
 7190SOL    HW222470   0.120   3.781   2.853
 7191SOL     OW22471   0.820   4.310   2.687
 7191SOL    HW122472   0.827   4.246   2.763
 7191SOL    HW222473   0.820   4.404   2.721
 7192SOL     OW22474   3.238   4.745   5.712
 7192SOL    HW122475   3.246   4.720   5.808
 7192SOL    HW222476   3.141   4.758   5.688
 7193SOL     OW22477   1.463   2.794   1.865
 7193SOL    HW122478   1.373   2.761   1.893
 7193SOL    HW222479   1.507   2.726   1.806
 7194SOL     OW22480   2.515   1.909   0.394
 7194SOL    HW122481   2.582   1.920   0.320
 7194SOL    HW222482   2.487   2.000   0.426
 7195SOL     OW22483   0.183   4.439   0.065
 7195SOL    HW122484   0.215   4.439   6.992
 7195SOL    HW222485   0.175   4.345   0.098
 7196SOL     OW22486   3.382   4.177   0.986
 7196SOL    HW122487   3.450   4.187   0.913
 7196SOL    HW222488   3.314   4.250   0.977
 7197SOL     OW22489   0.635   2.717   5.705
 7197SOL    HW122490   0.728   2.737   5.737
 7197SOL    HW222491   0.582   2.802   5.704
 7198SOL     OW22492   0.215   0.406   0.537
 7198SOL    HW122493   0.283   0.476   0.514
 7198SOL    HW222494   0.123   0.442   0.523
 7199SOL     OW22495   2.385   0.929   2.510
 7199SOL    HW122496   2.480   0.951   2.531
 7199SOL    HW222497   2.330   1.012   2.508
 7200SOL     OW22498   2.443   2.062   0.143
 7200SOL    HW122499   2.480   2.015   0.063
 7200SOL    HW222500   2.344   2.051   0.146
 7201SOL     OW22501   0.862   5.791   4.662
 7201SOL    HW122502   0.935   5.822   4.723
 7201SOL    HW222503   0.775   5.791   4.712
 7202SOL     OW22504   4.532   0.283   6.212
 7202SOL    HW122505   4.519   0.333   6.297
 7202SOL    HW222506   4.628   0.255   6.204
 7203SOL     OW22507   0.511   1.852   0.853
 7203SOL    HW122508   0.579   1.781   0.872
 7203SOL    HW222509   0.433   1.840   0.915
 7204SOL     OW22510   0.898   0.260   5.203
 7204SOL    HW122511   0.980   0.245   5.258
 7204SOL    HW222512   0.916   0.233   5.108
 7205SOL     OW22513   1.012   5.541   4.197
 7205SOL    HW122514   0.975   5.449   4.214
 7205SOL    HW222515   1.108   5.544   4.224
 7206SOL     OW22516   1.660   6.997   1.726
 7206SOL    HW122517   1.751   0.006   1.698
 7206SOL    HW222518   1.655   6.897   1.722
 7207SOL     OW22519   3.776   0.078   2.579
 7207SOL    HW122520   3.803   0.041   2.490
 7207SOL    HW222521   3.838   0.153   2.604
 7208SOL     OW22522   4.313   6.843   3.145
 7208SOL    HW122523   4.412   6.856   3.150
 7208SOL    HW222524   4.279   6.880   3.059
 7209SOL     OW22525   2.974   3.675   2.065
 7209SOL    HW122526   3.069   3.671   2.093
 7209SOL    HW222527   2.968   3.681   1.966
 7210SOL     OW22528   4.774   0.918   3.961
 7210SOL    HW122529   4.754   0.821   3.978
 7210SOL    HW222530   4.770   0.937   3.863
 7211SOL     OW22531   3.023   6.292   4.008
 7211SOL    HW122532   3.018   6.239   4.093
 7211SOL    HW222533   3.024   6.229   3.930
 7212SOL     OW22534   0.185   6.428   5.103
 7212SOL    HW122535   0.272   6.477   5.112
 7212SOL    HW222536   0.189   6.369   5.023
 7213SOL     OW22537   5.308   6.767   0.781
 7213SOL    HW122538   5.406   6.751   0.784
 7213SOL    HW222539   5.270   6.726   0.699
 7214SOL     OW22540   0.010   5.456   5.358
 7214SOL    HW122541   6.967   5.512   5.410
 7214SOL    HW222542   0.012   5.364   5.397
 7215SOL     OW22543   6.717   3.710   5.083
 7215SOL    HW122544   6.716   3.691   5.182
 7215SOL    HW222545   6.796   3.665   5.042
 7216SOL     OW22546   3.724   6.529   6.601
 7216SOL    HW122547   3.677   6.590   6.665
 7216SOL    HW222548   3.713   6.435   6.631
 7217SOL     OW22549   2.770   4.670   2.693
 7217SOL    HW122550   2.804   4.579   2.666
 7217SOL    HW222551   2.791   4.685   2.789
 7218SOL     OW22552   5.176   2.955   5.212
 7218SOL    HW122553   5.229   3.041   5.211
 7218SOL    HW222554   5.079   2.976   5.226
 7219SOL     OW22555   4.747   0.180   4.085
 7219SOL    HW122556   4.746   0.258   4.023
 7219SOL    HW222557   4.653   0.147   4.098
 7220SOL     OW22558   0.447   5.422   4.974
 7220SOL    HW122559   0.479   5.332   4.945
 7220SOL    HW222560   0.389   5.412   5.055
 7221SOL     OW22561   3.614   6.136   4.617
 7221SOL    HW122562   3.611   6.234   4.599
 7221SOL    HW222563   3.556   6.089   4.551
 7222SOL     OW22564   5.916   0.321   3.215
 7222SOL    HW122565   5.952   0.367   3.134
 7222SOL    HW222566   5.831   0.365   3.244
 7223SOL     OW22567   2.847   1.696   1.816
 7223SOL    HW122568   2.880   1.755   1.742
 7223SOL    HW222569   2.854   1.601   1.787
 7224SOL     OW22570   5.184   1.989   3.886
 7224SOL    HW122571   5.199   1.979   3.788
 7224SOL    HW222572   5.213   2.080   3.915
 7225SOL     OW22573   0.658   5.841   0.381
 7225SOL    HW122574   0.695   5.856   0.290
 7225SOL    HW222575   0.715   5.775   0.430
 7226SOL     OW22576   6.297   0.827   0.982
 7226SOL    HW122577   6.288   0.787   1.073
 7226SOL    HW222578   6.208   0.832   0.938
 7227SOL     OW22579   1.902   1.551   0.715
 7227SOL    HW122580   1.822   1.517   0.764
 7227SOL    HW222581   1.938   1.631   0.762
 7228SOL     OW22582   0.711   1.526   2.645
 7228SOL    HW122583   0.689   1.596   2.713
 7228SOL    HW222584   0.811   1.521   2.634
 7229SOL     OW22585   1.769   6.111   6.026
 7229SOL    HW122586   1.738   6.056   5.948
 7229SOL    HW222587   1.868   6.120   6.023
 7230SOL     OW22588   4.704   5.430   4.437
 7230SOL    HW122589   4.611   5.465   4.422
 7230SOL    HW222590   4.731   5.449   4.531
 7231SOL     OW22591   4.466   0.743   0.657
 7231SOL    HW122592   4.448   0.841   0.643
 7231SOL    HW222593   4.432   0.691   0.579
 7232SOL     OW22594   5.201   5.271   2.985
 7232SOL    HW122595   5.122   5.296   2.930
 7232SOL    HW222596   5.278   5.250   2.926
 7233SOL     OW22597   0.205   1.569   3.906
 7233SOL    HW122598   0.112   1.590   3.934
 7233SOL    HW222599   0.264   1.567   3.986
 7234SOL     OW22600   5.386   3.376   3.368
 7234SOL    HW122601   5.413   3.390   3.273
 7234SOL    HW222602   5.431   3.293   3.403
 7235SOL     OW22603   6.520   4.137   1.906
 7235SOL    HW122604   6.565   4.142   1.995
 7235SOL    HW222605   6.590   4.139   1.834
 7236SOL     OW22606   2.277   1.959   1.941
 7236SOL    HW122607   2.353   1.955   2.005
 7236SOL    HW222608   2.191   1.954   1.991
 7237SOL     OW22609   4.780   0.888   4.479
 7237SOL    HW122610   4.770   0.840   4.566
 7237SOL    HW222611   4.875   0.914   4.465
 7238SOL     OW22612   2.802   1.448   0.694
 7238SOL    HW122613   2.841   1.367   0.738
 7238SOL    HW222614   2.832   1.530   0.742
 7239SOL     OW22615   1.608   2.552   2.263
 7239SOL    HW122616   1.666   2.472   2.246
 7239SOL    HW222617   1.534   2.555   2.196
 7240SOL     OW22618   2.784   5.200   5.984
 7240SOL    HW122619   2.745   5.232   5.897
 7240SOL    HW222620   2.765   5.267   6.056
 7241SOL     OW22621   2.031   0.576   0.672
 7241SOL    HW122622   1.965   0.570   0.747
 7241SOL    HW222623   2.018   0.662   0.624
 7242SOL     OW22624   6.728   6.106   0.444
 7242SOL    HW122625   6.779   6.088   0.360
 7242SOL    HW222626   6.739   6.202   0.470
 7243SOL     OW22627   6.648   4.716   6.034
 7243SOL    HW122628   6.623   4.813   6.033
 7243SOL    HW222629   6.635   4.677   5.943
 7244SOL     OW22630   5.738   0.473   1.615
 7244SOL    HW122631   5.773   0.416   1.689
 7244SOL    HW222632   5.805   0.479   1.542
 7245SOL     OW22633   0.888   2.182   4.932
 7245SOL    HW122634   0.987   2.187   4.942
 7245SOL    HW222635   0.859   2.241   4.857
 7246SOL     OW22636   6.424   0.546   4.051
 7246SOL    HW122637   6.330   0.512   4.053
 7246SOL    HW222638   6.480   0.493   4.115
 7247SOL     OW22639   3.184   0.086   3.887
 7247SOL    HW122640   3.201   0.130   3.975
 7247SOL    HW222641   3.105   0.026   3.895
 7248SOL     OW22642   3.129   1.652   3.681
 7248SOL    HW122643   3.114   1.568   3.734
 7248SOL    HW222644   3.124   1.632   3.584
 7249SOL     OW22645   6.250   4.177   1.984
 7249SOL    HW122646   6.339   4.156   1.945
 7249SOL    HW222647   6.239   4.277   1.989
 7250SOL     OW22648   4.059   6.904   6.183
 7250SOL    HW122649   4.083   6.926   6.089
 7250SOL    HW222650   3.965   6.870   6.187
 7251SOL     OW22651   0.694   0.149   5.613
 7251SOL    HW122652   0.699   0.132   5.514
 7251SOL    HW222653   0.675   0.063   5.660
 7252SOL     OW22654   3.091   3.397   2.956
 7252SOL    HW122655   3.077   3.306   2.995
 7252SOL    HW222656   3.069   3.394   2.858
 7253SOL     OW22657   2.773   6.327   6.180
 7253SOL    HW122658   2.755   6.411   6.231
 7253SOL    HW222659   2.774   6.347   6.082
 7254SOL     OW22660   4.054   5.159   4.082
 7254SOL    HW122661   4.144   5.125   4.108
 7254SOL    HW222662   4.044   5.156   3.983
 7255SOL     OW22663   3.574   3.859   0.866
 7255SOL    HW122664   3.597   3.956   0.865
 7255SOL    HW222665   3.638   3.809   0.807
 7256SOL     OW22666   3.855   4.914   4.582
 7256SOL    HW122667   3.796   4.903   4.662
 7256SOL    HW222668   3.821   4.988   4.525
 7257SOL     OW22669   4.877   3.143   4.031
 7257SOL    HW122670   4.972   3.172   4.025
 7257SOL    HW222671   4.848   3.105   3.944
 7258SOL     OW22672   4.153   0.873   3.027
 7258SOL    HW122673   4.239   0.827   3.050
 7258SOL    HW222674   4.169   0.971   3.015
 7259SOL     OW22675   3.263   3.281   1.144
 7259SOL    HW122676   3.231   3.190   1.116
 7259SOL    HW222677   3.258   3.288   1.244
 7260SOL     OW22678   3.149   1.860   2.891
 7260SOL    HW122679   3.188   1.952   2.894
 7260SOL    HW222680   3.174   1.815   2.805
 7261SOL     OW22681   1.415   3.550   1.452
 7261SOL    HW122682   1.503   3.596   1.442
 7261SOL    HW222683   1.428   3.465   1.503
 7262SOL     OW22684   5.197   1.726   5.463
 7262SOL    HW122685   5.252   1.643   5.479
 7262SOL    HW222686   5.139   1.743   5.543
 7263SOL     OW22687   0.706   6.272   1.400
 7263SOL    HW122688   0.610   6.264   1.372
 7263SOL    HW222689   0.759   6.314   1.326
 7264SOL     OW22690   5.815   1.260   6.464
 7264SOL    HW122691   5.716   1.258   6.474
 7264SOL    HW222692   5.853   1.331   6.523
 7265SOL     OW22693   5.345   5.503   6.388
 7265SOL    HW122694   5.363   5.598   6.362
 7265SOL    HW222695   5.300   5.456   6.312
 7266SOL     OW22696   5.185   0.165   1.317
 7266SOL    HW122697   5.098   0.122   1.344
 7266SOL    HW222698   5.240   0.099   1.266
 7267SOL     OW22699   6.807   6.328   5.757
 7267SOL    HW122700   6.808   6.345   5.659
 7267SOL    HW222701   6.801   6.229   5.774
 7268SOL     OW22702   4.499   4.929   3.136
 7268SOL    HW122703   4.593   4.945   3.105
 7268SOL    HW222704   4.435   4.965   3.068
 7269SOL     OW22705   6.807   6.044   1.427
 7269SOL    HW122706   6.713   6.010   1.422
 7269SOL    HW222707   6.812   6.136   1.389
 7270SOL     OW22708   0.795   3.268   5.306
 7270SOL    HW122709   0.706   3.314   5.296
 7270SOL    HW222710   0.793   3.182   5.254
 7271SOL     OW22711   0.335   5.828   4.182
 7271SOL    HW122712   0.426   5.834   4.224
 7271SOL    HW222713   0.266   5.862   4.245
 7272SOL     OW22714   5.309   4.915   2.296
 7272SOL    HW122715   5.297   4.830   2.244
 7272SOL    HW222716   5.320   4.991   2.232
 7273SOL     OW22717   5.473   4.262   1.738
 7273SOL    HW122718   5.476   4.362   1.739
 7273SOL    HW222719   5.560   4.226   1.704
 7274SOL     OW22720   0.947   6.081   6.751
 7274SOL    HW122721   0.982   6.097   6.658
 7274SOL    HW222722   0.931   5.984   6.765
 7275SOL     OW22723   6.830   0.867   2.734
 7275SOL    HW122724   6.740   0.882   2.775
 7275SOL    HW222725   6.846   0.769   2.723
 7276SOL     OW22726   3.773   1.351   3.110
 7276SOL    HW122727   3.705   1.279   3.108
 7276SOL    HW222728   3.773   1.395   3.200
 7277SOL     OW22729   4.506   0.973   4.079
 7277SOL    HW122730   4.593   0.941   4.041
 7277SOL    HW222731   4.486   0.922   4.163
 7278SOL     OW22732   3.411   2.151   1.873
 7278SOL    HW122733   3.506   2.150   1.903
 7278SOL    HW222734   3.360   2.080   1.922
 7279SOL     OW22735   4.492   3.140   6.188
 7279SOL    HW122736   4.513   3.178   6.098
 7279SOL    HW222737   4.393   3.135   6.200
 7280SOL     OW22738   0.109   1.916   4.300
 7280SOL    HW122739   0.108   1.983   4.374
 7280SOL    HW222740   0.083   1.960   4.214
 7281SOL     OW22741   1.820   0.631   0.201
 7281SOL    HW122742   1.738   0.574   0.203
 7281SOL    HW222743   1.873   0.616   0.285
 7282SOL     OW22744   6.104   6.806   0.796
 7282SOL    HW122745   6.087   6.904   0.806
 7282SOL    HW222746   6.067   6.757   0.875
 7283SOL     OW22747   3.450   0.376   1.833
 7283SOL    HW122748   3.446   0.408   1.738
 7283SOL    HW222749   3.364   0.329   1.856
 7284SOL     OW22750   6.892   2.532   4.827
 7284SOL    HW122751   6.805   2.580   4.836
 7284SOL    HW222752   6.966   2.599   4.815
 7285SOL     OW22753   5.829   3.900   1.588
 7285SOL    HW122754   5.836   3.942   1.679
 7285SOL    HW222755   5.851   3.803   1.594
 7286SOL     OW22756   0.693   0.228   1.534
 7286SOL    HW122757   0.793   0.224   1.539
 7286SOL    HW222758   0.654   0.166   1.602
 7287SOL     OW22759   6.452   3.019   4.836
 7287SOL    HW122760   6.360   2.990   4.810
 7287SOL    HW222761   6.515   2.942   4.826
 7288SOL     OW22762   0.932   1.851   2.033
 7288SOL    HW122763   0.969   1.778   2.092
 7288SOL    HW222764   1.002   1.879   1.968
 7289SOL     OW22765   6.375   1.567   3.189
 7289SOL    HW122766   6.397   1.497   3.257
 7289SOL    HW222767   6.383   1.658   3.231
 7290SOL     OW22768   2.791   0.869   5.405
 7290SOL    HW122769   2.797   0.807   5.482
 7290SOL    HW222770   2.857   0.842   5.334
 7291SOL     OW22771   2.216   0.389   1.015
 7291SOL    HW122772   2.258   0.368   1.103
 7291SOL    HW222773   2.144   0.456   1.027
 7292SOL     OW22774   3.047   6.875   2.317
 7292SOL    HW122775   2.968   6.830   2.358
 7292SOL    HW222776   3.100   6.808   2.265
 7293SOL     OW22777   1.754   1.371   5.931
 7293SOL    HW122778   1.666   1.365   5.885
 7293SOL    HW222779   1.820   1.311   5.886
 7294SOL     OW22780   3.328   4.188   0.463
 7294SOL    HW122781   3.403   4.221   0.406
 7294SOL    HW222782   3.335   4.089   0.474
 7295SOL     OW22783   6.869   4.548   1.119
 7295SOL    HW122784   6.963   4.528   1.092
 7295SOL    HW222785   6.866   4.636   1.168
 7296SOL     OW22786   4.553   5.269   2.697
 7296SOL    HW122787   4.455   5.251   2.706
 7296SOL    HW222788   4.603   5.183   2.690
 7297SOL     OW22789   2.587   6.959   1.768
 7297SOL    HW122790   2.532   6.881   1.737
 7297SOL    HW222791   2.652   6.984   1.696
 7298SOL     OW22792   4.974   5.322   6.844
 7298SOL    HW122793   4.905   5.278   6.901
 7298SOL    HW222794   4.929   5.372   6.770
 7299SOL     OW22795   0.706   2.004   0.719
 7299SOL    HW122796   0.779   1.944   0.686
 7299SOL    HW222797   0.624   1.950   0.735
 7300SOL     OW22798   0.452   6.089   2.717
 7300SOL    HW122799   0.440   6.063   2.622
 7300SOL    HW222800   0.401   6.026   2.776
 7301SOL     OW22801   6.652   2.223   5.816
 7301SOL    HW122802   6.590   2.300   5.834
 7301SOL    HW222803   6.659   2.208   5.718
 7302SOL     OW22804   0.447   2.592   5.960
 7302SOL    HW122805   0.379   2.520   5.975
 7302SOL    HW222806   0.423   2.673   6.012
 7303SOL     OW22807   3.744   0.934   6.919
 7303SOL    HW122808   3.798   0.850   6.913
 7303SOL    HW222809   3.805   1.011   6.938
 7304SOL     OW22810   2.992   5.641   1.740
 7304SOL    HW122811   3.072   5.700   1.751
 7304SOL    HW222812   3.016   5.547   1.765
 7305SOL     OW22813   5.438   1.978   1.319
 7305SOL    HW122814   5.500   2.038   1.369
 7305SOL    HW222815   5.344   1.994   1.351
 7306SOL     OW22816   3.517   1.740   1.677
 7306SOL    HW122817   3.599   1.713   1.627
 7306SOL    HW222818   3.464   1.805   1.622
 7307SOL     OW22819   4.278   7.014   2.594
 7307SOL    HW122820   4.279   0.066   2.661
 7307SOL    HW222821   4.365   6.964   2.599
 7308SOL     OW22822   6.571   1.512   4.008
 7308SOL    HW122823   6.571   1.609   3.983
 7308SOL    HW222824   6.489   1.490   4.059
 7309SOL     OW22825   3.264   6.898   1.645
 7309SOL    HW122826   3.319   6.817   1.667
 7309SOL    HW222827   3.281   6.924   1.550
 7310SOL     OW22828   2.361   3.579   0.232
 7310SOL    HW122829   2.326   3.661   0.278
 7310SOL    HW222830   2.398   3.516   0.299
 7311SOL     OW22831   1.626   0.456   0.237
 7311SOL    HW122832   1.545   0.508   0.261
 7311SOL    HW222833   1.600   0.376   0.183
 7312SOL     OW22834   1.025   1.760   4.915
 7312SOL    HW122835   0.993   1.780   4.823
 7312SOL    HW222836   1.076   1.838   4.951
 7313SOL     OW22837   2.141   1.625   0.916
 7313SOL    HW122838   2.227   1.641   0.867
 7313SOL    HW222839   2.072   1.689   0.884
 7314SOL     OW22840   6.899   4.142   6.043
 7314SOL    HW122841   6.849   4.061   6.012
 7314SOL    HW222842   6.846   4.224   6.023
 7315SOL     OW22843   5.207   5.984   2.165
 7315SOL    HW122844   5.169   5.918   2.229
 7315SOL    HW222845   5.248   6.061   2.215
 7316SOL     OW22846   2.944   2.932   6.788
 7316SOL    HW122847   2.904   2.958   6.701
 7316SOL    HW222848   2.885   2.865   6.834
 7317SOL     OW22849   3.733   1.850   1.826
 7317SOL    HW122850   3.656   1.860   1.889
 7317SOL    HW222851   3.740   1.755   1.797
 7318SOL     OW22852   3.166   6.756   3.240
 7318SOL    HW122853   3.132   6.712   3.157
 7318SOL    HW222854   3.249   6.808   3.218
 7319SOL     OW22855   5.693   3.038   6.666
 7319SOL    HW122856   5.630   3.116   6.673
 7319SOL    HW222857   5.665   2.980   6.590
 7320SOL     OW22858   0.556   3.289   0.728
 7320SOL    HW122859   0.632   3.270   0.666
 7320SOL    HW222860   0.474   3.243   0.694
 7321SOL     OW22861   2.444   0.014   6.323
 7321SOL    HW122862   2.531   7.010   6.280
 7321SOL    HW222863   2.445   7.006   6.419
 7322SOL     OW22864   0.236   2.777   2.788
 7322SOL    HW122865   0.163   2.800   2.724
 7322SOL    HW222866   0.321   2.764   2.739
 7323SOL     OW22867   2.399   2.849   1.642
 7323SOL    HW122868   2.404   2.822   1.545
 7323SOL    HW222869   2.413   2.768   1.699
 7324SOL     OW22870   5.572   4.590   2.386
 7324SOL    HW122871   5.545   4.634   2.471
 7324SOL    HW222872   5.585   4.492   2.402
 7325SOL     OW22873   2.942   0.181   5.496
 7325SOL    HW122874   2.954   0.209   5.591
 7325SOL    HW222875   2.978   0.252   5.435
 7326SOL     OW22876   3.444   6.907   6.214
 7326SOL    HW122877   3.406   6.997   6.233
 7326SOL    HW222878   3.419   6.844   6.287
 7327SOL     OW22879   5.887   2.563   4.036
 7327SOL    HW122880   5.951   2.635   4.009
 7327SOL    HW222881   5.794   2.598   4.031
 7328SOL     OW22882   4.599   6.328   5.418
 7328SOL    HW122883   4.617   6.319   5.516
 7328SOL    HW222884   4.686   6.337   5.369
 7329SOL     OW22885   1.264   3.455   0.445
 7329SOL    HW122886   1.226   3.540   0.482
 7329SOL    HW222887   1.245   3.380   0.508
 7330SOL     OW22888   2.272   3.149   1.294
 7330SOL    HW122889   2.371   3.150   1.311
 7330SOL    HW222890   2.225   3.112   1.374
 7331SOL     OW22891   5.617   6.625   1.705
 7331SOL    HW122892   5.644   6.691   1.634
 7331SOL    HW222893   5.535   6.576   1.675
 7332SOL     OW22894   3.186   4.151   6.659
 7332SOL    HW122895   3.204   4.177   6.565
 7332SOL    HW222896   3.108   4.089   6.662
 7333SOL     OW22897   6.304   3.303   2.704
 7333SOL    HW122898   6.350   3.388   2.732
 7333SOL    HW222899   6.239   3.277   2.775
 7334SOL     OW22900   2.560   5.840   6.035
 7334SOL    HW122901   2.625   5.865   5.963
 7334SOL    HW222902   2.517   5.922   6.072
 7335SOL     OW22903   0.232   2.998   3.579
 7335SOL    HW122904   0.164   2.990   3.652
 7335SOL    HW222905   0.187   2.985   3.491
 7336SOL     OW22906   2.532   6.835   1.495
 7336SOL    HW122907   2.610   6.896   1.509
 7336SOL    HW222908   2.504   6.838   1.399
 7337SOL     OW22909   2.128   3.085   1.526
 7337SOL    HW122910   2.121   2.992   1.561
 7337SOL    HW222911   2.182   3.141   1.590
 7338SOL     OW22912   5.203   1.756   1.550
 7338SOL    HW122913   5.302   1.752   1.568
 7338SOL    HW222914   5.158   1.800   1.628
 7339SOL     OW22915   6.788   0.750   5.192
 7339SOL    HW122916   6.742   0.818   5.135
 7339SOL    HW222917   6.732   0.730   5.272
 7340SOL     OW22918   3.570   1.497   0.005
 7340SOL    HW122919   3.554   1.424   6.961
 7340SOL    HW222920   3.510   1.485   0.084
 7341SOL     OW22921   1.016   5.012   4.956
 7341SOL    HW122922   0.987   5.106   4.973
 7341SOL    HW222923   1.005   4.990   4.859
 7342SOL     OW22924   6.512   6.565   0.018
 7342SOL    HW122925   6.480   6.471   0.027
 7342SOL    HW222926   6.609   6.570   0.043
 7343SOL     OW22927   5.364   3.524   1.769
 7343SOL    HW122928   5.405   3.497   1.682
 7343SOL    HW222929   5.372   3.449   1.834
 7344SOL     OW22930   2.329   0.495   6.288
 7344SOL    HW122931   2.311   0.557   6.212
 7344SOL    HW222932   2.327   0.547   6.374
 7345SOL     OW22933   5.358   6.371   5.555
 7345SOL    HW122934   5.341   6.273   5.564
 7345SOL    HW222935   5.370   6.395   5.459
 7346SOL     OW22936   3.566   4.613   1.214
 7346SOL    HW122937   3.598   4.673   1.287
 7346SOL    HW222938   3.547   4.522   1.252
 7347SOL     OW22939   6.695   3.299   0.788
 7347SOL    HW122940   6.621   3.328   0.848
 7347SOL    HW222941   6.698   3.199   0.785
 7348SOL     OW22942   1.700   3.264   3.692
 7348SOL    HW122943   1.624   3.326   3.674
 7348SOL    HW222944   1.764   3.307   3.755
 7349SOL     OW22945   4.224   1.720   1.197
 7349SOL    HW122946   4.206   1.702   1.294
 7349SOL    HW222947   4.194   1.642   1.142
 7350SOL     OW22948   1.695   3.758   4.122
 7350SOL    HW122949   1.777   3.806   4.153
 7350SOL    HW222950   1.614   3.798   4.166
 7351SOL     OW22951   4.333   5.689   5.397
 7351SOL    HW122952   4.269   5.615   5.377
 7351SOL    HW222953   4.282   5.770   5.427
 7352SOL     OW22954   1.679   3.373   2.571
 7352SOL    HW122955   1.599   3.372   2.632
 7352SOL    HW222956   1.736   3.293   2.589
 7353SOL     OW22957   0.249   0.540   5.683
 7353SOL    HW122958   0.331   0.519   5.735
 7353SOL    HW222959   0.194   0.607   5.732
 7354SOL     OW22960   0.913   1.545   6.608
 7354SOL    HW122961   0.887   1.453   6.577
 7354SOL    HW222962   0.856   1.570   6.686
 7355SOL     OW22963   1.480   1.152   0.409
 7355SOL    HW122964   1.549   1.212   0.449
 7355SOL    HW222965   1.389   1.186   0.431
 7356SOL     OW22966   4.915   2.862   6.711
 7356SOL    HW122967   5.015   2.862   6.701
 7356SOL    HW222968   4.878   2.946   6.671
 7357SOL     OW22969   4.341   0.925   1.280
 7357SOL    HW122970   4.303   0.880   1.199
 7357SOL    HW222971   4.440   0.937   1.268
 7358SOL     OW22972   1.510   2.846   2.130
 7358SOL    HW122973   1.428   2.818   2.180
 7358SOL    HW222974   1.493   2.840   2.032
 7359SOL     OW22975   2.797   2.897   0.493
 7359SOL    HW122976   2.711   2.946   0.503
 7359SOL    HW222977   2.853   2.911   0.575
 7360SOL     OW22978   3.137   2.954   5.590
 7360SOL    HW122979   3.169   3.049   5.594
 7360SOL    HW222980   3.047   2.947   5.633
 7361SOL     OW22981   4.382   0.423   2.023
 7361SOL    HW122982   4.479   0.438   2.043
 7361SOL    HW222983   4.351   0.492   1.958
 7362SOL     OW22984   0.682   6.466   4.590
 7362SOL    HW122985   0.595   6.459   4.640
 7362SOL    HW222986   0.664   6.470   4.492
 7363SOL     OW22987   3.873   1.570   1.025
 7363SOL    HW122988   3.833   1.659   1.048
 7363SOL    HW222989   3.968   1.582   0.996
 7364SOL     OW22990   4.261   0.315   1.282
 7364SOL    HW122991   4.290   0.366   1.201
 7364SOL    HW222992   4.221   0.228   1.253
 7365SOL     OW22993   1.654   5.971   1.854
 7365SOL    HW122994   1.555   5.973   1.839
 7365SOL    HW222995   1.689   6.064   1.855
 7366SOL     OW22996   2.057   5.410   0.556
 7366SOL    HW122997   2.021   5.464   0.632
 7366SOL    HW222998   2.152   5.434   0.539
 7367SOL     OW22999   4.719   4.056   1.356
 7367SOL    HW123000   4.790   4.115   1.395
 7367SOL    HW223001   4.750   4.018   1.269
 7368SOL     OW23002   3.807   2.994   3.762
 7368SOL    HW123003   3.754   2.944   3.830
 7368SOL    HW223004   3.850   3.073   3.805
 7369SOL     OW23005   4.408   3.342   0.475
 7369SOL    HW123006   4.328   3.401   0.465
 7369SOL    HW223007   4.395   3.259   0.421
 7370SOL     OW23008   2.569   0.777   5.285
 7370SOL    HW123009   2.504   0.763   5.360
 7370SOL    HW223010   2.653   0.816   5.320
 7371SOL     OW23011   2.043   6.096   4.253
 7371SOL    HW123012   2.018   6.030   4.324
 7371SOL    HW223013   2.024   6.056   4.163
 7372SOL     OW23014   2.924   1.440   5.626
 7372SOL    HW123015   2.862   1.512   5.595
 7372SOL    HW223016   2.996   1.426   5.558
 7373SOL     OW23017   5.513   1.159   4.260
 7373SOL    HW123018   5.599   1.210   4.258
 7373SOL    HW223019   5.529   1.066   4.228
 7374SOL     OW23020   2.832   2.254   5.423
 7374SOL    HW123021   2.927   2.286   5.419
 7374SOL    HW223022   2.770   2.331   5.413
 7375SOL     OW23023   1.938   2.971   2.850
 7375SOL    HW123024   1.885   2.887   2.864
 7375SOL    HW223025   2.027   2.962   2.894
 7376SOL     OW23026   3.950   1.651   6.753
 7376SOL    HW123027   3.905   1.668   6.841
 7376SOL    HW223028   3.883   1.663   6.679
 7377SOL     OW23029   5.428   5.241   1.846
 7377SOL    HW123030   5.381   5.311   1.899
 7377SOL    HW223031   5.486   5.285   1.777
 7378SOL     OW23032   0.213   1.583   5.525
 7378SOL    HW123033   0.152   1.518   5.571
 7378SOL    HW223034   0.256   1.538   5.447
 7379SOL     OW23035   3.789   1.972   2.910
 7379SOL    HW123036   3.887   1.981   2.892
 7379SOL    HW223037   3.772   1.978   3.008
 7380SOL     OW23038   6.802   3.139   5.139
 7380SOL    HW123039   6.749   3.222   5.120
 7380SOL    HW223040   6.878   3.132   5.074
 7381SOL     OW23041   5.213   4.045   2.401
 7381SOL    HW123042   5.195   4.139   2.430
 7381SOL    HW223043   5.174   4.029   2.311
 7382SOL     OW23044   0.153   5.854   6.232
 7382SOL    HW123045   0.112   5.806   6.154
 7382SOL    HW223046   0.252   5.846   6.228
 7383SOL     OW23047   0.786   6.379   1.182
 7383SOL    HW123048   0.755   6.461   1.134
 7383SOL    HW223049   0.870   6.346   1.139
 7384SOL     OW23050   5.894   0.754   2.132
 7384SOL    HW123051   5.852   0.677   2.084
 7384SOL    HW223052   5.992   0.754   2.117
 7385SOL     OW23053   4.212   6.140   2.142
 7385SOL    HW123054   4.207   6.067   2.210
 7385SOL    HW223055   4.157   6.218   2.172
 7386SOL     OW23056   0.179   2.046   5.517
 7386SOL    HW123057   0.093   2.063   5.566
 7386SOL    HW223058   0.245   2.006   5.580
 7387SOL     OW23059   4.371   6.507   4.311
 7387SOL    HW123060   4.425   6.591   4.309
 7387SOL    HW223061   4.281   6.526   4.349
 7388SOL     OW23062   0.232   5.082   2.756
 7388SOL    HW123063   0.177   5.152   2.802
 7388SOL    HW223064   0.173   5.005   2.730
 7389SOL     OW23065   0.926   4.211   6.489
 7389SOL    HW123066   0.826   4.219   6.481
 7389SOL    HW223067   0.969   4.239   6.403
 7390SOL     OW23068   2.263   1.134   6.983
 7390SOL    HW123069   2.182   1.176   0.003
 7390SOL    HW223070   2.325   1.205   6.950
 7391SOL     OW23071   4.966   4.417   5.014
 7391SOL    HW123072   5.037   4.425   5.084
 7391SOL    HW223073   4.998   4.356   4.941
 7392SOL     OW23074   2.817   6.093   6.986
 7392SOL    HW123075   2.744   6.140   0.014
 7392SOL    HW223076   2.797   5.995   6.983
 7393SOL     OW23077   5.594   4.743   1.369
 7393SOL    HW123078   5.663   4.792   1.315
 7393SOL    HW223079   5.573   4.796   1.451
 7394SOL     OW23080   2.969   2.847   5.856
 7394SOL    HW123081   2.915   2.880   5.778
 7394SOL    HW223082   2.981   2.922   5.921
 7395SOL     OW23083   2.531   1.660   0.042
 7395SOL    HW123084   2.562   1.641   6.970
 7395SOL    HW223085   2.481   1.580   0.077
 7396SOL     OW23086   0.686   6.740   0.566
 7396SOL    HW123087   0.596   6.782   0.572
 7396SOL    HW223088   0.679   6.653   0.516
 7397SOL     OW23089   4.728   4.896   5.337
 7397SOL    HW123090   4.807   4.856   5.383
 7397SOL    HW223091   4.758   4.943   5.254
 7398SOL     OW23092   2.864   5.290   4.358
 7398SOL    HW123093   2.854   5.241   4.445
 7398SOL    HW223094   2.885   5.386   4.376
 7399SOL     OW23095   1.450   2.928   5.758
 7399SOL    HW123096   1.485   2.908   5.849
 7399SOL    HW223097   1.457   3.026   5.740
 7400SOL     OW23098   3.525   3.420   6.099
 7400SOL    HW123099   3.475   3.358   6.039
 7400SOL    HW223100   3.461   3.470   6.157
 7401SOL     OW23101   1.039   0.769   3.930
 7401SOL    HW123102   1.129   0.805   3.904
 7401SOL    HW223103   1.028   0.775   4.029
 7402SOL     OW23104   2.742   5.542   5.884
 7402SOL    HW123105   2.797   5.462   5.861
 7402SOL    HW223106   2.661   5.546   5.825
 7403SOL     OW23107   1.734   4.083   2.855
 7403SOL    HW123108   1.754   4.181   2.850
 7403SOL    HW223109   1.739   4.053   2.950
 7404SOL     OW23110   2.866   5.114   1.247
 7404SOL    HW123111   2.882   5.101   1.149
 7404SOL    HW223112   2.769   5.100   1.267
 7405SOL     OW23113   2.858   4.835   4.421
 7405SOL    HW123114   2.928   4.777   4.462
 7405SOL    HW223115   2.798   4.871   4.493
 7406SOL     OW23116   0.812   2.836   3.463
 7406SOL    HW123117   0.746   2.904   3.496
 7406SOL    HW223118   0.885   2.825   3.531
 7407SOL     OW23119   0.209   6.300   4.873
 7407SOL    HW123120   0.218   6.209   4.915
 7407SOL    HW223121   0.154   6.293   4.790
 7408SOL     OW23122   1.440   3.217   6.219
 7408SOL    HW123123   1.362   3.155   6.232
 7408SOL    HW223124   1.433   3.260   6.129
 7409SOL     OW23125   0.715   1.240   5.395
 7409SOL    HW123126   0.790   1.223   5.460
 7409SOL    HW223127   0.730   1.328   5.350
 7410SOL     OW23128   0.434   4.853   1.385
 7410SOL    HW123129   0.352   4.828   1.334
 7410SOL    HW223130   0.420   4.834   1.482
 7411SOL     OW23131   2.540   6.707   4.230
 7411SOL    HW123132   2.454   6.664   4.256
 7411SOL    HW223133   2.614   6.671   4.287
 7412SOL     OW23134   4.266   6.978   2.926
 7412SOL    HW123135   4.350   6.984   2.872
 7412SOL    HW223136   4.207   0.035   2.905
 7413SOL     OW23137   4.906   5.350   5.489
 7413SOL    HW123138   4.840   5.308   5.428
 7413SOL    HW223139   4.872   5.438   5.520
 7414SOL     OW23140   0.237   6.834   4.206
 7414SOL    HW123141   0.274   6.808   4.295
 7414SOL    HW223142   0.166   6.903   4.219
 7415SOL     OW23143   1.214   3.571   2.924
 7415SOL    HW123144   1.124   3.609   2.943
 7415SOL    HW223145   1.226   3.486   2.975
 7416SOL     OW23146   3.276   1.152   3.781
 7416SOL    HW123147   3.332   1.219   3.733
 7416SOL    HW223148   3.332   1.071   3.800
 7417SOL     OW23149   1.899   0.533   5.844
 7417SOL    HW123150   1.904   0.542   5.944
 7417SOL    HW223151   1.856   0.614   5.806
 7418SOL     OW23152   3.650   5.738   0.572
 7418SOL    HW123153   3.635   5.731   0.671
 7418SOL    HW223154   3.687   5.652   0.537
 7419SOL     OW23155   6.334   2.256   5.344
 7419SOL    HW123156   6.311   2.299   5.432
 7419SOL    HW223157   6.393   2.318   5.292
 7420SOL     OW23158   0.039   0.047   1.897
 7420SOL    HW123159   0.063   7.017   1.979
 7420SOL    HW223160   0.104   0.123   1.885
 7421SOL     OW23161   3.405   3.398   0.978
 7421SOL    HW123162   3.357   3.341   1.045
 7421SOL    HW223163   3.459   3.340   0.917
 7422SOL     OW23164   0.118   2.895   2.576
 7422SOL    HW123165   0.126   2.879   2.478
 7422SOL    HW223166   0.130   2.993   2.596
 7423SOL     OW23167   6.794   4.328   5.458
 7423SOL    HW123168   6.807   4.393   5.384
 7423SOL    HW223169   6.760   4.377   5.539
 7424SOL     OW23170   0.072   0.423   5.038
 7424SOL    HW123171   0.107   0.377   4.957
 7424SOL    HW223172   0.128   0.504   5.057
 7425SOL     OW23173   4.750   5.955   6.305
 7425SOL    HW123174   4.720   5.956   6.209
 7425SOL    HW223175   4.840   5.997   6.312
 7426SOL     OW23176   1.637   1.290   6.728
 7426SOL    HW123177   1.623   1.211   6.788
 7426SOL    HW223178   1.735   1.300   6.708
 7427SOL     OW23179   3.267   6.554   4.101
 7427SOL    HW123180   3.238   6.494   4.027
 7427SOL    HW223181   3.270   6.649   4.068
 7428SOL     OW23182   3.737   1.378   5.910
 7428SOL    HW123183   3.766   1.447   5.976
 7428SOL    HW223184   3.640   1.391   5.888
 7429SOL     OW23185   6.548   6.620   3.264
 7429SOL    HW123186   6.603   6.667   3.195
 7429SOL    HW223187   6.454   6.609   3.231
 7430SOL     OW23188   0.012   4.030   6.267
 7430SOL    HW123189   6.988   4.069   6.187
 7430SOL    HW223190   0.099   4.077   6.282
 7431SOL     OW23191   0.348   2.990   2.910
 7431SOL    HW123192   0.295   2.912   2.877
 7431SOL    HW223193   0.342   3.065   2.844
 7432SOL     OW23194   0.031   6.991   3.341
 7432SOL    HW123195   0.062   6.898   3.359
 7432SOL    HW223196   0.037   7.011   3.243
 7433SOL     OW23197   5.192   4.931   0.030
 7433SOL    HW123198   5.210   4.949   6.955
 7433SOL    HW223199   5.168   5.017   0.075
 7434SOL     OW23200   4.858   0.339   5.892
 7434SOL    HW123201   4.942   0.371   5.936
 7434SOL    HW223202   4.880   0.301   5.802
 7435SOL     OW23203   3.980   5.599   0.741
 7435SOL    HW123204   3.965   5.655   0.823
 7435SOL    HW223205   4.057   5.635   0.689
 7436SOL     OW23206   5.748   3.165   6.266
 7436SOL    HW123207   5.702   3.198   6.349
 7436SOL    HW223208   5.682   3.156   6.192
 7437SOL     OW23209   0.370   6.206   0.336
 7437SOL    HW123210   0.307   6.134   0.367
 7437SOL    HW223211   0.432   6.230   0.411
 7438SOL     OW23212   0.690   5.368   0.171
 7438SOL    HW123213   0.779   5.410   0.189
 7438SOL    HW223214   0.618   5.425   0.212
 7439SOL     OW23215   1.416   6.298   5.068
 7439SOL    HW123216   1.463   6.223   5.020
 7439SOL    HW223217   1.483   6.353   5.118
 7440SOL     OW23218   0.605   3.271   4.526
 7440SOL    HW123219   0.653   3.318   4.600
 7440SOL    HW223220   0.513   3.308   4.518
 7441SOL     OW23221   4.593   5.867   4.578
 7441SOL    HW123222   4.679   5.829   4.612
 7441SOL    HW223223   4.606   5.898   4.484
 7442SOL     OW23224   0.856   0.920   6.051
 7442SOL    HW123225   0.772   0.962   6.087
 7442SOL    HW223226   0.924   0.915   6.125
 7443SOL     OW23227   0.362   0.587   2.141
 7443SOL    HW123228   0.304   0.586   2.222
 7443SOL    HW223229   0.449   0.633   2.161
 7444SOL     OW23230   6.146   3.070   4.511
 7444SOL    HW123231   6.155   2.971   4.514
 7444SOL    HW223232   6.151   3.101   4.416
 7445SOL     OW23233   3.030   1.069   1.246
 7445SOL    HW123234   3.070   0.977   1.251
 7445SOL    HW223235   3.077   1.121   1.175
 7446SOL     OW23236   5.497   3.807   1.027
 7446SOL    HW123237   5.434   3.882   1.007
 7446SOL    HW223238   5.452   3.741   1.086
 7447SOL     OW23239   1.094   3.177   5.918
 7447SOL    HW123240   1.146   3.239   5.860
 7447SOL    HW223241   1.102   3.084   5.882
 7448SOL     OW23242   6.500   6.698   5.289
 7448SOL    HW123243   6.427   6.634   5.312
 7448SOL    HW223244   6.466   6.764   5.222
 7449SOL     OW23245   6.770   2.709   1.818
 7449SOL    HW123246   6.704   2.780   1.793
 7449SOL    HW223247   6.721   2.635   1.865
 7450SOL     OW23248   5.331   1.725   4.412
 7450SOL    HW123249   5.287   1.700   4.325
 7450SOL    HW223250   5.395   1.653   4.439
 7451SOL     OW23251   1.034   6.467   3.023
 7451SOL    HW123252   0.951   6.420   3.052
 7451SOL    HW223253   1.072   6.422   2.942
 7452SOL     OW23254   0.341   6.337   5.379
 7452SOL    HW123255   0.326   6.430   5.344
 7452SOL    HW223256   0.439   6.318   5.382
 7453SOL     OW23257   4.684   5.911   5.608
 7453SOL    HW123258   4.753   5.970   5.651
 7453SOL    HW223259   4.596   5.959   5.606
 7454SOL     OW23260   1.212   2.331   1.912
 7454SOL    HW123261   1.238   2.281   1.830
 7454SOL    HW223262   1.282   2.399   1.934
 7455SOL     OW23263   0.251   1.995   2.303
 7455SOL    HW123264   0.157   1.992   2.269
 7455SOL    HW223265   0.262   2.072   2.364
 7456SOL     OW23266   0.728   2.411   4.057
 7456SOL    HW123267   0.822   2.441   4.040
 7456SOL    HW223268   0.684   2.473   4.121
 7457SOL     OW23269   3.639   0.946   5.171
 7457SOL    HW123270   3.671   0.852   5.155
 7457SOL    HW223271   3.580   0.975   5.096
 7458SOL     OW23272   2.374   6.856   6.601
 7458SOL    HW123273   2.299   6.830   6.539
 7458SOL    HW223274   2.427   6.775   6.624
 7459SOL     OW23275   4.770   0.705   1.424
 7459SOL    HW123276   4.848   0.747   1.469
 7459SOL    HW223277   4.781   0.713   1.325
 7460SOL     OW23278   1.731   4.690   1.071
 7460SOL    HW123279   1.801   4.753   1.108
 7460SOL    HW223280   1.752   4.597   1.101
 7461SOL     OW23281   6.386   1.646   5.718
 7461SOL    HW123282   6.312   1.708   5.692
 7461SOL    HW223283   6.351   1.580   5.785
 7462SOL     OW23284   1.215   4.201   2.835
 7462SOL    HW123285   1.136   4.179   2.777
 7462SOL    HW223286   1.292   4.142   2.811
 7463SOL     OW23287   2.908   5.097   0.986
 7463SOL    HW123288   2.859   5.015   0.958
 7463SOL    HW223289   2.925   5.155   0.905
 7464SOL     OW23290   4.554   0.445   6.450
 7464SOL    HW123291   4.500   0.527   6.466
 7464SOL    HW223292   4.651   0.464   6.468
 7465SOL     OW23293   1.360   6.589   0.168
 7465SOL    HW123294   1.426   6.661   0.191
 7465SOL    HW223295   1.362   6.519   0.240
 7466SOL     OW23296   0.312   0.547   6.075
 7466SOL    HW123297   0.407   0.526   6.052
 7466SOL    HW223298   0.251   0.494   6.017
 7467SOL     OW23299   7.014   1.869   0.208
 7467SOL    HW123300   0.041   1.949   0.171
 7467SOL    HW223301   6.937   1.846   0.149
 7468SOL     OW23302   6.674   2.615   2.895
 7468SOL    HW123303   6.631   2.592   2.983
 7468SOL    HW223304   6.648   2.548   2.826
 7469SOL     OW23305   0.011   0.571   0.479
 7469SOL    HW123306   0.083   0.610   0.421
 7469SOL    HW223307   6.963   0.529   0.422
 7470SOL     OW23308   7.018   2.956   3.787
 7470SOL    HW123309   6.999   2.960   3.886
 7470SOL    HW223310   6.975   2.875   3.748
 7471SOL     OW23311   6.599   6.467   5.865
 7471SOL    HW123312   6.667   6.432   5.801
 7471SOL    HW223313   6.525   6.511   5.814
 7472SOL     OW23314   6.174   6.853   4.293
 7472SOL    HW123315   6.166   6.894   4.202
 7472SOL    HW223316   6.099   6.886   4.351
 7473SOL     OW23317   6.678   4.496   2.643
 7473SOL    HW123318   6.685   4.403   2.607
 7473SOL    HW223319   6.582   4.524   2.643
 7474SOL     OW23320   2.108   1.560   5.119
 7474SOL    HW123321   2.066   1.650   5.102
 7474SOL    HW223322   2.153   1.560   5.208
 7475SOL     OW23323   3.975   0.733   2.828
 7475SOL    HW123324   4.014   0.815   2.870
 7475SOL    HW223325   3.962   0.748   2.730
 7476SOL     OW23326   3.255   5.329   3.844
 7476SOL    HW123327   3.164   5.359   3.872
 7476SOL    HW223328   3.307   5.406   3.809
 7477SOL     OW23329   6.806   1.224   4.831
 7477SOL    HW123330   6.796   1.126   4.850
 7477SOL    HW223331   6.716   1.264   4.815
 7478SOL     OW23332   4.473   4.684   6.561
 7478SOL    HW123333   4.431   4.753   6.619
 7478SOL    HW223334   4.563   4.659   6.599
 7479SOL     OW23335   3.964   2.515   1.487
 7479SOL    HW123336   4.045   2.566   1.460
 7479SOL    HW223337   3.983   2.466   1.573
 7480SOL     OW23338   7.013   3.953   1.651
 7480SOL    HW123339   0.071   3.942   1.711
 7480SOL    HW223340   6.943   3.886   1.675
 7481SOL     OW23341   6.252   5.724   1.479
 7481SOL    HW123342   6.277   5.712   1.575
 7481SOL    HW223343   6.164   5.678   1.462
 7482SOL     OW23344   4.733   2.290   3.507
 7482SOL    HW123345   4.685   2.332   3.584
 7482SOL    HW223346   4.821   2.336   3.493
 7483SOL     OW23347   4.941   2.508   4.965
 7483SOL    HW123348   4.848   2.505   4.929
 7483SOL    HW223349   5.006   2.510   4.889
 7484SOL     OW23350   0.902   1.151   3.714
 7484SOL    HW123351   0.974   1.165   3.646
 7484SOL    HW223352   0.882   1.053   3.720
 7485SOL     OW23353   3.350   0.258   4.414
 7485SOL    HW123354   3.346   0.355   4.388
 7485SOL    HW223355   3.306   0.245   4.503
 7486SOL     OW23356   2.740   0.364   5.961
 7486SOL    HW123357   2.740   0.449   6.014
 7486SOL    HW223358   2.741   0.286   6.024
 7487SOL     OW23359   2.589   5.953   2.617
 7487SOL    HW123360   2.613   5.957   2.714
 7487SOL    HW223361   2.535   5.870   2.601
 7488SOL     OW23362   1.942   6.611   4.547
 7488SOL    HW123363   1.877   6.684   4.525
 7488SOL    HW223364   1.894   6.535   4.591
 7489SOL     OW23365   5.564   2.140   4.918
 7489SOL    HW123366   5.648   2.173   4.875
 7489SOL    HW223367   5.573   2.147   5.018
 7490SOL     OW23368   0.517   0.787   1.449
 7490SOL    HW123369   0.571   0.782   1.365
 7490SOL    HW223370   0.467   0.873   1.451
 7491SOL     OW23371   6.176   3.396   5.924
 7491SOL    HW123372   6.150   3.483   5.882
 7491SOL    HW223373   6.180   3.325   5.854
 7492SOL     OW23374   2.264   0.821   3.872
 7492SOL    HW123375   2.301   0.728   3.877
 7492SOL    HW223376   2.229   0.848   3.962
 7493SOL     OW23377   6.475   3.971   6.887
 7493SOL    HW123378   6.450   3.880   6.854
 7493SOL    HW223379   6.572   3.974   6.909
 7494SOL     OW23380   5.504   0.691   2.780
 7494SOL    HW123381   5.456   0.610   2.746
 7494SOL    HW223382   5.536   0.746   2.703
 7495SOL     OW23383   1.742   0.812   0.674
 7495SOL    HW123384   1.662   0.777   0.625
 7495SOL    HW223385   1.800   0.863   0.610
 7496SOL     OW23386   0.146   3.390   5.825
 7496SOL    HW123387   0.165   3.458   5.895
 7496SOL    HW223388   0.182   3.301   5.854
 7497SOL     OW23389   2.362   4.665   0.774
 7497SOL    HW123390   2.448   4.712   0.794
 7497SOL    HW223391   2.373   4.567   0.793
 7498SOL     OW23392   2.254   1.316   5.570
 7498SOL    HW123393   2.192   1.245   5.538
 7498SOL    HW223394   2.347   1.280   5.574
 7499SOL     OW23395   4.062   1.980   2.865
 7499SOL    HW123396   4.124   2.049   2.901
 7499SOL    HW223397   4.114   1.906   2.824
 7500SOL     OW23398   3.601   5.318   4.378
 7500SOL    HW123399   3.675   5.331   4.444
 7500SOL    HW223400   3.595   5.221   4.353
 7501SOL     OW23401   5.518   4.103   3.760
 7501SOL    HW123402   5.527   4.192   3.716
 7501SOL    HW223403   5.530   4.030   3.693
 7502SOL     OW23404   1.569   6.978   4.684
 7502SOL    HW123405   1.617   0.043   4.692
 7502SOL    HW223406   1.515   6.976   4.600
 7503SOL     OW23407   2.796   1.813   0.636
 7503SOL    HW123408   2.705   1.853   0.645
 7503SOL    HW223409   2.816   1.796   0.539
 7504SOL     OW23410   2.202   6.995   3.029
 7504SOL    HW123411   2.266   6.944   2.972
 7504SOL    HW223412   2.122   7.021   2.975
 7505SOL     OW23413   2.425   2.078   5.515
 7505SOL    HW123414   2.384   2.053   5.427
 7505SOL    HW223415   2.524   2.087   5.504
 7506SOL     OW23416   4.909   0.211   3.420
 7506SOL    HW123417   4.939   0.247   3.509
 7506SOL    HW223418   4.897   0.112   3.427
 7507SOL     OW23419   0.760   0.549   2.449
 7507SOL    HW123420   0.812   0.634   2.459
 7507SOL    HW223421   0.815   0.472   2.483
 7508SOL     OW23422   0.491   6.410   2.159
 7508SOL    HW123423   0.490   6.400   2.059
 7508SOL    HW223424   0.399   6.436   2.191
 7509SOL     OW23425   5.526   4.162   0.525
 7509SOL    HW123426   5.463   4.087   0.504
 7509SOL    HW223427   5.563   4.199   0.440
 7510SOL     OW23428   3.750   4.472   5.342
 7510SOL    HW123429   3.759   4.431   5.251
 7510SOL    HW223430   3.803   4.419   5.408
 7511SOL     OW23431   1.883   6.837   3.556
 7511SOL    HW123432   1.908   6.930   3.582
 7511SOL    HW223433   1.925   6.772   3.620
 7512SOL     OW23434   3.176   5.526   0.026
 7512SOL    HW123435   3.100   5.587   0.004
 7512SOL    HW223436   3.220   5.497   6.963
 7513SOL     OW23437   2.071   1.095   1.854
 7513SOL    HW123438   2.078   0.996   1.844
 7513SOL    HW223439   2.091   1.140   1.767
 7514SOL     OW23440   2.067   5.877   1.112
 7514SOL    HW123441   2.014   5.840   1.036
 7514SOL    HW223442   2.016   5.868   1.197
 7515SOL     OW23443   0.388   4.805   2.002
 7515SOL    HW123444   0.474   4.854   1.986
 7515SOL    HW223445   0.312   4.859   1.966
 7516SOL     OW23446   6.557   5.880   5.462
 7516SOL    HW123447   6.631   5.948   5.455
 7516SOL    HW223448   6.579   5.801   5.404
 7517SOL     OW23449   6.914   3.049   0.989
 7517SOL    HW123450   6.996   3.105   1.004
 7517SOL    HW223451   6.862   3.042   1.074
 7518SOL     OW23452   4.164   5.214   3.210
 7518SOL    HW123453   4.076   5.205   3.162
 7518SOL    HW223454   4.185   5.310   3.224
 7519SOL     OW23455   6.586   6.884   4.287
 7519SOL    HW123456   6.681   6.887   4.257
 7519SOL    HW223457   6.565   6.793   4.322
 7520SOL     OW23458   3.934   0.376   2.198
 7520SOL    HW123459   3.861   0.439   2.173
 7520SOL    HW223460   3.962   0.324   2.116
 7521SOL     OW23461   4.729   4.396   6.328
 7521SOL    HW123462   4.766   4.391   6.235
 7521SOL    HW223463   4.630   4.384   6.324
 7522SOL     OW23464   2.168   0.526   6.588
 7522SOL    HW123465   2.193   0.531   6.685
 7522SOL    HW223466   2.195   0.611   6.542
 7523SOL     OW23467   5.824   0.022   5.882
 7523SOL    HW123468   5.779   6.970   5.931
 7523SOL    HW223469   5.828   0.104   5.940
 7524SOL     OW23470   1.670   1.634   5.921
 7524SOL    HW123471   1.706   1.546   5.890
 7524SOL    HW223472   1.740   1.681   5.974
 7525SOL     OW23473   3.354   0.836   6.263
 7525SOL    HW123474   3.356   0.799   6.171
 7525SOL    HW223475   3.324   0.932   6.260
 7526SOL     OW23476   2.966   3.240   1.678
 7526SOL    HW123477   3.029   3.210   1.607
 7526SOL    HW223478   2.898   3.169   1.694
 7527SOL     OW23479   4.058   5.890   2.607
 7527SOL    HW123480   4.027   5.981   2.578
 7527SOL    HW223481   3.979   5.832   2.626
 7528SOL     OW23482   5.481   1.790   0.195
 7528SOL    HW123483   5.566   1.770   0.145
 7528SOL    HW223484   5.409   1.727   0.163
 7529SOL     OW23485   5.772   0.356   4.367
 7529SOL    HW123486   5.678   0.378   4.342
 7529SOL    HW223487   5.807   0.425   4.429
 7530SOL     OW23488   0.306   3.841   2.263
 7530SOL    HW123489   0.219   3.795   2.242
 7530SOL    HW223490   0.308   3.930   2.218
 7531SOL     OW23491   4.542   2.338   4.440
 7531SOL    HW123492   4.578   2.259   4.390
 7531SOL    HW223493   4.515   2.311   4.532
 7532SOL     OW23494   5.453   4.582   1.214
 7532SOL    HW123495   5.498   4.499   1.250
 7532SOL    HW223496   5.488   4.662   1.262
 7533SOL     OW23497   2.220   2.263   2.115
 7533SOL    HW123498   2.186   2.237   2.206
 7533SOL    HW223499   2.310   2.224   2.100
 7534SOL     OW23500   4.402   5.984   5.650
 7534SOL    HW123501   4.368   6.046   5.580
 7534SOL    HW223502   4.331   5.917   5.673
 7535SOL     OW23503   2.397   0.379   5.976
 7535SOL    HW123504   2.453   0.381   6.058
 7535SOL    HW223505   2.436   0.315   5.910
 7536SOL     OW23506   4.703   4.342   4.789
 7536SOL    HW123507   4.760   4.264   4.817
 7536SOL    HW223508   4.661   4.382   4.871
 7537SOL     OW23509   3.434   5.269   2.540
 7537SOL    HW123510   3.367   5.200   2.566
 7537SOL    HW223511   3.397   5.360   2.559
 7538SOL     OW23512   2.793   3.008   1.696
 7538SOL    HW123513   2.797   2.918   1.652
 7538SOL    HW223514   2.703   3.021   1.738
 7539SOL     OW23515   0.863   2.857   4.208
 7539SOL    HW123516   0.811   2.812   4.135
 7539SOL    HW223517   0.878   2.953   4.182
 7540SOL     OW23518   4.469   7.002   5.244
 7540SOL    HW123519   4.540   7.018   5.313
 7540SOL    HW223520   4.417   6.920   5.268
 7541SOL     OW23521   6.889   4.292   4.156
 7541SOL    HW123522   6.970   4.305   4.213
 7541SOL    HW223523   6.898   4.207   4.104
 7542SOL     OW23524   0.589   5.889   6.682
 7542SOL    HW123525   0.591   5.811   6.619
 7542SOL    HW223526   0.507   5.944   6.664
 7543SOL     OW23527   3.523   2.292   0.229
 7543SOL    HW123528   3.536   2.370   0.291
 7543SOL    HW223529   3.434   2.250   0.247
 7544SOL     OW23530   0.406   2.117   2.919
 7544SOL    HW123531   0.364   2.112   3.009
 7544SOL    HW223532   0.346   2.168   2.857
 7545SOL     OW23533   6.488   5.912   1.570
 7545SOL    HW123534   6.441   5.988   1.615
 7545SOL    HW223535   6.421   5.851   1.528
 7546SOL     OW23536   2.974   1.848   2.347
 7546SOL    HW123537   2.950   1.867   2.252
 7546SOL    HW223538   2.937   1.920   2.406
 7547SOL     OW23539   4.730   1.370   0.249
 7547SOL    HW123540   4.724   1.345   0.345
 7547SOL    HW223541   4.729   1.470   0.240
 7548SOL     OW23542   3.977   2.224   0.150
 7548SOL    HW123543   4.059   2.262   0.107
 7548SOL    HW223544   3.982   2.125   0.148
 7549SOL     OW23545   5.622   2.080   0.868
 7549SOL    HW123546   5.592   2.001   0.814
 7549SOL    HW223547   5.543   2.125   0.908
 7550SOL     OW23548   2.506   4.552   2.385
 7550SOL    HW123549   2.486   4.638   2.433
 7550SOL    HW223550   2.599   4.556   2.346
 7551SOL     OW23551   4.881   3.603   6.647
 7551SOL    HW123552   4.782   3.611   6.653
 7551SOL    HW223553   4.922   3.640   6.731
 7552SOL     OW23554   1.004   5.195   3.064
 7552SOL    HW123555   1.014   5.163   3.158
 7552SOL    HW223556   0.925   5.256   3.058
 7553SOL     OW23557   4.590   5.801   4.972
 7553SOL    HW123558   4.502   5.832   4.938
 7553SOL    HW223559   4.581   5.772   5.067
 7554SOL     OW23560   4.280   1.729   1.691
 7554SOL    HW123561   4.261   1.675   1.772
 7554SOL    HW223562   4.231   1.691   1.613
 7555SOL     OW23563   1.654   5.378   5.782
 7555SOL    HW123564   1.658   5.280   5.800
 7555SOL    HW223565   1.567   5.401   5.739
 7556SOL     OW23566   0.789   2.708   6.408
 7556SOL    HW123567   0.853   2.768   6.457
 7556SOL    HW223568   0.700   2.710   6.454
 7557SOL     OW23569   5.191   2.306   6.203
 7557SOL    HW123570   5.118   2.374   6.192
 7557SOL    HW223571   5.271   2.334   6.151
 7558SOL     OW23572   1.880   2.553   4.432
 7558SOL    HW123573   1.815   2.537   4.358
 7558SOL    HW223574   1.871   2.647   4.465
 7559SOL     OW23575   5.827   4.563   6.701
 7559SOL    HW123576   5.769   4.491   6.738
 7559SOL    HW223577   5.923   4.536   6.709
 7560SOL     OW23578   4.857   6.679   1.391
 7560SOL    HW123579   4.770   6.724   1.376
 7560SOL    HW223580   4.908   6.674   1.304
 7561SOL     OW23581   1.209   3.404   6.822
 7561SOL    HW123582   1.171   3.477   6.766
 7561SOL    HW223583   1.304   3.425   6.844
 7562SOL     OW23584   5.992   6.379   4.273
 7562SOL    HW123585   6.014   6.418   4.363
 7562SOL    HW223586   5.965   6.283   4.285
 7563SOL     OW23587   2.149   6.909   0.820
 7563SOL    HW123588   2.083   6.873   0.886
 7563SOL    HW223589   2.235   6.858   0.829
 7564SOL     OW23590   4.720   0.977   2.924
 7564SOL    HW123591   4.666   0.903   2.883
 7564SOL    HW223592   4.770   1.025   2.853
 7565SOL     OW23593   6.001   3.457   0.371
 7565SOL    HW123594   5.979   3.455   0.469
 7565SOL    HW223595   6.096   3.486   0.359
 7566SOL     OW23596   6.393   4.502   2.965
 7566SOL    HW123597   6.476   4.458   2.999
 7566SOL    HW223598   6.388   4.491   2.865
 7567SOL     OW23599   1.828   2.367   5.246
 7567SOL    HW123600   1.843   2.426   5.167
 7567SOL    HW223601   1.750   2.401   5.299
 7568SOL     OW23602   5.813   6.669   2.765
 7568SOL    HW123603   5.803   6.655   2.863
 7568SOL    HW223604   5.753   6.743   2.735
 7569SOL     OW23605   3.806   6.287   6.190
 7569SOL    HW123606   3.731   6.337   6.146
 7569SOL    HW223607   3.883   6.279   6.126
 7570SOL     OW23608   5.446   4.446   5.094
 7570SOL    HW123609   5.493   4.477   5.177
 7570SOL    HW223610   5.492   4.365   5.058
 7571SOL     OW23611   5.471   5.567   3.775
 7571SOL    HW123612   5.449   5.474   3.803
 7571SOL    HW223613   5.490   5.569   3.677
 7572SOL     OW23614   4.026   0.805   1.824
 7572SOL    HW123615   4.092   0.746   1.871
 7572SOL    HW223616   4.060   0.828   1.734
 7573SOL     OW23617   6.976   6.565   4.968
 7573SOL    HW123618   6.924   6.481   4.981
 7573SOL    HW223619   0.016   6.555   4.890
 7574SOL     OW23620   6.270   0.782   4.489
 7574SOL    HW123621   6.220   0.864   4.516
 7574SOL    HW223622   6.311   0.795   4.398
 7575SOL     OW23623   4.446   0.045   6.018
 7575SOL    HW123624   4.419   0.055   6.114
 7575SOL    HW223625   4.376   0.086   5.959
 7576SOL     OW23626   4.752   4.517   6.583
 7576SOL    HW123627   4.816   4.593   6.570
 7576SOL    HW223628   4.724   4.481   6.494
 7577SOL     OW23629   0.114   7.006   6.528
 7577SOL    HW123630   0.145   0.078   6.548
 7577SOL    HW223631   0.190   6.943   6.538
 7578SOL     OW23632   2.525   6.031   1.841
 7578SOL    HW123633   2.514   6.001   1.936
 7578SOL    HW223634   2.511   5.954   1.780
 7579SOL     OW23635   6.462   1.635   1.596
 7579SOL    HW123636   6.383   1.584   1.563
 7579SOL    HW223637   6.436   1.730   1.612
 7580SOL     OW23638   0.938   3.694   3.631
 7580SOL    HW123639   0.839   3.694   3.617
 7580SOL    HW223640   0.978   3.770   3.580
 7581SOL     OW23641   6.617   0.766   1.221
 7581SOL    HW123642   6.624   0.801   1.128
 7581SOL    HW223643   6.562   0.828   1.277
 7582SOL     OW23644   2.869   1.209   0.806
 7582SOL    HW123645   2.818   1.197   0.892
 7582SOL    HW223646   2.899   1.120   0.772
 7583SOL     OW23647   6.474   2.908   0.933
 7583SOL    HW123648   6.460   2.858   1.018
 7583SOL    HW223649   6.460   3.006   0.949
 7584SOL     OW23650   2.751   6.999   1.549
 7584SOL    HW123651   2.769   0.002   1.454
 7584SOL    HW223652   2.830   6.951   1.586
 7585SOL     OW23653   1.748   2.490   6.104
 7585SOL    HW123654   1.788   2.578   6.078
 7585SOL    HW223655   1.716   2.495   6.199
 7586SOL     OW23656   3.367   0.841   3.855
 7586SOL    HW123657   3.327   0.856   3.946
 7586SOL    HW223658   3.464   0.820   3.865
 7587SOL     OW23659   2.559   2.037   6.733
 7587SOL    HW123660   2.464   2.012   6.712
 7587SOL    HW223661   2.609   2.052   6.648
 7588SOL     OW23662   1.387   3.169   2.503
 7588SOL    HW123663   1.460   3.160   2.435
 7588SOL    HW223664   1.424   3.211   2.586
 7589SOL     OW23665   0.709   6.905   2.117
 7589SOL    HW123666   0.719   6.993   2.071
 7589SOL    HW223667   0.799   6.866   2.135
 7590SOL     OW23668   4.737   1.845   6.795
 7590SOL    HW123669   4.787   1.894   6.724
 7590SOL    HW223670   4.652   1.893   6.815
 7591SOL     OW23671   6.866   3.944   0.204
 7591SOL    HW123672   6.777   3.918   0.240
 7591SOL    HW223673   6.929   3.867   0.212
 7592SOL     OW23674   6.779   3.910   5.925
 7592SOL    HW123675   6.847   3.842   5.897
 7592SOL    HW223676   6.723   3.936   5.847
 7593SOL     OW23677   6.085   3.110   1.459
 7593SOL    HW123678   6.109   3.013   1.455
 7593SOL    HW223679   6.023   3.132   1.384
 7594SOL     OW23680   0.888   5.244   2.647
 7594SOL    HW123681   0.948   5.175   2.689
 7594SOL    HW223682   0.944   5.312   2.600
 7595SOL     OW23683   0.341   2.290   5.787
 7595SOL    HW123684   0.392   2.206   5.770
 7595SOL    HW223685   0.318   2.333   5.699
 7596SOL     OW23686   4.735   5.539   3.761
 7596SOL    HW123687   4.676   5.559   3.840
 7596SOL    HW223688   4.700   5.457   3.715
 7597SOL     OW23689   3.724   6.196   3.062
 7597SOL    HW123690   3.705   6.098   3.055
 7597SOL    HW223691   3.814   6.209   3.102
 7598SOL     OW23692   6.503   1.207   2.791
 7598SOL    HW123693   6.527   1.135   2.856
 7598SOL    HW223694   6.580   1.271   2.782
 7599SOL     OW23695   5.331   1.725   2.508
 7599SOL    HW123696   5.275   1.778   2.572
 7599SOL    HW223697   5.403   1.784   2.469
 7600SOL     OW23698   2.311   1.314   2.810
 7600SOL    HW123699   2.253   1.276   2.882
 7600SOL    HW223700   2.286   1.275   2.722
 7601SOL     OW23701   2.022   5.327   3.105
 7601SOL    HW123702   2.002   5.267   3.183
 7601SOL    HW223703   2.114   5.365   3.114
 7602SOL     OW23704   0.380   4.561   6.096
 7602SOL    HW123705   0.431   4.613   6.028
 7602SOL    HW223706   0.316   4.500   6.051
 7603SOL     OW23707   1.717   5.522   6.117
 7603SOL    HW123708   1.620   5.500   6.131
 7603SOL    HW223709   1.774   5.455   6.165
 7604SOL     OW23710   1.656   4.850   4.348
 7604SOL    HW123711   1.746   4.828   4.386
 7604SOL    HW223712   1.587   4.846   4.420
 7605SOL     OW23713   0.486   6.954   1.246
 7605SOL    HW123714   0.581   6.943   1.276
 7605SOL    HW223715   0.431   6.989   1.321
 7606SOL     OW23716   6.003   3.368   4.477
 7606SOL    HW123717   5.961   3.458   4.487
 7606SOL    HW223718   5.977   3.310   4.555
 7607SOL     OW23719   3.693   4.767   0.161
 7607SOL    HW123720   3.712   4.830   0.086
 7607SOL    HW223721   3.597   4.771   0.186
 7608SOL     OW23722   3.786   3.727   2.659
 7608SOL    HW123723   3.870   3.730   2.604
 7608SOL    HW223724   3.707   3.720   2.598
 7609SOL     OW23725   1.249   3.432   4.073
 7609SOL    HW123726   1.210   3.403   4.160
 7609SOL    HW223727   1.266   3.351   4.015
 7610SOL     OW23728   5.592   6.208   6.967
 7610SOL    HW123729   5.528   6.233   6.894
 7610SOL    HW223730   5.553   6.134   7.021
 7611SOL     OW23731   0.340   2.054   0.714
 7611SOL    HW123732   0.253   2.085   0.676
 7611SOL    HW223733   0.337   2.060   0.813
 7612SOL     OW23734   5.146   3.179   3.958
 7612SOL    HW123735   5.211   3.145   3.890
 7612SOL    HW223736   5.143   3.116   4.036
 7613SOL     OW23737   6.454   3.476   1.449
 7613SOL    HW123738   6.469   3.519   1.538
 7613SOL    HW223739   6.479   3.540   1.376
 7614SOL     OW23740   4.848   3.193   0.550
 7614SOL    HW123741   4.817   3.098   0.546
 7614SOL    HW223742   4.935   3.202   0.502
 7615SOL     OW23743   3.351   4.875   6.998
 7615SOL    HW123744   3.337   4.895   0.073
 7615SOL    HW223745   3.402   4.950   6.955
 7616SOL     OW23746   6.207   5.105   5.192
 7616SOL    HW123747   6.141   5.116   5.119
 7616SOL    HW223748   6.260   5.021   5.176
 7617SOL     OW23749   3.887   5.149   2.609
 7617SOL    HW123750   3.891   5.247   2.589
 7617SOL    HW223751   3.795   5.115   2.590
 7618SOL     OW23752   0.569   1.613   5.770
 7618SOL    HW123753   0.470   1.598   5.771
 7618SOL    HW223754   0.592   1.683   5.703
 7619SOL     OW23755   5.672   2.627   5.145
 7619SOL    HW123756   5.749   2.595   5.090
 7619SOL    HW223757   5.614   2.688   5.089
 7620SOL     OW23758   4.198   5.708   0.951
 7620SOL    HW123759   4.223   5.770   0.877
 7620SOL    HW223760   4.280   5.660   0.984
 7621SOL     OW23761   0.059   1.952   1.220
 7621SOL    HW123762   0.119   1.966   1.300
 7621SOL    HW223763   0.102   1.992   1.139
 7622SOL     OW23764   4.673   5.647   1.373
 7622SOL    HW123765   4.649   5.708   1.449
 7622SOL    HW223766   4.751   5.590   1.401
 7623SOL     OW23767   4.622   4.516   6.861
 7623SOL    HW123768   4.529   4.480   6.863
 7623SOL    HW223769   4.683   4.448   6.819
 7624SOL     OW23770   0.186   3.616   5.208
 7624SOL    HW123771   0.108   3.570   5.250
 7624SOL    HW223772   0.156   3.665   5.126
 7625SOL     OW23773   4.313   0.915   1.712
 7625SOL    HW123774   4.390   0.930   1.650
 7625SOL    HW223775   4.267   1.002   1.730
 7626SOL     OW23776   5.720   0.127   4.237
 7626SOL    HW123777   5.716   0.151   4.140
 7626SOL    HW223778   5.750   0.207   4.290
 7627SOL     OW23779   5.315   2.415   0.448
 7627SOL    HW123780   5.363   2.502   0.460
 7627SOL    HW223781   5.380   2.339   0.454
 7628SOL     OW23782   3.802   1.176   2.656
 7628SOL    HW123783   3.713   1.204   2.692
 7628SOL    HW223784   3.859   1.143   2.732
 7629SOL     OW23785   6.800   6.401   3.273
 7629SOL    HW123786   6.812   6.482   3.330
 7629SOL    HW223787   6.799   6.320   3.332
 7630SOL     OW23788   6.793   6.658   1.294
 7630SOL    HW123789   6.795   6.725   1.219
 7630SOL    HW223790   6.747   6.698   1.373
 7631SOL     OW23791   1.250   1.295   6.197
 7631SOL    HW123792   1.229   1.308   6.100
 7631SOL    HW223793   1.336   1.341   6.219
 7632SOL     OW23794   3.092   3.020   1.885
 7632SOL    HW123795   3.008   3.021   1.831
 7632SOL    HW223796   3.170   3.042   1.826
 7633SOL     OW23797   5.281   0.755   1.211
 7633SOL    HW123798   5.370   0.744   1.167
 7633SOL    HW223799   5.253   0.668   1.252
 7634SOL     OW23800   1.476   2.161   2.532
 7634SOL    HW123801   1.443   2.198   2.619
 7634SOL    HW223802   1.399   2.134   2.475
 7635SOL     OW23803   3.680   5.206   4.780
 7635SOL    HW123804   3.729   5.235   4.863
 7635SOL    HW223805   3.681   5.281   4.714
 7636SOL     OW23806   1.194   2.655   3.896
 7636SOL    HW123807   1.157   2.622   3.809
 7636SOL    HW223808   1.259   2.588   3.932
 7637SOL     OW23809   2.579   5.007   2.494
 7637SOL    HW123810   2.664   5.059   2.493
 7637SOL    HW223811   2.523   5.036   2.572
 7638SOL     OW23812   3.001   6.172   0.819
 7638SOL    HW123813   3.001   6.104   0.746
 7638SOL    HW223814   3.057   6.138   0.895
 7639SOL     OW23815   1.478   2.468   0.636
 7639SOL    HW123816   1.498   2.564   0.653
 7639SOL    HW223817   1.391   2.444   0.679
 7640SOL     OW23818   3.038   2.105   6.124
 7640SOL    HW123819   3.048   2.169   6.048
 7640SOL    HW223820   3.014   2.155   6.207
 7641SOL     OW23821   1.230   5.046   2.121
 7641SOL    HW123822   1.313   5.092   2.089
 7641SOL    HW223823   1.213   4.965   2.064
 7642SOL     OW23824   3.952   0.256   2.677
 7642SOL    HW123825   3.937   0.321   2.752
 7642SOL    HW223826   3.957   0.304   2.590
 7643SOL     OW23827   4.816   2.996   4.260
 7643SOL    HW123828   4.886   2.969   4.194
 7643SOL    HW223829   4.774   3.082   4.231
 7644SOL     OW23830   6.156   2.385   2.110
 7644SOL    HW123831   6.094   2.462   2.122
 7644SOL    HW223832   6.148   2.323   2.188
 7645SOL     OW23833   4.129   4.049   5.722
 7645SOL    HW123834   4.197   3.993   5.771
 7645SOL    HW223835   4.098   3.999   5.641
 7646SOL     OW23836   1.124   3.878   3.048
 7646SOL    HW123837   1.156   3.943   2.979
 7646SOL    HW223838   1.085   3.798   3.004
 7647SOL     OW23839   6.376   3.792   2.931
 7647SOL    HW123840   6.474   3.809   2.941
 7647SOL    HW223841   6.358   3.694   2.942
 7648SOL     OW23842   2.526   1.454   2.707
 7648SOL    HW123843   2.549   1.496   2.795
 7648SOL    HW223844   2.442   1.401   2.717
 7649SOL     OW23845   1.011   0.607   2.753
 7649SOL    HW123846   0.951   0.536   2.715
 7649SOL    HW223847   1.094   0.614   2.697
 7650SOL     OW23848   4.653   2.022   1.127
 7650SOL    HW123849   4.672   2.028   1.029
 7650SOL    HW223850   4.576   1.960   1.142
 7651SOL     OW23851   2.557   0.866   3.964
 7651SOL    HW123852   2.473   0.816   3.943
 7651SOL    HW223853   2.539   0.965   3.960
 7652SOL     OW23854   5.834   3.485   4.843
 7652SOL    HW123855   5.775   3.553   4.798
 7652SOL    HW223856   5.924   3.526   4.860
 7653SOL     OW23857   1.395   2.147   6.796
 7653SOL    HW123858   1.368   2.142   6.892
 7653SOL    HW223859   1.316   2.126   6.738
 7654SOL     OW23860   4.858   2.961   3.810
 7654SOL    HW123861   4.935   2.969   3.747
 7654SOL    HW223862   4.886   2.910   3.891
 7655SOL     OW23863   4.728   0.289   3.197
 7655SOL    HW123864   4.777   0.283   3.284
 7655SOL    HW223865   4.788   0.330   3.129
 7656SOL     OW23866   2.655   4.148   5.986
 7656SOL    HW123867   2.694   4.133   5.895
 7656SOL    HW223868   2.584   4.080   6.003
 7657SOL     OW23869   1.511   2.979   4.455
 7657SOL    HW123870   1.544   3.065   4.495
 7657SOL    HW223871   1.549   2.902   4.506
 7658SOL     OW23872   3.755   6.564   5.602
 7658SOL    HW123873   3.792   6.642   5.653
 7658SOL    HW223874   3.791   6.566   5.509
 7659SOL     OW23875   5.393   5.389   6.652
 7659SOL    HW123876   5.329   5.312   6.655
 7659SOL    HW223877   5.397   5.425   6.559
 7660SOL     OW23878   0.606   5.868   4.254
 7660SOL    HW123879   0.633   5.941   4.192
 7660SOL    HW223880   0.630   5.893   4.348
 7661SOL     OW23881   6.389   2.374   4.313
 7661SOL    HW123882   6.332   2.455   4.314
 7661SOL    HW223883   6.346   2.304   4.256
 7662SOL     OW23884   1.206   3.494   2.657
 7662SOL    HW123885   1.215   3.542   2.744
 7662SOL    HW223886   1.280   3.428   2.648
 7663SOL     OW23887   1.028   5.681   5.865
 7663SOL    HW123888   1.022   5.715   5.959
 7663SOL    HW223889   0.977   5.595   5.857
 7664SOL     OW23890   3.704   6.624   1.513
 7664SOL    HW123891   3.670   6.691   1.446
 7664SOL    HW223892   3.627   6.570   1.548
 7665SOL     OW23893   5.584   6.832   4.930
 7665SOL    HW123894   5.656   6.797   4.990
 7665SOL    HW223895   5.616   6.831   4.836
 7666SOL     OW23896   0.321   5.814   1.749
 7666SOL    HW123897   0.230   5.849   1.772
 7666SOL    HW223898   0.378   5.810   1.831
 7667SOL     OW23899   5.329   6.161   2.320
 7667SOL    HW123900   5.378   6.077   2.343
 7667SOL    HW223901   5.392   6.239   2.325
 7668SOL     OW23902   3.035   4.520   0.132
 7668SOL    HW123903   2.970   4.577   0.183
 7668SOL    HW223904   3.112   4.496   0.192
 7669SOL     OW23905   5.076   1.835   5.671
 7669SOL    HW123906   4.982   1.871   5.668
 7669SOL    HW223907   5.137   1.904   5.711
 7670SOL     OW23908   0.781   5.235   6.565
 7670SOL    HW123909   0.838   5.249   6.484
 7670SOL    HW223910   0.815   5.157   6.617
 7671SOL     OW23911   4.477   0.791   2.826
 7671SOL    HW123912   4.532   0.740   2.760
 7671SOL    HW223913   4.478   0.888   2.802
 7672SOL     OW23914   0.432   0.002   3.222
 7672SOL    HW123915   0.470   0.093   3.239
 7672SOL    HW223916   0.385   0.002   3.133
 7673SOL     OW23917   1.516   5.663   0.075
 7673SOL    HW123918   1.514   5.757   0.110
 7673SOL    HW223919   1.586   5.611   0.125
 7674SOL     OW23920   5.610   1.367   3.231
 7674SOL    HW123921   5.655   1.345   3.144
 7674SOL    HW223922   5.516   1.395   3.213
 7675SOL     OW23923   6.278   6.694   2.301
 7675SOL    HW123924   6.180   6.702   2.286
 7675SOL    HW223925   6.315   6.619   2.246
 7676SOL     OW23926   1.921   1.715   0.452
 7676SOL    HW123927   1.890   1.651   0.522
 7676SOL    HW223928   2.021   1.721   0.455
 7677SOL     OW23929   0.584   4.986   1.953
 7677SOL    HW123930   0.561   5.083   1.957
 7677SOL    HW223931   0.660   4.967   2.016
 7678SOL     OW23932   2.205   2.770   4.495
 7678SOL    HW123933   2.156   2.816   4.421
 7678SOL    HW223934   2.140   2.741   4.565
 7679SOL     OW23935   2.988   5.547   6.516
 7679SOL    HW123936   2.897   5.548   6.473
 7679SOL    HW223937   3.057   5.524   6.447
 7680SOL     OW23938   1.658   1.419   0.822
 7680SOL    HW123939   1.574   1.470   0.841
 7680SOL    HW223940   1.662   1.394   0.726
 7681SOL     OW23941   1.918   0.313   0.780
 7681SOL    HW123942   1.977   0.364   0.716
 7681SOL    HW223943   1.858   0.253   0.728
 7682SOL     OW23944   3.496   7.009   2.448
 7682SOL    HW123945   3.553   0.054   2.400
 7682SOL    HW223946   3.527   7.000   2.543
 7683SOL     OW23947   5.434   1.096   3.921
 7683SOL    HW123948   5.336   1.080   3.934
 7683SOL    HW223949   5.486   1.029   3.975
 7684SOL     OW23950   3.596   1.995   1.469
 7684SOL    HW123951   3.649   2.035   1.543
 7684SOL    HW223952   3.499   1.995   1.493
 7685SOL     OW23953   3.286   2.216   6.503
 7685SOL    HW123954   3.300   2.136   6.561
 7685SOL    HW223955   3.315   2.196   6.410
 7686SOL     OW23956   6.969   6.628   3.163
 7686SOL    HW123957   6.923   6.640   3.075
 7686SOL    HW223958   0.014   6.554   3.156
 7687SOL     OW23959   5.563   5.182   4.130
 7687SOL    HW123960   5.494   5.118   4.097
 7687SOL    HW223961   5.596   5.153   4.220
 7688SOL     OW23962   1.621   6.125   6.289
 7688SOL    HW123963   1.548   6.169   6.236
 7688SOL    HW223964   1.709   6.143   6.245
 7689SOL     OW23965   5.930   6.376   2.995
 7689SOL    HW123966   5.946   6.400   2.899
 7689SOL    HW223967   5.904   6.459   3.046
 7690SOL     OW23968   5.629   4.578   0.526
 7690SOL    HW123969   5.587   4.669   0.520
 7690SOL    HW223970   5.559   4.510   0.547
 7691SOL     OW23971   5.260   3.209   5.160
 7691SOL    HW123972   5.207   3.256   5.231
 7691SOL    HW223973   5.357   3.211   5.184
 7692SOL     OW23974   0.222   6.211   2.247
 7692SOL    HW123975   0.213   6.113   2.258
 7692SOL    HW223976   0.247   6.253   2.334
 7693SOL     OW23977   4.044   0.097   1.236
 7693SOL    HW123978   4.051   0.020   1.299
 7693SOL    HW223979   4.072   0.068   1.144
 7694SOL     OW23980   0.098   4.552   4.869
 7694SOL    HW123981   0.174   4.559   4.804
 7694SOL    HW223982   0.061   4.459   4.867
 7695SOL     OW23983   4.812   0.418   1.226
 7695SOL    HW123984   4.759   0.494   1.263
 7695SOL    HW223985   4.904   0.449   1.203
 7696SOL     OW23986   7.006   1.039   5.141
 7696SOL    HW123987   6.921   1.001   5.103
 7696SOL    HW223988   0.045   1.066   5.066
 7697SOL     OW23989   3.053   6.601   2.196
 7697SOL    HW123990   2.961   6.591   2.158
 7697SOL    HW223991   3.121   6.575   2.127
 7698SOL     OW23992   6.394   1.521   3.753
 7698SOL    HW123993   6.432   1.490   3.666
 7698SOL    HW223994   6.463   1.512   3.825
 7699SOL     OW23995   3.658   6.140   6.987
 7699SOL    HW123996   3.745   6.117   6.942
 7699SOL    HW223997   3.662   6.235   7.019
 7700SOL     OW23998   5.246   6.063   3.930
 7700SOL    HW123999   5.343   6.038   3.935
 7700SOL    HW224000   5.218   6.104   4.017
 7701SOL     OW24001   6.734   1.504   6.920
 7701SOL    HW124002   6.824   1.477   6.886
 7701SOL    HW224003   6.726   1.483   7.017
 7702SOL     OW24004   3.413   6.840   5.198
 7702SOL    HW124005   3.324   6.796   5.213
 7702SOL    HW224006   3.433   6.840   5.100
 7703SOL     OW24007   6.127   0.178   6.242
 7703SOL    HW124008   6.099   0.092   6.199
 7703SOL    HW224009   6.092   0.181   6.336
 7704SOL     OW24010   5.977   5.535   4.723
 7704SOL    HW124011   5.979   5.622   4.774
 7704SOL    HW224012   5.888   5.491   4.737
 7705SOL     OW24013   3.774   5.371   6.512
 7705SOL    HW124014   3.791   5.277   6.482
 7705SOL    HW224015   3.733   5.422   6.437
 7706SOL     OW24016   4.661   3.063   5.371
 7706SOL    HW124017   4.652   3.160   5.346
 7706SOL    HW224018   4.576   3.015   5.347
 7707SOL     OW24019   0.276   5.389   6.303
 7707SOL    HW124020   0.199   5.327   6.288
 7707SOL    HW224021   0.343   5.377   6.230
 7708SOL     OW24022   0.150   0.315   5.510
 7708SOL    HW124023   0.161   0.415   5.512
 7708SOL    HW224024   0.239   0.272   5.525
 7709SOL     OW24025   6.410   4.755   1.785
 7709SOL    HW124026   6.456   4.796   1.864
 7709SOL    HW224027   6.470   4.761   1.705
 7710SOL     OW24028   2.706   1.111   0.387
 7710SOL    HW124029   2.674   1.167   0.463
 7710SOL    HW224030   2.694   1.161   0.301
 7711SOL     OW24031   6.382   6.635   5.903
 7711SOL    HW124032   6.410   6.726   5.873
 7711SOL    HW224033   6.437   6.607   5.981
 7712SOL     OW24034   6.094   5.412   1.893
 7712SOL    HW124035   6.135   5.321   1.897
 7712SOL    HW224036   6.064   5.440   1.984
 7713SOL     OW24037   1.210   4.236   0.560
 7713SOL    HW124038   1.295   4.242   0.613
 7713SOL    HW224039   1.216   4.160   0.496
 7714SOL     OW24040   5.911   4.248   5.633
 7714SOL    HW124041   5.969   4.243   5.714
 7714SOL    HW224042   5.824   4.203   5.652
 7715SOL     OW24043   3.857   2.247   0.543
 7715SOL    HW124044   3.786   2.206   0.486
 7715SOL    HW224045   3.922   2.176   0.571
 7716SOL     OW24046   5.906   4.442   2.726
 7716SOL    HW124047   5.882   4.535   2.700
 7716SOL    HW224048   5.995   4.418   2.686
 7717SOL     OW24049   1.811   1.067   4.707
 7717SOL    HW124050   1.880   1.060   4.778
 7717SOL    HW224051   1.762   0.980   4.698
 7718SOL     OW24052   1.154   2.851   3.178
 7718SOL    HW124053   1.191   2.924   3.235
 7718SOL    HW224054   1.062   2.877   3.146
 7719SOL     OW24055   6.782   4.738   4.893
 7719SOL    HW124056   6.756   4.825   4.849
 7719SOL    HW224057   6.701   4.698   4.936
 7720SOL     OW24058   6.952   1.171   0.060
 7720SOL    HW124059   7.012   1.247   0.036
 7720SOL    HW224060   6.997   1.112   0.127
 7721SOL     OW24061   0.091   5.496   2.912
 7721SOL    HW124062   0.096   5.490   2.812
 7721SOL    HW224063   0.108   5.590   2.941
 7722SOL     OW24064   1.337   4.991   3.657
 7722SOL    HW124065   1.437   4.988   3.660
 7722SOL    HW224066   1.302   5.022   3.746
 7723SOL     OW24067   4.362   3.314   0.062
 7723SOL    HW124068   4.313   3.268   0.136
 7723SOL    HW224069   4.388   3.247   7.014
 7724SOL     OW24070   3.079   3.968   0.699
 7724SOL    HW124071   2.988   3.957   0.739
 7724SOL    HW224072   3.148   3.930   0.761
 7725SOL     OW24073   6.496   1.748   3.423
 7725SOL    HW124074   6.490   1.817   3.351
 7725SOL    HW224075   6.555   1.781   3.496
 7726SOL     OW24076   1.682   5.704   5.426
 7726SOL    HW124077   1.635   5.665   5.505
 7726SOL    HW224078   1.618   5.716   5.351
 7727SOL     OW24079   0.174   0.825   2.630
 7727SOL    HW124080   0.143   0.920   2.623
 7727SOL    HW224081   0.174   0.784   2.539
 7728SOL     OW24082   1.393   4.593   3.715
 7728SOL    HW124083   1.294   4.594   3.729
 7728SOL    HW224084   1.437   4.654   3.782
 7729SOL     OW24085   5.462   2.961   0.886
 7729SOL    HW124086   5.456   2.910   0.972
 7729SOL    HW224087   5.393   2.928   0.822
 7730SOL     OW24088   5.878   5.731   0.569
 7730SOL    HW124089   5.783   5.701   0.560
 7730SOL    HW224090   5.880   5.827   0.596
 7731SOL     OW24091   6.773   1.063   0.366
 7731SOL    HW124092   6.842   1.020   0.308
 7731SOL    HW224093   6.683   1.056   0.322
 7732SOL     OW24094   4.681   6.716   0.431
 7732SOL    HW124095   4.676   6.655   0.511
 7732SOL    HW224096   4.775   6.718   0.396
 7733SOL     OW24097   5.007   6.332   2.750
 7733SOL    HW124098   5.083   6.291   2.699
 7733SOL    HW224099   4.958   6.396   2.691
 7734SOL     OW24100   2.758   4.729   2.952
 7734SOL    HW124101   2.684   4.771   3.006
 7734SOL    HW224102   2.829   4.696   3.013
 7735SOL     OW24103   4.603   0.041   6.485
 7735SOL    HW124104   4.563   0.125   6.522
 7735SOL    HW224105   4.597   0.042   6.386
 7736SOL     OW24106   3.484   3.401   6.547
 7736SOL    HW124107   3.528   3.393   6.636
 7736SOL    HW224108   3.552   3.429   6.479
 7737SOL     OW24109   3.245   6.942   2.511
 7737SOL    HW124110   3.328   6.997   2.497
 7737SOL    HW224111   3.195   6.935   2.425
 7738SOL     OW24112   2.937   6.127   6.723
 7738SOL    HW124113   2.908   6.121   6.818
 7738SOL    HW224114   2.983   6.042   6.696
 7739SOL     OW24115   0.456   2.702   1.220
 7739SOL    HW124116   0.464   2.791   1.265
 7739SOL    HW224117   0.430   2.633   1.286
 7740SOL     OW24118   2.403   1.178   2.343
 7740SOL    HW124119   2.373   1.203   2.251
 7740SOL    HW224120   2.485   1.230   2.368
 7741SOL     OW24121   1.216   5.130   5.887
 7741SOL    HW124122   1.175   5.217   5.915
 7741SOL    HW224123   1.145   5.058   5.887
 7742SOL     OW24124   4.524   2.411   3.718
 7742SOL    HW124125   4.444   2.391   3.661
 7742SOL    HW224126   4.515   2.361   3.804
 7743SOL     OW24127   5.838   1.288   6.778
 7743SOL    HW124128   5.765   1.221   6.790
 7743SOL    HW224129   5.926   1.242   6.782
 7744SOL     OW24130   0.932   6.279   4.059
 7744SOL    HW124131   0.931   6.288   3.959
 7744SOL    HW224132   0.839   6.288   4.094
 7745SOL     OW24133   3.798   1.251   6.787
 7745SOL    HW124134   3.715   1.300   6.760
 7745SOL    HW224135   3.878   1.304   6.759
 7746SOL     OW24136   1.910   0.237   0.373
 7746SOL    HW124137   1.972   0.166   0.339
 7746SOL    HW224138   1.819   0.221   0.336
 7747SOL     OW24139   5.440   5.791   0.972
 7747SOL    HW124140   5.426   5.693   0.961
 7747SOL    HW224141   5.357   5.833   1.009
 7748SOL     OW24142   3.414   4.186   5.087
 7748SOL    HW124143   3.321   4.149   5.096
 7748SOL    HW224144   3.427   4.259   5.154
 7749SOL     OW24145   2.466   2.914   6.177
 7749SOL    HW124146   2.566   2.907   6.172
 7749SOL    HW224147   2.436   2.891   6.270
 7750SOL     OW24148   0.193   6.307   1.970
 7750SOL    HW124149   0.188   6.226   1.913
 7750SOL    HW224150   0.222   6.282   2.063
 7751SOL     OW24151   1.407   2.500   2.001
 7751SOL    HW124152   1.483   2.492   1.936
 7751SOL    HW224153   1.340   2.566   1.967
 7752SOL     OW24154   5.631   6.964   5.409
 7752SOL    HW124155   5.559   6.897   5.387
 7752SOL    HW224156   5.671   6.942   5.498
 7753SOL     OW24157   2.832   1.085   3.911
 7753SOL    HW124158   2.836   0.985   3.906
 7753SOL    HW224159   2.870   1.124   3.827
 7754SOL     OW24160   3.276   6.094   1.461
 7754SOL    HW124161   3.219   6.020   1.425
 7754SOL    HW224162   3.333   6.132   1.388
 7755SOL     OW24163   2.173   2.532   5.413
 7755SOL    HW124164   2.100   2.483   5.461
 7755SOL    HW224165   2.204   2.478   5.335
 7756SOL     OW24166   2.759   6.002   2.916
 7756SOL    HW124167   2.675   6.022   2.965
 7756SOL    HW224168   2.821   6.081   2.923
 7757SOL     OW24169   5.214   4.783   0.486
 7757SOL    HW124170   5.266   4.861   0.522
 7757SOL    HW224171   5.116   4.801   0.494
 7758SOL     OW24172   2.146   0.507   5.678
 7758SOL    HW124173   2.063   0.490   5.730
 7758SOL    HW224174   2.209   0.563   5.732
 7759SOL     OW24175   1.948   2.360   5.511
 7759SOL    HW124176   1.922   2.289   5.576
 7759SOL    HW224177   1.920   2.334   5.419
 7760SOL     OW24178   5.780   3.533   2.473
 7760SOL    HW124179   5.684   3.561   2.468
 7760SOL    HW224180   5.787   3.442   2.515
 7761SOL     OW24181   6.723   0.305   4.568
 7761SOL    HW124182   6.746   0.332   4.661
 7761SOL    HW224183   6.630   0.268   4.565
 7762SOL     OW24184   2.384   0.286   3.964
 7762SOL    HW124185   2.373   0.188   3.982
 7762SOL    HW224186   2.324   0.338   4.024
 7763SOL     OW24187   2.440   0.244   0.001
 7763SOL    HW124188   2.346   0.263   6.994
 7763SOL    HW224189   2.442   0.228   0.100
 7764SOL     OW24190   3.602   3.473   5.005
 7764SOL    HW124191   3.530   3.542   5.014
 7764SOL    HW224192   3.597   3.431   4.914
 7765SOL     OW24193   5.739   4.199   5.179
 7765SOL    HW124194   5.809   4.175   5.245
 7765SOL    HW224195   5.767   4.279   5.127
 7766SOL     OW24196   6.735   3.954   6.973
 7766SOL    HW124197   6.781   4.009   6.903
 7766SOL    HW224198   6.795   3.944   0.030
 7767SOL     OW24199   4.997   5.937   2.690
 7767SOL    HW124200   5.030   5.918   2.597
 7767SOL    HW224201   5.011   6.033   2.712
 7768SOL     OW24202   4.406   4.579   3.366
 7768SOL    HW124203   4.350   4.661   3.353
 7768SOL    HW224204   4.423   4.566   3.463
 7769SOL     OW24205   4.640   1.555   3.534
 7769SOL    HW124206   4.666   1.460   3.553
 7769SOL    HW224207   4.542   1.566   3.548
 7770SOL     OW24208   1.732   4.222   4.289
 7770SOL    HW124209   1.691   4.304   4.327
 7770SOL    HW224210   1.755   4.158   4.364
 7771SOL     OW24211   3.734   1.923   5.271
 7771SOL    HW124212   3.790   1.923   5.188
 7771SOL    HW224213   3.778   1.868   5.342
 7772SOL     OW24214   4.397   0.065   2.124
 7772SOL    HW124215   4.325   0.050   2.192
 7772SOL    HW224216   4.461   0.133   2.158
 7773SOL     OW24217   2.366   5.278   5.238
 7773SOL    HW124218   2.399   5.215   5.309
 7773SOL    HW224219   2.430   5.354   5.229
 7774SOL     OW24220   4.936   1.808   4.558
 7774SOL    HW124221   5.011   1.760   4.604
 7774SOL    HW224222   4.966   1.834   4.466
 7775SOL     OW24223   4.725   6.261   0.389
 7775SOL    HW124224   4.671   6.177   0.395
 7775SOL    HW224225   4.688   6.329   0.451
 7776SOL     OW24226   0.359   6.012   6.591
 7776SOL    HW124227   0.327   5.926   6.630
 7776SOL    HW224228   0.285   6.055   6.540
 7777SOL     OW24229   5.934   5.613   3.831
 7777SOL    HW124230   5.844   5.574   3.851
 7777SOL    HW224231   5.935   5.649   3.738
 7778SOL     OW24232   5.724   3.879   0.652
 7778SOL    HW124233   5.770   3.804   0.701
 7778SOL    HW224234   5.626   3.859   0.645
 7779SOL     OW24235   2.458   2.078   1.534
 7779SOL    HW124236   2.425   1.985   1.550
 7779SOL    HW224237   2.416   2.114   1.451
 7780SOL     OW24238   0.437   5.335   5.458
 7780SOL    HW124239   0.389   5.356   5.373
 7780SOL    HW224240   0.504   5.262   5.441
 7781SOL     OW24241   2.138   4.356   1.495
 7781SOL    HW124242   2.178   4.298   1.566
 7781SOL    HW224243   2.076   4.302   1.438
 7782SOL     OW24244   5.527   4.963   4.829
 7782SOL    HW124245   5.434   4.989   4.801
 7782SOL    HW224246   5.522   4.882   4.887
 7783SOL     OW24247   0.826   6.885   5.618
 7783SOL    HW124248   0.898   6.858   5.554
 7783SOL    HW224249   0.781   6.803   5.654
 7784SOL     OW24250   3.643   2.805   1.977
 7784SOL    HW124251   3.580   2.800   2.055
 7784SOL    HW224252   3.721   2.863   2.002
 7785SOL     OW24253   1.898   6.249   5.142
 7785SOL    HW124254   1.956   6.238   5.223
 7785SOL    HW224255   1.929   6.327   5.088
 7786SOL     OW24256   3.718   0.032   0.826
 7786SOL    HW124257   3.778   0.096   0.872
 7786SOL    HW224258   3.625   0.039   0.864
 7787SOL     OW24259   2.383   3.136   0.048
 7787SOL    HW124260   2.341   3.226   0.039
 7787SOL    HW224261   2.459   3.128   7.005
 7788SOL     OW24262   1.886   5.039   1.505
 7788SOL    HW124263   1.903   5.062   1.409
 7788SOL    HW224264   1.876   5.122   1.559
 7789SOL     OW24265   2.404   0.088   6.609
 7789SOL    HW124266   2.372   7.015   6.609
 7789SOL    HW224267   2.443   0.110   6.698
 7790SOL     OW24268   5.235   5.567   2.432
 7790SOL    HW124269   5.275   5.476   2.442
 7790SOL    HW224270   5.176   5.586   2.510
 7791SOL     OW24271   2.285   5.342   2.815
 7791SOL    HW124272   2.278   5.374   2.910
 7791SOL    HW224273   2.217   5.390   2.759
 7792SOL     OW24274   2.051   5.402   4.697
 7792SOL    HW124275   2.054   5.316   4.747
 7792SOL    HW224276   2.012   5.387   4.606
 7793SOL     OW24277   4.023   1.061   0.503
 7793SOL    HW124278   4.110   1.040   0.459
 7793SOL    HW224279   3.968   1.119   0.442
 7794SOL     OW24280   6.503   3.906   2.213
 7794SOL    HW124281   6.559   3.823   2.216
 7794SOL    HW224282   6.407   3.883   2.227
 7795SOL     OW24283   1.952   4.479   5.342
 7795SOL    HW124284   1.890   4.439   5.274
 7795SOL    HW224285   1.940   4.578   5.343
 7796SOL     OW24286   3.660   2.914   4.982
 7796SOL    HW124287   3.673   2.887   4.887
 7796SOL    HW224288   3.563   2.934   4.998
 7797SOL     OW24289   1.608   6.518   1.571
 7797SOL    HW124290   1.682   6.561   1.520
 7797SOL    HW224291   1.599   6.422   1.544
 7798SOL     OW24292   1.219   3.024   3.418
 7798SOL    HW124293   1.289   3.056   3.481
 7798SOL    HW224294   1.155   2.964   3.467
 7799SOL     OW24295   1.328   5.300   2.489
 7799SOL    HW124296   1.426   5.296   2.467
 7799SOL    HW224297   1.282   5.358   2.422
 7800SOL     OW24298   0.820   5.552   3.115
 7800SOL    HW124299   0.851   5.488   3.186
 7800SOL    HW224300   0.811   5.503   3.028
 7801SOL     OW24301   2.073   1.766   1.618
 7801SOL    HW124302   2.141   1.721   1.677
 7801SOL    HW224303   2.097   1.751   1.522
 7802SOL     OW24304   6.434   2.787   1.167
 7802SOL    HW124305   6.458   2.866   1.223
 7802SOL    HW224306   6.478   2.705   1.205
 7803SOL     OW24307   4.217   2.207   6.423
 7803SOL    HW124308   4.156   2.261   6.482
 7803SOL    HW224309   4.281   2.155   6.479
 7804SOL     OW24310   4.653   2.425   5.042
 7804SOL    HW124311   4.616   2.493   5.106
 7804SOL    HW224312   4.686   2.346   5.094
 7805SOL     OW24313   5.184   3.163   1.561
 7805SOL    HW124314   5.265   3.168   1.618
 7805SOL    HW224315   5.184   3.076   1.510
 7806SOL     OW24316   6.110   1.325   6.070
 7806SOL    HW124317   6.015   1.324   6.101
 7806SOL    HW224318   6.171   1.323   6.149
 7807SOL     OW24319   1.037   4.302   6.082
 7807SOL    HW124320   1.002   4.226   6.136
 7807SOL    HW224321   1.135   4.312   6.099
 7808SOL     OW24322   5.856   3.083   3.846
 7808SOL    HW124323   5.813   3.127   3.767
 7808SOL    HW224324   5.806   3.108   3.929
 7809SOL     OW24325   4.804   4.801   4.996
 7809SOL    HW124326   4.792   4.716   5.047
 7809SOL    HW224327   4.876   4.788   4.927
 7810SOL     OW24328   3.355   6.673   4.949
 7810SOL    HW124329   3.442   6.703   4.911
 7810SOL    HW224330   3.361   6.576   4.974
 7811SOL     OW24331   1.373   5.239   1.534
 7811SOL    HW124332   1.274   5.229   1.543
 7811SOL    HW224333   1.419   5.192   1.609
 7812SOL     OW24334   0.843   2.679   4.423
 7812SOL    HW124335   0.749   2.647   4.414
 7812SOL    HW224336   0.862   2.747   4.351
 7813SOL     OW24337   4.211   1.948   1.026
 7813SOL    HW124338   4.135   1.940   0.961
 7813SOL    HW224339   4.195   1.885   1.102
 7814SOL     OW24340   6.760   3.228   3.278
 7814SOL    HW124341   6.787   3.213   3.183
 7814SOL    HW224342   6.840   3.216   3.338
 7815SOL     OW24343   5.724   1.830   4.198
 7815SOL    HW124344   5.635   1.847   4.238
 7815SOL    HW224345   5.777   1.915   4.196
 7816SOL     OW24346   1.681   2.215   6.174
 7816SOL    HW124347   1.640   2.133   6.136
 7816SOL    HW224348   1.610   2.272   6.216
 7817SOL     OW24349   4.518   4.466   4.366
 7817SOL    HW124350   4.541   4.560   4.391
 7817SOL    HW224351   4.545   4.404   4.440
 7818SOL     OW24352   5.127   0.319   2.493
 7818SOL    HW124353   5.193   0.279   2.556
 7818SOL    HW224354   5.127   0.267   2.407
 7819SOL     OW24355   0.000   3.810   3.753
 7819SOL    HW124356   0.026   3.783   3.846
 7819SOL    HW224357   6.999   3.907   3.751
 7820SOL     OW24358   1.562   1.321   5.743
 7820SOL    HW124359   1.506   1.378   5.803
 7820SOL    HW224360   1.559   1.359   5.650
 7821SOL     OW24361   5.505   5.100   0.222
 7821SOL    HW124362   5.507   5.140   0.130
 7821SOL    HW224363   5.583   5.039   0.234
 7822SOL     OW24364   0.910   0.988   0.156
 7822SOL    HW124365   0.862   1.016   0.240
 7822SOL    HW224366   0.850   0.927   0.103
 7823SOL     OW24367   3.129   3.674   5.994
 7823SOL    HW124368   3.192   3.750   5.975
 7823SOL    HW224369   3.075   3.696   6.075
 7824SOL     OW24370   5.976   0.906   3.785
 7824SOL    HW124371   6.019   0.821   3.817
 7824SOL    HW224372   5.887   0.886   3.745
 7825SOL     OW24373   1.242   3.311   0.880
 7825SOL    HW124374   1.148   3.339   0.897
 7825SOL    HW224375   1.265   3.233   0.938
 7826SOL     OW24376   6.345   1.614   6.592
 7826SOL    HW124377   6.379   1.698   6.634
 7826SOL    HW224378   6.294   1.561   6.661
 7827SOL     OW24379   2.923   4.217   0.860
 7827SOL    HW124380   3.011   4.191   0.818
 7827SOL    HW224381   2.939   4.250   0.953
 7828SOL     OW24382   0.515   5.439   0.524
 7828SOL    HW124383   0.518   5.459   0.426
 7828SOL    HW224384   0.431   5.389   0.546
 7829SOL     OW24385   2.196   3.145   0.284
 7829SOL    HW124386   2.159   3.230   0.245
 7829SOL    HW224387   2.292   3.160   0.308
 7830SOL     OW24388   4.116   3.439   5.850
 7830SOL    HW124389   4.020   3.467   5.858
 7830SOL    HW224390   4.169   3.510   5.806
 7831SOL     OW24391   1.237   5.728   1.032
 7831SOL    HW124392   1.145   5.700   1.005
 7831SOL    HW224393   1.241   5.740   1.131
 7832SOL     OW24394   3.484   1.439   4.259
 7832SOL    HW124395   3.556   1.508   4.247
 7832SOL    HW224396   3.473   1.387   4.174
 7833SOL     OW24397   0.777   0.730   0.083
 7833SOL    HW124398   0.692   0.782   0.084
 7833SOL    HW224399   0.780   0.671   0.003
 7834SOL     OW24400   0.290   0.894   3.824
 7834SOL    HW124401   0.230   0.936   3.892
 7834SOL    HW224402   0.239   0.879   3.739
 7835SOL     OW24403   2.397   2.311   4.753
 7835SOL    HW124404   2.437   2.389   4.704
 7835SOL    HW224405   2.324   2.344   4.814
 7836SOL     OW24406   3.557   2.792   5.331
 7836SOL    HW124407   3.483   2.725   5.334
 7836SOL    HW224408   3.531   2.873   5.384
 7837SOL     OW24409   6.902   5.380   1.429
 7837SOL    HW124410   6.845   5.300   1.412
 7837SOL    HW224411   6.888   5.447   1.356
 7838SOL     OW24412   4.131   6.330   0.560
 7838SOL    HW124413   4.111   6.310   0.464
 7838SOL    HW224414   4.064   6.283   0.617
 7839SOL     OW24415   6.067   4.667   5.047
 7839SOL    HW124416   6.041   4.660   5.143
 7839SOL    HW224417   6.162   4.639   5.036
 7840SOL     OW24418   5.153   3.045   4.427
 7840SOL    HW124419   5.120   3.128   4.471
 7840SOL    HW224420   5.145   2.968   4.491
 7841SOL     OW24421   4.522   1.465   0.003
 7841SOL    HW124422   4.579   1.422   6.954
 7841SOL    HW224423   4.578   1.527   0.057
 7842SOL     OW24424   1.917   1.602   2.528
 7842SOL    HW124425   1.996   1.591   2.589
 7842SOL    HW224426   1.938   1.563   2.438
 7843SOL     OW24427   4.851   4.516   1.899
 7843SOL    HW124428   4.819   4.448   1.833
 7843SOL    HW224429   4.795   4.513   1.981
 7844SOL     OW24430   4.586   6.775   3.452
 7844SOL    HW124431   4.629   6.813   3.534
 7844SOL    HW224432   4.633   6.809   3.371
 7845SOL     OW24433   5.825   1.465   4.020
 7845SOL    HW124434   5.904   1.496   3.967
 7845SOL    HW224435   5.810   1.526   4.098
 7846SOL     OW24436   1.009   1.453   2.058
 7846SOL    HW124437   0.951   1.375   2.079
 7846SOL    HW224438   1.047   1.443   1.966
 7847SOL     OW24439   6.471   1.874   2.302
 7847SOL    HW124440   6.414   1.823   2.367
 7847SOL    HW224441   6.567   1.866   2.329
 7848SOL     OW24442   2.942   3.112   0.887
 7848SOL    HW124443   2.900   3.095   0.976
 7848SOL    HW224444   2.898   3.191   0.844
 7849SOL     OW24445   4.946   3.880   3.236
 7849SOL    HW124446   5.045   3.890   3.228
 7849SOL    HW224447   4.924   3.801   3.292
 7850SOL     OW24448   0.761   1.663   3.793
 7850SOL    HW124449   0.706   1.678   3.711
 7850SOL    HW224450   0.785   1.566   3.800
 7851SOL     OW24451   6.516   0.384   1.547
 7851SOL    HW124452   6.419   0.363   1.549
 7851SOL    HW224453   6.559   0.334   1.471
 7852SOL     OW24454   2.586   0.517   5.787
 7852SOL    HW124455   2.519   0.451   5.754
 7852SOL    HW224456   2.647   0.473   5.853
 7853SOL     OW24457   4.009   1.344   1.878
 7853SOL    HW124458   3.940   1.307   1.940
 7853SOL    HW224459   4.055   1.421   1.923
 7854SOL     OW24460   2.942   3.079   0.225
 7854SOL    HW124461   2.874   3.007   0.235
 7854SOL    HW224462   2.985   3.072   0.135
 7855SOL     OW24463   2.818   5.796   5.890
 7855SOL    HW124464   2.845   5.834   5.978
 7855SOL    HW224465   2.775   5.708   5.904
 7856SOL     OW24466   5.719   5.142   4.891
 7856SOL    HW124467   5.649   5.078   4.858
 7856SOL    HW224468   5.774   5.097   4.961
 7857SOL     OW24469   6.187   2.553   5.305
 7857SOL    HW124470   6.271   2.607   5.305
 7857SOL    HW224471   6.138   2.567   5.218
 7858SOL     OW24472   4.960   4.956   3.572
 7858SOL    HW124473   4.870   4.985   3.604
 7858SOL    HW224474   4.991   5.016   3.499
 7859SOL     OW24475   6.110   3.225   5.695
 7859SOL    HW124476   6.038   3.292   5.715
 7859SOL    HW224477   6.072   3.132   5.704
 7860SOL     OW24478   4.586   0.069   2.783
 7860SOL    HW124479   4.550   0.098   2.695
 7860SOL    HW224480   4.571   6.992   2.795
 7861SOL     OW24481   4.087   5.256   1.897
 7861SOL    HW124482   4.090   5.305   1.809
 7861SOL    HW224483   4.181   5.239   1.927
 7862SOL     OW24484   3.036   4.538   1.484
 7862SOL    HW124485   3.031   4.461   1.548
 7862SOL    HW224486   3.015   4.622   1.533
 7863SOL     OW24487   6.785   6.036   3.756
 7863SOL    HW124488   6.743   5.966   3.814
 7863SOL    HW224489   6.757   6.127   3.788
 7864SOL     OW24490   0.230   6.718   5.481
 7864SOL    HW124491   0.225   6.750   5.386
 7864SOL    HW224492   0.142   6.678   5.507
 7865SOL     OW24493   5.540   0.164   4.607
 7865SOL    HW124494   5.591   0.084   4.638
 7865SOL    HW224495   5.449   0.164   4.647
 7866SOL     OW24496   2.096   2.614   0.099
 7866SOL    HW124497   2.128   2.557   0.023
 7866SOL    HW224498   2.050   2.557   0.167
 7867SOL     OW24499   5.588   6.764   2.610
 7867SOL    HW124500   5.543   6.810   2.686
 7867SOL    HW224501   5.528   6.692   2.574
 7868SOL     OW24502   5.876   6.399   2.103
 7868SOL    HW124503   5.940   6.350   2.044
 7868SOL    HW224504   5.839   6.478   2.053
 7869SOL     OW24505   5.459   3.196   6.632
 7869SOL    HW124506   5.433   3.231   6.542
 7869SOL    HW224507   5.439   3.265   6.702
 7870SOL     OW24508   4.511   5.115   4.397
 7870SOL    HW124509   4.467   5.193   4.440
 7870SOL    HW224510   4.473   5.101   4.305
 7871SOL     OW24511   5.424   3.354   2.623
 7871SOL    HW124512   5.427   3.260   2.588
 7871SOL    HW224513   5.491   3.365   2.696
 7872SOL     OW24514   2.323   4.223   2.792
 7872SOL    HW124515   2.339   4.246   2.696
 7872SOL    HW224516   2.380   4.281   2.850
 7873SOL     OW24517   5.622   0.622   5.383
 7873SOL    HW124518   5.603   0.554   5.454
 7873SOL    HW224519   5.695   0.683   5.414
 7874SOL     OW24520   5.243   1.635   0.816
 7874SOL    HW124521   5.220   1.625   0.720
 7874SOL    HW224522   5.163   1.665   0.868
 7875SOL     OW24523   4.767   2.318   6.467
 7875SOL    HW124524   4.729   2.236   6.424
 7875SOL    HW224525   4.866   2.314   6.463
 7876SOL     OW24526   6.999   7.003   5.201
 7876SOL    HW124527   0.025   6.947   5.133
 7876SOL    HW224528   0.026   0.069   5.211
 7877SOL     OW24529   6.747   2.869   2.943
 7877SOL    HW124530   6.724   2.774   2.919
 7877SOL    HW224531   6.773   2.918   2.860
 7878SOL     OW24532   5.123   5.020   4.203
 7878SOL    HW124533   5.047   5.036   4.266
 7878SOL    HW224534   5.117   4.927   4.167
 7879SOL     OW24535   4.492   5.568   3.125
 7879SOL    HW124536   4.537   5.621   3.053
 7879SOL    HW224537   4.560   5.523   3.181
 7880SOL     OW24538   2.068   5.556   1.043
 7880SOL    HW124539   2.029   5.465   1.061
 7880SOL    HW224540   2.165   5.546   1.020
 7881SOL     OW24541   5.454   3.929   4.876
 7881SOL    HW124542   5.465   3.960   4.782
 7881SOL    HW224543   5.538   3.948   4.927
 7882SOL     OW24544   1.356   3.601   2.417
 7882SOL    HW124545   1.381   3.591   2.514
 7882SOL    HW224546   1.339   3.697   2.396
 7883SOL     OW24547   1.478   6.807   1.006
 7883SOL    HW124548   1.435   6.799   0.916
 7883SOL    HW224549   1.407   6.821   1.075
 7884SOL     OW24550   2.151   3.657   4.091
 7884SOL    HW124551   2.200   3.672   4.177
 7884SOL    HW224552   2.192   3.579   4.043
 7885SOL     OW24553   5.850   6.402   1.565
 7885SOL    HW124554   5.807   6.425   1.478
 7885SOL    HW224555   5.782   6.406   1.638
 7886SOL     OW24556   3.932   5.276   1.119
 7886SOL    HW124557   3.959   5.310   1.029
 7886SOL    HW224558   3.839   5.240   1.114
 7887SOL     OW24559   3.325   2.644   5.302
 7887SOL    HW124560   3.312   2.652   5.401
 7887SOL    HW224561   3.290   2.556   5.271
 7888SOL     OW24562   6.815   0.439   5.111
 7888SOL    HW124563   6.913   0.444   5.130
 7888SOL    HW224564   6.773   0.527   5.133
 7889SOL     OW24565   0.543   4.744   0.140
 7889SOL    HW124566   0.548   4.652   0.179
 7889SOL    HW224567   0.628   4.764   0.092
 7890SOL     OW24568   0.384   3.233   3.546
 7890SOL    HW124569   0.310   3.165   3.550
 7890SOL    HW224570   0.422   3.246   3.637
 7891SOL     OW24571   2.066   4.193   4.674
 7891SOL    HW124572   2.090   4.289   4.661
 7891SOL    HW224573   2.094   4.140   4.593
 7892SOL     OW24574   1.906   1.804   4.131
 7892SOL    HW124575   1.882   1.885   4.077
 7892SOL    HW224576   1.968   1.829   4.205
 7893SOL     OW24577   6.360   6.635   1.920
 7893SOL    HW124578   6.413   6.577   1.858
 7893SOL    HW224579   6.347   6.588   2.007
 7894SOL     OW24580   3.089   0.725   0.968
 7894SOL    HW124581   3.038   0.679   0.895
 7894SOL    HW224582   3.184   0.736   0.940
 7895SOL     OW24583   4.920   0.525   4.587
 7895SOL    HW124584   4.986   0.559   4.654
 7895SOL    HW224585   4.830   0.521   4.629
 7896SOL     OW24586   4.332   2.713   1.059
 7896SOL    HW124587   4.344   2.775   1.137
 7896SOL    HW224588   4.345   2.619   1.089
 7897SOL     OW24589   3.448   2.223   1.401
 7897SOL    HW124590   3.525   2.162   1.386
 7897SOL    HW224591   3.460   2.271   1.488
 7898SOL     OW24592   3.852   0.184   3.782
 7898SOL    HW124593   3.794   0.137   3.715
 7898SOL    HW224594   3.947   0.181   3.752
 7899SOL     OW24595   5.713   6.899   1.252
 7899SOL    HW124596   5.702   6.848   1.167
 7899SOL    HW224597   5.648   6.974   1.255
 7900SOL     OW24598   1.105   5.530   1.502
 7900SOL    HW124599   1.111   5.468   1.580
 7900SOL    HW224600   1.030   5.594   1.516
 7901SOL     OW24601   4.080   0.822   6.728
 7901SOL    HW124602   4.177   0.839   6.745
 7901SOL    HW224603   4.038   0.902   6.685
 7902SOL     OW24604   6.439   6.263   2.002
 7902SOL    HW124605   6.363   6.216   1.956
 7902SOL    HW224606   6.515   6.272   1.938
 7903SOL     OW24607   4.678   1.626   3.050
 7903SOL    HW124608   4.745   1.680   2.999
 7903SOL    HW224609   4.590   1.674   3.050
 7904SOL     OW24610   6.027   6.503   2.780
 7904SOL    HW124611   6.114   6.550   2.791
 7904SOL    HW224612   5.955   6.570   2.761
 7905SOL     OW24613   5.797   2.499   0.667
 7905SOL    HW124614   5.883   2.475   0.621
 7905SOL    HW224615   5.794   2.454   0.756
 7906SOL     OW24616   0.466   5.016   0.758
 7906SOL    HW124617   0.447   4.933   0.706
 7906SOL    HW224618   0.565   5.029   0.765
 7907SOL     OW24619   5.807   1.995   3.815
 7907SOL    HW124620   5.774   2.081   3.853
 7907SOL    HW224621   5.864   2.013   3.735
 7908SOL     OW24622   1.800   0.771   5.798
 7908SOL    HW124623   1.746   0.816   5.726
 7908SOL    HW224624   1.807   0.832   5.877
 7909SOL     OW24625   4.981   4.272   4.045
 7909SOL    HW124626   5.079   4.288   4.058
 7909SOL    HW224627   4.937   4.263   4.135
 7910SOL     OW24628   2.437   3.297   0.410
 7910SOL    HW124629   2.428   3.334   0.503
 7910SOL    HW224630   2.526   3.253   0.400
 7911SOL     OW24631   0.967   4.396   0.325
 7911SOL    HW124632   0.998   4.339   0.249
 7911SOL    HW224633   1.039   4.404   0.393
 7912SOL     OW24634   6.246   4.294   1.361
 7912SOL    HW124635   6.191   4.241   1.295
 7912SOL    HW224636   6.194   4.375   1.389
 7913SOL     OW24637   1.213   4.505   1.637
 7913SOL    HW124638   1.158   4.453   1.702
 7913SOL    HW224639   1.261   4.442   1.576
 7914SOL     OW24640   0.077   4.769   0.410
 7914SOL    HW124641   0.154   4.777   0.473
 7914SOL    HW224642   0.003   4.717   0.454
 7915SOL     OW24643   4.993   2.179   1.796
 7915SOL    HW124644   4.992   2.184   1.896
 7915SOL    HW224645   4.909   2.220   1.761
 7916SOL     OW24646   0.051   6.632   6.022
 7916SOL    HW124647   0.062   6.564   5.949
 7916SOL    HW224648   6.994   6.607   6.079
 7917SOL     OW24649   3.407   2.931   5.110
 7917SOL    HW124650   3.471   2.861   5.140
 7917SOL    HW224651   3.448   3.021   5.121
 7918SOL     OW24652   6.573   1.335   4.705
 7918SOL    HW124653   6.547   1.425   4.670
 7918SOL    HW224654   6.503   1.268   4.679
 7919SOL     OW24655   1.518   4.801   3.330
 7919SOL    HW124656   1.527   4.713   3.376
 7919SOL    HW224657   1.599   4.818   3.274
 7920SOL     OW24658   6.801   0.235   0.266
 7920SOL    HW124659   6.835   0.193   0.350
 7920SOL    HW224660   6.837   0.185   0.187
 7921SOL     OW24661   6.182   6.233   1.855
 7921SOL    HW124662   6.124   6.195   1.927
 7921SOL    HW224663   6.134   6.310   1.811
 7922SOL     OW24664   0.384   6.013   0.819
 7922SOL    HW124665   0.316   6.020   0.746
 7922SOL    HW224666   0.343   6.043   0.906
 7923SOL     OW24667   4.188   0.697   6.373
 7923SOL    HW124668   4.132   0.621   6.406
 7923SOL    HW224669   4.285   0.672   6.381
 7924SOL     OW24670   4.989   0.231   2.096
 7924SOL    HW124671   5.037   0.312   2.063
 7924SOL    HW224672   4.939   0.189   2.020
 7925SOL     OW24673   0.782   0.139   0.537
 7925SOL    HW124674   0.701   0.185   0.499
 7925SOL    HW224675   0.857   0.204   0.545
 7926SOL     OW24676   4.070   1.889   6.559
 7926SOL    HW124677   4.087   1.973   6.609
 7926SOL    HW224678   4.036   1.819   6.622
 7927SOL     OW24679   4.312   5.991   2.655
 7927SOL    HW124680   4.223   5.947   2.643
 7927SOL    HW224681   4.309   6.050   2.736
 7928SOL     OW24682   1.519   1.654   3.894
 7928SOL    HW124683   1.615   1.681   3.897
 7928SOL    HW224684   1.501   1.605   3.809
 7929SOL     OW24685   4.022   3.787   5.205
 7929SOL    HW124686   4.107   3.735   5.209
 7929SOL    HW224687   4.012   3.829   5.115
 7930SOL     OW24688   4.045   5.140   5.258
 7930SOL    HW124689   4.020   5.045   5.240
 7930SOL    HW224690   4.141   5.155   5.233
 7931SOL     OW24691   3.031   3.098   6.984
 7931SOL    HW124692   3.036   3.194   6.956
 7931SOL    HW224693   3.005   3.042   6.905
 7932SOL     OW24694   1.239   6.416   6.415
 7932SOL    HW124695   1.180   6.447   6.489
 7932SOL    HW224696   1.320   6.474   6.410
 7933SOL     OW24697   6.868   6.898   6.442
 7933SOL    HW124698   6.849   6.960   6.365
 7933SOL    HW224699   6.947   6.931   6.493
 7934SOL     OW24700   1.187   4.936   6.417
 7934SOL    HW124701   1.157   5.020   6.463
 7934SOL    HW224702   1.123   4.913   6.344
 7935SOL     OW24703   5.784   6.103   1.079
 7935SOL    HW124704   5.710   6.162   1.049
 7935SOL    HW224705   5.782   6.095   1.179
 7936SOL     OW24706   3.228   5.833   1.820
 7936SOL    HW124707   3.246   5.749   1.769
 7936SOL    HW224708   3.257   5.912   1.766
 7937SOL     OW24709   6.733   5.837   3.995
 7937SOL    HW124710   6.829   5.811   3.980
 7937SOL    HW224711   6.683   5.759   4.032
 7938SOL     OW24712   6.377   5.954   3.841
 7938SOL    HW124713   6.410   5.994   3.926
 7938SOL    HW224714   6.365   5.855   3.852
 7939SOL     OW24715   1.829   2.316   4.870
 7939SOL    HW124716   1.859   2.410   4.854
 7939SOL    HW224717   1.897   2.253   4.832
 7940SOL     OW24718   1.529   3.879   2.078
 7940SOL    HW124719   1.488   3.929   2.154
 7940SOL    HW224720   1.616   3.840   2.107
 7941SOL     OW24721   6.078   6.564   1.259
 7941SOL    HW124722   6.172   6.591   1.239
 7941SOL    HW224723   6.074   6.525   1.351
 7942SOL     OW24724   6.770   5.006   2.529
 7942SOL    HW124725   6.732   4.951   2.455
 7942SOL    HW224726   6.868   5.019   2.515
 7943SOL     OW24727   0.392   3.974   6.477
 7943SOL    HW124728   0.331   4.053   6.482
 7943SOL    HW224729   0.434   3.969   6.386
 7944SOL     OW24730   0.875   2.428   0.764
 7944SOL    HW124731   0.904   2.360   0.697
 7944SOL    HW224732   0.777   2.445   0.754
 7945SOL     OW24733   6.557   5.426   1.162
 7945SOL    HW124734   6.504   5.465   1.238
 7945SOL    HW224735   6.499   5.420   1.080
 7946SOL     OW24736   3.964   0.346   5.817
 7946SOL    HW124737   4.059   0.319   5.836
 7946SOL    HW224738   3.904   0.310   5.888
 7947SOL     OW24739   3.540   1.271   5.620
 7947SOL    HW124740   3.601   1.204   5.661
 7947SOL    HW224741   3.505   1.236   5.533
 7948SOL     OW24742   1.284   6.416   1.018
 7948SOL    HW124743   1.362   6.361   0.990
 7948SOL    HW224744   1.260   6.480   0.944
 7949SOL     OW24745   4.981   4.227   5.538
 7949SOL    HW124746   5.018   4.189   5.454
 7949SOL    HW224747   4.946   4.154   5.596
 7950SOL     OW24748   4.834   5.271   4.002
 7950SOL    HW124749   4.745   5.316   4.005
 7950SOL    HW224750   4.822   5.174   3.986
 7951SOL     OW24751   2.022   5.140   2.591
 7951SOL    HW124752   2.052   5.222   2.639
 7951SOL    HW224753   2.103   5.091   2.556
 7952SOL     OW24754   6.976   3.581   6.685
 7952SOL    HW124755   6.975   3.499   6.628
 7952SOL    HW224756   6.882   3.616   6.693
 7953SOL     OW24757   3.477   2.080   3.121
 7953SOL    HW124758   3.380   2.071   3.145
 7953SOL    HW224759   3.486   2.120   3.030
 7954SOL     OW24760   3.464   4.793   6.045
 7954SOL    HW124761   3.477   4.871   5.984
 7954SOL    HW224762   3.503   4.711   6.003
 7955SOL     OW24763   3.109   0.993   6.618
 7955SOL    HW124764   3.082   0.907   6.662
 7955SOL    HW224765   3.165   1.047   6.681
 7956SOL     OW24766   4.655   6.357   2.242
 7956SOL    HW124767   4.732   6.382   2.183
 7956SOL    HW224768   4.657   6.413   2.324
 7957SOL     OW24769   0.887   0.601   1.459
 7957SOL    HW124770   0.861   0.510   1.427
 7957SOL    HW224771   0.924   0.654   1.382
 7958SOL     OW24772   3.955   4.902   5.185
 7958SOL    HW124773   3.900   4.931   5.107
 7958SOL    HW224774   4.023   4.835   5.155
 7959SOL     OW24775   5.056   5.389   0.858
 7959SOL    HW124776   5.143   5.436   0.873
 7959SOL    HW224777   5.070   5.313   0.795
 7960SOL     OW24778   2.557   1.600   5.824
 7960SOL    HW124779   2.548   1.678   5.886
 7960SOL    HW224780   2.637   1.613   5.766
 7961SOL     OW24781   0.109   1.271   0.643
 7961SOL    HW124782   0.129   1.195   0.581
 7961SOL    HW224783   0.189   1.287   0.702
 7962SOL     OW24784   1.603   0.870   5.630
 7962SOL    HW124785   1.546   0.859   5.711
 7962SOL    HW224786   1.570   0.811   5.557
 7963SOL     OW24787   6.537   6.651   4.554
 7963SOL    HW124788   6.617   6.656   4.494
 7963SOL    HW224789   6.454   6.640   4.499
 7964SOL     OW24790   0.156   4.054   2.782
 7964SOL    HW124791   0.065   4.016   2.803
 7964SOL    HW224792   0.174   4.133   2.840
 7965SOL     OW24793   4.249   2.256   6.132
 7965SOL    HW124794   4.263   2.254   6.231
 7965SOL    HW224795   4.174   2.319   6.111
 7966SOL     OW24796   2.333   2.751   5.758
 7966SOL    HW124797   2.246   2.791   5.786
 7966SOL    HW224798   2.316   2.665   5.711
 7967SOL     OW24799   3.634   6.330   2.635
 7967SOL    HW124800   3.720   6.293   2.600
 7967SOL    HW224801   3.563   6.323   2.564
 7968SOL     OW24802   1.332   2.363   3.439
 7968SOL    HW124803   1.356   2.337   3.533
 7968SOL    HW224804   1.236   2.390   3.435
 7969SOL     OW24805   4.779   5.802   0.689
 7969SOL    HW124806   4.814   5.723   0.740
 7969SOL    HW224807   4.846   5.876   0.692
 7970SOL     OW24808   6.698   2.888   2.279
 7970SOL    HW124809   6.648   2.834   2.347
 7970SOL    HW224810   6.764   2.947   2.326
 7971SOL     OW24811   2.893   2.165   0.952
 7971SOL    HW124812   2.816   2.143   1.012
 7971SOL    HW224813   2.911   2.088   0.890
 7972SOL     OW24814   1.999   2.869   0.183
 7972SOL    HW124815   2.054   2.790   0.157
 7972SOL    HW224816   2.017   2.945   0.120
 7973SOL     OW24817   4.272   4.998   4.820
 7973SOL    HW124818   4.331   4.917   4.821
 7973SOL    HW224819   4.224   5.004   4.733
 7974SOL     OW24820   6.034   0.831   5.200
 7974SOL    HW124821   6.115   0.844   5.143
 7974SOL    HW224822   6.058   0.847   5.296
 7975SOL     OW24823   6.229   1.249   1.748
 7975SOL    HW124824   6.164   1.304   1.696
 7975SOL    HW224825   6.322   1.286   1.735
 7976SOL     OW24826   0.561   0.263   6.095
 7976SOL    HW124827   0.470   0.235   6.125
 7976SOL    HW224828   0.553   0.338   6.029
 7977SOL     OW24829   4.810   5.652   3.017
 7977SOL    HW124830   4.808   5.573   2.955
 7977SOL    HW224831   4.806   5.737   2.964
 7978SOL     OW24832   6.072   2.898   6.140
 7978SOL    HW124833   6.107   2.952   6.216
 7978SOL    HW224834   5.988   2.939   6.106
 7979SOL     OW24835   4.067   6.146   5.782
 7979SOL    HW124836   4.007   6.142   5.702
 7979SOL    HW224837   4.085   6.054   5.815
 7980SOL     OW24838   3.303   5.863   0.157
 7980SOL    HW124839   3.313   5.776   0.204
 7980SOL    HW224840   3.295   5.847   0.058
 7981SOL     OW24841   0.843   5.017   2.075
 7981SOL    HW124842   0.858   5.099   2.021
 7981SOL    HW224843   0.844   5.040   2.172
 7982SOL     OW24844   2.152   1.536   0.200
 7982SOL    HW124845   2.211   1.616   0.216
 7982SOL    HW224846   2.198   1.454   0.232
 7983SOL     OW24847   6.916   2.042   1.573
 7983SOL    HW124848   6.842   1.981   1.541
 7983SOL    HW224849   6.961   2.084   1.494
 7984SOL     OW24850   1.072   1.375   1.021
 7984SOL    HW124851   1.058   1.465   1.063
 7984SOL    HW224852   0.989   1.320   1.029
 7985SOL     OW24853   2.852   0.889   4.717
 7985SOL    HW124854   2.901   0.975   4.705
 7985SOL    HW224855   2.911   0.813   4.690
 7986SOL     OW24856   3.208   1.057   6.203
 7986SOL    HW124857   3.127   1.045   6.261
 7986SOL    HW224858   3.179   1.078   6.110
 7987SOL     OW24859   1.742   2.447   6.802
 7987SOL    HW124860   1.765   2.497   6.885
 7987SOL    HW224861   1.785   2.491   6.723
 7988SOL     OW24862   0.418   2.473   3.487
 7988SOL    HW124863   0.439   2.379   3.513
 7988SOL    HW224864   0.368   2.518   3.561
 7989SOL     OW24865   2.888   3.584   6.827
 7989SOL    HW124866   2.891   3.614   6.732
 7989SOL    HW224867   2.940   3.648   6.884
 7990SOL     OW24868   0.901   4.731   4.304
 7990SOL    HW124869   0.852   4.788   4.237
 7990SOL    HW224870   0.838   4.662   4.340
 7991SOL     OW24871   5.375   0.112   3.215
 7991SOL    HW124872   5.296   0.124   3.275
 7991SOL    HW224873   5.433   0.039   3.250
 7992SOL     OW24874   0.793   6.899   0.985
 7992SOL    HW124875   0.780   6.940   0.895
 7992SOL    HW224876   0.885   6.861   0.992
 7993SOL     OW24877   0.506   6.799   0.918
 7993SOL    HW124878   0.475   6.884   0.962
 7993SOL    HW224879   0.587   6.818   0.863
 7994SOL     OW24880   4.023   6.895   3.645
 7994SOL    HW124881   4.106   6.868   3.595
 7994SOL    HW224882   3.970   6.959   3.589
 7995SOL     OW24883   5.486   6.050   3.536
 7995SOL    HW124884   5.504   6.061   3.438
 7995SOL    HW224885   5.459   6.138   3.575
 7996SOL     OW24886   2.679   0.153   4.886
 7996SOL    HW124887   2.609   0.162   4.816
 7996SOL    HW224888   2.657   0.076   4.946
 7997SOL     OW24889   0.229   1.250   1.335
 7997SOL    HW124890   0.264   1.305   1.411
 7997SOL    HW224891   0.133   1.229   1.350
 7998SOL     OW24892   2.917   0.289   0.123
 7998SOL    HW124893   2.863   0.205   0.117
 7998SOL    HW224894   2.856   0.367   0.134
 7999SOL     OW24895   0.769   0.632   6.025
 7999SOL    HW124896   0.841   0.563   6.019
 7999SOL    HW224897   0.810   0.723   6.018
 8000SOL     OW24898   4.894   0.044   6.886
 8000SOL    HW124899   4.936   6.998   6.947
 8000SOL    HW224900   4.890   0.006   6.793
 8001SOL     OW24901   4.609   6.327   1.609
 8001SOL    HW124902   4.565   6.330   1.699
 8001SOL    HW224903   4.634   6.420   1.581
 8002SOL     OW24904   2.041   1.166   6.132
 8002SOL    HW124905   1.968   1.233   6.146
 8002SOL    HW224906   2.091   1.153   6.217
 8003SOL     OW24907   2.787   5.499   1.997
 8003SOL    HW124908   2.796   5.437   1.920
 8003SOL    HW224909   2.819   5.453   2.080
 8004SOL     OW24910   2.240   2.771   2.566
 8004SOL    HW124911   2.143   2.765   2.589
 8004SOL    HW224912   2.250   2.791   2.469
 8005SOL     OW24913   3.098   1.272   2.991
 8005SOL    HW124914   3.059   1.199   2.935
 8005SOL    HW224915   3.025   1.315   3.044
 8006SOL     OW24916   1.973   6.601   5.657
 8006SOL    HW124917   2.035   6.523   5.642
 8006SOL    HW224918   1.881   6.568   5.678
 8007SOL     OW24919   6.394   0.915   5.640
 8007SOL    HW124920   6.404   0.835   5.581
 8007SOL    HW224921   6.325   0.977   5.602
 8008SOL     OW24922   4.668   5.980   6.589
 8008SOL    HW124923   4.702   5.965   6.496
 8008SOL    HW224924   4.569   5.993   6.586
 8009SOL     OW24925   5.840   0.294   1.800
 8009SOL    HW124926   5.857   0.253   1.890
 8009SOL    HW224927   5.854   0.225   1.729
 8010SOL     OW24928   1.884   1.304   5.455
 8010SOL    HW124929   1.897   1.401   5.434
 8010SOL    HW224930   1.795   1.290   5.497
 8011SOL     OW24931   3.167   2.761   0.831
 8011SOL    HW124932   3.073   2.793   0.814
 8011SOL    HW224933   3.164   2.683   0.893
 8012SOL     OW24934   2.055   4.207   0.233
 8012SOL    HW124935   1.992   4.248   0.167
 8012SOL    HW224936   2.143   4.188   0.188
 8013SOL     OW24937   1.572   5.120   3.137
 8013SOL    HW124938   1.613   5.047   3.192
 8013SOL    HW224939   1.490   5.154   3.183
 8014SOL     OW24940   1.187   6.287   4.897
 8014SOL    HW124941   1.153   6.256   4.986
 8014SOL    HW224942   1.269   6.343   4.910
 8015SOL     OW24943   3.236   0.640   6.451
 8015SOL    HW124944   3.183   0.609   6.372
 8015SOL    HW224945   3.309   0.702   6.421
 8016SOL     OW24946   4.895   0.424   5.486
 8016SOL    HW124947   4.984   0.417   5.532
 8016SOL    HW224948   4.909   0.456   5.392
 8017SOL     OW24949   5.795   0.122   0.639
 8017SOL    HW124950   5.717   0.059   0.642
 8017SOL    HW224951   5.870   0.085   0.693
 8018SOL     OW24952   3.345   1.991   6.627
 8018SOL    HW124953   3.416   1.980   6.558
 8018SOL    HW224954   3.350   1.916   6.693
 8019SOL     OW24955   2.493   4.676   0.468
 8019SOL    HW124956   2.463   4.767   0.498
 8019SOL    HW224957   2.583   4.656   0.506
 8020SOL     OW24958   6.023   0.362   0.276
 8020SOL    HW124959   6.035   0.266   0.253
 8020SOL    HW224960   6.112   0.408   0.276
 8021SOL     OW24961   1.533   2.752   0.702
 8021SOL    HW124962   1.609   2.777   0.762
 8021SOL    HW224963   1.455   2.812   0.720
 8022SOL     OW24964   5.964   6.968   2.937
 8022SOL    HW124965   6.040   0.011   2.925
 8022SOL    HW224966   5.877   7.017   2.932
 8023SOL     OW24967   5.421   5.314   2.782
 8023SOL    HW124968   5.490   5.263   2.835
 8023SOL    HW224969   5.453   5.407   2.767
 8024SOL     OW24970   1.148   4.559   5.945
 8024SOL    HW124971   1.184   4.609   6.024
 8024SOL    HW224972   1.114   4.470   5.975
 8025SOL     OW24973   2.039   5.566   6.836
 8025SOL    HW124974   2.050   5.570   6.737
 8025SOL    HW224975   1.986   5.645   6.867
 8026SOL     OW24976   6.850   4.311   0.035
 8026SOL    HW124977   6.889   4.394   7.017
 8026SOL    HW224978   6.923   4.248   0.060
 8027SOL     OW24979   4.771   0.068   5.045
 8027SOL    HW124980   4.757   0.167   5.056
 8027SOL    HW224981   4.735   0.021   5.125
 8028SOL     OW24982   4.157   5.913   5.423
 8028SOL    HW124983   4.069   5.892   5.380
 8028SOL    HW224984   4.167   6.012   5.431
 8029SOL     OW24985   4.636   2.724   1.113
 8029SOL    HW124986   4.631   2.629   1.143
 8029SOL    HW224987   4.664   2.727   1.017
 8030SOL     OW24988   4.201   4.603   0.332
 8030SOL    HW124989   4.134   4.604   0.257
 8030SOL    HW224990   4.220   4.697   0.361
 8031SOL     OW24991   6.704   6.386   2.436
 8031SOL    HW124992   6.773   6.315   2.427
 8031SOL    HW224993   6.740   6.461   2.492
 8032SOL     OW24994   6.381   4.067   1.477
 8032SOL    HW124995   6.331   4.139   1.429
 8032SOL    HW224996   6.466   4.047   1.428
 8033SOL     OW24997   5.166   1.952   6.220
 8033SOL    HW124998   5.100   1.924   6.290
 8033SOL    HW224999   5.124   2.018   6.158
 8034SOL     OW25000   4.588   0.573   4.590
 8034SOL    HW125001   4.565   0.650   4.650
 8034SOL    HW225002   4.591   0.489   4.644
 8035SOL     OW25003   5.041   1.368   4.278
 8035SOL    HW125004   5.045   1.347   4.376
 8035SOL    HW225005   5.085   1.294   4.226
 8036SOL     OW25006   6.727   3.640   3.797
 8036SOL    HW125007   6.777   3.591   3.725
 8036SOL    HW225008   6.774   3.628   3.884
 8037SOL     OW25009   1.636   3.417   0.135
 8037SOL    HW125010   1.674   3.326   0.150
 8037SOL    HW225011   1.657   3.446   0.041
 8038SOL     OW25012   4.538   6.941   2.470
 8038SOL    HW125013   4.545   6.918   2.373
 8038SOL    HW225014   4.564   0.016   2.483
 8039SOL     OW25015   0.915   1.961   5.249
 8039SOL    HW125016   0.915   1.957   5.349
 8039SOL    HW225017   0.920   2.057   5.220
 8040SOL     OW25018   1.207   5.431   0.042
 8040SOL    HW125019   1.276   5.366   0.009
 8040SOL    HW225020   1.171   5.483   6.987
 8041SOL     OW25021   3.075   1.444   2.724
 8041SOL    HW125022   3.064   1.346   2.707
 8041SOL    HW225023   3.020   1.470   2.803
 8042SOL     OW25024   3.298   3.050   4.139
 8042SOL    HW125025   3.300   3.013   4.232
 8042SOL    HW225026   3.204   3.076   4.116
 8043SOL     OW25027   3.402   6.419   0.929
 8043SOL    HW125028   3.330   6.388   0.992
 8043SOL    HW225029   3.478   6.456   0.981
 8044SOL     OW25030   4.342   2.458   1.613
 8044SOL    HW125031   4.355   2.450   1.515
 8044SOL    HW225032   4.364   2.551   1.642
 8045SOL     OW25033   5.939   2.173   2.948
 8045SOL    HW125034   5.852   2.126   2.954
 8045SOL    HW225035   5.924   2.272   2.957
 8046SOL     OW25036   0.714   4.712   1.846
 8046SOL    HW125037   0.752   4.639   1.903
 8046SOL    HW225038   0.637   4.754   1.893
 8047SOL     OW25039   3.899   5.821   5.333
 8047SOL    HW125040   3.894   5.721   5.334
 8047SOL    HW225041   3.885   5.854   5.239
 8048SOL     OW25042   4.976   1.821   6.349
 8048SOL    HW125043   4.881   1.848   6.336
 8048SOL    HW225044   5.011   1.778   6.266
 8049SOL     OW25045   0.440   0.595   0.451
 8049SOL    HW125046   0.475   0.583   0.544
 8049SOL    HW225047   0.516   0.590   0.386
 8050SOL     OW25048   1.883   3.159   3.272
 8050SOL    HW125049   1.907   3.151   3.369
 8050SOL    HW225050   1.966   3.166   3.217
 8051SOL     OW25051   4.489   5.580   4.444
 8051SOL    HW125052   4.482   5.662   4.387
 8051SOL    HW225053   4.451   5.599   4.535
 8052SOL     OW25054   3.561   1.437   0.637
 8052SOL    HW125055   3.650   1.400   0.611
 8052SOL    HW225056   3.560   1.455   0.735
 8053SOL     OW25057   3.066   3.217   4.108
 8053SOL    HW125058   3.067   3.223   4.207
 8053SOL    HW225059   2.998   3.281   4.072
 8054SOL     OW25060   6.466   5.259   5.032
 8054SOL    HW125061   6.403   5.182   5.043
 8054SOL    HW225062   6.416   5.338   4.997
 8055SOL     OW25063   0.400   0.412   5.249
 8055SOL    HW125064   0.491   0.407   5.209
 8055SOL    HW225065   0.395   0.352   5.328
 8056SOL     OW25066   2.302   1.216   3.519
 8056SOL    HW125067   2.335   1.141   3.576
 8056SOL    HW225068   2.251   1.178   3.441
 8057SOL     OW25069   3.012   2.179   2.819
 8057SOL    HW125070   2.985   2.225   2.903
 8057SOL    HW225071   2.946   2.199   2.747
 8058SOL     OW25072   4.044   0.206   3.279
 8058SOL    HW125073   4.127   0.153   3.259
 8058SOL    HW225074   4.007   0.245   3.195
 8059SOL     OW25075   2.558   1.835   5.031
 8059SOL    HW125076   2.519   1.893   4.959
 8059SOL    HW225077   2.654   1.860   5.045
 8060SOL     OW25078   6.722   2.181   6.072
 8060SOL    HW125079   6.811   2.179   6.119
 8060SOL    HW225080   6.734   2.219   5.980
 8061SOL     OW25081   6.988   0.241   2.678
 8061SOL    HW125082   6.908   0.220   2.623
 8061SOL    HW225083   0.032   0.166   2.672
 8062SOL     OW25084   3.430   4.959   4.631
 8062SOL    HW125085   3.469   5.021   4.562
 8062SOL    HW225086   3.371   4.892   4.585
 8063SOL     OW25087   2.007   2.019   2.082
 8063SOL    HW125088   1.980   1.957   2.009
 8063SOL    HW225089   1.990   2.114   2.055
 8064SOL     OW25090   6.256   2.665   1.557
 8064SOL    HW125091   6.224   2.651   1.650
 8064SOL    HW225092   6.293   2.580   1.521
 8065SOL     OW25093   2.467   5.649   4.321
 8065SOL    HW125094   2.393   5.642   4.254
 8065SOL    HW225095   2.450   5.585   4.396
 8066SOL     OW25096   0.901   1.676   5.198
 8066SOL    HW125097   0.972   1.675   5.127
 8066SOL    HW225098   0.874   1.770   5.217
 8067SOL     OW25099   5.086   2.548   2.510
 8067SOL    HW125100   5.026   2.492   2.453
 8067SOL    HW225101   5.181   2.516   2.498
 8068SOL     OW25102   7.017   4.337   1.390
 8068SOL    HW125103   0.066   4.298   1.330
 8068SOL    HW225104   6.998   4.431   1.361
 8069SOL     OW25105   2.727   5.950   1.183
 8069SOL    HW125106   2.635   5.988   1.187
 8069SOL    HW225107   2.792   6.016   1.221
 8070SOL     OW25108   3.869   3.501   1.031
 8070SOL    HW125109   3.788   3.539   0.988
 8070SOL    HW225110   3.844   3.423   1.089
 8071SOL     OW25111   3.641   6.417   4.595
 8071SOL    HW125112   3.556   6.459   4.626
 8071SOL    HW225113   3.675   6.467   4.515
 8072SOL     OW25114   4.147   1.581   0.962
 8072SOL    HW125115   4.116   1.486   0.962
 8072SOL    HW225116   4.244   1.585   0.941
 8073SOL     OW25117   2.944   5.113   5.125
 8073SOL    HW125118   3.041   5.121   5.101
 8073SOL    HW225119   2.923   5.019   5.152
 8074SOL     OW25120   2.946   2.882   0.727
 8074SOL    HW125121   2.872   2.826   0.764
 8074SOL    HW225122   2.959   2.962   0.786
 8075SOL     OW25123   0.109   0.012   0.553
 8075SOL    HW125124   0.182   0.071   0.588
 8075SOL    HW225125   0.128   7.009   0.458
 8076SOL     OW25126   6.338   0.652   5.329
 8076SOL    HW125127   6.371   0.610   5.245
 8076SOL    HW225128   6.389   0.736   5.348
 8077SOL     OW25129   3.363   6.278   2.745
 8077SOL    HW125130   3.459   6.275   2.719
 8077SOL    HW225131   3.333   6.186   2.772
 8078SOL     OW25132   6.901   2.169   0.772
 8078SOL    HW125133   6.848   2.241   0.815
 8078SOL    HW225134   6.848   2.084   0.770
 8079SOL     OW25135   5.735   1.583   3.697
 8079SOL    HW125136   5.717   1.488   3.720
 8079SOL    HW225137   5.750   1.636   3.781
 8080SOL     OW25138   1.141   2.856   1.720
 8080SOL    HW125139   1.217   2.908   1.759
 8080SOL    HW225140   1.077   2.918   1.675
 8081SOL     OW25141   6.327   5.839   5.584
 8081SOL    HW125142   6.322   5.740   5.569
 8081SOL    HW225143   6.415   5.874   5.553
 8082SOL     OW25144   4.373   6.647   2.597
 8082SOL    HW125145   4.437   6.724   2.592
 8082SOL    HW225146   4.375   6.608   2.690
 8083SOL     OW25147   5.098   2.706   2.939
 8083SOL    HW125148   5.055   2.738   2.855
 8083SOL    HW225149   5.032   2.652   2.991
 8084SOL     OW25150   4.000   6.362   0.306
 8084SOL    HW125151   4.028   6.347   0.211
 8084SOL    HW225152   3.908   6.400   0.309
 8085SOL     OW25153   6.592   6.414   2.172
 8085SOL    HW125154   6.596   6.414   2.272
 8085SOL    HW225155   6.508   6.370   2.142
 8086SOL     OW25156   6.089   0.758   2.606
 8086SOL    HW125157   6.080   0.783   2.509
 8086SOL    HW225158   6.104   0.660   2.614
 8087SOL     OW25159   2.297   0.791   6.975
 8087SOL    HW125160   2.254   0.879   6.995
 8087SOL    HW225161   2.234   0.717   6.998
 8088SOL     OW25162   5.717   1.785   1.494
 8088SOL    HW125163   5.786   1.719   1.524
 8088SOL    HW225164   5.703   1.776   1.395
 8089SOL     OW25165   5.933   2.883   0.729
 8089SOL    HW125166   5.948   2.839   0.641
 8089SOL    HW225167   5.836   2.903   0.741
 8090SOL     OW25168   4.593   2.159   0.135
 8090SOL    HW125169   4.674   2.103   0.119
 8090SOL    HW225170   4.606   2.214   0.217
 8091SOL     OW25171   2.178   3.748   5.029
 8091SOL    HW125172   2.154   3.701   4.944
 8091SOL    HW225173   2.208   3.842   5.009
 8092SOL     OW25174   5.619   2.186   5.181
 8092SOL    HW125175   5.703   2.133   5.194
 8092SOL    HW225176   5.589   2.223   5.269
 8093SOL     OW25177   3.965   4.891   2.920
 8093SOL    HW125178   3.919   4.977   2.898
 8093SOL    HW225179   4.035   4.908   2.990
 8094SOL     OW25180   1.043   3.407   4.727
 8094SOL    HW125181   1.124   3.434   4.675
 8094SOL    HW225182   1.006   3.322   4.690
 8095SOL     OW25183   0.394   4.878   4.281
 8095SOL    HW125184   0.487   4.860   4.249
 8095SOL    HW225185   0.348   4.941   4.217
 8096SOL     OW25186   1.973   6.600   3.386
 8096SOL    HW125187   1.896   6.562   3.335
 8096SOL    HW225188   1.940   6.668   3.451
 8097SOL     OW25189   4.078   6.904   4.099
 8097SOL    HW125190   4.077   6.860   4.189
 8097SOL    HW225191   3.992   6.953   4.085
 8098SOL     OW25192   1.912   6.174   3.147
 8098SOL    HW125193   2.003   6.159   3.184
 8098SOL    HW225194   1.845   6.121   3.201
 8099SOL     OW25195   3.833   6.338   4.894
 8099SOL    HW125196   3.747   6.288   4.905
 8099SOL    HW225197   3.897   6.310   4.966
 8100SOL     OW25198   6.954   1.040   0.803
 8100SOL    HW125199   6.942   1.023   0.901
 8100SOL    HW225200   0.015   1.095   0.790
 8101SOL     OW25201   2.013   6.157   2.345
 8101SOL    HW125202   2.024   6.060   2.363
 8101SOL    HW225203   2.065   6.210   2.413
 8102SOL     OW25204   1.013   4.158   3.669
 8102SOL    HW125205   0.941   4.124   3.730
 8102SOL    HW225206   1.079   4.211   3.723
 8103SOL     OW25207   2.907   6.838   1.138
 8103SOL    HW125208   2.819   6.883   1.122
 8103SOL    HW225209   2.979   6.886   1.088
 8104SOL     OW25210   2.559   0.689   6.245
 8104SOL    HW125211   2.635   0.721   6.189
 8104SOL    HW225212   2.558   0.738   6.332
 8105SOL     OW25213   0.773   2.688   3.058
 8105SOL    HW125214   0.736   2.662   3.147
 8105SOL    HW225215   0.818   2.777   3.066
 8106SOL     OW25216   2.885   6.283   2.981
 8106SOL    HW125217   2.984   6.270   2.985
 8106SOL    HW225218   2.853   6.321   3.067
 8107SOL     OW25219   1.001   4.989   4.465
 8107SOL    HW125220   1.004   4.891   4.444
 8107SOL    HW225221   0.910   5.025   4.444
 8108SOL     OW25222   6.003   2.995   5.790
 8108SOL    HW125223   5.992   2.935   5.711
 8108SOL    HW225224   5.942   2.965   5.863
 8109SOL     OW25225   0.899   3.656   4.594
 8109SOL    HW125226   0.957   3.607   4.529
 8109SOL    HW225227   0.944   3.660   4.683
 8110SOL     OW25228   3.721   5.854   1.196
 8110SOL    HW125229   3.669   5.782   1.151
 8110SOL    HW225230   3.684   5.943   1.169
 8111SOL     OW25231   5.436   1.103   5.169
 8111SOL    HW125232   5.457   1.005   5.165
 8111SOL    HW225233   5.415   1.137   5.077
 8112SOL     OW25234   2.409   2.118   4.247
 8112SOL    HW125235   2.498   2.116   4.293
 8112SOL    HW225236   2.422   2.108   4.149
 8113SOL     OW25237   1.888   3.712   0.252
 8113SOL    HW125238   1.788   3.708   0.248
 8113SOL    HW225239   1.920   3.657   0.329
 8114SOL     OW25240   1.410   4.025   2.777
 8114SOL    HW125241   1.495   4.045   2.728
 8114SOL    HW225242   1.398   3.926   2.784
 8115SOL     OW25243   4.000   0.398   0.332
 8115SOL    HW125244   3.986   0.350   0.246
 8115SOL    HW225245   3.982   0.496   0.319
 8116SOL     OW25246   4.255   4.894   6.251
 8116SOL    HW125247   4.200   4.863   6.173
 8116SOL    HW225248   4.208   4.969   6.297
 8117SOL     OW25249   1.818   0.055   3.354
 8117SOL    HW125250   1.841   0.054   3.451
 8117SOL    HW225251   1.900   0.077   3.300
 8118SOL     OW25252   5.380   4.918   6.156
 8118SOL    HW125253   5.302   4.932   6.216
 8118SOL    HW225254   5.360   4.844   6.092
 8119SOL     OW25255   4.972   5.275   6.490
 8119SOL    HW125256   4.977   5.373   6.472
 8119SOL    HW225257   5.013   5.225   6.414
 8120SOL     OW25258   3.221   5.080   0.523
 8120SOL    HW125259   3.198   5.055   0.617
 8120SOL    HW225260   3.150   5.046   0.461
 8121SOL     OW25261   0.033   5.166   2.144
 8121SOL    HW125262   0.052   5.232   2.216
 8121SOL    HW225263   6.975   5.111   2.168
 8122SOL     OW25264   0.593   5.324   3.281
 8122SOL    HW125265   0.689   5.294   3.284
 8122SOL    HW225266   0.546   5.280   3.204
 8123SOL     OW25267   6.945   1.197   6.720
 8123SOL    HW125268   6.942   1.270   6.788
 8123SOL    HW225269   6.983   1.114   6.762
 8124SOL     OW25270   6.000   6.652   0.996
 8124SOL    HW125271   5.969   6.570   0.947
 8124SOL    HW225272   6.041   6.624   1.083
 8125SOL     OW25273   1.701   1.286   3.190
 8125SOL    HW125274   1.765   1.211   3.174
 8125SOL    HW225275   1.655   1.310   3.105
 8126SOL     OW25276   4.768   4.630   2.605
 8126SOL    HW125277   4.821   4.552   2.637
 8126SOL    HW225278   4.671   4.606   2.603
 8127SOL     OW25279   2.737   4.195   6.226
 8127SOL    HW125280   2.775   4.286   6.241
 8127SOL    HW225281   2.724   4.180   6.128
 8128SOL     OW25282   2.485   1.589   1.668
 8128SOL    HW125283   2.434   1.674   1.671
 8128SOL    HW225284   2.485   1.546   1.758
 8129SOL     OW25285   4.487   0.703   6.355
 8129SOL    HW125286   4.542   0.702   6.439
 8129SOL    HW225287   4.504   0.788   6.305
 8130SOL     OW25288   0.047   3.287   6.562
 8130SOL    HW125289   0.036   3.260   6.657
 8130SOL    HW225290   0.144   3.293   6.539
 8131SOL     OW25291   3.158   1.883   0.671
 8131SOL    HW125292   3.240   1.939   0.659
 8131SOL    HW225293   3.079   1.942   0.682
 8132SOL     OW25294   6.045   6.712   6.121
 8132SOL    HW125295   6.058   6.712   6.022
 8132SOL    HW225296   6.133   6.704   6.167
 8133SOL     OW25297   2.969   5.067   1.484
 8133SOL    HW125298   2.962   5.159   1.522
 8133SOL    HW225299   2.949   5.069   1.386
 8134SOL     OW25300   6.552   2.589   5.727
 8134SOL    HW125301   6.630   2.563   5.670
 8134SOL    HW225302   6.495   2.509   5.743
 8135SOL     OW25303   2.919   6.655   1.333
 8135SOL    HW125304   2.870   6.577   1.294
 8135SOL    HW225305   2.927   6.728   1.265
 8136SOL     OW25306   4.294   5.599   3.539
 8136SOL    HW125307   4.209   5.638   3.576
 8136SOL    HW225308   4.365   5.669   3.536
 8137SOL     OW25309   2.920   2.146   5.158
 8137SOL    HW125310   2.997   2.173   5.101
 8137SOL    HW225311   2.945   2.154   5.255
 8138SOL     OW25312   5.703   1.716   0.071
 8138SOL    HW125313   5.740   1.732   7.000
 8138SOL    HW225314   5.775   1.733   0.138
 8139SOL     OW25315   6.922   1.331   2.503
 8139SOL    HW125316   6.838   1.359   2.457
 8139SOL    HW225317   6.916   1.234   2.528
 8140SOL     OW25318   4.823   0.657   0.875
 8140SOL    HW125319   4.917   0.626   0.858
 8140SOL    HW225320   4.759   0.597   0.826
 8141SOL     OW25321   4.755   6.174   4.876
 8141SOL    HW125322   4.834   6.225   4.908
 8141SOL    HW225323   4.778   6.127   4.791
 8142SOL     OW25324   0.855   5.612   6.761
 8142SOL    HW125325   0.920   5.671   6.809
 8142SOL    HW225326   0.906   5.543   6.709
 8143SOL     OW25327   6.583   4.035   1.301
 8143SOL    HW125328   6.636   4.118   1.287
 8143SOL    HW225329   6.550   4.001   1.213
 8144SOL     OW25330   6.236   6.403   6.474
 8144SOL    HW125331   6.230   6.384   6.376
 8144SOL    HW225332   6.331   6.399   6.503
 8145SOL     OW25333   5.681   5.816   1.592
 8145SOL    HW125334   5.671   5.915   1.604
 8145SOL    HW225335   5.600   5.770   1.627
 8146SOL     OW25336   4.697   0.374   4.747
 8146SOL    HW125337   4.772   0.308   4.750
 8146SOL    HW225338   4.636   0.359   4.825
 8147SOL     OW25339   6.343   1.964   0.956
 8147SOL    HW125340   6.247   1.992   0.950
 8147SOL    HW225341   6.387   2.013   1.031
 8148SOL     OW25342   5.113   4.004   1.204
 8148SOL    HW125343   5.036   4.065   1.226
 8148SOL    HW225344   5.137   3.951   1.285
 8149SOL     OW25345   3.460   6.432   2.450
 8149SOL    HW125346   3.364   6.460   2.446
 8149SOL    HW225347   3.510   6.474   2.374
 8150SOL     OW25348   1.744   4.019   1.040
 8150SOL    HW125349   1.723   3.973   0.954
 8150SOL    HW225350   1.829   4.070   1.030
 8151SOL     OW25351   6.084   2.828   1.386
 8151SOL    HW125352   6.007   2.788   1.437
 8151SOL    HW225353   6.169   2.780   1.411
 8152SOL     OW25354   6.854   2.133   2.730
 8152SOL    HW125355   6.774   2.110   2.675
 8152SOL    HW225356   6.899   2.214   2.693
 8153SOL     OW25357   2.432   6.918   3.761
 8153SOL    HW125358   2.511   6.956   3.712
 8153SOL    HW225359   2.459   6.834   3.808
 8154SOL     OW25360   3.135   5.188   2.147
 8154SOL    HW125361   3.168   5.193   2.053
 8154SOL    HW225362   3.073   5.111   2.157
 8155SOL     OW25363   1.563   4.329   2.135
 8155SOL    HW125364   1.538   4.381   2.216
 8155SOL    HW225365   1.658   4.350   2.110
 8156SOL     OW25366   5.364   6.996   1.230
 8156SOL    HW125367   5.386   6.934   1.305
 8156SOL    HW225368   5.293   6.955   1.173
 8157SOL     OW25369   0.033   5.210   6.332
 8157SOL    HW125370   6.986   5.196   6.260
 8157SOL    HW225371   0.029   5.304   6.363
 8158SOL     OW25372   4.545   4.888   0.855
 8158SOL    HW125373   4.555   4.800   0.902
 8158SOL    HW225374   4.457   4.892   0.809
 8159SOL     OW25375   3.001   5.644   2.442
 8159SOL    HW125376   2.906   5.674   2.431
 8159SOL    HW225377   3.059   5.724   2.459
 8160SOL     OW25378   5.426   0.780   3.673
 8160SOL    HW125379   5.444   0.701   3.615
 8160SOL    HW225380   5.369   0.846   3.623
 8161SOL     OW25381   5.699   1.776   6.248
 8161SOL    HW125382   5.606   1.749   6.226
 8161SOL    HW225383   5.763   1.713   6.205
 8162SOL     OW25384   5.757   6.151   5.979
 8162SOL    HW125385   5.700   6.079   6.019
 8162SOL    HW225386   5.838   6.110   5.937
 8163SOL     OW25387   2.617   3.913   5.298
 8163SOL    HW125388   2.703   3.928   5.250
 8163SOL    HW225389   2.543   3.961   5.250
 8164SOL     OW25390   5.212   3.068   0.589
 8164SOL    HW125391   5.139   3.134   0.604
 8164SOL    HW225392   5.198   3.021   0.502
 8165SOL     OW25393   0.719   3.630   6.399
 8165SOL    HW125394   0.763   3.719   6.408
 8165SOL    HW225395   0.786   3.558   6.417
 8166SOL     OW25396   1.375   0.165   2.697
 8166SOL    HW125397   1.403   0.128   2.785
 8166SOL    HW225398   1.349   0.261   2.708
 8167SOL     OW25399   6.246   6.884   4.652
 8167SOL    HW125400   6.305   6.910   4.576
 8167SOL    HW225401   6.179   6.957   4.669
 8168SOL     OW25402   2.127   1.657   3.571
 8168SOL    HW125403   2.141   1.675   3.474
 8168SOL    HW225404   2.117   1.559   3.586
 8169SOL     OW25405   5.280   1.935   1.029
 8169SOL    HW125406   5.196   1.977   1.063
 8169SOL    HW225407   5.309   1.863   1.093
 8170SOL     OW25408   1.099   5.662   2.843
 8170SOL    HW125409   1.028   5.603   2.882
 8170SOL    HW225410   1.130   5.624   2.756
 8171SOL     OW25411   1.439   1.668   6.415
 8171SOL    HW125412   1.418   1.646   6.510
 8171SOL    HW225413   1.523   1.621   6.387
 8172SOL     OW25414   0.818   2.048   2.196
 8172SOL    HW125415   0.720   2.067   2.195
 8172SOL    HW225416   0.834   1.955   2.162
 8173SOL     OW25417   5.063   0.860   2.372
 8173SOL    HW125418   5.062   0.956   2.345
 8173SOL    HW225419   5.054   0.803   2.290
 8174SOL     OW25420   6.074   3.302   0.942
 8174SOL    HW125421   6.068   3.263   0.850
 8174SOL    HW225422   6.013   3.381   0.948
 8175SOL     OW25423   0.044   2.448   5.878
 8175SOL    HW125424   0.009   2.355   5.861
 8175SOL    HW225425   0.111   2.445   5.952
 8176SOL     OW25426   2.923   5.335   2.172
 8176SOL    HW125427   3.015   5.296   2.176
 8176SOL    HW225428   2.857   5.262   2.156
 8177SOL     OW25429   2.828   6.156   4.253
 8177SOL    HW125430   2.813   6.204   4.339
 8177SOL    HW225431   2.744   6.156   4.199
 8178SOL     OW25432   3.082   5.760   6.704
 8178SOL    HW125433   3.091   5.827   6.630
 8178SOL    HW225434   3.030   5.681   6.671
 8179SOL     OW25435   4.855   2.090   5.481
 8179SOL    HW125436   4.867   2.083   5.580
 8179SOL    HW225437   4.763   2.123   5.461
 8180SOL     OW25438   6.235   6.966   5.003
 8180SOL    HW125439   6.220   0.043   4.998
 8180SOL    HW225440   6.147   6.919   4.994
 8181SOL     OW25441   2.240   1.559   1.157
 8181SOL    HW125442   2.213   1.587   1.065
 8181SOL    HW225443   2.339   1.543   1.160
 8182SOL     OW25444   4.182   3.165   6.202
 8182SOL    HW125445   4.086   3.153   6.178
 8182SOL    HW225446   4.217   3.248   6.158
 8183SOL     OW25447   0.221   2.655   4.539
 8183SOL    HW125448   0.280   2.602   4.599
 8183SOL    HW225449   0.227   2.620   4.446
 8184SOL     OW25450   5.451   1.721   5.878
 8184SOL    HW125451   5.394   1.710   5.959
 8184SOL    HW225452   5.543   1.748   5.906
 8185SOL     OW25453   2.291   6.467   0.586
 8185SOL    HW125454   2.287   6.414   0.501
 8185SOL    HW225455   2.286   6.564   0.565
 8186SOL     OW25456   3.686   6.041   5.747
 8186SOL    HW125457   3.627   5.978   5.798
 8186SOL    HW225458   3.696   6.008   5.653
 8187SOL     OW25459   1.646   2.537   5.478
 8187SOL    HW125460   1.674   2.621   5.432
 8187SOL    HW225461   1.573   2.558   5.543
 8188SOL     OW25462   5.543   2.989   2.331
 8188SOL    HW125463   5.573   3.036   2.249
 8188SOL    HW225464   5.498   2.903   2.307
 8189SOL     OW25465   4.486   4.573   2.744
 8189SOL    HW125466   4.491   4.476   2.718
 8189SOL    HW225467   4.421   4.584   2.819
 8190SOL     OW25468   3.848   5.384   3.891
 8190SOL    HW125469   3.761   5.362   3.846
 8190SOL    HW225470   3.914   5.311   3.874
 8191SOL     OW25471   3.685   6.741   2.693
 8191SOL    HW125472   3.734   6.673   2.638
 8191SOL    HW225473   3.587   6.733   2.676
 8192SOL     OW25474   3.672   5.466   0.960
 8192SOL    HW125475   3.603   5.490   0.892
 8192SOL    HW225476   3.663   5.527   1.039
 8193SOL     OW25477   6.739   6.620   4.376
 8193SOL    HW125478   6.834   6.588   4.369
 8193SOL    HW225479   6.678   6.550   4.339
 8194SOL     OW25480   5.854   2.441   1.201
 8194SOL    HW125481   5.933   2.502   1.209
 8194SOL    HW225482   5.791   2.458   1.277
 8195SOL     OW25483   1.075   0.353   1.532
 8195SOL    HW125484   1.163   0.395   1.511
 8195SOL    HW225485   1.050   0.373   1.627
 8196SOL     OW25486   3.647   0.072   5.878
 8196SOL    HW125487   3.560   0.120   5.876
 8196SOL    HW225488   3.720   0.134   5.908
 8197SOL     OW25489   4.350   1.500   6.211
 8197SOL    HW125490   4.436   1.539   6.180
 8197SOL    HW225491   4.290   1.573   6.243
 8198SOL     OW25492   3.727   6.199   3.585
 8198SOL    HW125493   3.695   6.149   3.504
 8198SOL    HW225494   3.756   6.133   3.654
 8199SOL     OW25495   6.163   3.376   6.206
 8199SOL    HW125496   6.144   3.284   6.240
 8199SOL    HW225497   6.153   3.378   6.107
 8200SOL     OW25498   4.817   3.978   1.673
 8200SOL    HW125499   4.721   3.949   1.669
 8200SOL    HW225500   4.862   3.954   1.587
 8201SOL     OW25501   5.759   0.707   4.040
 8201SOL    HW125502   5.706   0.680   3.959
 8201SOL    HW225503   5.703   0.695   4.122
 8202SOL     OW25504   0.718   5.608   4.444
 8202SOL    HW125505   0.765   5.523   4.470
 8202SOL    HW225506   0.783   5.684   4.448
 8203SOL     OW25507   4.471   2.447   1.070
 8203SOL    HW125508   4.545   2.426   1.134
 8203SOL    HW225509   4.388   2.397   1.098
 8204SOL     OW25510   3.231   5.420   0.467
 8204SOL    HW125511   3.314   5.367   0.484
 8204SOL    HW225512   3.255   5.510   0.430
 8205SOL     OW25513   0.361   4.885   0.968
 8205SOL    HW125514   0.420   4.931   0.902
 8205SOL    HW225515   0.402   4.891   1.059
 8206SOL     OW25516   4.372   2.245   5.882
 8206SOL    HW125517   4.437   2.314   5.849
 8206SOL    HW225518   4.346   2.267   5.976
 8207SOL     OW25519   3.977   3.874   5.474
 8207SOL    HW125520   3.916   3.954   5.481
 8207SOL    HW225521   3.987   3.849   5.378
 8208SOL     OW25522   2.024   6.741   1.465
 8208SOL    HW125523   2.046   6.829   1.508
 8208SOL    HW225524   2.067   6.735   1.375
 8209SOL     OW25525   1.241   1.528   5.734
 8209SOL    HW125526   1.241   1.572   5.645
 8209SOL    HW225527   1.325   1.551   5.783
 8210SOL     OW25528   2.732   0.824   1.418
 8210SOL    HW125529   2.638   0.835   1.452
 8210SOL    HW225530   2.744   0.732   1.381
 8211SOL     OW25531   3.655   3.895   3.235
 8211SOL    HW125532   3.611   3.806   3.252
 8211SOL    HW225533   3.610   3.940   3.159
 8212SOL     OW25534   3.264   1.457   0.919
 8212SOL    HW125535   3.240   1.554   0.923
 8212SOL    HW225536   3.217   1.414   0.842
 8213SOL     OW25537   5.143   4.706   2.183
 8213SOL    HW125538   5.048   4.725   2.157
 8213SOL    HW225539   5.145   4.632   2.250
 8214SOL     OW25540   1.235   5.608   4.386
 8214SOL    HW125541   1.213   5.700   4.418
 8214SOL    HW225542   1.224   5.543   4.461
 8215SOL     OW25543   3.295   5.556   6.422
 8215SOL    HW125544   3.321   5.559   6.519
 8215SOL    HW225545   3.340   5.479   6.378
 8216SOL     OW25546   5.213   6.404   3.176
 8216SOL    HW125547   5.129   6.374   3.131
 8216SOL    HW225548   5.285   6.337   3.162
 8217SOL     OW25549   2.206   3.985   2.239
 8217SOL    HW125550   2.150   3.939   2.308
 8217SOL    HW225551   2.261   3.917   2.190
 8218SOL     OW25552   1.096   6.742   4.649
 8218SOL    HW125553   1.131   6.651   4.669
 8218SOL    HW225554   1.136   6.774   4.562
 8219SOL     OW25555   3.798   3.279   1.814
 8219SOL    HW125556   3.749   3.365   1.800
 8219SOL    HW225557   3.767   3.212   1.747
 8220SOL     OW25558   3.264   3.798   5.249
 8220SOL    HW125559   3.242   3.864   5.177
 8220SOL    HW225560   3.272   3.845   5.336
 8221SOL     OW25561   6.326   5.417   3.487
 8221SOL    HW125562   6.404   5.366   3.524
 8221SOL    HW225563   6.310   5.388   3.393
 8222SOL     OW25564   4.944   2.058   1.539
 8222SOL    HW125565   4.945   2.126   1.612
 8222SOL    HW225566   4.854   2.015   1.534
 8223SOL     OW25567   0.491   4.462   5.714
 8223SOL    HW125568   0.511   4.387   5.777
 8223SOL    HW225569   0.568   4.474   5.651
 8224SOL     OW25570   5.448   2.544   1.784
 8224SOL    HW125571   5.376   2.580   1.724
 8224SOL    HW225572   5.516   2.616   1.801
 8225SOL     OW25573   3.529   1.395   1.635
 8225SOL    HW125574   3.516   1.296   1.623
 8225SOL    HW225575   3.485   1.424   1.720
 8226SOL     OW25576   3.410   0.366   0.603
 8226SOL    HW125577   3.348   0.444   0.597
 8226SOL    HW225578   3.359   0.285   0.630
 8227SOL     OW25579   0.045   1.554   2.435
 8227SOL    HW125580   0.004   1.640   2.467
 8227SOL    HW225581   7.003   1.479   2.451
 8228SOL     OW25582   1.046   1.760   5.660
 8228SOL    HW125583   1.013   1.675   5.618
 8228SOL    HW225584   1.042   1.751   5.760
 8229SOL     OW25585   3.758   4.496   1.051
 8229SOL    HW125586   3.811   4.580   1.050
 8229SOL    HW225587   3.666   4.516   1.085
 8230SOL     OW25588   4.165   6.934   5.933
 8230SOL    HW125589   4.179   7.020   5.884
 8230SOL    HW225590   4.215   6.861   5.887
 8231SOL     OW25591   3.439   2.392   1.660
 8231SOL    HW125592   3.339   2.389   1.655
 8231SOL    HW225593   3.471   2.317   1.717
 8232SOL     OW25594   5.531   1.931   1.815
 8232SOL    HW125595   5.573   1.914   1.904
 8232SOL    HW225596   5.602   1.956   1.749
 8233SOL     OW25597   1.288   6.858   6.256
 8233SOL    HW125598   1.280   6.884   6.160
 8233SOL    HW225599   1.198   6.860   6.300
 8234SOL     OW25600   2.843   4.022   0.014
 8234SOL    HW125601   2.885   3.950   0.069
 8234SOL    HW225602   2.808   4.094   0.074
 8235SOL     OW25603   6.986   3.563   6.947
 8235SOL    HW125604   0.060   3.565   6.976
 8235SOL    HW225605   6.980   3.580   6.849
 8236SOL     OW25606   6.955   4.876   6.340
 8236SOL    HW125607   6.945   4.904   6.435
 8236SOL    HW225608   6.878   4.816   6.315
 8237SOL     OW25609   4.760   6.265   6.241
 8237SOL    HW125610   4.837   6.202   6.231
 8237SOL    HW225611   4.675   6.218   6.215
 8238SOL     OW25612   0.538   6.216   6.658
 8238SOL    HW125613   0.463   6.151   6.653
 8238SOL    HW225614   0.573   6.234   6.566
 8239SOL     OW25615   0.999   1.039   4.942
 8239SOL    HW125616   1.007   1.113   5.008
 8239SOL    HW225617   0.984   0.952   4.989
 8240SOL     OW25618   3.141   3.991   3.305
 8240SOL    HW125619   3.152   4.025   3.398
 8240SOL    HW225620   3.228   4.001   3.256
 8241SOL     OW25621   2.567   4.411   6.018
 8241SOL    HW125622   2.605   4.322   6.044
 8241SOL    HW225623   2.468   4.402   6.009
 8242SOL     OW25624   0.562   3.391   4.941
 8242SOL    HW125625   0.612   3.420   4.859
 8242SOL    HW225626   0.605   3.309   4.980
 8243SOL     OW25627   6.947   3.692   0.850
 8243SOL    HW125628   6.945   3.604   0.802
 8243SOL    HW225629   7.013   3.688   0.924
 8244SOL     OW25630   0.628   0.444   4.217
 8244SOL    HW125631   0.675   0.522   4.173
 8244SOL    HW225632   0.567   0.401   4.151
 8245SOL     OW25633   3.801   1.635   2.934
 8245SOL    HW125634   3.758   1.704   2.994
 8245SOL    HW225635   3.791   1.545   2.975
 8246SOL     OW25636   0.189   4.503   6.299
 8246SOL    HW125637   0.243   4.548   6.228
 8246SOL    HW225638   0.093   4.499   6.270
 8247SOL     OW25639   2.178   6.099   3.552
 8247SOL    HW125640   2.130   6.165   3.610
 8247SOL    HW225641   2.112   6.055   3.490
 8248SOL     OW25642   0.621   4.585   5.139
 8248SOL    HW125643   0.636   4.493   5.100
 8248SOL    HW225644   0.651   4.654   5.073
 8249SOL     OW25645   2.126   1.400   5.795
 8249SOL    HW125646   2.183   1.395   5.712
 8249SOL    HW225647   2.136   1.491   5.836
 8250SOL     OW25648   3.047   2.340   1.077
 8250SOL    HW125649   3.014   2.275   1.008
 8250SOL    HW225650   3.057   2.293   1.164
 8251SOL     OW25651   5.225   1.188   4.971
 8251SOL    HW125652   5.175   1.254   5.028
 8251SOL    HW225653   5.162   1.116   4.941
 8252SOL     OW25654   3.764   1.709   6.973
 8252SOL    HW125655   3.729   1.802   6.967
 8252SOL    HW225656   3.692   1.648   7.005
 8253SOL     OW25657   3.766   5.618   6.717
 8253SOL    HW125658   3.701   5.637   6.644
 8253SOL    HW225659   3.811   5.530   6.700
 8254SOL     OW25660   4.795   4.422   5.750
 8254SOL    HW125661   4.823   4.328   5.769
 8254SOL    HW225662   4.696   4.431   5.761
 8255SOL     OW25663   1.508   6.925   5.557
 8255SOL    HW125664   1.489   7.013   5.515
 8255SOL    HW225665   1.584   6.935   5.622
 8256SOL     OW25666   6.931   6.443   2.859
 8256SOL    HW125667   6.905   6.537   2.885
 8256SOL    HW225668   6.869   6.379   2.904
 8257SOL     OW25669   5.352   4.081   3.962
 8257SOL    HW125670   5.427   4.089   3.896
 8257SOL    HW225671   5.306   3.994   3.950
 8258SOL     OW25672   4.807   2.979   1.706
 8258SOL    HW125673   4.742   2.962   1.780
 8258SOL    HW225674   4.853   2.893   1.681
 8259SOL     OW25675   3.501   2.085   5.470
 8259SOL    HW125676   3.591   2.049   5.447
 8259SOL    HW225677   3.479   2.162   5.410
 8260SOL     OW25678   1.936   6.280   1.709
 8260SOL    HW125679   1.967   6.353   1.648
 8260SOL    HW225680   1.955   6.191   1.667
 8261SOL     OW25681   5.540   6.482   3.265
 8261SOL    HW125682   5.488   6.548   3.211
 8261SOL    HW225683   5.617   6.529   3.310
 8262SOL     OW25684   0.466   4.739   0.631
 8262SOL    HW125685   0.484   4.779   0.541
 8262SOL    HW225686   0.550   4.699   0.667
 8263SOL     OW25687   6.910   3.016   6.717
 8263SOL    HW125688   6.996   2.988   6.674
 8263SOL    HW225689   6.852   3.061   6.649
 8264SOL     OW25690   0.967   6.528   1.603
 8264SOL    HW125691   1.013   6.477   1.531
 8264SOL    HW225692   0.898   6.589   1.562
 8265SOL     OW25693   5.128   0.503   2.028
 8265SOL    HW125694   5.072   0.564   2.084
 8265SOL    HW225695   5.192   0.556   1.973
 8266SOL     OW25696   2.602   0.798   4.642
 8266SOL    HW125697   2.624   0.702   4.625
 8266SOL    HW225698   2.682   0.854   4.621
 8267SOL     OW25699   1.510   4.541   1.719
 8267SOL    HW125700   1.539   4.619   1.663
 8267SOL    HW225701   1.412   4.527   1.707
 8268SOL     OW25702   3.389   5.680   6.205
 8268SOL    HW125703   3.351   5.626   6.129
 8268SOL    HW225704   3.352   5.647   6.291
 8269SOL     OW25705   4.476   2.347   2.771
 8269SOL    HW125706   4.475   2.430   2.828
 8269SOL    HW225707   4.508   2.270   2.826
 8270SOL     OW25708   2.980   5.631   5.528
 8270SOL    HW125709   3.007   5.633   5.431
 8270SOL    HW225710   2.884   5.607   5.535
 8271SOL     OW25711   6.378   6.406   3.365
 8271SOL    HW125712   6.318   6.376   3.439
 8271SOL    HW225713   6.427   6.488   3.394
 8272SOL     OW25714   6.621   1.343   2.512
 8272SOL    HW125715   6.565   1.261   2.503
 8272SOL    HW225716   6.661   1.346   2.603
 8273SOL     OW25717   3.021   0.949   0.098
 8273SOL    HW125718   2.970   1.024   0.055
 8273SOL    HW225719   3.109   0.937   0.051
 8274SOL     OW25720   4.189   4.832   5.778
 8274SOL    HW125721   4.279   4.793   5.795
 8274SOL    HW225722   4.189   4.878   5.689
 8275SOL     OW25723   6.105   0.359   4.320
 8275SOL    HW125724   6.189   0.321   4.279
 8275SOL    HW225725   6.026   0.307   4.287
 8276SOL     OW25726   6.940   2.088   5.606
 8276SOL    HW125727   6.931   1.990   5.625
 8276SOL    HW225728   6.862   2.118   5.551
 8277SOL     OW25729   1.669   6.012   5.706
 8277SOL    HW125730   1.609   6.043   5.632
 8277SOL    HW225731   1.734   5.946   5.669
 8278SOL     OW25732   3.187   1.782   6.740
 8278SOL    HW125733   3.159   1.783   6.836
 8278SOL    HW225734   3.108   1.760   6.682
 8279SOL     OW25735   6.308   6.026   5.180
 8279SOL    HW125736   6.300   6.025   5.081
 8279SOL    HW225737   6.252   6.100   5.218
 8280SOL     OW25738   3.738   2.653   0.761
 8280SOL    HW125739   3.810   2.718   0.737
 8280SOL    HW225740   3.658   2.702   0.795
 8281SOL     OW25741   2.394   4.496   2.107
 8281SOL    HW125742   2.357   4.418   2.158
 8281SOL    HW225743   2.455   4.548   2.167
 8282SOL     OW25744   3.065   3.781   6.903
 8282SOL    HW125745   3.156   3.742   6.888
 8282SOL    HW225746   3.043   3.777   7.001
 8283SOL     OW25747   1.555   5.032   4.177
 8283SOL    HW125748   1.610   4.961   4.221
 8283SOL    HW225749   1.537   5.106   4.241
 8284SOL     OW25750   1.824   4.435   2.140
 8284SOL    HW125751   1.848   4.520   2.185
 8284SOL    HW225752   1.888   4.418   2.064
 8285SOL     OW25753   4.384   3.295   5.498
 8285SOL    HW125754   4.331   3.224   5.545
 8285SOL    HW225755   4.343   3.313   5.409
 8286SOL     OW25756   5.530   1.959   4.690
 8286SOL    HW125757   5.547   2.011   4.775
 8286SOL    HW225758   5.455   2.002   4.640
 8287SOL     OW25759   1.098   5.680   3.866
 8287SOL    HW125760   1.142   5.756   3.819
 8287SOL    HW225761   1.040   5.714   3.940
 8288SOL     OW25762   1.103   2.759   2.683
 8288SOL    HW125763   1.032   2.737   2.751
 8288SOL    HW225764   1.075   2.722   2.594
 8289SOL     OW25765   6.037   0.556   6.742
 8289SOL    HW125766   6.085   0.493   6.681
 8289SOL    HW225767   5.944   0.521   6.760
 8290SOL     OW25768   4.888   1.897   1.245
 8290SOL    HW125769   4.847   1.837   1.177
 8290SOL    HW225770   4.827   1.974   1.263
 8291SOL     OW25771   5.795   5.769   6.261
 8291SOL    HW125772   5.752   5.829   6.193
 8291SOL    HW225773   5.733   5.756   6.338
 8292SOL     OW25774   2.748   5.699   6.718
 8292SOL    HW125775   2.751   5.717   6.816
 8292SOL    HW225776   2.703   5.612   6.702
 8293SOL     OW25777   1.465   4.402   1.253
 8293SOL    HW125778   1.407   4.353   1.317
 8293SOL    HW225779   1.560   4.400   1.285
 8294SOL     OW25780   6.093   3.240   4.718
 8294SOL    HW125781   6.120   3.170   4.651
 8294SOL    HW225782   6.156   3.317   4.712
 8295SOL     OW25783   5.010   3.144   3.186
 8295SOL    HW125784   4.964   3.226   3.152
 8295SOL    HW225785   5.076   3.112   3.117
 8296SOL     OW25786   3.470   5.603   6.904
 8296SOL    HW125787   3.513   5.527   6.953
 8296SOL    HW225788   3.537   5.676   6.890
 8297SOL     OW25789   6.503   3.132   2.536
 8297SOL    HW125790   6.530   3.040   2.565
 8297SOL    HW225791   6.414   3.155   2.577
 8298SOL     OW25792   6.819   0.337   0.652
 8298SOL    HW125793   6.821   0.415   0.590
 8298SOL    HW225794   6.821   0.252   0.599
 8299SOL     OW25795   0.129   2.789   1.268
 8299SOL    HW125796   0.049   2.789   1.328
 8299SOL    HW225797   0.212   2.797   1.324
 8300SOL     OW25798   0.089   7.004   4.558
 8300SOL    HW125799   0.058   0.029   4.641
 8300SOL    HW225800   0.011   6.992   4.496
 8301SOL     OW25801   4.716   0.456   6.770
 8301SOL    HW125802   4.805   0.479   6.730
 8301SOL    HW225803   4.728   0.382   6.836
 8302SOL     OW25804   4.796   6.874   5.650
 8302SOL    HW125805   4.716   6.816   5.667
 8302SOL    HW225806   4.878   6.829   5.688
 8303SOL     OW25807   6.662   0.248   3.080
 8303SOL    HW125808   6.757   0.228   3.107
 8303SOL    HW225809   6.615   0.162   3.058
 8304SOL     OW25810   5.511   4.570   1.767
 8304SOL    HW125811   5.516   4.635   1.843
 8304SOL    HW225812   5.481   4.617   1.684
 8305SOL     OW25813   4.041   4.815   4.322
 8305SOL    HW125814   4.014   4.724   4.353
 8305SOL    HW225815   4.049   4.876   4.401
 8306SOL     OW25816   6.672   0.994   3.284
 8306SOL    HW125817   6.757   1.043   3.305
 8306SOL    HW225818   6.645   0.938   3.363
 8307SOL     OW25819   3.355   5.336   1.698
 8307SOL    HW125820   3.449   5.354   1.670
 8307SOL    HW225821   3.300   5.418   1.680
 8308SOL     OW25822   1.930   5.131   0.595
 8308SOL    HW125823   1.988   5.050   0.594
 8308SOL    HW225824   1.970   5.201   0.536
 8309SOL     OW25825   5.529   5.087   2.909
 8309SOL    HW125826   5.512   5.115   3.003
 8309SOL    HW225827   5.609   5.135   2.873
 8310SOL     OW25828   1.522   5.342   0.693
 8310SOL    HW125829   1.471   5.261   0.722
 8310SOL    HW225830   1.458   5.414   0.666
 8311SOL     OW25831   5.855   0.557   4.545
 8311SOL    HW125832   5.858   0.590   4.640
 8311SOL    HW225833   5.931   0.596   4.493
 8312SOL     OW25834   5.486   1.125   6.502
 8312SOL    HW125835   5.438   1.165   6.424
 8312SOL    HW225836   5.571   1.083   6.471
 8313SOL     OW25837   5.133   0.418   5.649
 8313SOL    HW125838   5.217   0.462   5.682
 8313SOL    HW225839   5.102   0.351   5.717
 8314SOL     OW25840   6.129   6.671   6.474
 8314SOL    HW125841   6.165   6.577   6.481
 8314SOL    HW225842   6.134   6.700   6.378
 8315SOL     OW25843   3.829   3.066   2.759
 8315SOL    HW125844   3.846   3.162   2.738
 8315SOL    HW225845   3.890   3.037   2.834
 8316SOL     OW25846   1.896   3.526   1.104
 8316SOL    HW125847   1.830   3.559   1.171
 8316SOL    HW225848   1.953   3.455   1.145
 8317SOL     OW25849   2.001   1.868   2.968
 8317SOL    HW125850   2.015   1.966   2.956
 8317SOL    HW225851   1.962   1.851   3.058
 8318SOL     OW25852   4.102   1.624   5.719
 8318SOL    HW125853   4.040   1.701   5.732
 8318SOL    HW225854   4.050   1.538   5.725
 8319SOL     OW25855   1.418   0.297   0.386
 8319SOL    HW125856   1.507   0.340   0.374
 8319SOL    HW225857   1.352   0.364   0.419
 8320SOL     OW25858   3.354   4.150   3.416
 8320SOL    HW125859   3.417   4.190   3.482
 8320SOL    HW225860   3.406   4.100   3.347
 8321SOL     OW25861   0.174   0.286   6.463
 8321SOL    HW125862   0.268   0.259   6.482
 8321SOL    HW225863   0.174   0.370   6.408
 8322SOL     OW25864   0.008   1.886   0.488
 8322SOL    HW125865   6.992   1.900   0.396
 8322SOL    HW225866   0.098   1.842   0.481
 8323SOL     OW25867   3.404   4.794   1.423
 8323SOL    HW125868   3.310   4.826   1.433
 8323SOL    HW225869   3.459   4.826   1.500
 8324SOL     OW25870   5.021   0.315   0.380
 8324SOL    HW125871   5.089   0.385   0.402
 8324SOL    HW225872   4.933   0.341   0.419
 8325SOL     OW25873   0.785   4.029   5.467
 8325SOL    HW125874   0.867   4.081   5.490
 8325SOL    HW225875   0.794   3.936   5.501
 8326SOL     OW25876   4.354   4.040   6.457
 8326SOL    HW125877   4.300   3.960   6.429
 8326SOL    HW225878   4.299   4.123   6.443
 8327SOL     OW25879   0.967   0.694   5.810
 8327SOL    HW125880   0.927   0.647   5.731
 8327SOL    HW225881   0.923   0.783   5.822
 8328SOL     OW25882   2.709   6.587   6.275
 8328SOL    HW125883   2.764   6.616   6.197
 8328SOL    HW225884   2.723   6.651   6.351
 8329SOL     OW25885   0.074   2.146   5.279
 8329SOL    HW125886   0.083   2.145   5.378
 8329SOL    HW225887   0.073   2.052   5.245
 8330SOL     OW25888   3.360   1.589   6.593
 8330SOL    HW125889   3.346   1.595   6.494
 8330SOL    HW225890   3.331   1.675   6.636
 8331SOL     OW25891   3.523   0.964   0.763
 8331SOL    HW125892   3.611   0.917   0.769
 8331SOL    HW225893   3.526   1.049   0.816
 8332SOL     OW25894   5.855   5.274   1.821
 8332SOL    HW125895   5.827   5.198   1.880
 8332SOL    HW225896   5.940   5.314   1.856
 8333SOL     OW25897   1.631   4.453   6.396
 8333SOL    HW125898   1.722   4.412   6.393
 8333SOL    HW225899   1.567   4.390   6.440
 8334SOL     OW25900   3.015   2.335   5.897
 8334SOL    HW125901   3.011   2.435   5.908
 8334SOL    HW225902   2.924   2.301   5.876
 8335SOL     OW25903   3.773   2.076   6.708
 8335SOL    HW125904   3.867   2.109   6.718
 8335SOL    HW225905   3.741   2.039   6.795
 8336SOL     OW25906   0.594   3.716   2.759
 8336SOL    HW125907   0.597   3.661   2.842
 8336SOL    HW225908   0.676   3.773   2.754
 8337SOL     OW25909   0.317   6.912   3.884
 8337SOL    HW125910   0.371   6.971   3.944
 8337SOL    HW225911   0.221   6.941   3.885
 8338SOL     OW25912   3.735   5.696   1.932
 8338SOL    HW125913   3.679   5.768   1.892
 8338SOL    HW225914   3.754   5.626   1.864
 8339SOL     OW25915   0.393   1.052   1.679
 8339SOL    HW125916   0.313   1.088   1.726
 8339SOL    HW225917   0.444   0.993   1.741
 8340SOL     OW25918   5.267   3.853   0.761
 8340SOL    HW125919   5.221   3.764   0.759
 8340SOL    HW225920   5.269   3.887   0.855
 8341SOL     OW25921   3.878   0.416   6.882
 8341SOL    HW125922   3.904   0.371   6.968
 8341SOL    HW225923   3.916   0.365   6.805
 8342SOL     OW25924   4.235   6.596   0.604
 8342SOL    HW125925   4.213   6.595   0.701
 8342SOL    HW225926   4.193   6.517   0.559
 8343SOL     OW25927   6.790   5.326   3.658
 8343SOL    HW125928   6.794   5.421   3.687
 8343SOL    HW225929   6.818   5.267   3.733
 8344SOL     OW25930   6.796   4.831   4.506
 8344SOL    HW125931   6.811   4.755   4.570
 8344SOL    HW225932   6.777   4.794   4.415
 8345SOL     OW25933   4.288   2.347   3.560
 8345SOL    HW125934   4.282   2.337   3.461
 8345SOL    HW225935   4.212   2.300   3.604
 8346SOL     OW25936   3.861   4.069   6.900
 8346SOL    HW125937   3.863   4.143   6.967
 8346SOL    HW225938   3.768   4.035   6.891
 8347SOL     OW25939   3.328   6.717   5.954
 8347SOL    HW125940   3.386   6.640   5.929
 8347SOL    HW225941   3.373   6.771   6.024
 8348SOL     OW25942   2.126   1.027   1.564
 8348SOL    HW125943   2.071   0.944   1.571
 8348SOL    HW225944   2.098   1.079   1.483
 8349SOL     OW25945   1.383   6.413   2.023
 8349SOL    HW125946   1.462   6.461   1.987
 8349SOL    HW225947   1.399   6.388   2.119
 8350SOL     OW25948   2.932   6.640   6.097
 8350SOL    HW125949   2.913   6.731   6.061
 8350SOL    HW225950   2.937   6.575   6.022
 8351SOL     OW25951   5.736   5.405   4.853
 8351SOL    HW125952   5.644   5.442   4.843
 8351SOL    HW225953   5.732   5.305   4.862
 8352SOL     OW25954   1.510   6.783   2.822
 8352SOL    HW125955   1.608   6.800   2.835
 8352SOL    HW225956   1.458   6.864   2.850
 8353SOL     OW25957   0.965   3.365   0.927
 8353SOL    HW125958   0.954   3.427   1.004
 8353SOL    HW225959   0.875   3.335   0.894
 8354SOL     OW25960   3.633   0.266   3.890
 8354SOL    HW125961   3.590   0.295   3.804
 8354SOL    HW225962   3.722   0.225   3.870
 8355SOL     OW25963   1.962   1.299   4.547
 8355SOL    HW125964   2.029   1.369   4.522
 8355SOL    HW225965   1.928   1.317   4.639
 8356SOL     OW25966   1.231   6.060   1.156
 8356SOL    HW125967   1.317   6.079   1.203
 8356SOL    HW225968   1.156   6.059   1.222
 8357SOL     OW25969   3.665   6.993   5.561
 8357SOL    HW125970   3.764   7.000   5.573
 8357SOL    HW225971   3.620   7.001   5.650
 8358SOL     OW25972   1.058   3.102   4.436
 8358SOL    HW125973   1.125   3.028   4.448
 8358SOL    HW225974   1.021   3.098   4.343
 8359SOL     OW25975   2.932   1.600   5.096
 8359SOL    HW125976   2.836   1.584   5.074
 8359SOL    HW225977   2.977   1.644   5.018
 8360SOL     OW25978   4.745   6.915   0.954
 8360SOL    HW125979   4.814   6.858   0.999
 8360SOL    HW225980   4.691   6.859   0.891
 8361SOL     OW25981   3.550   0.662   0.671
 8361SOL    HW125982   3.633   0.653   0.727
 8361SOL    HW225983   3.507   0.572   0.662
 8362SOL     OW25984   5.519   1.923   0.692
 8362SOL    HW125985   5.433   1.973   0.700
 8362SOL    HW225986   5.501   1.828   0.668
 8363SOL     OW25987   5.038   2.407   0.591
 8363SOL    HW125988   4.999   2.314   0.595
 8363SOL    HW225989   5.133   2.402   0.562
 8364SOL     OW25990   7.018   2.455   3.836
 8364SOL    HW125991   0.085   2.493   3.864
 8364SOL    HW225992   6.955   2.531   3.814
 8365SOL     OW25993   1.878   2.037   2.315
 8365SOL    HW125994   1.912   2.011   2.225
 8365SOL    HW225995   1.851   2.133   2.314
 8366SOL     OW25996   3.264   5.471   1.040
 8366SOL    HW125997   3.180   5.445   1.087
 8366SOL    HW225998   3.256   5.447   0.943
 8367SOL     OW25999   3.373   5.416   4.804
 8367SOL    HW126000   3.388   5.354   4.881
 8367SOL    HW226001   3.323   5.497   4.836
 8368SOL     OW26002   0.771   5.910   0.152
 8368SOL    HW126003   0.738   5.929   0.059
 8368SOL    HW226004   0.868   5.885   0.149
 8369SOL     OW26005   0.918   0.598   6.735
 8369SOL    HW126006   1.010   0.570   6.763
 8369SOL    HW226007   0.856   0.590   6.813
 8370SOL     OW26008   2.503   1.377   6.008
 8370SOL    HW126009   2.512   1.453   5.943
 8370SOL    HW226010   2.407   1.367   6.035
 8371SOL     OW26011   2.792   3.757   0.330
 8371SOL    HW126012   2.866   3.817   0.298
 8371SOL    HW226013   2.795   3.752   0.429
 8372SOL     OW26014   1.700   5.835   1.552
 8372SOL    HW126015   1.694   5.751   1.607
 8372SOL    HW226016   1.713   5.913   1.612
 8373SOL     OW26017   1.833   6.964   4.422
 8373SOL    HW126018   1.788   6.877   4.399
 8373SOL    HW226019   1.868   7.007   4.339
 8374SOL     OW26020   0.230   0.429   4.800
 8374SOL    HW126021   0.289   0.505   4.826
 8374SOL    HW226022   0.278   0.370   4.735
 8375SOL     OW26023   3.515   6.594   5.808
 8375SOL    HW126024   3.491   6.678   5.760
 8375SOL    HW226025   3.592   6.549   5.762
 8376SOL     OW26026   1.605   1.190   3.712
 8376SOL    HW126027   1.702   1.171   3.723
 8376SOL    HW226028   1.576   1.166   3.619
 8377SOL     OW26029   5.607   6.045   0.181
 8377SOL    HW126030   5.549   5.976   0.224
 8377SOL    HW226031   5.703   6.028   0.204
 8378SOL     OW26032   3.552   5.033   3.493
 8378SOL    HW126033   3.452   5.040   3.503
 8378SOL    HW226034   3.593   5.021   3.584
 8379SOL     OW26035   4.903   3.022   2.018
 8379SOL    HW126036   4.925   2.966   2.098
 8379SOL    HW226037   4.819   2.988   1.975
 8380SOL     OW26038   0.216   6.996   0.293
 8380SOL    HW126039   0.146   6.999   0.221
 8380SOL    HW226040   0.253   6.903   0.299
 8381SOL     OW26041   0.084   2.168   3.496
 8381SOL    HW126042   0.018   2.230   3.453
 8381SOL    HW226043   0.152   2.139   3.429
 8382SOL     OW26044   2.041   6.477   1.543
 8382SOL    HW126045   2.139   6.467   1.559
 8382SOL    HW226046   2.023   6.567   1.503
 8383SOL     OW26047   3.034   6.913   5.760
 8383SOL    HW126048   3.091   6.985   5.799
 8383SOL    HW226049   3.032   6.922   5.660
 8384SOL     OW26050   6.445   1.847   1.287
 8384SOL    HW126051   6.486   1.852   1.196
 8384SOL    HW226052   6.352   1.884   1.283
 8385SOL     OW26053   4.200   2.411   0.419
 8385SOL    HW126054   4.230   2.505   0.430
 8385SOL    HW226055   4.127   2.407   0.350
 8386SOL     OW26056   2.210   6.241   1.217
 8386SOL    HW126057   2.122   6.230   1.262
 8386SOL    HW226058   2.213   6.185   1.134
 8387SOL     OW26059   1.220   2.148   1.308
 8387SOL    HW126060   1.301   2.093   1.293
 8387SOL    HW226061   1.145   2.090   1.338
 8388SOL     OW26062   1.927   6.540   1.122
 8388SOL    HW126063   2.003   6.591   1.082
 8388SOL    HW226064   1.844   6.555   1.069
 8389SOL     OW26065   6.877   2.908   4.027
 8389SOL    HW126066   6.873   2.969   4.106
 8389SOL    HW226067   6.784   2.887   3.997
 8390SOL     OW26068   3.969   6.670   0.152
 8390SOL    HW126069   4.057   6.623   0.149
 8390SOL    HW226070   3.897   6.605   0.176
 8391SOL     OW26071   4.622   4.973   1.220
 8391SOL    HW126072   4.549   5.003   1.280
 8391SOL    HW226073   4.588   4.899   1.161
 8392SOL     OW26074   6.605   5.463   5.426
 8392SOL    HW126075   6.546   5.388   5.455
 8392SOL    HW226076   6.618   5.459   5.327
 8393SOL     OW26077   0.695   0.159   3.872
 8393SOL    HW126078   0.737   0.248   3.855
 8393SOL    HW226079   0.766   0.093   3.898
 8394SOL     OW26080   0.165   2.962   1.767
 8394SOL    HW126081   0.243   2.926   1.817
 8394SOL    HW226082   0.100   3.003   1.831
 8395SOL     OW26083   1.482   6.116   3.964
 8395SOL    HW126084   1.424   6.122   4.045
 8395SOL    HW226085   1.568   6.071   3.988
 8396SOL     OW26086   4.446   4.690   2.424
 8396SOL    HW126087   4.460   4.592   2.439
 8396SOL    HW226088   4.381   4.725   2.491
 8397SOL     OW26089   2.680   1.110   3.491
 8397SOL    HW126090   2.617   1.047   3.445
 8397SOL    HW226091   2.769   1.065   3.502
 8398SOL     OW26092   4.414   2.464   6.293
 8398SOL    HW126093   4.367   2.426   6.373
 8398SOL    HW226094   4.509   2.484   6.317
 8399SOL     OW26095   5.911   0.050   6.957
 8399SOL    HW126096   5.821   0.009   6.970
 8399SOL    HW226097   5.962   7.018   6.889
 8400SOL     OW26098   1.286   0.225   4.115
 8400SOL    HW126099   1.243   0.135   4.103
 8400SOL    HW226100   1.215   0.294   4.130
 8401SOL     OW26101   3.250   2.062   6.275
 8401SOL    HW126102   3.173   2.051   6.212
 8401SOL    HW226103   3.322   1.996   6.254
 8402SOL     OW26104   4.074   1.864   5.396
 8402SOL    HW126105   4.009   1.788   5.391
 8402SOL    HW226106   4.167   1.827   5.404
 8403SOL     OW26107   0.906   1.666   3.012
 8403SOL    HW126108   0.875   1.650   3.106
 8403SOL    HW226109   0.964   1.590   2.982
 8404SOL     OW26110   4.381   5.974   6.631
 8404SOL    HW126111   4.367   5.982   6.730
 8404SOL    HW226112   4.315   6.033   6.584
 8405SOL     OW26113   2.480   0.938   5.730
 8405SOL    HW126114   2.446   0.927   5.636
 8405SOL    HW226115   2.410   0.983   5.785
 8406SOL     OW26116   4.957   6.737   1.066
 8406SOL    HW126117   5.039   6.715   1.121
 8406SOL    HW226118   4.982   6.739   0.969
 8407SOL     OW26119   4.664   6.288   4.153
 8407SOL    HW126120   4.586   6.313   4.211
 8407SOL    HW226121   4.726   6.228   4.204
 8408SOL     OW26122   4.958   2.848   2.289
 8408SOL    HW126123   4.882   2.895   2.333
 8408SOL    HW226124   5.028   2.827   2.357
 8409SOL     OW26125   6.371   3.313   3.511
 8409SOL    HW126126   6.453   3.339   3.460
 8409SOL    HW226127   6.314   3.394   3.526
 8410SOL     OW26128   5.099   0.414   1.736
 8410SOL    HW126129   5.166   0.440   1.667
 8410SOL    HW226130   5.132   0.444   1.826
 8411SOL     OW26131   1.122   5.465   6.197
 8411SOL    HW126132   1.022   5.468   6.200
 8411SOL    HW226133   1.160   5.522   6.270
 8412SOL     OW26134   4.008   2.039   2.262
 8412SOL    HW126135   3.941   2.030   2.188
 8412SOL    HW226136   3.961   2.030   2.350
 8413SOL     OW26137   4.458   5.096   6.982
 8413SOL    HW126138   4.524   5.066   6.913
 8413SOL    HW226139   4.402   5.018   7.010
 8414SOL     OW26140   4.254   5.482   3.275
 8414SOL    HW126141   4.261   5.512   3.370
 8414SOL    HW226142   4.342   5.495   3.229
 8415SOL     OW26143   6.556   5.256   3.539
 8415SOL    HW126144   6.647   5.272   3.576
 8415SOL    HW226145   6.557   5.270   3.440
 8416SOL     OW26146   5.535   4.203   2.998
 8416SOL    HW126147   5.616   4.182   3.053
 8416SOL    HW226148   5.453   4.177   3.048
 8417SOL     OW26149   1.346   5.196   6.147
 8417SOL    HW126150   1.377   5.118   6.200
 8417SOL    HW226151   1.302   5.165   6.063
 8418SOL     OW26152   6.209   5.384   1.211
 8418SOL    HW126153   6.272   5.398   1.287
 8418SOL    HW226154   6.202   5.286   1.191
 8419SOL     OW26155   5.496   1.277   2.643
 8419SOL    HW126156   5.507   1.265   2.741
 8419SOL    HW226157   5.477   1.189   2.600
 8420SOL     OW26158   4.459   6.759   0.884
 8420SOL    HW126159   4.426   6.729   0.973
 8420SOL    HW226160   4.386   6.807   0.835
 8421SOL     OW26161   2.961   6.005   0.598
 8421SOL    HW126162   2.911   6.038   0.518
 8421SOL    HW226163   2.979   5.907   0.589
 8422SOL     OW26164   4.448   1.019   0.953
 8422SOL    HW126165   4.428   1.104   1.002
 8422SOL    HW226166   4.425   1.030   0.857
 8423SOL     OW26167   3.658   4.876   5.854
 8423SOL    HW126168   3.703   4.849   5.939
 8423SOL    HW226169   3.686   4.968   5.829
 8424SOL     OW26170   2.497   2.450   2.348
 8424SOL    HW126171   2.469   2.490   2.260
 8424SOL    HW226172   2.422   2.457   2.413
 8425SOL     OW26173   5.304   5.836   0.429
 8425SOL    HW126174   5.279   5.748   0.469
 8425SOL    HW226175   5.381   5.824   0.366
 8426SOL     OW26176   3.364   3.339   4.131
 8426SOL    HW126177   3.333   3.247   4.107
 8426SOL    HW226178   3.286   3.401   4.135
 8427SOL     OW26179   2.640   3.622   5.292
 8427SOL    HW126180   2.688   3.638   5.378
 8427SOL    HW226181   2.625   3.709   5.245
 8428SOL     OW26182   0.304   3.920   1.848
 8428SOL    HW126183   0.301   3.863   1.765
 8428SOL    HW226184   0.212   3.932   1.884
 8429SOL     OW26185   2.201   4.185   3.553
 8429SOL    HW126186   2.284   4.235   3.578
 8429SOL    HW226187   2.163   4.140   3.635
 8430SOL     OW26188   3.845   5.467   4.452
 8430SOL    HW126189   3.874   5.396   4.388
 8430SOL    HW226190   3.794   5.537   4.402
 8431SOL     OW26191   3.294   4.990   0.927
 8431SOL    HW126192   3.225   4.999   0.856
 8431SOL    HW226193   3.313   5.080   0.968
 8432SOL     OW26194   5.430   6.995   6.181
 8432SOL    HW126195   5.449   6.977   6.085
 8432SOL    HW226196   5.340   6.957   6.205
 8433SOL     OW26197   6.195   2.195   0.700
 8433SOL    HW126198   6.160   2.125   0.762
 8433SOL    HW226199   6.158   2.284   0.727
 8434SOL     OW26200   3.130   6.818   4.994
 8434SOL    HW126201   3.211   6.759   4.993
 8434SOL    HW226202   3.078   6.800   5.077
 8435SOL     OW26203   5.501   0.648   1.018
 8435SOL    HW126204   5.413   0.638   0.971
 8435SOL    HW226205   5.521   0.745   1.031
 8436SOL     OW26206   3.267   0.175   4.168
 8436SOL    HW126207   3.279   0.215   4.258
 8436SOL    HW226208   3.193   0.106   4.171
 8437SOL     OW26209   1.898   0.081   3.635
 8437SOL    HW126210   1.944   0.168   3.616
 8437SOL    HW226211   1.806   0.100   3.670
 8438SOL     OW26212   2.807   5.085   2.167
 8438SOL    HW126213   2.797   5.073   2.265
 8438SOL    HW226214   2.717   5.099   2.125
 8439SOL     OW26215   6.174   5.148   1.899
 8439SOL    HW126216   6.172   5.103   1.988
 8439SOL    HW226217   6.231   5.095   1.836
 8440SOL     OW26218   0.991   1.661   3.285
 8440SOL    HW126219   0.988   1.749   3.238
 8440SOL    HW226220   1.051   1.668   3.365
 8441SOL     OW26221   5.687   6.675   0.251
 8441SOL    HW126222   5.773   6.719   0.225
 8441SOL    HW226223   5.634   6.653   0.169
 8442SOL     OW26224   2.952   2.577   5.838
 8442SOL    HW126225   2.894   2.563   5.758
 8442SOL    HW226226   2.960   2.675   5.856
 8443SOL     OW26227   1.547   6.116   3.689
 8443SOL    HW126228   1.475   6.175   3.653
 8443SOL    HW226229   1.552   6.126   3.788
 8444SOL     OW26230   3.460   6.044   3.867
 8444SOL    HW126231   3.377   5.999   3.899
 8444SOL    HW226232   3.451   6.067   3.770
 8445SOL     OW26233   3.577   5.434   1.352
 8445SOL    HW126234   3.597   5.404   1.445
 8445SOL    HW226235   3.485   5.403   1.326
 8446SOL     OW26236   4.814   5.101   7.017
 8446SOL    HW126237   4.817   5.019   0.052
 8446SOL    HW226238   4.776   5.078   6.927
 8447SOL     OW26239   5.437   2.561   2.090
 8447SOL    HW126240   5.349   2.525   2.123
 8447SOL    HW226241   5.426   2.595   1.997
 8448SOL     OW26242   5.356   5.507   4.426
 8448SOL    HW126243   5.412   5.538   4.348
 8448SOL    HW226244   5.394   5.422   4.462
 8449SOL     OW26245   6.270   2.844   4.010
 8449SOL    HW126246   6.323   2.760   3.998
 8449SOL    HW226247   6.332   2.922   4.019
 8450SOL     OW26248   1.204   5.850   1.999
 8450SOL    HW126249   1.214   5.943   1.964
 8450SOL    HW226250   1.119   5.842   2.050
 8451SOL     OW26251   4.715   2.779   0.853
 8451SOL    HW126252   4.674   2.861   0.812
 8451SOL    HW226253   4.693   2.700   0.796
 8452SOL     OW26254   6.508   1.062   2.534
 8452SOL    HW126255   6.529   0.968   2.508
 8452SOL    HW226256   6.527   1.074   2.632
 8453SOL     OW26257   6.976   4.232   6.534
 8453SOL    HW126258   6.961   4.218   6.632
 8453SOL    HW226259   6.958   4.328   6.511
 8454SOL     OW26260   0.189   6.479   1.027
 8454SOL    HW126261   0.271   6.501   0.974
 8454SOL    HW226262   0.112   6.464   0.965
 8455SOL     OW26263   5.583   2.401   1.612
 8455SOL    HW126264   5.532   2.460   1.675
 8455SOL    HW226265   5.673   2.381   1.651
 8456SOL     OW26266   4.600   5.298   3.126
 8456SOL    HW126267   4.509   5.303   3.083
 8456SOL    HW226268   4.597   5.346   3.214
 8457SOL     OW26269   6.773   6.769   4.992
 8457SOL    HW126270   6.840   6.700   5.020
 8457SOL    HW226271   6.750   6.826   5.071
 8458SOL     OW26272   2.371   1.390   6.874
 8458SOL    HW126273   2.389   1.417   6.968
 8458SOL    HW226274   2.313   1.458   6.830
 8459SOL     OW26275   3.201   6.271   1.930
 8459SOL    HW126276   3.210   6.177   1.963
 8459SOL    HW226277   3.252   6.332   1.991
 8460SOL     OW26278   5.072   3.026   5.544
 8460SOL    HW126279   5.060   2.929   5.523
 8460SOL    HW226280   4.999   3.079   5.501
 8461SOL     OW26281   0.332   4.201   3.105
 8461SOL    HW126282   0.283   4.232   3.023
 8461SOL    HW226283   0.270   4.150   3.164
 8462SOL     OW26284   3.829   2.371   6.820
 8462SOL    HW126285   3.778   2.324   6.892
 8462SOL    HW226286   3.794   2.464   6.811
 8463SOL     OW26287   5.968   6.893   0.227
 8463SOL    HW126288   5.977   6.886   0.326
 8463SOL    HW226289   6.013   6.977   0.196
 8464SOL     OW26290   5.743   3.473   5.908
 8464SOL    HW126291   5.672   3.533   5.943
 8464SOL    HW226292   5.800   3.440   5.984
 8465SOL     OW26293   1.700   2.895   0.860
 8465SOL    HW126294   1.740   2.814   0.903
 8465SOL    HW226295   1.718   2.976   0.916
 8466SOL     OW26296   0.280   0.054   5.169
 8466SOL    HW126297   0.239   0.139   5.204
 8466SOL    HW226298   0.373   0.072   5.139
 8467SOL     OW26299   3.935   0.349   1.108
 8467SOL    HW126300   3.903   0.330   1.201
 8467SOL    HW226301   3.981   0.268   1.072
 8468SOL     OW26302   4.581   2.596   0.487
 8468SOL    HW126303   4.586   2.591   0.587
 8468SOL    HW226304   4.594   2.504   0.449
 8469SOL     OW26305   3.447   1.549   5.443
 8469SOL    HW126306   3.519   1.481   5.430
 8469SOL    HW226307   3.406   1.572   5.355
 8470SOL     OW26308   0.491   4.917   0.423
 8470SOL    HW126309   0.424   4.992   0.431
 8470SOL    HW226310   0.516   4.905   0.327
 8471SOL     OW26311   4.320   0.607   4.468
 8471SOL    HW126312   4.417   0.592   4.486
 8471SOL    HW226313   4.267   0.579   4.548
 8472SOL     OW26314   6.681   0.659   5.426
 8472SOL    HW126315   6.742   0.683   5.502
 8472SOL    HW226316   6.677   0.560   5.417
 8473SOL     OW26317   6.977   6.213   1.100
 8473SOL    HW126318   6.996   6.160   1.017
 8473SOL    HW226319   0.018   6.185   1.172
 8474SOL     OW26320   3.520   3.423   2.481
 8474SOL    HW126321   3.464   3.364   2.539
 8474SOL    HW226322   3.613   3.385   2.475
 8475SOL     OW26323   6.923   2.340   3.342
 8475SOL    HW126324   6.998   2.406   3.354
 8475SOL    HW226325   6.864   2.370   3.267
 8476SOL     OW26326   6.417   1.975   0.702
 8476SOL    HW126327   6.386   1.978   0.797
 8476SOL    HW226328   6.453   2.064   0.675
 8477SOL     OW26329   4.758   6.828   2.563
 8477SOL    HW126330   4.746   6.810   2.661
 8477SOL    HW226331   4.671   6.855   2.523
 8478SOL     OW26332   1.483   0.015   6.288
 8478SOL    HW126333   1.509   0.046   6.380
 8478SOL    HW226334   1.412   6.967   6.295
 8479SOL     OW26335   0.905   2.414   1.040
 8479SOL    HW126336   0.878   2.498   1.087
 8479SOL    HW226337   0.889   2.425   0.942
 8480SOL     OW26338   5.185   2.425   0.208
 8480SOL    HW126339   5.130   2.503   0.178
 8480SOL    HW226340   5.229   2.447   0.295
 8481SOL     OW26341   5.286   2.937   4.933
 8481SOL    HW126342   5.236   2.862   4.889
 8481SOL    HW226343   5.259   2.943   5.029
 8482SOL     OW26344   4.860   6.421   2.537
 8482SOL    HW126345   4.865   6.327   2.502
 8482SOL    HW226346   4.772   6.461   2.512
 8483SOL     OW26347   3.639   6.730   1.857
 8483SOL    HW126348   3.677   6.712   1.948
 8483SOL    HW226349   3.621   6.828   1.847
 8484SOL     OW26350   0.063   6.002   3.772
 8484SOL    HW126351   0.144   5.946   3.788
 8484SOL    HW226352   0.060   6.030   3.676
 8485SOL     OW26353   3.337   2.534   0.373
 8485SOL    HW126354   3.289   2.619   0.395
 8485SOL    HW226355   3.338   2.521   0.274
 8486SOL     OW26356   2.549   1.908   2.086
 8486SOL    HW126357   2.573   1.868   1.998
 8486SOL    HW226358   2.605   1.866   2.158
 8487SOL     OW26359   5.989   1.439   5.387
 8487SOL    HW126360   5.893   1.465   5.396
 8487SOL    HW226361   6.020   1.397   5.473
 8488SOL     OW26362   5.202   6.317   1.108
 8488SOL    HW126363   5.219   6.219   1.105
 8488SOL    HW226364   5.152   6.345   1.026
 8489SOL     OW26365   6.173   1.942   1.644
 8489SOL    HW126366   6.171   1.938   1.744
 8489SOL    HW226367   6.082   1.918   1.608
 8490SOL     OW26368   4.250   6.634   4.859
 8490SOL    HW126369   4.212   6.583   4.783
 8490SOL    HW226370   4.343   6.602   4.878
 8491SOL     OW26371   2.616   5.704   1.410
 8491SOL    HW126372   2.715   5.712   1.413
 8491SOL    HW226373   2.579   5.764   1.339
 8492SOL     OW26374   5.521   3.898   5.434
 8492SOL    HW126375   5.548   3.882   5.339
 8492SOL    HW226376   5.495   3.994   5.445
 8493SOL     OW26377   2.118   2.327   6.306
 8493SOL    HW126378   2.145   2.406   6.251
 8493SOL    HW226379   2.174   2.248   6.281
 8494SOL     OW26380   4.065   5.365   1.644
 8494SOL    HW126381   4.052   5.307   1.563
 8494SOL    HW226382   4.125   5.441   1.621
 8495SOL     OW26383   6.686   4.898   1.944
 8495SOL    HW126384   6.642   4.976   1.900
 8495SOL    HW226385   6.627   4.862   2.016
 8496SOL     OW26386   1.383   2.179   2.157
 8496SOL    HW126387   1.345   2.259   2.111
 8496SOL    HW226388   1.399   2.107   2.090
 8497SOL     OW26389   0.016   0.626   3.594
 8497SOL    HW126390   0.059   0.559   3.533
 8497SOL    HW226391   0.061   0.624   3.683
 8498SOL     OW26392   6.112   5.932   3.242
 8498SOL    HW126393   6.100   5.982   3.156
 8498SOL    HW226394   6.203   5.892   3.246
 8499SOL     OW26395   2.010   4.401   6.727
 8499SOL    HW126396   2.032   4.484   6.777
 8499SOL    HW226397   2.033   4.321   6.783
 8500SOL     OW26398   1.152   6.097   5.585
 8500SOL    HW126399   1.107   6.149   5.658
 8500SOL    HW226400   1.185   6.010   5.621
 8501SOL     OW26401   0.532   2.668   6.642
 8501SOL    HW126402   0.539   2.569   6.647
 8501SOL    HW226403   0.487   2.694   6.557
 8502SOL     OW26404   0.563   3.560   1.104
 8502SOL    HW126405   0.463   3.551   1.101
 8502SOL    HW226406   0.604   3.486   1.051
 8503SOL     OW26407   0.367   6.170   3.932
 8503SOL    HW126408   0.350   6.072   3.941
 8503SOL    HW226409   0.389   6.208   4.022
 8504SOL     OW26410   2.537   4.749   2.587
 8504SOL    HW126411   2.549   4.842   2.553
 8504SOL    HW226412   2.625   4.712   2.615
 8505SOL     OW26413   6.050   3.288   3.391
 8505SOL    HW126414   6.091   3.205   3.354
 8505SOL    HW226415   6.121   3.345   3.431
 8506SOL     OW26416   1.150   0.692   7.008
 8506SOL    HW126417   1.157   0.790   6.991
 8506SOL    HW226418   1.191   0.641   6.932
 8507SOL     OW26419   3.967   0.729   4.638
 8507SOL    HW126420   4.023   0.646   4.650
 8507SOL    HW226421   3.977   0.787   4.718
 8508SOL     OW26422   5.360   1.794   4.912
 8508SOL    HW126423   5.427   1.792   4.985
 8508SOL    HW226424   5.360   1.884   4.868
 8509SOL     OW26425   4.670   1.135   4.359
 8509SOL    HW126426   4.633   1.042   4.364
 8509SOL    HW226427   4.747   1.144   4.422
 8510SOL     OW26428   5.655   4.319   2.453
 8510SOL    HW126429   5.712   4.248   2.412
 8510SOL    HW226430   5.616   4.285   2.538
 8511SOL     OW26431   6.153   4.639   2.356
 8511SOL    HW126432   6.062   4.603   2.376
 8511SOL    HW226433   6.145   4.711   2.286
 8512SOL     OW26434   3.052   1.738   2.617
 8512SOL    HW126435   3.014   1.737   2.524
 8512SOL    HW226436   3.043   1.648   2.658
 8513SOL     OW26437   6.558   5.244   0.721
 8513SOL    HW126438   6.641   5.296   0.697
 8513SOL    HW226439   6.487   5.308   0.750
 8514SOL     OW26440   2.172   2.159   4.378
 8514SOL    HW126441   2.252   2.142   4.320
 8514SOL    HW226442   2.114   2.228   4.335
 8515SOL     OW26443   4.677   2.000   1.571
 8515SOL    HW126444   4.624   2.072   1.617
 8515SOL    HW226445   4.621   1.918   1.564
 8516SOL     OW26446   6.684   1.758   2.071
 8516SOL    HW126447   6.617   1.776   2.143
 8516SOL    HW226448   6.698   1.659   2.064
 8517SOL     OW26449   0.975   2.536   6.280
 8517SOL    HW126450   1.012   2.508   6.369
 8517SOL    HW226451   0.896   2.596   6.294
 8518SOL     OW26452   4.368   4.826   0.045
 8518SOL    HW126453   4.284   4.771   0.048
 8518SOL    HW226454   4.445   4.768   0.070
 8519SOL     OW26455   1.859   4.775   2.048
 8519SOL    HW126456   1.896   4.744   2.136
 8519SOL    HW226457   1.813   4.699   2.003
 8520SOL     OW26458   3.597   2.466   0.458
 8520SOL    HW126459   3.615   2.404   0.535
 8520SOL    HW226460   3.498   2.485   0.454
 8521SOL     OW26461   1.404   4.675   6.125
 8521SOL    HW126462   1.309   4.682   6.154
 8521SOL    HW226463   1.464   4.710   6.197
 8522SOL     OW26464   1.370   5.595   1.545
 8522SOL    HW126465   1.380   5.559   1.638
 8522SOL    HW226466   1.312   5.532   1.492
 8523SOL     OW26467   3.176   0.205   6.526
 8523SOL    HW126468   3.240   0.265   6.573
 8523SOL    HW226469   3.082   0.237   6.540
 8524SOL     OW26470   1.153   2.351   4.871
 8524SOL    HW126471   1.226   2.282   4.868
 8524SOL    HW226472   1.180   2.425   4.932
 8525SOL     OW26473   6.258   4.115   3.075
 8525SOL    HW126474   6.349   4.118   3.117
 8525SOL    HW226475   6.261   4.054   2.995
 8526SOL     OW26476   3.502   5.096   6.939
 8526SOL    HW126477   3.515   5.189   6.975
 8526SOL    HW226478   3.500   5.098   6.839
 8527SOL     OW26479   3.056   0.496   4.924
 8527SOL    HW126480   2.970   0.492   4.874
 8527SOL    HW226481   3.057   0.578   4.981
 8528SOL     OW26482   4.723   2.714   6.394
 8528SOL    HW126483   4.730   2.804   6.351
 8528SOL    HW226484   4.727   2.643   6.324
 8529SOL     OW26485   0.425   6.831   0.600
 8529SOL    HW126486   0.386   6.805   0.511
 8529SOL    HW226487   0.374   6.909   0.636
 8530SOL     OW26488   2.198   4.148   5.297
 8530SOL    HW126489   2.252   4.094   5.231
 8530SOL    HW226490   2.194   4.100   5.384
 8531SOL     OW26491   6.818   4.132   1.480
 8531SOL    HW126492   6.884   4.199   1.446
 8531SOL    HW226493   6.856   4.040   1.469
 8532SOL     OW26494   4.119   4.967   4.567
 8532SOL    HW126495   4.022   4.948   4.579
 8532SOL    HW226496   4.133   5.064   4.547
 8533SOL     OW26497   1.954   0.240   5.715
 8533SOL    HW126498   1.990   0.254   5.807
 8533SOL    HW226499   2.030   0.230   5.651
 8534SOL     OW26500   6.553   3.517   4.043
 8534SOL    HW126501   6.477   3.579   4.025
 8534SOL    HW226502   6.546   3.482   4.136
 8535SOL     OW26503   0.512   2.236   5.097
 8535SOL    HW126504   0.504   2.285   5.183
 8535SOL    HW226505   0.423   2.234   5.051
 8536SOL     OW26506   6.072   2.067   4.991
 8536SOL    HW126507   6.146   2.072   4.924
 8536SOL    HW226508   6.110   2.045   5.081
 8537SOL     OW26509   5.620   1.400   2.425
 8537SOL    HW126510   5.596   1.332   2.494
 8537SOL    HW226511   5.546   1.408   2.359
 8538SOL     OW26512   0.998   1.671   5.933
 8538SOL    HW126513   0.904   1.665   5.968
 8538SOL    HW226514   1.060   1.623   5.995
 8539SOL     OW26515   6.486   1.364   1.725
 8539SOL    HW126516   6.553   1.337   1.795
 8539SOL    HW226517   6.475   1.463   1.728
 8540SOL     OW26518   3.874   1.736   0.346
 8540SOL    HW126519   3.909   1.748   0.439
 8540SOL    HW226520   3.778   1.711   0.350
 8541SOL     OW26521   3.146   2.068   4.298
 8541SOL    HW126522   3.056   2.111   4.295
 8541SOL    HW226523   3.180   2.054   4.205
 8542SOL     OW26524   2.452   4.615   5.679
 8542SOL    HW126525   2.499   4.651   5.759
 8542SOL    HW226526   2.519   4.587   5.610
 8543SOL     OW26527   3.038   1.359   6.976
 8543SOL    HW126528   3.061   1.334   0.049
 8543SOL    HW226529   3.114   1.408   6.934
 8544SOL     OW26530   5.680   2.961   4.495
 8544SOL    HW126531   5.741   2.952   4.417
 8544SOL    HW226532   5.678   3.057   4.525
 8545SOL     OW26533   4.747   6.768   5.155
 8545SOL    HW126534   4.789   6.723   5.234
 8545SOL    HW226535   4.675   6.829   5.186
 8546SOL     OW26536   0.693   7.012   2.639
 8546SOL    HW126537   0.677   0.008   2.736
 8546SOL    HW226538   0.695   6.913   2.623
 8547SOL     OW26539   0.785   0.115   6.726
 8547SOL    HW126540   0.749   0.033   6.772
 8547SOL    HW226541   0.884   0.109   6.720
 8548SOL     OW26542   0.054   3.210   6.227
 8548SOL    HW126543   0.052   3.119   6.269
 8548SOL    HW226544   7.018   3.272   6.280
 8549SOL     OW26545   1.028   2.430   4.029
 8549SOL    HW126546   1.059   2.378   4.108
 8549SOL    HW226547   1.084   2.512   4.018
 8550SOL     OW26548   0.900   5.152   0.391
 8550SOL    HW126549   0.958   5.198   0.323
 8550SOL    HW226550   0.810   5.194   0.392
 8551SOL     OW26551   2.728   2.871   0.155
 8551SOL    HW126552   2.652   2.931   0.133
 8551SOL    HW226553   2.705   2.815   0.235
 8552SOL     OW26554   2.353   0.664   2.544
 8552SOL    HW126555   2.359   0.764   2.553
 8552SOL    HW226556   2.270   0.632   2.589
 8553SOL     OW26557   3.727   4.392   6.750
 8553SOL    HW126558   3.783   4.469   6.718
 8553SOL    HW226559   3.659   4.368   6.681
 8554SOL     OW26560   0.404   5.822   0.489
 8554SOL    HW126561   0.389   5.778   0.577
 8554SOL    HW226562   0.502   5.821   0.467
 8555SOL     OW26563   3.373   0.862   3.574
 8555SOL    HW126564   3.358   0.874   3.672
 8555SOL    HW226565   3.333   0.939   3.524
 8556SOL     OW26566   2.186   6.583   5.396
 8556SOL    HW126567   2.268   6.557   5.345
 8556SOL    HW226568   2.211   6.602   5.491
 8557SOL     OW26569   6.007   6.660   2.190
 8557SOL    HW126570   5.955   6.734   2.234
 8557SOL    HW226571   6.006   6.579   2.248
 8558SOL     OW26572   2.527   5.656   3.366
 8558SOL    HW126573   2.595   5.630   3.436
 8558SOL    HW226574   2.459   5.717   3.407
 8559SOL     OW26575   2.140   6.895   2.670
 8559SOL    HW126576   2.197   6.968   2.631
 8559SOL    HW226577   2.165   6.808   2.628
 8560SOL     OW26578   1.410   5.627   2.065
 8560SOL    HW126579   1.490   5.684   2.081
 8560SOL    HW226580   1.335   5.684   2.032
 8561SOL     OW26581   3.671   0.032   2.839
 8561SOL    HW126582   3.729   6.972   2.846
 8561SOL    HW226583   3.684   0.074   2.750
 8562SOL     OW26584   3.894   6.503   6.379
 8562SOL    HW126585   3.851   6.427   6.330
 8562SOL    HW226586   3.840   6.523   6.461
 8563SOL     OW26587   0.857   4.886   1.677
 8563SOL    HW126588   0.949   4.847   1.678
 8563SOL    HW226589   0.798   4.834   1.739
 8564SOL     OW26590   2.911   0.131   4.742
 8564SOL    HW126591   2.968   0.191   4.797
 8564SOL    HW226592   2.841   0.089   4.800
 8565SOL     OW26593   3.673   5.180   0.973
 8565SOL    HW126594   3.692   5.266   0.925
 8565SOL    HW226595   3.575   5.175   0.995
 8566SOL     OW26596   0.447   6.531   1.494
 8566SOL    HW126597   0.463   6.549   1.397
 8566SOL    HW226598   0.371   6.588   1.526
 8567SOL     OW26599   6.981   1.831   2.428
 8567SOL    HW126600   7.009   1.864   2.518
 8567SOL    HW226601   6.882   1.817   2.427
 8568SOL     OW26602   5.264   1.782   6.940
 8568SOL    HW126603   5.261   1.693   6.894
 8568SOL    HW226604   5.251   1.770   0.017
 8569SOL     OW26605   4.814   1.556   5.399
 8569SOL    HW126606   4.733   1.603   5.363
 8569SOL    HW226607   4.873   1.529   5.323
 8570SOL     OW26608   1.170   1.368   3.829
 8570SOL    HW126609   1.079   1.352   3.866
 8570SOL    HW226610   1.162   1.416   3.741
 8571SOL     OW26611   0.315   6.142   5.818
 8571SOL    HW126612   0.287   6.062   5.871
 8571SOL    HW226613   0.401   6.178   5.854
 8572SOL     OW26614   2.348   4.379   5.771
 8572SOL    HW126615   2.330   4.364   5.869
 8572SOL    HW226616   2.370   4.475   5.756
 8573SOL     OW26617   3.246   6.147   6.437
 8573SOL    HW126618   3.293   6.065   6.405
 8573SOL    HW226619   3.263   6.159   6.535
 8574SOL     OW26620   6.385   6.958   6.417
 8574SOL    HW126621   6.467   7.000   6.377
 8574SOL    HW226622   6.327   0.007   6.457
 8575SOL     OW26623   2.401   2.121   3.395
 8575SOL    HW126624   2.305   2.142   3.418
 8575SOL    HW226625   2.437   2.053   3.459
 8576SOL     OW26626   1.475   4.813   4.567
 8576SOL    HW126627   1.481   4.804   4.667
 8576SOL    HW226628   1.436   4.729   4.529
 8577SOL     OW26629   1.592   6.818   5.298
 8577SOL    HW126630   1.638   6.732   5.318
 8577SOL    HW226631   1.596   6.878   5.378
 8578SOL     OW26632   6.367   5.482   4.869
 8578SOL    HW126633   6.444   5.531   4.828
 8578SOL    HW226634   6.307   5.548   4.915
 8579SOL     OW26635   1.692   6.756   2.110
 8579SOL    HW126636   1.635   6.734   2.030
 8579SOL    HW226637   1.636   6.754   2.192
 8580SOL     OW26638   1.871   6.013   0.718
 8580SOL    HW126639   1.912   6.104   0.715
 8580SOL    HW226640   1.865   5.983   0.813
 8581SOL     OW26641   3.294   4.111   1.673
 8581SOL    HW126642   3.276   4.167   1.592
 8581SOL    HW226643   3.374   4.053   1.657
 8582SOL     OW26644   4.759   4.250   5.163
 8582SOL    HW126645   4.756   4.151   5.173
 8582SOL    HW226646   4.828   4.275   5.096
 8583SOL     OW26647   4.039   0.158   4.338
 8583SOL    HW126648   4.015   0.105   4.257
 8583SOL    HW226649   4.032   0.256   4.317
 8584SOL     OW26650   0.813   5.987   6.070
 8584SOL    HW126651   0.747   6.017   6.139
 8584SOL    HW226652   0.906   6.003   6.103
 8585SOL     OW26653   6.211   1.399   6.994
 8585SOL    HW126654   6.280   1.445   6.939
 8585SOL    HW226655   6.124   1.447   6.986
 8586SOL     OW26656   3.224   6.453   1.709
 8586SOL    HW126657   3.145   6.508   1.682
 8586SOL    HW226658   3.207   6.412   1.798
 8587SOL     OW26659   0.686   0.870   4.840
 8587SOL    HW126660   0.655   0.794   4.785
 8587SOL    HW226661   0.774   0.903   4.805
 8588SOL     OW26662   4.194   1.325   0.079
 8588SOL    HW126663   4.108   1.320   0.028
 8588SOL    HW226664   4.235   1.415   0.067
 8589SOL     OW26665   5.672   2.715   5.523
 8589SOL    HW126666   5.641   2.626   5.557
 8589SOL    HW226667   5.622   2.739   5.440
 8590SOL     OW26668   0.460   0.171   2.776
 8590SOL    HW126669   0.494   0.240   2.839
 8590SOL    HW226670   0.529   0.152   2.706
 8591SOL     OW26671   0.212   4.160   0.313
 8591SOL    HW126672   0.162   4.083   0.354
 8591SOL    HW226673   0.303   4.130   0.285
 8592SOL     OW26674   5.751   2.026   6.667
 8592SOL    HW126675   5.652   2.029   6.675
 8592SOL    HW226676   5.778   2.047   6.573
 8593SOL     OW26677   3.119   1.290   0.227
 8593SOL    HW126678   3.106   1.237   0.311
 8593SOL    HW226679   3.106   1.387   0.246
 8594SOL     OW26680   5.104   2.435   5.544
 8594SOL    HW126681   5.011   2.420   5.509
 8594SOL    HW226682   5.168   2.440   5.468
 8595SOL     OW26683   0.617   0.816   3.794
 8595SOL    HW126684   0.577   0.893   3.844
 8595SOL    HW226685   0.543   0.758   3.758
 8596SOL     OW26686   1.353   4.542   3.128
 8596SOL    HW126687   1.353   4.639   3.153
 8596SOL    HW226688   1.268   4.499   3.160
 8597SOL     OW26689   4.899   1.812   1.961
 8597SOL    HW126690   4.810   1.859   1.960
 8597SOL    HW226691   4.887   1.719   1.997
 8598SOL     OW26692   5.945   0.354   7.015
 8598SOL    HW126693   5.893   0.360   0.079
 8598SOL    HW226694   5.971   0.258   6.999
 8599SOL     OW26695   1.722   2.060   4.419
 8599SOL    HW126696   1.664   1.978   4.425
 8599SOL    HW226697   1.740   2.094   4.512
 8600SOL     OW26698   5.253   3.683   6.354
 8600SOL    HW126699   5.334   3.656   6.406
 8600SOL    HW226700   5.262   3.778   6.326
 8601SOL     OW26701   0.819   1.381   4.133
 8601SOL    HW126702   0.912   1.375   4.167
 8601SOL    HW226703   0.763   1.435   4.195
 8602SOL     OW26704   3.093   6.564   2.653
 8602SOL    HW126705   3.133   6.547   2.563
 8602SOL    HW226706   3.134   6.502   2.720
 8603SOL     OW26707   5.068   5.865   1.301
 8603SOL    HW126708   5.078   5.767   1.287
 8603SOL    HW226709   5.038   5.883   1.394
 8604SOL     OW26710   1.152   2.411   5.380
 8604SOL    HW126711   1.207   2.332   5.409
 8604SOL    HW226712   1.084   2.381   5.313
 8605SOL     OW26713   2.253   5.662   4.154
 8605SOL    HW126714   2.242   5.564   4.137
 8605SOL    HW226715   2.192   5.714   4.093
 8606SOL     OW26716   2.145   3.299   6.851
 8606SOL    HW126717   2.233   3.317   6.894
 8606SOL    HW226718   2.152   3.216   6.794
 8607SOL     OW26719   3.236   4.939   6.152
 8607SOL    HW126720   3.326   4.903   6.126
 8607SOL    HW226721   3.165   4.878   6.116
 8608SOL     OW26722   2.900   4.776   2.477
 8608SOL    HW126723   2.850   4.725   2.407
 8608SOL    HW226724   2.851   4.771   2.564
 8609SOL     OW26725   4.922   0.624   3.176
 8609SOL    HW126726   4.928   0.539   3.124
 8609SOL    HW226727   4.935   0.702   3.115
 8610SOL     OW26728   1.160   1.539   3.091
 8610SOL    HW126729   1.221   1.471   3.132
 8610SOL    HW226730   1.116   1.593   3.163
 8611SOL     OW26731   2.833   1.923   4.352
 8611SOL    HW126732   2.861   1.919   4.447
 8611SOL    HW226733   2.860   1.839   4.305
 8612SOL     OW26734   2.531   3.002   0.986
 8612SOL    HW126735   2.597   2.941   1.031
 8612SOL    HW226736   2.573   3.092   0.973
 8613SOL     OW26737   2.859   1.589   2.084
 8613SOL    HW126738   2.878   1.664   2.148
 8613SOL    HW226739   2.864   1.624   1.990
 8614SOL     OW26740   0.956   2.812   3.858
 8614SOL    HW126741   0.873   2.781   3.813
 8614SOL    HW226742   1.018   2.735   3.871
 8615SOL     OW26743   4.340   2.107   5.234
 8615SOL    HW126744   4.348   2.076   5.329
 8615SOL    HW226745   4.367   2.032   5.173
 8616SOL     OW26746   2.999   4.686   1.701
 8616SOL    HW126747   2.956   4.776   1.707
 8616SOL    HW226748   2.940   4.619   1.746
 8617SOL     OW26749   5.709   1.392   5.182
 8617SOL    HW126750   5.742   1.480   5.217
 8617SOL    HW226751   5.668   1.405   5.091
 8618SOL     OW26752   6.413   5.059   0.983
 8618SOL    HW126753   6.337   5.047   1.047
 8618SOL    HW226754   6.426   4.975   0.931
 8619SOL     OW26755   4.126   5.026   2.108
 8619SOL    HW126756   4.111   4.940   2.157
 8619SOL    HW226757   4.194   5.081   2.156
 8620SOL     OW26758   1.701   6.574   3.006
 8620SOL    HW126759   1.694   6.652   2.944
 8620SOL    HW226760   1.613   6.527   3.013
 8621SOL     OW26761   5.551   1.880   2.437
 8621SOL    HW126762   5.612   1.855   2.361
 8621SOL    HW226763   5.594   1.855   2.524
 8622SOL     OW26764   4.849   3.684   1.198
 8622SOL    HW126765   4.866   3.616   1.269
 8622SOL    HW226766   4.752   3.681   1.172
 8623SOL     OW26767   0.932   3.983   4.699
 8623SOL    HW126768   0.972   3.933   4.622
 8623SOL    HW226769   0.836   3.958   4.709
 8624SOL     OW26770   2.194   3.792   4.630
 8624SOL    HW126771   2.287   3.759   4.649
 8624SOL    HW226772   2.130   3.749   4.693
 8625SOL     OW26773   4.617   1.159   5.825
 8625SOL    HW126774   4.701   1.106   5.814
 8625SOL    HW226775   4.571   1.167   5.737
 8626SOL     OW26776   4.137   2.365   6.630
 8626SOL    HW126777   4.233   2.389   6.646
 8626SOL    HW226778   4.080   2.447   6.637
 8627SOL     OW26779   1.083   1.615   2.601
 8627SOL    HW126780   1.021   1.693   2.614
 8627SOL    HW226781   1.096   1.568   2.688
 8628SOL     OW26782   6.144   6.581   0.419
 8628SOL    HW126783   6.126   6.520   0.496
 8628SOL    HW226784   6.156   6.526   0.336
 8629SOL     OW26785   1.970   6.452   4.983
 8629SOL    HW126786   2.040   6.414   4.923
 8629SOL    HW226787   1.893   6.484   4.928
 8630SOL     OW26788   5.492   3.604   4.020
 8630SOL    HW126789   5.469   3.513   4.052
 8630SOL    HW226790   5.409   3.658   4.010
 8631SOL     OW26791   0.530   5.150   6.482
 8631SOL    HW126792   0.620   5.180   6.514
 8631SOL    HW226793   0.462   5.167   6.554
 8632SOL     OW26794   4.219   4.866   5.349
 8632SOL    HW126795   4.148   4.910   5.403
 8632SOL    HW226796   4.309   4.892   5.385
 8633SOL     OW26797   5.516   2.034   5.896
 8633SOL    HW126798   5.563   2.123   5.894
 8633SOL    HW226799   5.582   1.961   5.884
 8634SOL     OW26800   4.961   3.940   6.868
 8634SOL    HW126801   4.924   3.850   6.888
 8634SOL    HW226802   5.006   3.938   6.778
 8635SOL     OW26803   4.826   3.122   6.628
 8635SOL    HW126804   4.761   3.125   6.552
 8635SOL    HW226805   4.882   3.205   6.628
 8636SOL     OW26806   5.614   5.919   0.788
 8636SOL    HW126807   5.546   5.882   0.850
 8636SOL    HW226808   5.592   6.013   0.765
 8637SOL     OW26809   2.620   0.879   0.089
 8637SOL    HW126810   2.717   0.857   0.082
 8637SOL    HW226811   2.584   0.896   7.019
 8638SOL     OW26812   3.283   2.097   4.895
 8638SOL    HW126813   3.278   2.004   4.932
 8638SOL    HW226814   3.234   2.159   4.956
 8639SOL     OW26815   5.511   2.615   0.424
 8639SOL    HW126816   5.542   2.664   0.506
 8639SOL    HW226817   5.517   2.676   0.345
 8640SOL     OW26818   4.185   3.500   0.240
 8640SOL    HW126819   4.212   3.532   0.331
 8640SOL    HW226820   4.265   3.496   0.181
 8641SOL     OW26821   4.139   4.814   4.062
 8641SOL    HW126822   4.228   4.858   4.072
 8641SOL    HW226823   4.091   4.817   4.150
 8642SOL     OW26824   1.119   6.202   4.460
 8642SOL    HW126825   1.066   6.285   4.445
 8642SOL    HW226826   1.119   6.148   4.376
 8643SOL     OW26827   2.622   0.816   5.916
 8643SOL    HW126828   2.613   0.855   6.007
 8643SOL    HW226829   2.576   0.876   5.850
 8644SOL     OW26830   5.536   2.482   5.602
 8644SOL    HW126831   5.454   2.432   5.631
 8644SOL    HW226832   5.596   2.419   5.551
 8645SOL     OW26833   4.275   4.304   1.108
 8645SOL    HW126834   4.214   4.299   1.187
 8645SOL    HW226835   4.292   4.212   1.074
 8646SOL     OW26836   0.213   1.696   0.476
 8646SOL    HW126837   0.156   1.614   0.474
 8646SOL    HW226838   0.289   1.683   0.540
 8647SOL     OW26839   2.396   4.612   6.731
 8647SOL    HW126840   2.382   4.711   6.736
 8647SOL    HW226841   2.489   4.593   6.698
 8648SOL     OW26842   6.592   6.862   2.588
 8648SOL    HW126843   6.665   6.822   2.533
 8648SOL    HW226844   6.509   6.807   2.577
 8649SOL     OW26845   5.551   5.743   6.901
 8649SOL    HW126846   5.495   5.694   6.968
 8649SOL    HW226847   5.633   5.778   6.947
 8650SOL     OW26848   1.601   5.220   4.670
 8650SOL    HW126849   1.538   5.143   4.673
 8650SOL    HW226850   1.658   5.213   4.588
 8651SOL     OW26851   4.315   1.384   0.630
 8651SOL    HW126852   4.269   1.445   0.567
 8651SOL    HW226853   4.254   1.308   0.653
 8652SOL     OW26854   1.762   4.888   3.226
 8652SOL    HW126855   1.796   4.825   3.296
 8652SOL    HW226856   1.816   4.877   3.143
 8653SOL     OW26857   6.698   0.997   6.362
 8653SOL    HW126858   6.774   1.060   6.378
 8653SOL    HW226859   6.611   1.043   6.380
 8654SOL     OW26860   0.876   4.736   2.532
 8654SOL    HW126861   0.972   4.764   2.535
 8654SOL    HW226862   0.870   4.642   2.498
 8655SOL     OW26863   6.165   0.442   3.973
 8655SOL    HW126864   6.083   0.492   3.998
 8655SOL    HW226865   6.152   0.345   3.994
 8656SOL     OW26866   6.286   0.399   1.764
 8656SOL    HW126867   6.377   0.439   1.754
 8656SOL    HW226868   6.269   0.379   1.861
 8657SOL     OW26869   5.180   5.784   6.963
 8657SOL    HW126870   5.230   5.727   6.898
 8657SOL    HW226871   5.168   5.734   0.027
 8658SOL     OW26872   6.199   6.442   0.167
 8658SOL    HW126873   6.263   6.411   0.096
 8658SOL    HW226874   6.145   6.517   0.131
 8659SOL     OW26875   4.744   2.447   2.071
 8659SOL    HW126876   4.714   2.463   2.165
 8659SOL    HW226877   4.665   2.439   2.011
 8660SOL     OW26878   6.993   3.528   1.916
 8660SOL    HW126879   6.925   3.526   1.842
 8660SOL    HW226880   0.020   3.440   1.919
 8661SOL     OW26881   6.966   4.040   1.154
 8661SOL    HW126882   6.938   4.039   1.058
 8661SOL    HW226883   0.013   4.111   1.169
 8662SOL     OW26884   4.459   5.682   1.904
 8662SOL    HW126885   4.465   5.625   1.822
 8662SOL    HW226886   4.431   5.625   1.982
 8663SOL     OW26887   3.017   5.294   2.424
 8663SOL    HW126888   2.970   5.339   2.348
 8663SOL    HW226889   2.991   5.338   2.510
 8664SOL     OW26890   1.854   5.784   0.927
 8664SOL    HW126891   1.824   5.754   1.018
 8664SOL    HW226892   1.873   5.703   0.871
 8665SOL     OW26893   5.752   5.299   5.182
 8665SOL    HW126894   5.659   5.294   5.146
 8665SOL    HW226895   5.767   5.223   5.246
 8666SOL     OW26896   5.716   0.841   3.609
 8666SOL    HW126897   5.633   0.801   3.647
 8666SOL    HW226898   5.753   0.779   3.539
 8667SOL     OW26899   4.060   1.859   3.978
 8667SOL    HW126900   4.149   1.818   3.959
 8667SOL    HW226901   3.989   1.812   3.925
 8668SOL     OW26902   5.314   3.831   3.021
 8668SOL    HW126903   5.278   3.798   3.108
 8668SOL    HW226904   5.275   3.776   2.946
 8669SOL     OW26905   0.595   6.656   6.294
 8669SOL    HW126906   0.533   6.646   6.217
 8669SOL    HW226907   0.683   6.614   6.272
 8670SOL     OW26908   3.779   5.105   5.741
 8670SOL    HW126909   3.798   5.039   5.669
 8670SOL    HW226910   3.693   5.152   5.721
 8671SOL     OW26911   5.693   1.510   2.975
 8671SOL    HW126912   5.749   1.438   3.015
 8671SOL    HW226913   5.749   1.591   2.959
 8672SOL     OW26914   0.878   5.218   3.975
 8672SOL    HW126915   0.840   5.305   3.944
 8672SOL    HW226916   0.927   5.232   4.061
 8673SOL     OW26917   5.750   2.400   7.014
 8673SOL    HW126918   5.677   2.368   0.053
 8673SOL    HW226919   5.836   2.356   0.017
 8674SOL     OW26920   5.448   5.680   2.228
 8674SOL    HW126921   5.520   5.718   2.286
 8674SOL    HW226922   5.379   5.635   2.285
 8675SOL     OW26923   4.406   1.869   5.113
 8675SOL    HW126924   4.433   1.782   5.073
 8675SOL    HW226925   4.343   1.916   5.052
 8676SOL     OW26926   5.748   6.678   3.369
 8676SOL    HW126927   5.807   6.758   3.354
 8676SOL    HW226928   5.757   6.647   3.463
 8677SOL     OW26929   2.229   5.039   6.265
 8677SOL    HW126930   2.144   5.045   6.212
 8677SOL    HW226931   2.223   4.961   6.328
 8678SOL     OW26932   0.735   0.407   1.326
 8678SOL    HW126933   0.705   0.333   1.386
 8678SOL    HW226934   0.760   0.369   1.237
 8679SOL     OW26935   0.763   1.294   3.423
 8679SOL    HW126936   0.678   1.250   3.392
 8679SOL    HW226937   0.774   1.279   3.521
 8680SOL     OW26938   6.583   3.385   0.258
 8680SOL    HW126939   6.486   3.393   0.235
 8680SOL    HW226940   6.604   3.291   0.285
 8681SOL     OW26941   4.850   5.484   1.488
 8681SOL    HW126942   4.862   5.499   1.586
 8681SOL    HW226943   4.811   5.393   1.473
 8682SOL     OW26944   5.785   0.368   2.468
 8682SOL    HW126945   5.726   0.355   2.388
 8682SOL    HW226946   5.879   0.346   2.444
 8683SOL     OW26947   1.593   2.918   5.076
 8683SOL    HW126948   1.691   2.938   5.072
 8683SOL    HW226949   1.550   2.976   5.145
 8684SOL     OW26950   6.171   2.540   4.295
 8684SOL    HW126951   6.087   2.486   4.292
 8684SOL    HW226952   6.149   2.636   4.309
 8685SOL     OW26953   6.113   1.848   6.187
 8685SOL    HW126954   6.119   1.927   6.247
 8685SOL    HW226955   6.181   1.780   6.214
 8686SOL     OW26956   6.660   0.814   2.502
 8686SOL    HW126957   6.706   0.752   2.437
 8686SOL    HW226958   6.717   0.825   2.583
 8687SOL     OW26959   5.234   5.347   2.052
 8687SOL    HW126960   5.202   5.418   2.114
 8687SOL    HW226961   5.220   5.258   2.093
 8688SOL     OW26962   1.036   5.208   6.298
 8688SOL    HW126963   1.080   5.285   6.251
 8688SOL    HW226964   1.085   5.189   6.383
 8689SOL     OW26965   3.749   2.626   1.081
 8689SOL    HW126966   3.758   2.536   1.126
 8689SOL    HW226967   3.745   2.613   0.982
 8690SOL     OW26968   1.315   3.621   3.650
 8690SOL    HW126969   1.249   3.612   3.724
 8690SOL    HW226970   1.381   3.693   3.672
 8691SOL     OW26971   3.756   1.679   6.544
 8691SOL    HW126972   3.674   1.670   6.487
 8691SOL    HW226973   3.833   1.711   6.488
 8692SOL     OW26974   3.161   1.769   4.218
 8692SOL    HW126975   3.079   1.725   4.182
 8692SOL    HW226976   3.135   1.846   4.277
 8693SOL     OW26977   5.687   7.016   0.121
 8693SOL    HW126978   5.773   0.015   0.168
 8693SOL    HW226979   5.618   0.061   0.150
 8694SOL     OW26980   5.351   1.451   5.126
 8694SOL    HW126981   5.268   1.402   5.102
 8694SOL    HW226982   5.375   1.514   5.052
 8695SOL     OW26983   4.592   3.220   5.947
 8695SOL    HW126984   4.595   3.314   5.911
 8695SOL    HW226985   4.641   3.159   5.885
 8696SOL     OW26986   2.688   5.158   5.176
 8696SOL    HW126987   2.650   5.083   5.230
 8696SOL    HW226988   2.786   5.143   5.162
 8697SOL     OW26989   0.207   4.187   6.416
 8697SOL    HW126990   0.111   4.210   6.436
 8697SOL    HW226991   0.265   4.220   6.490
 8698SOL     OW26992   5.306   6.047   5.171
 8698SOL    HW126993   5.386   6.066   5.227
 8698SOL    HW226994   5.317   5.959   5.125
 8699SOL     OW26995   1.168   3.316   4.298
 8699SOL    HW126996   1.246   3.340   4.355
 8699SOL    HW226997   1.109   3.252   4.347
 8700SOL     OW26998   1.101   0.380   4.850
 8700SOL    HW126999   1.172   0.337   4.794
 8700SOL    HW227000   1.137   0.397   4.942
 8701SOL     OW27001   1.364   1.252   0.047
 8701SOL    HW127002   1.274   1.209   0.052
 8701SOL    HW227003   1.355   1.351   0.054
 8702SOL     OW27004   5.283   5.083   2.099
 8702SOL    HW127005   5.199   5.031   2.086
 8702SOL    HW227006   5.332   5.089   2.011
 8703SOL     OW27007   2.719   5.079   0.506
 8703SOL    HW127008   2.784   5.129   0.449
 8703SOL    HW227009   2.663   5.143   0.558
 8704SOL     OW27010   0.919   4.186   3.417
 8704SOL    HW127011   0.911   4.284   3.402
 8704SOL    HW227012   0.939   4.169   3.514
 8705SOL     OW27013   4.855   1.398   6.509
 8705SOL    HW127014   4.868   1.312   6.460
 8705SOL    HW227015   4.939   1.452   6.505
 8706SOL     OW27016   4.892   2.084   6.982
 8706SOL    HW127017   4.886   1.986   6.999
 8706SOL    HW227018   4.890   2.101   6.884
 8707SOL     OW27019   0.864   1.518   5.618
 8707SOL    HW127020   0.808   1.565   5.687
 8707SOL    HW227021   0.807   1.490   5.541
 8708SOL     OW27022   4.133   1.202   3.588
 8708SOL    HW127023   4.116   1.264   3.664
 8708SOL    HW227024   4.048   1.157   3.562
 8709SOL     OW27025   6.398   6.845   6.895
 8709SOL    HW127026   6.358   6.826   6.806
 8709SOL    HW227027   6.326   6.876   6.958
 8710SOL     OW27028   1.463   2.993   3.205
 8710SOL    HW127029   1.399   2.939   3.259
 8710SOL    HW227030   1.451   2.972   3.108
 8711SOL     OW27031   1.708   6.554   2.511
 8711SOL    HW127032   1.708   6.480   2.578
 8711SOL    HW227033   1.733   6.640   2.557
 8712SOL     OW27034   3.577   1.812   4.012
 8712SOL    HW127035   3.564   1.884   4.081
 8712SOL    HW227036   3.498   1.751   4.012
 8713SOL     OW27037   6.957   3.075   2.344
 8713SOL    HW127038   6.879   3.114   2.392
 8713SOL    HW227039   0.014   3.138   2.350
 8714SOL     OW27040   1.179   0.229   5.996
 8714SOL    HW127041   1.192   0.325   5.971
 8714SOL    HW227042   1.244   0.173   5.946
 8715SOL     OW27043   3.902   0.757   1.038
 8715SOL    HW127044   3.950   0.670   1.025
 8715SOL    HW227045   3.952   0.830   0.992
 8716SOL     OW27046   0.210   6.705   0.729
 8716SOL    HW127047   0.205   6.730   0.825
 8716SOL    HW227048   0.302   6.673   0.707
 8717SOL     OW27049   2.871   3.868   5.247
 8717SOL    HW127050   2.868   3.939   5.176
 8717SOL    HW227051   2.910   3.784   5.208
 8718SOL     OW27052   1.489   3.035   5.365
 8718SOL    HW127053   1.479   2.941   5.400
 8718SOL    HW227054   1.416   3.092   5.402
 8719SOL     OW27055   4.009   0.101   0.533
 8719SOL    HW127056   4.057   0.170   0.479
 8719SOL    HW227057   3.911   0.106   0.513
 8720SOL     OW27058   1.057   6.032   6.169
 8720SOL    HW127059   1.128   6.086   6.122
 8720SOL    HW227060   1.061   6.051   6.267
 8721SOL     OW27061   6.893   2.196   1.792
 8721SOL    HW127062   6.811   2.165   1.839
 8721SOL    HW227063   6.899   2.151   1.703
 8722SOL     OW27064   3.412   1.398   1.214
 8722SOL    HW127065   3.499   1.419   1.170
 8722SOL    HW227066   3.362   1.331   1.158
 8723SOL     OW27067   4.633   6.673   1.911
 8723SOL    HW127068   4.542   6.713   1.914
 8723SOL    HW227069   4.674   6.674   2.002
 8724SOL     OW27070   5.598   6.629   4.082
 8724SOL    HW127071   5.553   6.695   4.143
 8724SOL    HW227072   5.537   6.608   4.005
 8725SOL     OW27073   2.064   5.658   5.702
 8725SOL    HW127074   2.065   5.594   5.625
 8725SOL    HW227075   2.015   5.616   5.779
 8726SOL     OW27076   0.214   0.650   3.234
 8726SOL    HW127077   0.210   0.750   3.233
 8726SOL    HW227078   0.281   0.619   3.167
 8727SOL     OW27079   6.359   0.039   1.520
 8727SOL    HW127080   6.337   6.984   1.581
 8727SOL    HW227081   6.300   0.117   1.542
 8728SOL     OW27082   6.059   0.994   1.811
 8728SOL    HW127083   6.117   1.064   1.769
 8728SOL    HW227084   6.017   1.030   1.894
 8729SOL     OW27085   3.485   4.746   5.523
 8729SOL    HW127086   3.531   4.822   5.477
 8729SOL    HW227087   3.482   4.764   5.621
 8730SOL     OW27088   5.121   3.578   2.602
 8730SOL    HW127089   5.182   3.532   2.538
 8730SOL    HW227090   5.028   3.546   2.589
 8731SOL     OW27091   0.392   3.265   3.045
 8731SOL    HW127092   0.383   3.165   3.052
 8731SOL    HW227093   0.428   3.300   3.131
 8732SOL     OW27094   5.540   4.787   1.997
 8732SOL    HW127095   5.486   4.724   2.053
 8732SOL    HW227096   5.627   4.806   2.043
 8733SOL     OW27097   1.294   5.960   0.922
 8733SOL    HW127098   1.280   6.021   1.000
 8733SOL    HW227099   1.293   5.866   0.953
 8734SOL     OW27100   0.942   3.013   2.812
 8734SOL    HW127101   0.991   3.094   2.782
 8734SOL    HW227102   0.978   2.933   2.763
 8735SOL     OW27103   0.925   3.176   6.692
 8735SOL    HW127104   1.024   3.191   6.695
 8735SOL    HW227105   0.879   3.265   6.690
 8736SOL     OW27106   0.351   5.286   1.768
 8736SOL    HW127107   0.350   5.313   1.864
 8736SOL    HW227108   0.293   5.349   1.715
 8737SOL     OW27109   1.580   6.513   0.401
 8737SOL    HW127110   1.659   6.453   0.410
 8737SOL    HW227111   1.503   6.462   0.364
 8738SOL     OW27112   2.683   5.823   4.317
 8738SOL    HW127113   2.684   5.893   4.389
 8738SOL    HW227114   2.605   5.762   4.331
 8739SOL     OW27115   5.620   5.879   6.037
 8739SOL    HW127116   5.636   5.817   5.961
 8739SOL    HW227117   5.546   5.844   6.094
 8740SOL     OW27118   3.835   1.328   4.377
 8740SOL    HW127119   3.799   1.412   4.419
 8740SOL    HW227120   3.934   1.324   4.393
 8741SOL     OW27121   2.432   1.047   2.854
 8741SOL    HW127122   2.382   1.092   2.780
 8741SOL    HW227123   2.403   1.086   2.941
 8742SOL     OW27124   4.813   0.381   1.741
 8742SOL    HW127125   4.911   0.402   1.745
 8742SOL    HW227126   4.795   0.321   1.664
 8743SOL     OW27127   1.124   0.005   1.731
 8743SOL    HW127128   1.041   0.058   1.750
 8743SOL    HW227129   1.159   6.990   1.817
 8744SOL     OW27130   4.308   2.973   0.631
 8744SOL    HW127131   4.217   3.001   0.599
 8744SOL    HW227132   4.343   2.901   0.572
 8745SOL     OW27133   6.317   1.686   6.305
 8745SOL    HW127134   6.340   1.702   6.401
 8745SOL    HW227135   6.300   1.589   6.290
 8746SOL     OW27136   5.120   5.222   4.654
 8746SOL    HW127137   5.103   5.302   4.596
 8746SOL    HW227138   5.135   5.251   4.748
 8747SOL     OW27139   6.962   1.508   2.759
 8747SOL    HW127140   7.013   1.476   2.678
 8747SOL    HW227141   0.000   1.504   2.839
 8748SOL     OW27142   0.608   2.060   4.915
 8748SOL    HW127143   0.569   2.125   4.981
 8748SOL    HW227144   0.702   2.087   4.894
 8749SOL     OW27145   2.050   0.323   5.167
 8749SOL    HW127146   2.032   0.225   5.166
 8749SOL    HW227147   2.070   0.352   5.261
 8750SOL     OW27148   3.739   4.022   5.849
 8750SOL    HW127149   3.706   4.111   5.880
 8750SOL    HW227150   3.813   3.992   5.908
 8751SOL     OW27151   6.155   1.910   1.904
 8751SOL    HW127152   6.197   1.847   1.969
 8751SOL    HW227153   6.059   1.886   1.892
 8752SOL     OW27154   3.200   2.982   6.646
 8752SOL    HW127155   3.121   2.951   6.698
 8752SOL    HW227156   3.239   2.906   6.594
 8753SOL     OW27157   3.068   1.787   6.472
 8753SOL    HW127158   3.067   1.690   6.494
 8753SOL    HW227159   3.154   1.810   6.427
 8754SOL     OW27160   1.606   4.134   4.865
 8754SOL    HW127161   1.687   4.086   4.832
 8754SOL    HW227162   1.627   4.231   4.876
 8755SOL     OW27163   1.996   1.129   1.331
 8755SOL    HW127164   2.020   1.123   1.234
 8755SOL    HW227165   1.896   1.134   1.340
 8756SOL     OW27166   1.882   2.803   3.646
 8756SOL    HW127167   1.929   2.719   3.673
 8756SOL    HW227168   1.831   2.839   3.723
 8757SOL     OW27169   4.114   5.135   6.741
 8757SOL    HW127170   4.114   5.146   6.841
 8757SOL    HW227171   4.205   5.158   6.705
 8758SOL     OW27172   4.788   5.875   3.176
 8758SOL    HW127173   4.809   5.789   3.129
 8758SOL    HW227174   4.710   5.861   3.237
 8759SOL     OW27175   4.755   3.010   6.935
 8759SOL    HW127176   4.810   2.959   6.869
 8759SOL    HW227177   4.808   3.087   6.969
 8760SOL     OW27178   2.976   1.026   4.943
 8760SOL    HW127179   2.883   1.062   4.935
 8760SOL    HW227180   3.017   1.018   4.852
 8761SOL     OW27181   6.455   2.170   1.109
 8761SOL    HW127182   6.483   2.239   1.043
 8761SOL    HW227183   6.519   2.170   1.187
 8762SOL     OW27184   0.995   4.807   3.999
 8762SOL    HW127185   0.971   4.716   3.966
 8762SOL    HW227186   0.932   4.833   4.072
 8763SOL     OW27187   6.293   6.747   6.246
 8763SOL    HW127188   6.371   6.685   6.260
 8763SOL    HW227189   6.316   6.838   6.280
 8764SOL     OW27190   4.432   0.133   5.572
 8764SOL    HW127191   4.490   0.176   5.503
 8764SOL    HW227192   4.483   0.125   5.658
 8765SOL     OW27193   5.045   0.699   3.930
 8765SOL    HW127194   5.035   0.713   3.832
 8765SOL    HW227195   4.986   0.623   3.959
 8766SOL     OW27196   4.424   4.266   5.296
 8766SOL    HW127197   4.386   4.327   5.227
 8766SOL    HW227198   4.518   4.294   5.317
 8767SOL     OW27199   5.813   6.118   2.750
 8767SOL    HW127200   5.809   6.095   2.847
 8767SOL    HW227201   5.877   6.194   2.737
 8768SOL     OW27202   1.430   2.722   6.921
 8768SOL    HW127203   1.442   2.732   7.020
 8768SOL    HW227204   1.500   2.774   6.874
 8769SOL     OW27205   6.958   0.637   3.024
 8769SOL    HW127206   7.017   0.641   3.105
 8769SOL    HW227207   6.983   0.558   2.968
 8770SOL     OW27208   4.636   4.358   2.251
 8770SOL    HW127209   4.586   4.331   2.169
 8770SOL    HW227210   4.657   4.277   2.306
 8771SOL     OW27211   1.271   1.908   6.454
 8771SOL    HW127212   1.355   1.870   6.416
 8771SOL    HW227213   1.196   1.843   6.442
 8772SOL     OW27214   4.096   0.388   6.122
 8772SOL    HW127215   4.168   0.456   6.113
 8772SOL    HW227216   4.134   0.304   6.160
 8773SOL     OW27217   5.388   2.827   3.783
 8773SOL    HW127218   5.349   2.763   3.716
 8773SOL    HW227219   5.380   2.787   3.874
 8774SOL     OW27220   1.386   0.736   0.558
 8774SOL    HW127221   1.421   0.829   0.573
 8774SOL    HW227222   1.462   0.671   0.562
 8775SOL     OW27223   5.504   0.952   5.849
 8775SOL    HW127224   5.522   1.014   5.773
 8775SOL    HW227225   5.579   0.886   5.858
 8776SOL     OW27226   4.501   3.410   0.731
 8776SOL    HW127227   4.586   3.462   0.730
 8776SOL    HW227228   4.471   3.392   0.637
 8777SOL     OW27229   6.127   4.357   3.160
 8777SOL    HW127230   6.182   4.286   3.116
 8777SOL    HW227231   6.121   4.436   3.099
 8778SOL     OW27232   5.278   2.963   6.058
 8778SOL    HW127233   5.302   3.011   5.974
 8778SOL    HW227234   5.277   3.028   6.135
 8779SOL     OW27235   2.513   5.338   2.309
 8779SOL    HW127236   2.461   5.257   2.285
 8779SOL    HW227237   2.571   5.319   2.388
 8780SOL     OW27238   0.553   0.258   3.203
 8780SOL    HW127239   0.512   0.315   3.274
 8780SOL    HW227240   0.531   0.295   3.113
 8781SOL     OW27241   5.036   0.827   4.353
 8781SOL    HW127242   5.121   0.847   4.305
 8781SOL    HW227243   5.024   0.728   4.360
 8782SOL     OW27244   6.654   0.699   1.732
 8782SOL    HW127245   6.693   0.624   1.678
 8782SOL    HW227246   6.729   0.754   1.770
 8783SOL     OW27247   6.300   4.109   3.474
 8783SOL    HW127248   6.348   4.109   3.561
 8783SOL    HW227249   6.237   4.031   3.470
 8784SOL     OW27250   0.167   6.528   6.313
 8784SOL    HW127251   0.088   6.474   6.284
 8784SOL    HW227252   0.218   6.559   6.233
 8785SOL     OW27253   5.989   4.850   6.939
 8785SOL    HW127254   5.893   4.867   6.918
 8785SOL    HW227255   5.996   4.790   7.018
 8786SOL     OW27256   2.622   1.258   0.612
 8786SOL    HW127257   2.706   1.294   0.652
 8786SOL    HW227258   2.586   1.185   0.670
 8787SOL     OW27259   3.025   1.353   2.128
 8787SOL    HW127260   3.093   1.402   2.182
 8787SOL    HW227261   2.949   1.414   2.107
 8788SOL     OW27262   0.312   0.714   5.465
 8788SOL    HW127263   0.402   0.686   5.431
 8788SOL    HW227264   0.277   0.643   5.526
 8789SOL     OW27265   6.375   5.287   5.574
 8789SOL    HW127266   6.302   5.272   5.508
 8789SOL    HW227267   6.389   5.204   5.628
 8790SOL     OW27268   6.172   0.404   6.563
 8790SOL    HW127269   6.135   0.311   6.562
 8790SOL    HW227270   6.237   0.413   6.639
 8791SOL     OW27271   5.775   6.774   5.146
 8791SOL    HW127272   5.777   6.864   5.190
 8791SOL    HW227273   5.862   6.727   5.164
 8792SOL     OW27274   2.990   5.130   3.069
 8792SOL    HW127275   3.071   5.157   3.120
 8792SOL    HW227276   2.994   5.168   2.976
 8793SOL     OW27277   0.787   4.585   2.225
 8793SOL    HW127278   0.694   4.575   2.189
 8793SOL    HW227279   0.831   4.664   2.182
 8794SOL     OW27280   5.314   0.169   2.705
 8794SOL    HW127281   5.295   0.141   2.798
 8794SOL    HW227282   5.374   0.102   2.661
 8795SOL     OW27283   1.128   4.756   5.592
 8795SOL    HW127284   1.209   4.815   5.588
 8795SOL    HW227285   1.155   4.660   5.590
 8796SOL     OW27286   5.017   2.239   3.710
 8796SOL    HW127287   5.014   2.206   3.616
 8796SOL    HW227288   4.959   2.182   3.768
 8797SOL     OW27289   0.146   0.498   6.308
 8797SOL    HW127290   0.055   0.530   6.284
 8797SOL    HW227291   0.206   0.507   6.228
 8798SOL     OW27292   4.867   6.359   6.469
 8798SOL    HW127293   4.862   6.458   6.467
 8798SOL    HW227294   4.810   6.321   6.396
 8799SOL     OW27295   2.320   5.103   3.629
 8799SOL    HW127296   2.280   5.173   3.570
 8799SOL    HW227297   2.410   5.133   3.661
 8800SOL     OW27298   5.915   4.679   6.001
 8800SOL    HW127299   5.904   4.680   5.901
 8800SOL    HW227300   6.013   4.676   6.023
 8801SOL     OW27301   6.834   1.390   4.614
 8801SOL    HW127302   6.846   1.350   4.705
 8801SOL    HW227303   6.743   1.429   4.607
 8802SOL     OW27304   1.899   6.272   6.447
 8802SOL    HW127305   1.870   6.364   6.473
 8802SOL    HW227306   1.847   6.204   6.499
 8803SOL     OW27307   6.751   6.988   0.088
 8803SOL    HW127308   6.658   7.021   0.072
 8803SOL    HW227309   6.755   6.941   0.176
 8804SOL     OW27310   2.265   6.470   1.122
 8804SOL    HW127311   2.246   6.382   1.163
 8804SOL    HW227312   2.333   6.519   1.177
 8805SOL     OW27313   3.672   6.376   3.332
 8805SOL    HW127314   3.745   6.380   3.265
 8805SOL    HW227315   3.699   6.426   3.414
 8806SOL     OW27316   3.292   4.636   0.769
 8806SOL    HW127317   3.368   4.648   0.833
 8806SOL    HW227318   3.321   4.580   0.691
 8807SOL     OW27319   5.090   1.546   0.602
 8807SOL    HW127320   5.018   1.616   0.599
 8807SOL    HW227321   5.087   1.492   0.518
 8808SOL     OW27322   6.481   2.628   6.468
 8808SOL    HW127323   6.505   2.539   6.430
 8808SOL    HW227324   6.385   2.648   6.447
 8809SOL     OW27325   3.246   5.021   4.181
 8809SOL    HW127326   3.276   5.059   4.093
 8809SOL    HW227327   3.159   4.974   4.168
 8810SOL     OW27328   6.152   0.406   5.224
 8810SOL    HW127329   6.107   0.383   5.310
 8810SOL    HW227330   6.158   0.505   5.215
 8811SOL     OW27331   3.568   1.175   3.190
 8811SOL    HW127332   3.557   1.079   3.167
 8811SOL    HW227333   3.501   1.230   3.139
 8812SOL     OW27334   1.828   0.614   0.876
 8812SOL    HW127335   1.737   0.588   0.908
 8812SOL    HW227336   1.819   0.684   0.805
 8813SOL     OW27337   2.135   5.788   3.341
 8813SOL    HW127338   2.067   5.825   3.405
 8813SOL    HW227339   2.227   5.810   3.374
 8814SOL     OW27340   6.604   7.019   0.535
 8814SOL    HW127341   6.545   6.949   0.574
 8814SOL    HW227342   6.551   0.081   0.520
 8815SOL     OW27343   5.151   6.879   1.467
 8815SOL    HW127344   5.104   6.857   1.552
 8815SOL    HW227345   5.245   6.847   1.472
 8816SOL     OW27346   0.893   6.689   7.018
 8816SOL    HW127347   0.990   6.674   6.997
 8816SOL    HW227348   0.880   6.784   0.026
 8817SOL     OW27349   6.897   4.027   4.037
 8817SOL    HW127350   6.859   3.934   4.030
 8817SOL    HW227351   6.984   4.023   4.086
 8818SOL     OW27352   0.880   5.455   3.785
 8818SOL    HW127353   0.929   5.531   3.828
 8818SOL    HW227354   0.795   5.488   3.745
 8819SOL     OW27355   5.444   5.350   5.357
 8819SOL    HW127356   5.464   5.357   5.454
 8819SOL    HW227357   5.451   5.254   5.328
 8820SOL     OW27358   2.680   0.720   5.608
 8820SOL    HW127359   2.684   0.655   5.683
 8820SOL    HW227360   2.634   0.803   5.638
 8821SOL     OW27361   1.996   5.755   0.661
 8821SOL    HW127362   1.937   5.678   0.686
 8821SOL    HW227363   1.951   5.841   0.688
 8822SOL     OW27364   1.241   0.950   3.851
 8822SOL    HW127365   1.267   1.037   3.893
 8822SOL    HW227366   1.206   0.967   3.759
 8823SOL     OW27367   2.837   0.892   2.306
 8823SOL    HW127368   2.926   0.882   2.351
 8823SOL    HW227369   2.840   0.970   2.243
 8824SOL     OW27370   1.597   1.222   0.175
 8824SOL    HW127371   1.516   1.244   0.121
 8824SOL    HW227372   1.569   1.173   0.258
 8825SOL     OW27373   1.580   0.972   2.293
 8825SOL    HW127374   1.589   0.994   2.391
 8825SOL    HW227375   1.509   0.902   2.281
 8826SOL     OW27376   0.979   3.738   0.385
 8826SOL    HW127377   0.919   3.817   0.394
 8826SOL    HW227378   0.937   3.658   0.427
 8827SOL     OW27379   4.346   0.222   3.077
 8827SOL    HW127380   4.324   0.180   3.165
 8827SOL    HW227381   4.432   0.185   3.042
 8828SOL     OW27382   3.782   5.115   6.460
 8828SOL    HW127383   3.802   5.065   6.544
 8828SOL    HW227384   3.720   5.062   6.403
 8829SOL     OW27385   5.430   2.172   1.031
 8829SOL    HW127386   5.463   2.130   1.115
 8829SOL    HW227387   5.360   2.113   0.990
 8830SOL     OW27388   2.257   1.875   2.224
 8830SOL    HW127389   2.221   1.960   2.261
 8830SOL    HW227390   2.357   1.879   2.224
 8831SOL     OW27391   5.298   2.648   3.597
 8831SOL    HW127392   5.325   2.552   3.609
 8831SOL    HW227393   5.238   2.656   3.517
 8832SOL     OW27394   6.925   6.413   3.711
 8832SOL    HW127395   7.014   6.458   3.709
 8832SOL    HW227396   6.872   6.449   3.788
 8833SOL     OW27397   2.568   5.200   6.432
 8833SOL    HW127398   2.554   5.210   6.530
 8833SOL    HW227399   2.581   5.103   6.410
 8834SOL     OW27400   5.887   3.633   4.485
 8834SOL    HW127401   5.840   3.674   4.563
 8834SOL    HW227402   5.897   3.702   4.413
 8835SOL     OW27403   5.251   0.880   5.885
 8835SOL    HW127404   5.334   0.926   5.854
 8835SOL    HW227405   5.173   0.910   5.830
 8836SOL     OW27406   5.295   2.078   0.780
 8836SOL    HW127407   5.279   2.169   0.819
 8836SOL    HW227408   5.293   2.009   0.853
 8837SOL     OW27409   0.047   6.773   2.615
 8837SOL    HW127410   0.110   6.696   2.609
 8837SOL    HW227411   0.013   6.781   2.708
 8838SOL     OW27412   1.842   4.711   3.710
 8838SOL    HW127413   1.914   4.744   3.772
 8838SOL    HW227414   1.760   4.767   3.721
 8839SOL     OW27415   4.327   5.872   1.693
 8839SOL    HW127416   4.348   5.868   1.790
 8839SOL    HW227417   4.249   5.813   1.673
 8840SOL     OW27418   6.778   0.545   2.622
 8840SOL    HW127419   6.764   0.474   2.691
 8840SOL    HW227420   6.714   0.531   2.547
 8841SOL     OW27421   0.447   1.475   4.715
 8841SOL    HW127422   0.542   1.481   4.745
 8841SOL    HW227423   0.441   1.499   4.618
 8842SOL     OW27424   3.203   3.034   3.482
 8842SOL    HW127425   3.198   2.970   3.558
 8842SOL    HW227426   3.246   2.990   3.403
 8843SOL     OW27427   1.621   3.329   4.366
 8843SOL    HW127428   1.587   3.395   4.299
 8843SOL    HW227429   1.706   3.289   4.333
 8844SOL     OW27430   0.031   1.690   4.960
 8844SOL    HW127431   0.033   1.676   5.059
 8844SOL    HW227432   0.103   1.754   4.934
 8845SOL     OW27433   2.679   3.597   1.317
 8845SOL    HW127434   2.598   3.563   1.365
 8845SOL    HW227435   2.738   3.645   1.382
 8846SOL     OW27436   3.670   4.942   4.760
 8846SOL    HW127437   3.580   4.926   4.722
 8846SOL    HW227438   3.685   5.040   4.771
 8847SOL     OW27439   2.713   0.961   2.891
 8847SOL    HW127440   2.749   0.936   2.801
 8847SOL    HW227441   2.619   0.994   2.882
 8848SOL     OW27442   2.728   2.318   2.351
 8848SOL    HW127443   2.637   2.361   2.345
 8848SOL    HW227444   2.773   2.325   2.262
 8849SOL     OW27445   3.666   5.699   3.768
 8849SOL    HW127446   3.648   5.612   3.814
 8849SOL    HW227447   3.591   5.720   3.705
 8850SOL     OW27448   2.078   1.013   6.563
 8850SOL    HW127449   1.998   0.964   6.529
 8850SOL    HW227450   2.049   1.094   6.613
 8851SOL     OW27451   0.849   4.974   2.340
 8851SOL    HW127452   0.842   4.883   2.380
 8851SOL    HW227453   0.923   5.024   2.383
 8852SOL     OW27454   4.247   3.896   5.984
 8852SOL    HW127455   4.273   3.978   6.036
 8852SOL    HW227456   4.318   3.827   5.994
 8853SOL     OW27457   3.726   1.037   6.363
 8853SOL    HW127458   3.796   0.967   6.351
 8853SOL    HW227459   3.685   1.028   6.454
 8854SOL     OW27460   2.937   1.794   6.181
 8854SOL    HW127461   2.941   1.885   6.222
 8854SOL    HW227462   3.026   1.770   6.143
 8855SOL     OW27463   6.868   6.313   0.181
 8855SOL    HW127464   6.780   6.268   0.166
 8855SOL    HW227465   6.933   6.247   0.219
 8856SOL     OW27466   6.148   0.596   6.361
 8856SOL    HW127467   6.227   0.656   6.373
 8856SOL    HW227468   6.150   0.524   6.430
 8857SOL     OW27469   6.669   2.095   3.805
 8857SOL    HW127470   6.734   2.132   3.872
 8857SOL    HW227471   6.587   2.152   3.802
 8858SOL     OW27472   1.515   2.671   5.185
 8858SOL    HW127473   1.596   2.658   5.243
 8858SOL    HW227474   1.517   2.762   5.144
 8859SOL     OW27475   6.401   0.770   4.216
 8859SOL    HW127476   6.337   0.816   4.155
 8859SOL    HW227477   6.416   0.676   4.184
 8860SOL     OW27478   0.751   3.169   2.928
 8860SOL    HW127479   0.824   3.129   2.873
 8860SOL    HW227480   0.692   3.097   2.964
 8861SOL     OW27481   3.733   1.782   6.127
 8861SOL    HW127482   3.739   1.814   6.221
 8861SOL    HW227483   3.707   1.685   6.126
 8862SOL     OW27484   6.470   0.192   3.322
 8862SOL    HW127485   6.387   0.182   3.266
 8862SOL    HW227486   6.474   0.117   3.388
 8863SOL     OW27487   1.430   5.557   4.181
 8863SOL    HW127488   1.376   5.528   4.101
 8863SOL    HW227489   1.368   5.578   4.256
 8864SOL     OW27490   3.236   3.183   6.049
 8864SOL    HW127491   3.322   3.135   6.031
 8864SOL    HW227492   3.247   3.280   6.028
 8865SOL     OW27493   2.908   1.861   5.783
 8865SOL    HW127494   2.810   1.877   5.793
 8865SOL    HW227495   2.932   1.774   5.825
 8866SOL     OW27496   5.519   6.864   3.404
 8866SOL    HW127497   5.596   6.913   3.363
 8866SOL    HW227498   5.552   6.779   3.445
 8867SOL     OW27499   5.196   3.418   2.158
 8867SOL    HW127500   5.102   3.402   2.128
 8867SOL    HW227501   5.199   3.424   2.258
 8868SOL     OW27502   6.509   2.753   0.447
 8868SOL    HW127503   6.423   2.800   0.467
 8868SOL    HW227504   6.585   2.807   0.483
 8869SOL     OW27505   4.205   5.819   4.515
 8869SOL    HW127506   4.182   5.879   4.438
 8869SOL    HW227507   4.302   5.795   4.510
 8870SOL     OW27508   4.403   0.374   0.041
 8870SOL    HW127509   4.317   0.389   7.015
 8870SOL    HW227510   4.476   0.354   6.997
 8871SOL     OW27511   1.360   0.461   3.984
 8871SOL    HW127512   1.342   0.370   4.022
 8871SOL    HW227513   1.278   0.496   3.938
 8872SOL     OW27514   1.718   4.787   5.195
 8872SOL    HW127515   1.642   4.725   5.176
 8872SOL    HW227516   1.778   4.791   5.115
 8873SOL     OW27517   0.785   5.715   2.433
 8873SOL    HW127518   0.833   5.659   2.367
 8873SOL    HW227519   0.707   5.760   2.388
 8874SOL     OW27520   3.291   6.075   1.734
 8874SOL    HW127521   3.290   6.157   1.792
 8874SOL    HW227522   3.283   6.103   1.638
 8875SOL     OW27523   6.115   3.617   4.844
 8875SOL    HW127524   6.173   3.645   4.767
 8875SOL    HW227525   6.170   3.618   4.928
 8876SOL     OW27526   1.708   0.153   4.562
 8876SOL    HW127527   1.697   0.228   4.497
 8876SOL    HW227528   1.752   0.076   4.517
 8877SOL     OW27529   3.158   0.632   3.794
 8877SOL    HW127530   3.130   0.643   3.889
 8877SOL    HW227531   3.201   0.716   3.762
 8878SOL     OW27532   6.431   5.225   6.995
 8878SOL    HW127533   6.353   5.202   6.937
 8878SOL    HW227534   6.494   5.284   6.944
 8879SOL     OW27535   5.076   4.344   1.684
 8879SOL    HW127536   4.982   4.330   1.715
 8879SOL    HW227537   5.131   4.379   1.760
 8880SOL     OW27538   6.069   5.668   4.501
 8880SOL    HW127539   6.128   5.743   4.531
 8880SOL    HW227540   6.035   5.619   4.581
 8881SOL     OW27541   6.789   0.118   4.384
 8881SOL    HW127542   6.781   0.193   4.449
 8881SOL    HW227543   6.772   0.031   4.431
 8882SOL     OW27544   5.368   1.317   0.743
 8882SOL    HW127545   5.451   1.341   0.694
 8882SOL    HW227546   5.328   1.400   0.783
 8883SOL     OW27547   2.304   6.707   6.086
 8883SOL    HW127548   2.271   6.757   6.166
 8883SOL    HW227549   2.230   6.697   6.019
 8884SOL     OW27550   5.909   4.205   6.392
 8884SOL    HW127551   5.879   4.110   6.383
 8884SOL    HW227552   5.873   4.244   6.477
 8885SOL     OW27553   0.317   3.149   0.688
 8885SOL    HW127554   0.307   3.091   0.769
 8885SOL    HW227555   0.306   3.094   0.605
 8886SOL     OW27556   3.311   6.096   4.954
 8886SOL    HW127557   3.335   6.193   4.956
 8886SOL    HW227558   3.325   6.057   5.045
 8887SOL     OW27559   3.192   1.708   1.410
 8887SOL    HW127560   3.240   1.623   1.431
 8887SOL    HW227561   3.094   1.696   1.429
 8888SOL     OW27562   1.587   1.539   6.957
 8888SOL    HW127563   1.570   1.458   6.901
 8888SOL    HW227564   1.506   1.558   7.013
 8889SOL     OW27565   6.015   0.418   5.457
 8889SOL    HW127566   5.973   0.507   5.471
 8889SOL    HW227567   6.001   0.361   5.539
 8890SOL     OW27568   6.556   5.489   4.240
 8890SOL    HW127569   6.610   5.463   4.160
 8890SOL    HW227570   6.462   5.458   4.230
 8891SOL     OW27571   5.304   3.348   5.751
 8891SOL    HW127572   5.403   3.354   5.756
 8891SOL    HW227573   5.276   3.252   5.763
 8892SOL     OW27574   3.831   5.633   3.389
 8892SOL    HW127575   3.769   5.591   3.455
 8892SOL    HW227576   3.803   5.728   3.373
 8893SOL     OW27577   1.103   6.172   3.657
 8893SOL    HW127578   1.113   6.177   3.558
 8893SOL    HW227579   1.021   6.223   3.685
 8894SOL     OW27580   4.549   2.514   6.010
 8894SOL    HW127581   4.467   2.536   6.063
 8894SOL    HW227582   4.599   2.597   5.989
 8895SOL     OW27583   7.007   2.000   2.206
 8895SOL    HW127584   6.934   2.066   2.226
 8895SOL    HW227585   6.974   1.908   2.224
 8896SOL     OW27586   2.037   3.375   5.568
 8896SOL    HW127587   1.950   3.388   5.521
 8896SOL    HW227588   2.040   3.284   5.609
 8897SOL     OW27589   2.160   2.932   3.244
 8897SOL    HW127590   2.205   2.922   3.332
 8897SOL    HW227591   2.137   3.028   3.228
 8898SOL     OW27592   5.219   3.886   3.271
 8898SOL    HW127593   5.282   3.827   3.320
 8898SOL    HW227594   5.231   3.981   3.301
 8899SOL     OW27595   2.308   5.050   0.969
 8899SOL    HW127596   2.247   4.972   0.951
 8899SOL    HW227597   2.400   5.028   0.934
 8900SOL     OW27598   6.136   3.245   2.374
 8900SOL    HW127599   6.136   3.297   2.459
 8900SOL    HW227600   6.229   3.214   2.354
 8901SOL     OW27601   1.724   1.099   4.455
 8901SOL    HW127602   1.750   1.185   4.411
 8901SOL    HW227603   1.771   1.090   4.542
 8902SOL     OW27604   2.454   0.148   0.819
 8902SOL    HW127605   2.362   0.135   0.858
 8902SOL    HW227606   2.448   0.209   0.740
 8903SOL     OW27607   1.117   1.384   4.672
 8903SOL    HW127608   1.124   1.307   4.609
 8903SOL    HW227609   1.032   1.433   4.657
 8904SOL     OW27610   5.526   6.132   3.869
 8904SOL    HW127611   5.458   6.162   3.802
 8904SOL    HW227612   5.582   6.211   3.896
 8905SOL     OW27613   1.779   4.483   3.573
 8905SOL    HW127614   1.814   4.397   3.610
 8905SOL    HW227615   1.799   4.557   3.636
 8906SOL     OW27616   0.035   6.532   0.158
 8906SOL    HW127617   7.020   6.438   0.152
 8906SOL    HW227618   0.121   6.531   0.208
 8907SOL     OW27619   3.164   2.188   4.547
 8907SOL    HW127620   3.171   2.137   4.461
 8907SOL    HW227621   3.255   2.217   4.576
 8908SOL     OW27622   0.832   3.706   6.716
 8908SOL    HW127623   0.801   3.668   6.803
 8908SOL    HW227624   0.770   3.780   6.688
 8909SOL     OW27625   2.368   0.906   5.488
 8909SOL    HW127626   2.424   0.970   5.435
 8909SOL    HW227627   2.281   0.891   5.441
 8910SOL     OW27628   0.303   2.942   5.894
 8910SOL    HW127629   0.257   3.030   5.908
 8910SOL    HW227630   0.385   2.938   5.951
 8911SOL     OW27631   4.224   2.224   4.910
 8911SOL    HW127632   4.280   2.196   4.832
 8911SOL    HW227633   4.242   2.319   4.932
 8912SOL     OW27634   3.837   2.953   0.376
 8912SOL    HW127635   3.750   2.993   0.345
 8912SOL    HW227636   3.833   2.854   0.364
 8913SOL     OW27637   4.742   5.177   6.212
 8913SOL    HW127638   4.658   5.177   6.158
 8913SOL    HW227639   4.800   5.253   6.184
 8914SOL     OW27640   4.002   6.804   4.341
 8914SOL    HW127641   3.953   6.891   4.340
 8914SOL    HW227642   3.992   6.761   4.430
 8915SOL     OW27643   0.399   2.867   3.775
 8915SOL    HW127644   0.320   2.925   3.752
 8915SOL    HW227645   0.390   2.779   3.728
 8916SOL     OW27646   0.255   3.644   0.563
 8916SOL    HW127647   0.315   3.694   0.626
 8916SOL    HW227648   0.186   3.595   0.616
 8917SOL     OW27649   6.721   3.654   6.659
 8917SOL    HW127650   6.662   3.701   6.594
 8917SOL    HW227651   6.673   3.640   6.745
 8918SOL     OW27652   6.673   3.760   1.327
 8918SOL    HW127653   6.638   3.850   1.302
 8918SOL    HW227654   6.609   3.690   1.296
 8919SOL     OW27655   3.931   4.387   0.284
 8919SOL    HW127656   3.890   4.441   0.357
 8919SOL    HW227657   3.912   4.430   0.196
 8920SOL     OW27658   0.596   0.303   0.397
 8920SOL    HW127659   0.610   0.393   0.356
 8920SOL    HW227660   0.501   0.274   0.384
 8921SOL     OW27661   2.086   2.169   2.627
 8921SOL    HW127662   2.055   2.087   2.676
 8921SOL    HW227663   2.075   2.249   2.686
 8922SOL     OW27664   3.441   5.045   1.315
 8922SOL    HW127665   3.540   5.047   1.329
 8922SOL    HW227666   3.404   4.958   1.347
 8923SOL     OW27667   1.717   3.454   6.327
 8923SOL    HW127668   1.770   3.409   6.255
 8923SOL    HW227669   1.706   3.391   6.403
 8924SOL     OW27670   3.285   5.987   5.798
 8924SOL    HW127671   3.206   5.975   5.857
 8924SOL    HW227672   3.365   5.944   5.840
 8925SOL     OW27673   0.950   1.061   2.471
 8925SOL    HW127674   0.923   0.966   2.486
 8925SOL    HW227675   1.049   1.066   2.463
 8926SOL     OW27676   6.383   3.904   5.867
 8926SOL    HW127677   6.314   3.865   5.807
 8926SOL    HW227678   6.420   3.832   5.927
 8927SOL     OW27679   1.120   1.666   4.186
 8927SOL    HW127680   1.042   1.681   4.124
 8927SOL    HW227681   1.188   1.609   4.141
 8928SOL     OW27682   0.078   0.780   6.114
 8928SOL    HW127683   0.177   0.783   6.124
 8928SOL    HW227684   0.040   0.711   6.175
 8929SOL     OW27685   6.184   3.572   4.370
 8929SOL    HW127686   6.119   3.608   4.304
 8929SOL    HW227687   6.150   3.485   4.407
 8930SOL     OW27688   1.478   4.120   3.901
 8930SOL    HW127689   1.412   4.050   3.874
 8930SOL    HW227690   1.569   4.079   3.905
 8931SOL     OW27691   3.172   3.020   1.097
 8931SOL    HW127692   3.187   2.929   1.134
 8931SOL    HW227693   3.074   3.035   1.084
 8932SOL     OW27694   5.687   0.448   1.065
 8932SOL    HW127695   5.686   0.390   0.984
 8932SOL    HW227696   5.617   0.519   1.056
 8933SOL     OW27697   1.743   3.045   6.193
 8933SOL    HW127698   1.657   3.096   6.188
 8933SOL    HW227699   1.800   3.084   6.265
 8934SOL     OW27700   3.179   4.900   4.491
 8934SOL    HW127701   3.141   4.990   4.510
 8934SOL    HW227702   3.201   4.892   4.394
 8935SOL     OW27703   6.113   3.944   1.060
 8935SOL    HW127704   6.108   4.038   1.092
 8935SOL    HW227705   6.144   3.885   1.135
 8936SOL     OW27706   1.293   3.279   1.726
 8936SOL    HW127707   1.363   3.295   1.657
 8936SOL    HW227708   1.314   3.195   1.776
 8937SOL     OW27709   0.286   0.025   4.903
 8937SOL    HW127710   0.337   6.967   4.872
 8937SOL    HW227711   0.283   0.027   5.003
 8938SOL     OW27712   0.058   1.481   0.489
 8938SOL    HW127713   0.102   1.402   0.532
 8938SOL    HW227714   0.037   1.460   0.394
 8939SOL     OW27715   5.946   4.164   4.408
 8939SOL    HW127716   5.850   4.156   4.379
 8939SOL    HW227717   5.952   4.142   4.505
 8940SOL     OW27718   5.502   1.034   1.320
 8940SOL    HW127719   5.544   1.114   1.277
 8940SOL    HW227720   5.428   1.064   1.380
 8941SOL     OW27721   6.299   2.563   3.538
 8941SOL    HW127722   6.245   2.485   3.505
 8941SOL    HW227723   6.394   2.551   3.512
 8942SOL     OW27724   0.470   5.542   5.951
 8942SOL    HW127725   0.535   5.467   5.935
 8942SOL    HW227726   0.460   5.596   5.868
 8943SOL     OW27727   3.859   5.599   0.309
 8943SOL    HW127728   3.784   5.655   0.274
 8943SOL    HW227729   3.829   5.553   0.393
 8944SOL     OW27730   5.204   6.053   4.207
 8944SOL    HW127731   5.220   5.965   4.252
 8944SOL    HW227732   5.290   6.103   4.200
 8945SOL     OW27733   0.211   1.367   3.744
 8945SOL    HW127734   0.162   1.368   3.657
 8945SOL    HW227735   0.190   1.450   3.795
 8946SOL     OW27736   4.020   0.408   4.179
 8946SOL    HW127737   4.031   0.507   4.184
 8946SOL    HW227738   4.077   0.371   4.105
 8947SOL     OW27739   2.592   3.280   5.854
 8947SOL    HW127740   2.627   3.264   5.761
 8947SOL    HW227741   2.493   3.265   5.855
 8948SOL     OW27742   5.951   5.948   3.450
 8948SOL    HW127743   5.917   5.854   3.459
 8948SOL    HW227744   6.010   5.954   3.370
 8949SOL     OW27745   3.924   6.180   0.778
 8949SOL    HW127746   3.956   6.086   0.763
 8949SOL    HW227747   3.826   6.185   0.757
 8950SOL     OW27748   3.475   3.137   0.525
 8950SOL    HW127749   3.553   3.089   0.567
 8950SOL    HW227750   3.495   3.152   0.428
 8951SOL     OW27751   2.303   1.246   4.519
 8951SOL    HW127752   2.234   1.218   4.587
 8951SOL    HW227753   2.257   1.280   4.437
 8952SOL     OW27754   0.426   4.954   3.432
 8952SOL    HW127755   0.343   4.945   3.488
 8952SOL    HW227756   0.447   5.051   3.419
 8953SOL     OW27757   0.671   4.182   0.789
 8953SOL    HW127758   0.752   4.213   0.839
 8953SOL    HW227759   0.700   4.123   0.714
 8954SOL     OW27760   6.625   0.537   4.466
 8954SOL    HW127761   6.697   0.482   4.508
 8954SOL    HW227762   6.647   0.634   4.478
 8955SOL     OW27763   6.715   4.744   3.314
 8955SOL    HW127764   6.796   4.779   3.362
 8955SOL    HW227765   6.730   4.749   3.215
 8956SOL     OW27766   1.921   1.229   5.758
 8956SOL    HW127767   1.983   1.299   5.794
 8956SOL    HW227768   1.913   1.239   5.659
 8957SOL     OW27769   1.955   4.543   1.236
 8957SOL    HW127770   1.877   4.496   1.195
 8957SOL    HW227771   1.972   4.506   1.327
 8958SOL     OW27772   0.995   2.482   5.580
 8958SOL    HW127773   1.057   2.553   5.614
 8958SOL    HW227774   1.026   2.450   5.491
 8959SOL     OW27775   1.922   4.283   3.192
 8959SOL    HW127776   1.845   4.347   3.199
 8959SOL    HW227777   1.993   4.310   3.257
 8960SOL     OW27778   5.294   5.801   4.297
 8960SOL    HW127779   5.218   5.769   4.353
 8960SOL    HW227780   5.277   5.778   4.201
 8961SOL     OW27781   3.751   1.344   3.634
 8961SOL    HW127782   3.789   1.254   3.655
 8961SOL    HW227783   3.791   1.412   3.695
 8962SOL     OW27784   6.330   5.246   2.421
 8962SOL    HW127785   6.394   5.169   2.427
 8962SOL    HW227786   6.307   5.263   2.325
 8963SOL     OW27787   3.938   6.911   4.740
 8963SOL    HW127788   3.950   6.817   4.708
 8963SOL    HW227789   3.907   6.909   4.835
 8964SOL     OW27790   5.998   2.793   2.988
 8964SOL    HW127791   6.005   2.892   3.001
 8964SOL    HW227792   6.050   2.766   2.907
 8965SOL     OW27793   2.701   5.383   0.130
 8965SOL    HW127794   2.728   5.348   0.040
 8965SOL    HW227795   2.627   5.327   0.166
 8966SOL     OW27796   6.346   4.191   0.316
 8966SOL    HW127797   6.438   4.210   0.351
 8966SOL    HW227798   6.311   4.272   0.269
 8967SOL     OW27799   3.607   0.687   1.720
 8967SOL    HW127800   3.531   0.640   1.673
 8967SOL    HW227801   3.693   0.641   1.697
 8968SOL     OW27802   4.561   5.827   2.659
 8968SOL    HW127803   4.541   5.729   2.653
 8968SOL    HW227804   4.476   5.879   2.645
 8969SOL     OW27805   0.340   0.260   3.775
 8969SOL    HW127806   0.439   0.260   3.757
 8969SOL    HW227807   0.298   0.181   3.731
 8970SOL     OW27808   2.320   2.762   6.620
 8970SOL    HW127809   2.290   2.840   6.565
 8970SOL    HW227810   2.269   2.762   6.707
 8971SOL     OW27811   5.841   5.235   0.579
 8971SOL    HW127812   5.775   5.288   0.526
 8971SOL    HW227813   5.912   5.297   0.615
 8972SOL     OW27814   4.321   3.780   0.873
 8972SOL    HW127815   4.318   3.680   0.874
 8972SOL    HW227816   4.373   3.813   0.951
 8973SOL     OW27817   6.574   3.402   3.341
 8973SOL    HW127818   6.607   3.497   3.340
 8973SOL    HW227819   6.651   3.339   3.333
 8974SOL     OW27820   1.615   3.206   4.037
 8974SOL    HW127821   1.632   3.115   4.000
 8974SOL    HW227822   1.671   3.273   3.989
 8975SOL     OW27823   0.899   6.687   6.716
 8975SOL    HW127824   0.860   6.667   6.806
 8975SOL    HW227825   0.835   6.743   6.664
 8976SOL     OW27826   6.732   5.477   0.157
 8976SOL    HW127827   6.662   5.466   0.228
 8976SOL    HW227828   6.743   5.574   0.136
 8977SOL     OW27829   6.335   3.003   6.450
 8977SOL    HW127830   6.334   2.945   6.369
 8977SOL    HW227831   6.378   3.091   6.428
 8978SOL     OW27832   5.412   6.735   4.301
 8978SOL    HW127833   5.448   6.828   4.290
 8978SOL    HW227834   5.312   6.738   4.300
 8979SOL     OW27835   1.003   4.892   6.227
 8979SOL    HW127836   0.985   4.947   6.145
 8979SOL    HW227837   0.918   4.847   6.256
 8980SOL     OW27838   4.740   2.704   5.843
 8980SOL    HW127839   4.792   2.788   5.860
 8980SOL    HW227840   4.759   2.671   5.750
 8981SOL     OW27841   4.571   1.770   5.349
 8981SOL    HW127842   4.505   1.827   5.300
 8981SOL    HW227843   4.542   1.760   5.444
 8982SOL     OW27844   0.961   1.363   1.657
 8982SOL    HW127845   0.959   1.377   1.558
 8982SOL    HW227846   0.904   1.432   1.701
 8983SOL     OW27847   0.451   5.864   0.096
 8983SOL    HW127848   0.419   5.855   0.191
 8983SOL    HW227849   0.459   5.961   0.072
 8984SOL     OW27850   5.798   6.097   4.013
 8984SOL    HW127851   5.724   6.032   4.031
 8984SOL    HW227852   5.765   6.169   3.952
 8985SOL     OW27853   2.160   1.886   0.493
 8985SOL    HW127854   2.198   1.799   0.460
 8985SOL    HW227855   2.227   1.933   0.550
 8986SOL     OW27856   4.364   5.049   2.630
 8986SOL    HW127857   4.413   4.968   2.663
 8986SOL    HW227858   4.269   5.024   2.611
 8987SOL     OW27859   3.362   0.412   1.332
 8987SOL    HW127860   3.448   0.360   1.333
 8987SOL    HW227861   3.382   0.508   1.313
 8988SOL     OW27862   1.807   4.495   0.447
 8988SOL    HW127863   1.820   4.502   0.348
 8988SOL    HW227864   1.722   4.447   0.466
 8989SOL     OW27865   4.767   4.175   2.045
 8989SOL    HW127866   4.683   4.227   2.028
 8989SOL    HW227867   4.753   4.080   2.018
 8990SOL     OW27868   2.278   5.679   1.793
 8990SOL    HW127869   2.374   5.653   1.782
 8990SOL    HW227870   2.242   5.643   1.878
 8991SOL     OW27871   2.270   1.293   0.310
 8991SOL    HW127872   2.306   1.293   0.403
 8991SOL    HW227873   2.239   1.201   0.286
 8992SOL     OW27874   6.937   2.684   6.469
 8992SOL    HW127875   6.908   2.769   6.426
 8992SOL    HW227876   6.878   2.666   6.549
 8993SOL     OW27877   4.645   2.643   2.624
 8993SOL    HW127878   4.547   2.663   2.619
 8993SOL    HW227879   4.697   2.728   2.610
 8994SOL     OW27880   0.724   5.973   4.489
 8994SOL    HW127881   0.763   6.064   4.499
 8994SOL    HW227882   0.775   5.909   4.546
 8995SOL     OW27883   1.189   2.536   5.810
 8995SOL    HW127884   1.200   2.545   5.909
 8995SOL    HW227885   1.220   2.445   5.781
 8996SOL     OW27886   6.956   4.767   2.140
 8996SOL    HW127887   0.027   4.764   2.178
 8996SOL    HW227888   6.952   4.711   2.057
 8997SOL     OW27889   4.040   1.665   6.328
 8997SOL    HW127890   4.009   1.593   6.266
 8997SOL    HW227891   4.044   1.752   6.279
 8998SOL     OW27892   0.493   3.345   4.056
 8998SOL    HW127893   0.420   3.325   4.121
 8998SOL    HW227894   0.552   3.417   4.095
 8999SOL     OW27895   4.789   0.277   6.941
 8999SOL    HW127896   4.831   0.191   6.913
 8999SOL    HW227897   4.787   0.282   0.020
 9000SOL     OW27898   2.499   4.138   6.305
 9000SOL    HW127899   2.461   4.230   6.314
 9000SOL    HW227900   2.596   4.144   6.282
 9001SOL     OW27901   0.802   5.409   2.885
 9001SOL    HW127902   0.834   5.338   2.823
 9001SOL    HW227903   0.707   5.431   2.865
 9002SOL     OW27904   0.092   5.000   5.078
 9002SOL    HW127905   0.098   4.933   5.004
 9002SOL    HW227906   0.052   5.085   5.043
 9003SOL     OW27907   5.515   2.465   1.052
 9003SOL    HW127908   5.474   2.374   1.050
 9003SOL    HW227909   5.557   2.480   1.141
 9004SOL     OW27910   4.502   6.801   1.609
 9004SOL    HW127911   4.464   6.730   1.550
 9004SOL    HW227912   4.545   6.871   1.553
 9005SOL     OW27913   5.793   1.567   4.270
 9005SOL    HW127914   5.767   1.657   4.234
 9005SOL    HW227915   5.891   1.553   4.259
 9006SOL     OW27916   2.149   5.939   0.082
 9006SOL    HW127917   2.206   5.954   0.002
 9006SOL    HW227918   2.060   5.902   0.053
 9007SOL     OW27919   3.956   6.024   3.706
 9007SOL    HW127920   4.013   6.098   3.743
 9007SOL    HW227921   3.868   6.024   3.753
 9008SOL     OW27922   6.376   5.027   2.813
 9008SOL    HW127923   6.448   5.061   2.753
 9008SOL    HW227924   6.398   4.935   2.844
 9009SOL     OW27925   2.263   0.168   0.577
 9009SOL    HW127926   2.333   0.115   0.529
 9009SOL    HW227927   2.172   0.139   0.547
 9010SOL     OW27928   1.095   6.824   4.896
 9010SOL    HW127929   1.109   6.818   4.798
 9010SOL    HW227930   1.128   6.741   4.940
 9011SOL     OW27931   4.170   1.803   2.038
 9011SOL    HW127932   4.210   1.893   2.055
 9011SOL    HW227933   4.120   1.804   1.952
 9012SOL     OW27934   3.238   4.395   0.951
 9012SOL    HW127935   3.254   4.448   1.034
 9012SOL    HW227936   3.211   4.457   0.877
 9013SOL     OW27937   6.587   6.416   4.253
 9013SOL    HW127938   6.550   6.340   4.306
 9013SOL    HW227939   6.520   6.447   4.187
 9014SOL     OW27940   0.991   0.881   0.488
 9014SOL    HW127941   1.022   0.861   0.582
 9014SOL    HW227942   1.069   0.913   0.434
 9015SOL     OW27943   6.032   1.277   0.888
 9015SOL    HW127944   5.978   1.357   0.861
 9015SOL    HW227945   6.124   1.284   0.851
 9016SOL     OW27946   0.602   6.492   6.748
 9016SOL    HW127947   0.579   6.576   6.700
 9016SOL    HW227948   0.520   6.454   6.790
 9017SOL     OW27949   4.952   2.636   2.085
 9017SOL    HW127950   4.892   2.558   2.103
 9017SOL    HW227951   4.916   2.717   2.132
 9018SOL     OW27952   4.394   1.179   5.378
 9018SOL    HW127953   4.408   1.272   5.412
 9018SOL    HW227954   4.341   1.127   5.446
 9019SOL     OW27955   0.345   0.490   1.002
 9019SOL    HW127956   0.274   0.482   1.072
 9019SOL    HW227957   0.393   0.577   1.013
 9020SOL     OW27958   1.326   4.057   1.659
 9020SOL    HW127959   1.325   3.959   1.642
 9020SOL    HW227960   1.309   4.075   1.756
 9021SOL     OW27961   6.712   0.565   3.795
 9021SOL    HW127962   6.711   0.469   3.825
 9021SOL    HW227963   6.669   0.573   3.706
 9022SOL     OW27964   2.762   1.026   1.242
 9022SOL    HW127965   2.859   1.049   1.238
 9022SOL    HW227966   2.748   0.949   1.304
 9023SOL     OW27967   3.187   3.079   2.713
 9023SOL    HW127968   3.239   3.164   2.702
 9023SOL    HW227969   3.105   3.082   2.657
 9024SOL     OW27970   0.802   5.522   5.508
 9024SOL    HW127971   0.884   5.474   5.476
 9024SOL    HW227972   0.737   5.530   5.432
 9025SOL     OW27973   0.197   6.001   0.428
 9025SOL    HW127974   0.136   5.990   0.507
 9025SOL    HW227975   0.271   5.935   0.434
 9026SOL     OW27976   3.710   3.203   2.077
 9026SOL    HW127977   3.685   3.278   2.138
 9026SOL    HW227978   3.730   3.239   1.986
 9027SOL     OW27979   1.756   1.915   3.144
 9027SOL    HW127980   1.723   1.945   3.054
 9027SOL    HW227981   1.696   1.953   3.215
 9028SOL     OW27982   2.622   3.409   6.649
 9028SOL    HW127983   2.631   3.499   6.605
 9028SOL    HW227984   2.537   3.366   6.618
 9029SOL     OW27985   3.298   5.690   5.362
 9029SOL    HW127986   3.223   5.705   5.297
 9029SOL    HW227987   3.319   5.592   5.367
 9030SOL     OW27988   2.241   0.802   3.389
 9030SOL    HW127989   2.275   0.754   3.470
 9030SOL    HW227990   2.161   0.754   3.352
 9031SOL     OW27991   4.806   5.555   5.157
 9031SOL    HW127992   4.727   5.517   5.108
 9031SOL    HW227993   4.774   5.601   5.240
 9032SOL     OW27994   3.154   3.314   0.843
 9032SOL    HW127995   3.197   3.312   0.933
 9032SOL    HW227996   3.107   3.227   0.826
 9033SOL     OW27997   2.416   4.349   3.597
 9033SOL    HW127998   2.375   4.440   3.602
 9033SOL    HW227999   2.462   4.329   3.684
 9034SOL     OW28000   3.225   0.167   4.669
 9034SOL    HW128001   3.169   0.111   4.609
 9034SOL    HW228002   3.183   0.173   4.759
 9035SOL     OW28003   1.393   5.947   5.902
 9035SOL    HW128004   1.329   5.899   5.842
 9035SOL    HW228005   1.475   5.973   5.850
 9036SOL     OW28006   1.717   0.792   4.781
 9036SOL    HW128007   1.736   0.706   4.827
 9036SOL    HW228008   1.618   0.800   4.765
 9037SOL     OW28009   1.465   4.108   5.634
 9037SOL    HW128010   1.484   4.039   5.703
 9037SOL    HW228011   1.551   4.141   5.594
 9038SOL     OW28012   4.255   0.385   5.558
 9038SOL    HW128013   4.291   0.430   5.640
 9038SOL    HW228014   4.301   0.297   5.545
 9039SOL     OW28015   2.265   4.723   4.619
 9039SOL    HW128016   2.328   4.646   4.611
 9039SOL    HW228017   2.238   4.753   4.527
 9040SOL     OW28018   2.902   1.790   3.069
 9040SOL    HW128019   2.960   1.853   3.017
 9040SOL    HW228020   2.879   1.831   3.157
 9041SOL     OW28021   0.866   2.513   1.965
 9041SOL    HW128022   0.945   2.476   2.014
 9041SOL    HW228023   0.783   2.472   2.000
 9042SOL     OW28024   3.249   6.798   3.987
 9042SOL    HW128025   3.281   6.804   3.893
 9042SOL    HW228026   3.187   6.874   4.007
 9043SOL     OW28027   2.305   1.645   6.153
 9043SOL    HW128028   2.374   1.612   6.217
 9043SOL    HW228029   2.302   1.584   6.074
 9044SOL     OW28030   5.930   1.793   1.833
 9044SOL    HW128031   5.950   1.727   1.761
 9044SOL    HW228032   5.874   1.749   1.904
 9045SOL     OW28033   3.592   1.797   2.806
 9045SOL    HW128034   3.553   1.786   2.897
 9045SOL    HW228035   3.676   1.851   2.812
 9046SOL     OW28036   3.186   3.520   4.227
 9046SOL    HW128037   3.222   3.550   4.316
 9046SOL    HW228038   3.147   3.598   4.178
 9047SOL     OW28039   1.447   3.500   5.269
 9047SOL    HW128040   1.528   3.481   5.323
 9047SOL    HW228041   1.387   3.563   5.318
 9048SOL     OW28042   5.899   2.304   6.303
 9048SOL    HW128043   5.976   2.346   6.255
 9048SOL    HW228044   5.834   2.267   6.236
 9049SOL     OW28045   3.957   0.188   6.695
 9049SOL    HW128046   3.987   0.176   6.600
 9049SOL    HW228047   3.878   0.130   6.713
 9050SOL     OW28048   0.337   4.675   5.660
 9050SOL    HW128049   0.244   4.648   5.686
 9050SOL    HW228050   0.399   4.599   5.675
 9051SOL     OW28051   4.540   5.936   0.684
 9051SOL    HW128052   4.605   5.860   0.689
 9051SOL    HW228053   4.448   5.902   0.703
 9052SOL     OW28054   1.807   2.551   3.115
 9052SOL    HW128055   1.850   2.588   3.196
 9052SOL    HW228056   1.734   2.612   3.085
 9053SOL     OW28057   1.982   1.436   3.003
 9053SOL    HW128058   1.916   1.507   3.026
 9053SOL    HW228059   2.030   1.408   3.086
 9054SOL     OW28060   1.479   0.118   2.110
 9054SOL    HW128061   1.561   0.138   2.164
 9054SOL    HW228062   1.435   0.036   2.145
 9055SOL     OW28063   6.620   3.830   3.642
 9055SOL    HW128064   6.574   3.901   3.695
 9055SOL    HW228065   6.652   3.757   3.703
 9056SOL     OW28066   6.148   0.106   1.300
 9056SOL    HW128067   6.060   0.134   1.339
 9056SOL    HW228068   6.213   0.088   1.375
 9057SOL     OW28069   6.089   5.255   5.941
 9057SOL    HW128070   6.106   5.166   5.899
 9057SOL    HW228071   6.111   5.327   5.876
 9058SOL     OW28072   1.802   1.929   3.725
 9058SOL    HW128073   1.763   1.837   3.716
 9058SOL    HW228074   1.808   1.952   3.822
 9059SOL     OW28075   1.068   1.296   4.250
 9059SOL    HW128076   1.060   1.267   4.346
 9059SOL    HW228077   1.138   1.241   4.204
 9060SOL     OW28078   0.298   2.926   2.231
 9060SOL    HW128079   0.378   2.866   2.234
 9060SOL    HW228080   0.293   2.971   2.141
 9061SOL     OW28081   3.602   5.800   2.170
 9061SOL    HW128082   3.674   5.758   2.116
 9061SOL    HW228083   3.513   5.775   2.132
 9062SOL     OW28084   1.610   5.214   2.158
 9062SOL    HW128085   1.524   5.198   2.109
 9062SOL    HW228086   1.661   5.128   2.164
 9063SOL     OW28087   2.432   6.353   2.435
 9063SOL    HW128088   2.449   6.451   2.423
 9063SOL    HW228089   2.508   6.312   2.485
 9064SOL     OW28090   5.718   3.693   4.688
 9064SOL    HW128091   5.619   3.686   4.677
 9064SOL    HW228092   5.739   3.757   4.762
 9065SOL     OW28093   3.312   6.087   6.987
 9065SOL    HW128094   3.395   6.125   0.006
 9065SOL    HW228095   3.325   5.989   6.970
 9066SOL     OW28096   5.866   0.621   0.216
 9066SOL    HW128097   5.929   0.675   0.160
 9066SOL    HW228098   5.886   0.524   0.205
 9067SOL     OW28099   6.484   0.160   4.636
 9067SOL    HW128100   6.414   0.228   4.657
 9067SOL    HW228101   6.446   0.093   4.571
 9068SOL     OW28102   2.951   0.672   5.259
 9068SOL    HW128103   2.930   0.678   5.162
 9068SOL    HW228104   3.040   0.714   5.277
 9069SOL     OW28105   2.746   2.332   1.682
 9069SOL    HW128106   2.802   2.349   1.763
 9069SOL    HW228107   2.761   2.406   1.616
 9070SOL     OW28108   1.126   3.762   5.724
 9070SOL    HW128109   1.076   3.833   5.774
 9070SOL    HW228110   1.189   3.716   5.787
 9071SOL     OW28111   5.045   6.995   0.326
 9071SOL    HW128112   5.130   6.988   0.273
 9071SOL    HW228113   5.037   6.915   0.386
 9072SOL     OW28114   5.853   1.240   2.074
 9072SOL    HW128115   5.828   1.308   2.006
 9072SOL    HW228116   5.782   1.169   2.077
 9073SOL     OW28117   3.333   6.314   0.681
 9073SOL    HW128118   3.349   6.291   0.777
 9073SOL    HW228119   3.417   6.347   0.639
 9074SOL     OW28120   2.080   0.669   1.770
 9074SOL    HW128121   2.033   0.711   1.693
 9074SOL    HW228122   2.012   0.627   1.832
 9075SOL     OW28123   0.672   0.381   1.816
 9075SOL    HW128124   0.696   0.448   1.746
 9075SOL    HW228125   0.581   0.401   1.852
 9076SOL     OW28126   5.776   1.646   4.955
 9076SOL    HW128127   5.690   1.654   4.904
 9076SOL    HW228128   5.852   1.676   4.898
 9077SOL     OW28129   5.836   0.981   6.823
 9077SOL    HW128130   5.810   0.918   6.896
 9077SOL    HW228131   5.901   0.935   6.761
 9078SOL     OW28132   4.601   3.786   0.014
 9078SOL    HW128133   4.689   3.751   0.046
 9078SOL    HW228134   4.543   3.808   0.092
 9079SOL     OW28135   2.098   6.450   4.208
 9079SOL    HW128136   2.114   6.548   4.214
 9079SOL    HW228137   2.103   6.410   4.299
 9080SOL     OW28138   5.865   2.064   0.758
 9080SOL    HW128139   5.863   2.071   0.659
 9080SOL    HW228140   5.771   2.057   0.793
 9081SOL     OW28141   3.921   6.812   2.774
 9081SOL    HW128142   3.912   6.832   2.871
 9081SOL    HW228143   3.835   6.773   2.741
 9082SOL     OW28144   2.747   6.631   5.589
 9082SOL    HW128145   2.662   6.683   5.584
 9082SOL    HW228146   2.823   6.688   5.558
 9083SOL     OW28147   3.926   4.431   6.033
 9083SOL    HW128148   3.978   4.399   5.953
 9083SOL    HW228149   3.897   4.352   6.087
 9084SOL     OW28150   3.387   3.575   5.772
 9084SOL    HW128151   3.339   3.517   5.838
 9084SOL    HW228152   3.419   3.518   5.696
 9085SOL     OW28153   1.225   4.904   0.835
 9085SOL    HW128154   1.308   4.854   0.859
 9085SOL    HW228155   1.226   4.924   0.737
 9086SOL     OW28156   0.233   4.621   0.735
 9086SOL    HW128157   0.172   4.692   0.769
 9086SOL    HW228158   0.314   4.662   0.695
 9087SOL     OW28159   4.457   2.476   2.004
 9087SOL    HW128160   4.467   2.558   1.948
 9087SOL    HW228161   4.377   2.425   1.973
 9088SOL     OW28162   6.245   6.149   0.865
 9088SOL    HW128163   6.306   6.225   0.841
 9088SOL    HW228164   6.199   6.117   0.783
 9089SOL     OW28165   5.303   6.190   4.914
 9089SOL    HW128166   5.283   6.148   5.003
 9089SOL    HW228167   5.322   6.118   4.848
 9090SOL     OW28168   6.525   6.065   3.645
 9090SOL    HW128169   6.621   6.065   3.675
 9090SOL    HW228170   6.470   6.011   3.710
 9091SOL     OW28171   2.721   3.360   1.185
 9091SOL    HW128172   2.713   3.434   1.251
 9091SOL    HW228173   2.799   3.377   1.125
 9092SOL     OW28174   7.014   1.817   0.738
 9092SOL    HW128175   7.008   1.836   0.640
 9092SOL    HW228176   6.950   1.877   0.787
 9093SOL     OW28177   1.700   6.447   6.145
 9093SOL    HW128178   1.677   6.364   6.196
 9093SOL    HW228179   1.652   6.525   6.185
 9094SOL     OW28180   5.950   5.111   2.560
 9094SOL    HW128181   5.935   5.165   2.643
 9094SOL    HW228182   5.864   5.067   2.533
 9095SOL     OW28183   4.641   4.098   6.372
 9095SOL    HW128184   4.550   4.077   6.406
 9095SOL    HW228185   4.702   4.117   6.449
 9096SOL     OW28186   5.685   3.984   2.189
 9096SOL    HW128187   5.748   4.043   2.139
 9096SOL    HW228188   5.615   3.950   2.127
 9097SOL     OW28189   1.206   2.104   6.623
 9097SOL    HW128190   1.118   2.081   6.665
 9097SOL    HW228191   1.235   2.029   6.563
 9098SOL     OW28192   3.238   2.429   6.668
 9098SOL    HW128193   3.270   2.356   6.607
 9098SOL    HW228194   3.311   2.496   6.680
 9099SOL     OW28195   2.828   2.710   6.982
 9099SOL    HW128196   2.784   2.741   0.044
 9099SOL    HW228197   2.762   2.710   6.907
 9100SOL     OW28198   0.751   3.857   4.202
 9100SOL    HW128199   0.813   3.828   4.129
 9100SOL    HW228200   0.765   3.955   4.221
 9101SOL     OW28201   2.350   2.149   3.027
 9101SOL    HW128202   2.366   2.184   2.935
 9101SOL    HW228203   2.438   2.136   3.073
 9102SOL     OW28204   2.849   0.113   1.818
 9102SOL    HW128205   2.774   0.059   1.778
 9102SOL    HW228206   2.811   0.196   1.859
 9103SOL     OW28207   6.135   3.211   6.574
 9103SOL    HW128208   6.234   3.229   6.573
 9103SOL    HW228209   6.112   3.158   6.656
 9104SOL     OW28210   6.279   6.457   2.140
 9104SOL    HW128211   6.191   6.445   2.186
 9104SOL    HW228212   6.306   6.371   2.098
 9105SOL     OW28213   1.771   1.735   7.010
 9105SOL    HW128214   1.701   1.674   6.972
 9105SOL    HW228215   1.752   1.829   6.983
 9106SOL     OW28216   6.729   3.605   6.974
 9106SOL    HW128217   6.827   3.596   6.990
 9106SOL    HW228218   6.696   3.690   7.014
 9107SOL     OW28219   3.321   1.331   6.274
 9107SOL    HW128220   3.276   1.242   6.262
 9107SOL    HW228221   3.397   1.321   6.339
 9108SOL     OW28222   4.558   3.724   5.395
 9108SOL    HW128223   4.575   3.822   5.409
 9108SOL    HW228224   4.637   3.684   5.348
 9109SOL     OW28225   0.502   2.728   2.680
 9109SOL    HW128226   0.572   2.799   2.690
 9109SOL    HW228227   0.467   2.729   2.586
 9110SOL     OW28228   2.092   3.566   3.792
 9110SOL    HW128229   2.102   3.498   3.719
 9110SOL    HW228230   2.139   3.650   3.766
 9111SOL     OW28231   4.877   1.724   0.732
 9111SOL    HW128232   4.921   1.654   0.789
 9111SOL    HW228233   4.833   1.680   0.654
 9112SOL     OW28234   0.475   4.998   3.854
 9112SOL    HW128235   0.513   5.064   3.789
 9112SOL    HW228236   0.488   4.905   3.820
 9113SOL     OW28237   4.902   1.103   2.782
 9113SOL    HW128238   4.991   1.057   2.776
 9113SOL    HW228239   4.917   1.202   2.790
 9114SOL     OW28240   0.410   4.382   1.932
 9114SOL    HW128241   0.329   4.332   1.900
 9114SOL    HW228242   0.483   4.317   1.951
 9115SOL     OW28243   6.952   5.435   4.717
 9115SOL    HW128244   7.004   5.411   4.636
 9115SOL    HW228245   6.985   5.522   4.753
 9116SOL     OW28246   6.484   1.028   1.802
 9116SOL    HW128247   6.428   0.954   1.838
 9116SOL    HW228248   6.503   1.011   1.705
 9117SOL     OW28249   5.587   2.695   0.691
 9117SOL    HW128250   5.619   2.771   0.748
 9117SOL    HW228251   5.663   2.632   0.673
 9118SOL     OW28252   6.316   3.965   0.158
 9118SOL    HW128253   6.313   4.036   0.228
 9118SOL    HW228254   6.277   4.000   0.073
 9119SOL     OW28255   4.646   0.470   2.106
 9119SOL    HW128256   4.631   0.569   2.115
 9119SOL    HW228257   4.675   0.433   2.193
 9120SOL     OW28258   6.647   1.946   5.975
 9120SOL    HW128259   6.655   2.028   6.031
 9120SOL    HW228260   6.637   1.971   5.879
 9121SOL     OW28261   4.014   0.799   4.891
 9121SOL    HW128262   3.938   0.766   4.947
 9121SOL    HW228263   4.029   0.896   4.911
 9122SOL     OW28264   2.081   4.233   2.210
 9122SOL    HW128265   2.142   4.155   2.211
 9122SOL    HW228266   2.076   4.271   2.118
 9123SOL     OW28267   2.867   0.584   3.713
 9123SOL    HW128268   2.966   0.571   3.708
 9123SOL    HW228269   2.848   0.675   3.751
 9124SOL     OW28270   5.465   6.249   0.323
 9124SOL    HW128271   5.519   6.176   0.282
 9124SOL    HW228272   5.368   6.224   0.321
 9125SOL     OW28273   4.765   3.761   0.676
 9125SOL    HW128274   4.760   3.790   0.580
 9125SOL    HW228275   4.823   3.680   0.682
 9126SOL     OW28276   6.161   3.603   1.159
 9126SOL    HW128277   6.115   3.600   1.070
 9126SOL    HW228278   6.125   3.530   1.217
 9127SOL     OW28279   0.090   2.125   6.357
 9127SOL    HW128280   0.177   2.132   6.309
 9127SOL    HW228281   0.017   2.162   6.298
 9128SOL     OW28282   5.947   1.768   5.389
 9128SOL    HW128283   5.872   1.734   5.333
 9128SOL    HW228284   6.026   1.707   5.379
 9129SOL     OW28285   0.248   2.392   0.425
 9129SOL    HW128286   0.205   2.318   0.477
 9129SOL    HW228287   0.347   2.381   0.428
 9130SOL     OW28288   0.264   3.388   6.219
 9130SOL    HW128289   0.192   3.320   6.213
 9130SOL    HW228290   0.226   3.479   6.205
 9131SOL     OW28291   5.804   3.130   5.586
 9131SOL    HW128292   5.872   3.152   5.656
 9131SOL    HW228293   5.841   3.061   5.525
 9132SOL     OW28294   0.453   6.099   4.449
 9132SOL    HW128295   0.378   6.039   4.478
 9132SOL    HW228296   0.518   6.111   4.524
 9133SOL     OW28297   3.451   6.465   1.521
 9133SOL    HW128298   3.368   6.466   1.577
 9133SOL    HW228299   3.431   6.503   1.431
 9134SOL     OW28300   4.219   5.836   1.242
 9134SOL    HW128301   4.122   5.830   1.264
 9134SOL    HW228302   4.232   5.828   1.143
 9135SOL     OW28303   6.640   0.013   1.573
 9135SOL    HW128304   6.710   0.078   1.543
 9135SOL    HW228305   6.555   0.030   1.523
 9136SOL     OW28306   5.021   6.562   6.925
 9136SOL    HW128307   4.958   6.487   6.905
 9136SOL    HW228308   5.106   6.549   6.874
 9137SOL     OW28309   5.263   0.687   0.360
 9137SOL    HW128310   5.338   0.658   0.300
 9137SOL    HW228311   5.176   0.671   0.314
 9138SOL     OW28312   6.818   5.920   6.586
 9138SOL    HW128313   6.880   5.983   6.539
 9138SOL    HW228314   6.724   5.945   6.565
 9139SOL     OW28315   2.180   1.727   3.311
 9139SOL    HW128316   2.239   1.780   3.250
 9139SOL    HW228317   2.095   1.704   3.264
 9140SOL     OW28318   6.869   3.290   2.727
 9140SOL    HW128319   6.959   3.330   2.709
 9140SOL    HW228320   6.821   3.277   2.640
 9141SOL     OW28321   5.032   0.535   0.738
 9141SOL    HW128322   5.123   0.566   0.709
 9141SOL    HW228323   5.033   0.436   0.748
 9142SOL     OW28324   0.658   2.760   0.997
 9142SOL    HW128325   0.616   2.818   0.926
 9142SOL    HW228326   0.591   2.742   1.069
 9143SOL     OW28327   6.397   3.071   0.288
 9143SOL    HW128328   6.338   3.005   0.335
 9143SOL    HW228329   6.431   3.031   0.203
 9144SOL     OW28330   2.433   5.090   4.439
 9144SOL    HW128331   2.461   5.079   4.535
 9144SOL    HW228332   2.512   5.080   4.379
 9145SOL     OW28333   0.374   5.507   6.520
 9145SOL    HW128334   0.473   5.500   6.527
 9145SOL    HW228335   0.342   5.454   6.441
 9146SOL     OW28336   5.540   3.176   3.918
 9146SOL    HW128337   5.459   3.170   3.859
 9146SOL    HW228338   5.556   3.271   3.943
 9147SOL     OW28339   5.893   6.760   5.530
 9147SOL    HW128340   5.902   6.711   5.444
 9147SOL    HW228341   5.984   6.787   5.563
 9148SOL     OW28342   5.681   6.145   1.327
 9148SOL    HW128343   5.736   6.125   1.408
 9148SOL    HW228344   5.698   6.239   1.298
 9149SOL     OW28345   5.376   3.827   2.398
 9149SOL    HW128346   5.340   3.764   2.329
 9149SOL    HW228347   5.309   3.899   2.416
 9150SOL     OW28348   3.400   5.202   1.059
 9150SOL    HW128349   3.403   5.165   1.151
 9150SOL    HW228350   3.364   5.296   1.061
 9151SOL     OW28351   2.151   4.682   3.369
 9151SOL    HW128352   2.222   4.748   3.391
 9151SOL    HW228353   2.143   4.672   3.270
 9152SOL     OW28354   2.327   4.339   4.812
 9152SOL    HW128355   2.263   4.266   4.833
 9152SOL    HW228356   2.369   4.372   4.897
 9153SOL     OW28357   0.266   2.808   6.745
 9153SOL    HW128358   0.366   2.811   6.754
 9153SOL    HW228359   0.236   2.879   6.681
 9154SOL     OW28360   5.548   4.825   6.388
 9154SOL    HW128361   5.520   4.893   6.321
 9154SOL    HW228362   5.610   4.759   6.346
 9155SOL     OW28363   1.754   4.112   2.244
 9155SOL    HW128364   1.694   4.188   2.218
 9155SOL    HW228365   1.824   4.098   2.174
 9156SOL     OW28366   1.179   2.154   0.315
 9156SOL    HW128367   1.130   2.229   0.272
 9156SOL    HW228368   1.203   2.179   0.409
 9157SOL     OW28369   2.083   3.938   6.719
 9157SOL    HW128370   2.132   3.863   6.763
 9157SOL    HW228371   2.127   3.960   6.632
 9158SOL     OW28372   5.975   3.631   4.150
 9158SOL    HW128373   5.953   3.714   4.200
 9158SOL    HW228374   5.891   3.590   4.115
 9159SOL     OW28375   1.672   1.042   2.563
 9159SOL    HW128376   1.630   0.982   2.631
 9159SOL    HW228377   1.699   1.128   2.607
 9160SOL     OW28378   0.169   6.857   5.919
 9160SOL    HW128379   0.124   6.770   5.942
 9160SOL    HW228380   0.243   6.875   5.984
 9161SOL     OW28381   5.350   5.333   3.879
 9161SOL    HW128382   5.339   5.238   3.911
 9161SOL    HW228383   5.331   5.395   3.955
 9162SOL     OW28384   4.206   0.844   3.596
 9162SOL    HW128385   4.269   0.897   3.540
 9162SOL    HW228386   4.240   0.841   3.690
 9163SOL     OW28387   0.575   2.609   4.458
 9163SOL    HW128388   0.529   2.694   4.485
 9163SOL    HW228389   0.570   2.543   4.534
 9164SOL     OW28390   2.455   0.289   0.265
 9164SOL    HW128391   2.405   0.352   0.325
 9164SOL    HW228392   2.538   0.332   0.232
 9165SOL     OW28393   6.354   1.229   5.386
 9165SOL    HW128394   6.371   1.318   5.429
 9165SOL    HW228395   6.440   1.181   5.373
 9166SOL     OW28396   4.461   5.950   1.274
 9166SOL    HW128397   4.375   5.903   1.293
 9166SOL    HW228398   4.501   5.982   1.360
 9167SOL     OW28399   1.852   1.856   6.124
 9167SOL    HW128400   1.917   1.932   6.113
 9167SOL    HW228401   1.828   1.847   6.221
 9168SOL     OW28402   6.576   6.069   5.750
 9168SOL    HW128403   6.570   6.016   5.835
 9168SOL    HW228404   6.655   6.038   5.697
 9169SOL     OW28405   6.829   0.019   6.194
 9169SOL    HW128406   6.734   7.021   6.171
 9169SOL    HW228407   6.885   0.012   6.111
 9170SOL     OW28408   1.866   0.422   0.010
 9170SOL    HW128409   1.952   0.471   7.018
 9170SOL    HW228410   1.805   0.475   0.069
 9171SOL     OW28411   3.605   5.989   0.507
 9171SOL    HW128412   3.530   5.996   0.441
 9171SOL    HW228413   3.628   5.893   0.521
 9172SOL     OW28414   5.119   1.254   3.332
 9172SOL    HW128415   5.166   1.195   3.398
 9172SOL    HW228416   5.041   1.204   3.292
 9173SOL     OW28417   5.653   4.407   5.952
 9173SOL    HW128418   5.574   4.461   5.981
 9173SOL    HW228419   5.737   4.449   5.987
 9174SOL     OW28420   6.866   4.668   0.504
 9174SOL    HW128421   6.862   4.582   0.555
 9174SOL    HW228422   6.834   4.743   0.562
 9175SOL     OW28423   1.580   6.451   6.555
 9175SOL    HW128424   1.518   6.528   6.537
 9175SOL    HW228425   1.675   6.483   6.550
 9176SOL     OW28426   2.256   1.213   2.562
 9176SOL    HW128427   2.294   1.217   2.470
 9176SOL    HW228428   2.156   1.224   2.557
 9177SOL     OW28429   0.929   4.358   4.157
 9177SOL    HW128430   0.889   4.401   4.077
 9177SOL    HW228431   1.021   4.395   4.172
 9178SOL     OW28432   2.310   5.180   0.593
 9178SOL    HW128433   2.269   5.229   0.516
 9178SOL    HW228434   2.245   5.114   0.630
 9179SOL     OW28435   1.762   5.577   3.842
 9179SOL    HW128436   1.820   5.649   3.804
 9179SOL    HW228437   1.806   5.489   3.830
 9180SOL     OW28438   6.411   2.370   3.159
 9180SOL    HW128439   6.408   2.297   3.091
 9180SOL    HW228440   6.322   2.417   3.161
 9181SOL     OW28441   5.964   2.191   4.437
 9181SOL    HW128442   5.884   2.158   4.486
 9181SOL    HW228443   5.943   2.277   4.392
 9182SOL     OW28444   2.995   0.086   3.234
 9182SOL    HW128445   3.066   0.132   3.286
 9182SOL    HW228446   3.035   0.040   3.155
 9183SOL     OW28447   4.810   4.614   0.285
 9183SOL    HW128448   4.855   4.545   0.229
 9183SOL    HW228449   4.732   4.573   0.332
 9184SOL     OW28450   4.282   2.393   1.324
 9184SOL    HW128451   4.373   2.351   1.324
 9184SOL    HW228452   4.212   2.321   1.316
 9185SOL     OW28453   6.222   6.446   5.094
 9185SOL    HW128454   6.145   6.509   5.082
 9185SOL    HW228455   6.250   6.411   5.004
 9186SOL     OW28456   5.815   6.852   4.216
 9186SOL    HW128457   5.755   6.932   4.213
 9186SOL    HW228458   5.821   6.819   4.310
 9187SOL     OW28459   3.261   2.170   0.292
 9187SOL    HW128460   3.201   2.213   0.224
 9187SOL    HW228461   3.300   2.087   0.253
 9188SOL     OW28462   2.434   0.506   1.492
 9188SOL    HW128463   2.532   0.490   1.496
 9188SOL    HW228464   2.406   0.564   1.568
 9189SOL     OW28465   3.185   5.831   2.262
 9189SOL    HW128466   3.255   5.772   2.222
 9189SOL    HW228467   3.094   5.800   2.233
 9190SOL     OW28468   1.261   3.335   5.760
 9190SOL    HW128469   1.214   3.409   5.710
 9190SOL    HW228470   1.327   3.291   5.699
 9191SOL     OW28471   5.599   1.122   0.005
 9191SOL    HW128472   5.664   1.048   0.023
 9191SOL    HW228473   5.588   1.133   6.927
 9192SOL     OW28474   0.004   2.507   6.194
 9192SOL    HW128475   0.097   2.540   6.209
 9192SOL    HW228476   6.965   2.585   6.176
 9193SOL     OW28477   3.772   3.570   4.594
 9193SOL    HW128478   3.798   3.650   4.649
 9193SOL    HW228479   3.802   3.582   4.500
 9194SOL     OW28480   3.471   0.730   2.476
 9194SOL    HW128481   3.383   0.681   2.472
 9194SOL    HW228482   3.535   0.678   2.532
 9195SOL     OW28483   1.456   3.344   2.724
 9195SOL    HW128484   1.500   3.391   2.801
 9195SOL    HW228485   1.386   3.282   2.759
 9196SOL     OW28486   5.734   6.377   3.568
 9196SOL    HW128487   5.713   6.308   3.499
 9196SOL    HW228488   5.815   6.348   3.619
 9197SOL     OW28489   3.101   4.873   0.727
 9197SOL    HW128490   3.020   4.815   0.724
 9197SOL    HW228491   3.181   4.816   0.746
 9198SOL     OW28492   6.435   4.592   6.166
 9198SOL    HW128493   6.472   4.502   6.148
 9198SOL    HW228494   6.489   4.661   6.118
 9199SOL     OW28495   6.757   2.814   5.456
 9199SOL    HW128496   6.855   2.796   5.448
 9199SOL    HW228497   6.742   2.912   5.471
 9200SOL     OW28498   3.017   6.132   5.738
 9200SOL    HW128499   3.036   6.105   5.832
 9200SOL    HW228500   3.003   6.050   5.682
 9201SOL     OW28501   6.752   3.298   6.720
 9201SOL    HW128502   6.819   3.293   6.795
 9201SOL    HW228503   6.660   3.280   6.756
 9202SOL     OW28504   0.892   5.865   3.727
 9202SOL    HW128505   0.990   5.888   3.729
 9202SOL    HW228506   0.877   5.790   3.662
 9203SOL     OW28507   6.487   3.031   5.818
 9203SOL    HW128508   6.410   2.976   5.849
 9203SOL    HW228509   6.465   3.073   5.730
 9204SOL     OW28510   4.897   3.543   4.390
 9204SOL    HW128511   4.882   3.449   4.358
 9204SOL    HW228512   4.994   3.555   4.412
 9205SOL     OW28513   5.240   5.499   3.144
 9205SOL    HW128514   5.154   5.532   3.182
 9205SOL    HW228515   5.222   5.418   3.087
 9206SOL     OW28516   3.498   6.178   3.354
 9206SOL    HW128517   3.574   6.237   3.328
 9206SOL    HW228518   3.442   6.159   3.273
 9207SOL     OW28519   4.474   4.387   0.140
 9207SOL    HW128520   4.509   4.481   0.146
 9207SOL    HW228521   4.523   4.329   0.205
 9208SOL     OW28522   5.540   4.324   2.723
 9208SOL    HW128523   5.570   4.410   2.765
 9208SOL    HW228524   5.549   4.250   2.789
 9209SOL     OW28525   4.732   1.110   0.949
 9209SOL    HW128526   4.713   1.173   1.024
 9209SOL    HW228527   4.651   1.054   0.931
 9210SOL     OW28528   1.273   1.780   0.861
 9210SOL    HW128529   1.216   1.804   0.783
 9210SOL    HW228530   1.367   1.808   0.843
 9211SOL     OW28531   5.931   2.644   6.162
 9211SOL    HW128532   5.991   2.566   6.181
 9211SOL    HW228533   5.986   2.726   6.151
 9212SOL     OW28534   5.260   4.338   4.039
 9212SOL    HW128535   5.337   4.385   3.995
 9212SOL    HW228536   5.269   4.240   4.027
 9213SOL     OW28537   4.996   4.968   4.601
 9213SOL    HW128538   4.960   4.990   4.510
 9213SOL    HW228539   5.057   5.042   4.631
 9214SOL     OW28540   0.048   2.737   4.885
 9214SOL    HW128541   0.100   2.777   4.810
 9214SOL    HW228542   0.111   2.688   4.947
 9215SOL     OW28543   1.246   4.530   2.056
 9215SOL    HW128544   1.199   4.526   2.144
 9215SOL    HW228545   1.274   4.438   2.029
 9216SOL     OW28546   2.256   6.624   3.411
 9216SOL    HW128547   2.275   6.671   3.326
 9216SOL    HW228548   2.159   6.598   3.414
 9217SOL     OW28549   6.474   3.258   6.817
 9217SOL    HW128550   6.462   3.348   6.859
 9217SOL    HW228551   6.400   3.197   6.844
 9218SOL     OW28552   3.976   1.079   6.898
 9218SOL    HW128553   3.919   1.124   6.829
 9218SOL    HW228554   4.072   1.100   6.881
 9219SOL     OW28555   4.981   3.776   6.481
 9219SOL    HW128556   5.055   3.745   6.421
 9219SOL    HW228557   4.947   3.699   6.535
 9220SOL     OW28558   1.250   6.348   1.812
 9220SOL    HW128559   1.316   6.324   1.740
 9220SOL    HW228560   1.299   6.383   1.891
 9221SOL     OW28561   1.967   0.343   3.579
 9221SOL    HW128562   2.038   0.380   3.520
 9221SOL    HW228563   1.998   0.344   3.674
 9222SOL     OW28564   2.725   5.548   5.529
 9222SOL    HW128565   2.709   5.469   5.589
 9222SOL    HW228566   2.659   5.620   5.551
 9223SOL     OW28567   1.558   2.278   4.340
 9223SOL    HW128568   1.462   2.269   4.366
 9223SOL    HW228569   1.607   2.193   4.360
 9224SOL     OW28570   0.537   5.201   3.734
 9224SOL    HW128571   0.440   5.220   3.718
 9224SOL    HW228572   0.566   5.244   3.819
 9225SOL     OW28573   3.085   6.047   5.982
 9225SOL    HW128574   3.111   5.959   6.023
 9225SOL    HW228575   3.122   6.121   6.038
 9226SOL     OW28576   0.361   7.020   1.467
 9226SOL    HW128577   0.403   6.963   1.537
 9226SOL    HW228578   0.263   6.999   1.461
 9227SOL     OW28579   2.242   5.790   0.780
 9227SOL    HW128580   2.274   5.699   0.808
 9227SOL    HW228581   2.165   5.780   0.717
 9228SOL     OW28582   2.599   1.289   6.791
 9228SOL    HW128583   2.620   1.193   6.770
 9228SOL    HW228584   2.503   1.297   6.816
 9229SOL     OW28585   0.482   5.012   5.404
 9229SOL    HW128586   0.425   4.957   5.465
 9229SOL    HW228587   0.573   5.021   5.444
 9230SOL     OW28588   5.090   3.182   3.539
 9230SOL    HW128589   5.066   3.176   3.442
 9230SOL    HW228590   5.068   3.096   3.585
 9231SOL     OW28591   1.309   3.697   5.388
 9231SOL    HW128592   1.379   3.767   5.378
 9231SOL    HW228593   1.224   3.729   5.345
 9232SOL     OW28594   3.180   5.235   6.510
 9232SOL    HW128595   3.165   5.297   6.588
 9232SOL    HW228596   3.273   5.247   6.476
 9233SOL     OW28597   6.164   6.240   1.227
 9233SOL    HW128598   6.199   6.290   1.147
 9233SOL    HW228599   6.138   6.305   1.298
 9234SOL     OW28600   3.280   5.690   0.578
 9234SOL    HW128601   3.205   5.739   0.533
 9234SOL    HW228602   3.325   5.752   0.643
 9235SOL     OW28603   2.293   2.534   3.423
 9235SOL    HW128604   2.205   2.489   3.441
 9235SOL    HW228605   2.337   2.491   3.345
 9236SOL     OW28606   2.151   4.312   6.489
 9236SOL    HW128607   2.085   4.344   6.557
 9236SOL    HW228608   2.139   4.214   6.473
 9237SOL     OW28609   0.566   5.761   2.866
 9237SOL    HW128610   0.523   5.824   2.931
 9237SOL    HW228611   0.665   5.779   2.863
 9238SOL     OW28612   2.314   3.122   6.074
 9238SOL    HW128613   2.381   3.047   6.075
 9238SOL    HW228614   2.336   3.185   6.000
 9239SOL     OW28615   0.249   3.591   6.018
 9239SOL    HW128616   0.175   3.658   6.030
 9239SOL    HW228617   0.337   3.639   6.017
 9240SOL     OW28618   5.198   2.795   2.406
 9240SOL    HW128619   5.148   2.709   2.411
 9240SOL    HW228620   5.275   2.785   2.343
 9241SOL     OW28621   0.306   4.858   6.850
 9241SOL    HW128622   0.318   4.776   6.905
 9241SOL    HW228623   0.228   4.911   6.885
 9242SOL     OW28624   0.946   4.215   0.690
 9242SOL    HW128625   1.031   4.235   0.641
 9242SOL    HW228626   0.937   4.116   0.703
 9243SOL     OW28627   0.405   0.276   1.494
 9243SOL    HW128628   0.496   0.289   1.534
 9243SOL    HW228629   0.397   0.183   1.459
 9244SOL     OW28630   3.623   5.443   5.984
 9244SOL    HW128631   3.628   5.543   5.991
 9244SOL    HW228632   3.540   5.417   5.936
 9245SOL     OW28633   0.965   5.798   4.190
 9245SOL    HW128634   0.963   5.698   4.180
 9245SOL    HW228635   1.002   5.823   4.279
 9246SOL     OW28636   6.435   6.942   2.953
 9246SOL    HW128637   6.487   6.986   2.880
 9246SOL    HW228638   6.396   6.857   2.918
 9247SOL     OW28639   2.406   6.105   3.316
 9247SOL    HW128640   2.477   6.175   3.315
 9247SOL    HW228641   2.316   6.149   3.324
 9248SOL     OW28642   3.210   2.033   4.039
 9248SOL    HW128643   3.214   1.942   3.998
 9248SOL    HW228644   3.127   2.080   4.010
 9249SOL     OW28645   3.649   5.071   1.550
 9249SOL    HW128646   3.613   4.999   1.608
 9249SOL    HW228647   3.747   5.059   1.537
 9250SOL     OW28648   5.914   2.446   4.317
 9250SOL    HW128649   5.880   2.517   4.379
 9250SOL    HW228650   5.885   2.467   4.224
 9251SOL     OW28651   3.780   1.799   3.179
 9251SOL    HW128652   3.832   1.748   3.247
 9251SOL    HW228653   3.760   1.891   3.212
 9252SOL     OW28654   5.426   0.839   4.768
 9252SOL    HW128655   5.519   0.804   4.784
 9252SOL    HW228656   5.429   0.938   4.760
 9253SOL     OW28657   5.390   5.635   5.368
 9253SOL    HW128658   5.405   5.539   5.346
 9253SOL    HW228659   5.333   5.642   5.450
 9254SOL     OW28660   5.412   5.023   3.295
 9254SOL    HW128661   5.459   5.091   3.238
 9254SOL    HW228662   5.410   5.055   3.389
 9255SOL     OW28663   4.427   3.921   0.625
 9255SOL    HW128664   4.369   3.876   0.693
 9255SOL    HW228665   4.493   3.980   0.671
 9256SOL     OW28666   3.439   0.118   2.971
 9256SOL    HW128667   3.528   0.088   2.937
 9256SOL    HW228668   3.452   0.194   3.035
 9257SOL     OW28669   0.072   4.498   3.623
 9257SOL    HW128670   0.045   4.410   3.585
 9257SOL    HW228671   0.074   4.492   3.723
 9258SOL     OW28672   3.829   4.009   2.618
 9258SOL    HW128673   3.757   4.067   2.656
 9258SOL    HW228674   3.802   3.913   2.626
 9259SOL     OW28675   0.489   1.903   0.534
 9259SOL    HW128676   0.452   1.975   0.593
 9259SOL    HW228677   0.471   1.814   0.575
 9260SOL     OW28678   6.421   1.496   5.438
 9260SOL    HW128679   6.465   1.565   5.380
 9260SOL    HW228680   6.381   1.541   5.519
 9261SOL     OW28681   3.165   1.395   0.626
 9261SOL    HW128682   3.188   1.476   0.572
 9261SOL    HW228683   3.111   1.332   0.570
 9262SOL     OW28684   6.781   4.988   4.748
 9262SOL    HW128685   6.783   4.939   4.661
 9262SOL    HW228686   6.697   5.043   4.753
 9263SOL     OW28687   4.810   0.688   1.887
 9263SOL    HW128688   4.875   0.624   1.844
 9263SOL    HW228689   4.718   0.651   1.879
 9264SOL     OW28690   5.113   4.297   0.807
 9264SOL    HW128691   5.131   4.230   0.735
 9264SOL    HW228692   5.188   4.363   0.811
 9265SOL     OW28693   4.278   2.366   0.069
 9265SOL    HW128694   4.325   2.447   0.105
 9265SOL    HW228695   4.212   2.395   7.021
 9266SOL     OW28696   0.961   6.289   0.558
 9266SOL    HW128697   0.959   6.220   0.630
 9266SOL    HW228698   0.880   6.279   0.500
 9267SOL     OW28699   0.617   2.263   4.466
 9267SOL    HW128700   0.707   2.244   4.428
 9267SOL    HW228701   0.554   2.286   4.392
 9268SOL     OW28702   1.032   5.733   2.553
 9268SOL    HW128703   0.951   5.750   2.498
 9268SOL    HW228704   1.024   5.782   2.640
 9269SOL     OW28705   4.157   0.964   6.237
 9269SOL    HW128706   4.224   1.019   6.288
 9269SOL    HW228707   4.160   0.870   6.270
 9270SOL     OW28708   4.248   6.258   6.161
 9270SOL    HW128709   4.151   6.248   6.139
 9270SOL    HW228710   4.259   6.327   6.233
 9271SOL     OW28711   6.411   0.454   1.174
 9271SOL    HW128712   6.331   0.404   1.143
 9271SOL    HW228713   6.382   0.536   1.224
 9272SOL     OW28714   0.681   5.952   5.215
 9272SOL    HW128715   0.742   5.951   5.136
 9272SOL    HW228716   0.652   6.046   5.234
 9273SOL     OW28717   6.076   6.322   2.585
 9273SOL    HW128718   6.106   6.247   2.644
 9273SOL    HW228719   6.054   6.402   2.640
 9274SOL     OW28720   6.597   1.334   0.488
 9274SOL    HW128721   6.678   1.348   0.546
 9274SOL    HW228722   6.608   1.250   0.435
 9275SOL     OW28723   6.095   1.001   0.136
 9275SOL    HW128724   6.002   1.039   0.141
 9275SOL    HW228725   6.158   1.065   0.181
 9276SOL     OW28726   1.606   4.099   1.484
 9276SOL    HW128727   1.616   4.042   1.403
 9276SOL    HW228728   1.511   4.094   1.517
 9277SOL     OW28729   4.293   4.408   0.464
 9277SOL    HW128730   4.336   4.455   0.541
 9277SOL    HW228731   4.249   4.475   0.405
 9278SOL     OW28732   2.017   0.287   6.178
 9278SOL    HW128733   2.092   0.267   6.241
 9278SOL    HW228734   1.931   0.255   6.218
 9279SOL     OW28735   3.328   0.607   1.987
 9279SOL    HW128736   3.380   0.558   1.917
 9279SOL    HW228737   3.331   0.555   2.072
 9280SOL     OW28738   2.437   1.783   2.886
 9280SOL    HW128739   2.481   1.873   2.881
 9280SOL    HW228740   2.363   1.779   2.818
 9281SOL     OW28741   2.666   3.791   6.798
 9281SOL    HW128742   2.614   3.830   6.874
 9281SOL    HW228743   2.695   3.698   6.822
 9282SOL     OW28744   6.205   0.628   3.359
 9282SOL    HW128745   6.131   0.624   3.291
 9282SOL    HW228746   6.277   0.688   3.326
 9283SOL     OW28747   5.290   0.729   4.048
 9283SOL    HW128748   5.201   0.729   4.002
 9283SOL    HW228749   5.288   0.794   4.124
 9284SOL     OW28750   3.052   3.391   5.783
 9284SOL    HW128751   2.980   3.411   5.717
 9284SOL    HW228752   3.015   3.393   5.876
 9285SOL     OW28753   4.913   2.845   1.203
 9285SOL    HW128754   4.824   2.818   1.167
 9285SOL    HW228755   4.934   2.938   1.174
 9286SOL     OW28756   5.863   5.861   0.885
 9286SOL    HW128757   5.772   5.856   0.844
 9286SOL    HW228758   5.892   5.956   0.890
 9287SOL     OW28759   3.245   5.036   6.730
 9287SOL    HW128760   3.213   5.120   6.773
 9287SOL    HW228761   3.245   5.048   6.630
 9288SOL     OW28762   4.446   1.260   2.973
 9288SOL    HW128763   4.534   1.244   3.017
 9288SOL    HW228764   4.430   1.358   2.966
 9289SOL     OW28765   3.848   0.549   1.695
 9289SOL    HW128766   3.897   0.602   1.764
 9289SOL    HW228767   3.878   0.577   1.604
 9290SOL     OW28768   5.519   0.585   3.041
 9290SOL    HW128769   5.519   0.639   3.124
 9290SOL    HW228770   5.521   0.645   2.961
 9291SOL     OW28771   1.145   5.092   5.302
 9291SOL    HW128772   1.166   5.113   5.206
 9291SOL    HW228773   1.230   5.094   5.355
 9292SOL     OW28774   2.136   3.390   6.480
 9292SOL    HW128775   2.113   3.308   6.427
 9292SOL    HW228776   2.062   3.457   6.470
 9293SOL     OW28777   6.016   3.163   6.323
 9293SOL    HW128778   6.026   3.177   6.421
 9293SOL    HW228779   5.919   3.157   6.300
 9294SOL     OW28780   4.509   6.653   6.291
 9294SOL    HW128781   4.472   6.717   6.225
 9294SOL    HW228782   4.578   6.595   6.248
 9295SOL     OW28783   6.224   0.897   4.978
 9295SOL    HW128784   6.234   0.955   4.897
 9295SOL    HW228785   6.213   0.802   4.949
 9296SOL     OW28786   1.220   5.556   6.447
 9296SOL    HW128787   1.298   5.582   6.389
 9296SOL    HW228788   1.184   5.638   6.492
 9297SOL     OW28789   1.013   6.728   3.128
 9297SOL    HW128790   0.918   6.758   3.128
 9297SOL    HW228791   1.021   6.642   3.077
 9298SOL     OW28792   1.040   6.508   6.582
 9298SOL    HW128793   1.013   6.427   6.635
 9298SOL    HW228794   1.006   6.590   6.628
 9299SOL     OW28795   0.630   2.427   4.711
 9299SOL    HW128796   0.592   2.351   4.658
 9299SOL    HW228797   0.725   2.408   4.732
 9300SOL     OW28798   0.578   4.201   5.876
 9300SOL    HW128799   0.585   4.238   5.969
 9300SOL    HW228800   0.669   4.172   5.845
 9301SOL     OW28801   5.488   5.217   5.033
 9301SOL    HW128802   5.551   5.164   4.977
 9301SOL    HW228803   5.466   5.303   4.987
 9302SOL     OW28804   2.087   2.578   3.681
 9302SOL    HW128805   2.057   2.506   3.745
 9302SOL    HW228806   2.062   2.552   3.588
 9303SOL     OW28807   2.691   3.643   1.036
 9303SOL    HW128808   2.753   3.573   1.000
 9303SOL    HW228809   2.688   3.636   1.136
 9304SOL     OW28810   3.899   4.654   1.726
 9304SOL    HW128811   3.972   4.599   1.686
 9304SOL    HW228812   3.811   4.610   1.707
 9305SOL     OW28813   3.462   1.342   0.400
 9305SOL    HW128814   3.419   1.251   0.399
 9305SOL    HW228815   3.480   1.369   0.494
 9306SOL     OW28816   0.879   4.272   5.307
 9306SOL    HW128817   0.833   4.357   5.334
 9306SOL    HW228818   0.816   4.216   5.254
 9307SOL     OW28819   0.844   3.790   0.760
 9307SOL    HW128820   0.883   3.778   0.852
 9307SOL    HW228821   0.751   3.755   0.758
 9308SOL     OW28822   1.459   3.804   0.458
 9308SOL    HW128823   1.378   3.756   0.492
 9308SOL    HW228824   1.516   3.831   0.535
 9309SOL     OW28825   3.633   5.174   5.994
 9309SOL    HW128826   3.728   5.143   5.989
 9309SOL    HW228827   3.631   5.274   5.992
 9310SOL     OW28828   5.744   5.864   5.547
 9310SOL    HW128829   5.694   5.793   5.496
 9310SOL    HW228830   5.818   5.899   5.490
 9311SOL     OW28831   4.480   4.659   1.526
 9311SOL    HW128832   4.444   4.666   1.434
 9311SOL    HW228833   4.415   4.610   1.585
 9312SOL     OW28834   1.273   3.609   1.244
 9312SOL    HW128835   1.298   3.700   1.211
 9312SOL    HW228836   1.334   3.583   1.319
 9313SOL     OW28837   6.933   0.471   1.641
 9313SOL    HW128838   6.940   0.561   1.598
 9313SOL    HW228839   0.002   0.430   1.646
 9314SOL     OW28840   6.069   4.432   6.693
 9314SOL    HW128841   6.121   4.392   6.768
 9314SOL    HW228842   6.131   4.456   6.618
 9315SOL     OW28843   0.003   0.012   5.632
 9315SOL    HW128844   6.929   0.040   5.643
 9315SOL    HW228845   0.042   0.058   5.552
 9316SOL     OW28846   5.260   6.568   6.020
 9316SOL    HW128847   5.166   6.533   6.019
 9316SOL    HW228848   5.300   6.558   5.930
 9317SOL     OW28849   5.188   5.744   4.000
 9317SOL    HW128850   5.265   5.751   3.938
 9317SOL    HW228851   5.107   5.787   3.959
 9318SOL     OW28852   6.328   1.406   6.273
 9318SOL    HW128853   6.375   1.359   6.198
 9318SOL    HW228854   6.263   1.344   6.316
 9319SOL     OW28855   2.291   2.869   6.980
 9319SOL    HW128856   2.358   2.840   0.027
 9319SOL    HW228857   2.277   2.968   6.987
 9320SOL     OW28858   3.371   0.960   4.794
 9320SOL    HW128859   3.462   0.992   4.820
 9320SOL    HW228860   3.366   0.952   4.695
 9321SOL     OW28861   0.911   0.209   4.917
 9321SOL    HW128862   0.970   0.141   4.872
 9321SOL    HW228863   0.952   0.300   4.908
 9322SOL     OW28864   6.893   3.550   6.026
 9322SOL    HW128865   6.970   3.571   6.085
 9322SOL    HW228866   6.811   3.536   6.082
 9323SOL     OW28867   1.333   1.274   5.357
 9323SOL    HW128868   1.374   1.318   5.437
 9323SOL    HW228869   1.386   1.192   5.334
 9324SOL     OW28870   1.202   4.797   1.959
 9324SOL    HW128871   1.216   4.708   2.001
 9324SOL    HW228872   1.200   4.788   1.859
 9325SOL     OW28873   5.884   1.413   0.209
 9325SOL    HW128874   5.923   1.468   0.136
 9325SOL    HW228875   5.923   1.442   0.297
 9326SOL     OW28876   2.747   4.737   0.186
 9326SOL    HW128877   2.762   4.674   0.110
 9326SOL    HW228878   2.650   4.763   0.189
 9327SOL     OW28879   4.620   0.187   2.486
 9327SOL    HW128880   4.656   0.207   2.395
 9327SOL    HW228881   4.638   0.263   2.548
 9328SOL     OW28882   2.398   0.941   4.489
 9328SOL    HW128883   2.318   1.000   4.499
 9328SOL    HW228884   2.468   0.971   4.554
 9329SOL     OW28885   5.826   3.718   1.037
 9329SOL    HW128886   5.738   3.764   1.029
 9329SOL    HW228887   5.832   3.674   1.127
 9330SOL     OW28888   6.651   0.399   5.494
 9330SOL    HW128889   6.639   0.321   5.433
 9330SOL    HW228890   6.748   0.412   5.514
 9331SOL     OW28891   2.532   0.828   6.562
 9331SOL    HW128892   2.560   0.913   6.516
 9331SOL    HW228893   2.438   0.807   6.536
 9332SOL     OW28894   3.978   4.789   0.593
 9332SOL    HW128895   4.030   4.707   0.614
 9332SOL    HW228896   3.913   4.769   0.519
 9333SOL     OW28897   3.658   4.762   6.694
 9333SOL    HW128898   3.577   4.704   6.684
 9333SOL    HW228899   3.740   4.708   6.670
 9334SOL     OW28900   5.001   6.467   4.244
 9334SOL    HW128901   5.047   6.529   4.308
 9334SOL    HW228902   4.965   6.518   4.167
 9335SOL     OW28903   1.459   1.071   6.828
 9335SOL    HW128904   1.410   1.107   6.907
 9335SOL    HW228905   1.405   0.999   6.785
 9336SOL     OW28906   3.811   6.907   5.015
 9336SOL    HW128907   3.760   6.986   5.049
 9336SOL    HW228908   3.902   6.906   5.057
 9337SOL     OW28909   4.108   0.393   5.103
 9337SOL    HW128910   4.167   0.412   5.182
 9337SOL    HW228911   4.061   0.476   5.076
 9338SOL     OW28912   6.116   7.016   1.067
 9338SOL    HW128913   6.215   7.018   1.056
 9338SOL    HW228914   6.091   0.032   1.156
 9339SOL     OW28915   5.968   6.659   0.081
 9339SOL    HW128916   5.963   6.735   0.146
 9339SOL    HW228917   6.038   6.677   0.013
 9340SOL     OW28918   3.815   4.962   3.955
 9340SOL    HW128919   3.872   4.879   3.963
 9340SOL    HW228920   3.873   5.040   3.935
 9341SOL     OW28921   6.157   5.119   1.198
 9341SOL    HW128922   6.088   5.136   1.268
 9341SOL    HW228923   6.119   5.058   1.128
 9342SOL     OW28924   3.081   6.986   4.233
 9342SOL    HW128925   3.034   6.908   4.192
 9342SOL    HW228926   3.134   6.955   4.312
 9343SOL     OW28927   4.797   4.259   1.783
 9343SOL    HW128928   4.793   4.168   1.742
 9343SOL    HW228929   4.809   4.250   1.882
 9344SOL     OW28930   5.517   6.312   1.533
 9344SOL    HW128931   5.553   6.274   1.619
 9344SOL    HW228932   5.529   6.246   1.460
 9345SOL     OW28933   6.746   5.110   1.462
 9345SOL    HW128934   6.708   5.021   1.486
 9345SOL    HW228935   6.730   5.128   1.365
 9346SOL     OW28936   4.970   1.086   1.902
 9346SOL    HW128937   5.026   1.097   1.985
 9346SOL    HW228938   4.889   1.032   1.924
 9347SOL     OW28939   3.743   4.445   0.559
 9347SOL    HW128940   3.705   4.508   0.491
 9347SOL    HW228941   3.700   4.462   0.648
 9348SOL     OW28942   2.543   5.870   2.077
 9348SOL    HW128943   2.566   5.935   2.150
 9348SOL    HW228944   2.561   5.777   2.108
 9349SOL     OW28945   5.759   5.060   1.984
 9349SOL    HW128946   5.813   4.983   1.950
 9349SOL    HW228947   5.766   5.064   2.084
 9350SOL     OW28948   6.688   2.464   5.486
 9350SOL    HW128949   6.774   2.499   5.449
 9350SOL    HW228950   6.613   2.490   5.426
 9351SOL     OW28951   3.178   0.037   6.273
 9351SOL    HW128952   3.112   0.056   6.201
 9351SOL    HW228953   3.180   0.113   6.338
 9352SOL     OW28954   3.088   1.481   6.255
 9352SOL    HW128955   3.057   1.526   6.339
 9352SOL    HW228956   3.172   1.431   6.273
 9353SOL     OW28957   0.156   4.371   0.642
 9353SOL    HW128958   0.207   4.450   0.675
 9353SOL    HW228959   0.173   4.292   0.701
 9354SOL     OW28960   0.238   2.349   6.044
 9354SOL    HW128961   0.291   2.303   5.973
 9354SOL    HW228962   0.244   2.295   6.129
 9355SOL     OW28963   0.414   1.871   4.595
 9355SOL    HW128964   0.384   1.960   4.628
 9355SOL    HW228965   0.335   1.820   4.561
 9356SOL     OW28966   4.913   6.166   2.449
 9356SOL    HW128967   4.906   6.148   2.351
 9356SOL    HW228968   4.825   6.148   2.492
 9357SOL     OW28969   1.933   3.561   6.520
 9357SOL    HW128970   1.902   3.500   6.593
 9357SOL    HW228971   1.912   3.655   6.544
 9358SOL     OW28972   6.735   3.241   2.482
 9358SOL    HW128973   6.740   3.300   2.402
 9358SOL    HW228974   6.643   3.202   2.490
 9359SOL     OW28975   1.851   3.886   5.248
 9359SOL    HW128976   1.896   3.820   5.309
 9359SOL    HW228977   1.752   3.877   5.257
 9360SOL     OW28978   1.472   5.534   6.869
 9360SOL    HW128979   1.400   5.584   6.822
 9360SOL    HW228980   1.500   5.585   6.951
 9361SOL     OW28981   1.853   5.705   2.362
 9361SOL    HW128982   1.919   5.630   2.359
 9361SOL    HW228983   1.902   5.791   2.379
 9362SOL     OW28984   2.168   3.525   3.121
 9362SOL    HW128985   2.118   3.509   3.035
 9362SOL    HW228986   2.103   3.526   3.197
 9363SOL     OW28987   3.752   7.019   2.110
 9363SOL    HW128988   3.819   0.040   2.050
 9363SOL    HW228989   3.673   6.989   2.056
 9364SOL     OW28990   4.110   3.297   6.424
 9364SOL    HW128991   4.083   3.372   6.363
 9364SOL    HW228992   4.142   3.220   6.370
 9365SOL     OW28993   2.540   1.887   4.728
 9365SOL    HW128994   2.572   1.894   4.633
 9365SOL    HW228995   2.448   1.846   4.729
 9366SOL     OW28996   3.588   6.615   6.363
 9366SOL    HW128997   3.639   6.581   6.442
 9366SOL    HW228998   3.492   6.626   6.388
 9367SOL     OW28999   0.367   0.006   2.952
 9367SOL    HW129000   0.366   6.928   2.945
 9367SOL    HW229001   0.417   0.045   2.875
 9368SOL     OW29002   2.936   0.904   2.685
 9368SOL    HW129003   2.957   0.993   2.727
 9368SOL    HW229004   2.951   0.910   2.586
 9369SOL     OW29005   6.842   6.201   4.715
 9369SOL    HW129006   6.907   6.125   4.725
 9369SOL    HW229007   6.770   6.175   4.650
 9370SOL     OW29008   4.928   0.393   3.642
 9370SOL    HW129009   4.921   0.363   3.737
 9370SOL    HW229010   4.855   0.458   3.622
 9371SOL     OW29011   2.996   5.516   0.570
 9371SOL    HW129012   2.943   5.432   0.582
 9371SOL    HW229013   3.090   5.493   0.548
 9372SOL     OW29014   5.526   0.003   2.608
 9372SOL    HW129015   5.537   0.010   2.509
 9372SOL    HW229016   5.607   0.041   2.653
 9373SOL     OW29017   4.950   2.211   2.638
 9373SOL    HW129018   4.860   2.200   2.597
 9373SOL    HW229019   4.941   2.235   2.735
 9374SOL     OW29020   0.599   3.715   0.455
 9374SOL    HW129021   0.664   3.665   0.513
 9374SOL    HW229022   0.581   3.661   0.372
 9375SOL     OW29023   0.386   1.021   1.420
 9375SOL    HW129024   0.321   1.081   1.373
 9375SOL    HW229025   0.374   1.031   1.519
 9376SOL     OW29026   2.490   3.910   1.317
 9376SOL    HW129027   2.414   3.851   1.290
 9376SOL    HW229028   2.455   3.986   1.371
 9377SOL     OW29029   1.874   5.770   4.171
 9377SOL    HW129030   1.812   5.701   4.134
 9377SOL    HW229031   1.824   5.830   4.233
 9378SOL     OW29032   1.749   1.414   3.747
 9378SOL    HW129033   1.842   1.380   3.732
 9378SOL    HW229034   1.687   1.337   3.758
 9379SOL     OW29035   4.814   6.134   5.756
 9379SOL    HW129036   4.899   6.148   5.705
 9379SOL    HW229037   4.815   6.191   5.838
 9380SOL     OW29038   4.814   5.678   4.922
 9380SOL    HW129039   4.829   5.615   4.999
 9380SOL    HW229040   4.726   5.724   4.934
 9381SOL     OW29041   3.889   2.835   6.275
 9381SOL    HW129042   3.896   2.922   6.226
 9381SOL    HW229043   3.826   2.775   6.227
 9382SOL     OW29044   3.761   0.333   3.457
 9382SOL    HW129045   3.744   0.409   3.394
 9382SOL    HW229046   3.853   0.340   3.495
 9383SOL     OW29047   0.261   5.883   4.597
 9383SOL    HW129048   0.191   5.822   4.634
 9383SOL    HW229049   0.327   5.905   4.669
 9384SOL     OW29050   4.117   0.579   2.210
 9384SOL    HW129051   4.142   0.535   2.296
 9384SOL    HW229052   4.063   0.515   2.154
 9385SOL     OW29053   3.972   0.850   3.426
 9385SOL    HW129054   4.056   0.861   3.479
 9385SOL    HW229055   3.894   0.877   3.482
 9386SOL     OW29056   1.903   5.820   5.114
 9386SOL    HW129057   1.895   5.872   5.199
 9386SOL    HW229058   1.869   5.727   5.129
 9387SOL     OW29059   2.778   1.455   6.894
 9387SOL    HW129060   2.863   1.403   6.895
 9387SOL    HW229061   2.702   1.393   6.874
 9388SOL     OW29062   3.096   6.687   2.993
 9388SOL    HW129063   3.142   6.746   2.926
 9388SOL    HW229064   3.123   6.592   2.979
 9389SOL     OW29065   2.127   0.464   3.394
 9389SOL    HW129066   2.207   0.425   3.349
 9389SOL    HW229067   2.095   0.544   3.344
 9390SOL     OW29068   4.647   4.819   6.135
 9390SOL    HW129069   4.695   4.790   6.052
 9390SOL    HW229070   4.564   4.765   6.147
 9391SOL     OW29071   1.872   1.751   5.184
 9391SOL    HW129072   1.858   1.754   5.085
 9391SOL    HW229073   1.877   1.844   5.220
 9392SOL     OW29074   5.790   5.880   5.062
 9392SOL    HW129075   5.703   5.907   5.021
 9392SOL    HW229076   5.786   5.784   5.089
 9393SOL     OW29077   3.139   6.612   7.021
 9393SOL    HW129078   3.058   6.638   0.053
 9393SOL    HW229079   3.218   6.663   0.032
 9394SOL     OW29080   6.407   0.758   1.615
 9394SOL    HW129081   6.410   0.791   1.520
 9394SOL    HW229082   6.496   0.722   1.641
 9395SOL     OW29083   3.197   1.859   1.175
 9395SOL    HW129084   3.234   1.948   1.200
 9395SOL    HW229085   3.192   1.801   1.256
 9396SOL     OW29086   2.292   4.101   4.047
 9396SOL    HW129087   2.349   4.019   4.041
 9396SOL    HW229088   2.285   4.131   4.143
 9397SOL     OW29089   4.368   6.980   6.305
 9397SOL    HW129090   4.401   6.931   6.385
 9397SOL    HW229091   4.278   7.020   6.325
 9398SOL     OW29092   6.243   1.141   4.819
 9398SOL    HW129093   6.293   1.203   4.879
 9398SOL    HW229094   6.305   1.104   4.750
 9399SOL     OW29095   1.174   3.139   5.353
 9399SOL    HW129096   1.114   3.205   5.397
 9399SOL    HW229097   1.160   3.048   5.393
 9400SOL     OW29098   4.555   1.260   1.349
 9400SOL    HW129099   4.621   1.263   1.423
 9400SOL    HW229100   4.601   1.240   1.262
 9401SOL     OW29101   6.580   0.737   3.364
 9401SOL    HW129102   6.587   0.646   3.324
 9401SOL    HW229103   6.496   0.781   3.332
 9402SOL     OW29104   1.033   5.063   2.819
 9402SOL    HW129105   1.130   5.083   2.809
 9402SOL    HW229106   0.995   5.115   2.896
 9403SOL     OW29107   6.490   1.276   2.197
 9403SOL    HW129108   6.432   1.347   2.237
 9403SOL    HW229109   6.445   1.239   2.115
 9404SOL     OW29110   1.275   2.695   0.512
 9404SOL    HW129111   1.229   2.754   0.579
 9404SOL    HW229112   1.226   2.608   0.505
 9405SOL     OW29113   2.350   4.305   3.878
 9405SOL    HW129114   2.262   4.342   3.850
 9405SOL    HW229115   2.337   4.217   3.924
 9406SOL     OW29116   6.667   2.985   6.136
 9406SOL    HW129117   6.718   3.025   6.211
 9406SOL    HW229118   6.706   3.015   6.049
 9407SOL     OW29119   2.930   4.862   3.510
 9407SOL    HW129120   2.967   4.844   3.601
 9407SOL    HW229121   2.832   4.879   3.516
 9408SOL     OW29122   6.738   3.080   5.901
 9408SOL    HW129123   6.761   3.173   5.875
 9408SOL    HW229124   6.641   3.064   5.884
 9409SOL     OW29125   5.828   5.494   0.232
 9409SOL    HW129126   5.776   5.454   0.156
 9409SOL    HW229127   5.909   5.438   0.249
 9410SOL     OW29128   1.956   0.388   2.169
 9410SOL    HW129129   2.050   0.389   2.134
 9410SOL    HW229130   1.909   0.471   2.141
 9411SOL     OW29131   3.566   3.708   2.497
 9411SOL    HW129132   3.483   3.763   2.490
 9411SOL    HW229133   3.542   3.613   2.517
 9412SOL     OW29134   1.194   0.882   2.523
 9412SOL    HW129135   1.189   0.947   2.448
 9412SOL    HW229136   1.275   0.825   2.513
 9413SOL     OW29137   4.245   6.026   3.568
 9413SOL    HW129138   4.175   5.955   3.565
 9413SOL    HW229139   4.204   6.114   3.540
 9414SOL     OW29140   3.082   1.002   3.223
 9414SOL    HW129141   3.005   1.032   3.166
 9414SOL    HW229142   3.077   0.903   3.237
 9415SOL     OW29143   2.567   6.896   2.448
 9415SOL    HW129144   2.623   6.973   2.478
 9415SOL    HW229145   2.481   6.930   2.409
 9416SOL     OW29146   0.252   2.068   6.601
 9416SOL    HW129147   0.208   2.083   6.512
 9416SOL    HW229148   0.208   2.124   6.671
 9417SOL     OW29149   4.404   0.220   0.909
 9417SOL    HW129150   4.475   0.173   0.858
 9417SOL    HW229151   4.432   0.230   1.004
 9418SOL     OW29152   3.226   0.887   1.494
 9418SOL    HW129153   3.175   0.852   1.416
 9418SOL    HW229154   3.323   0.895   1.470
 9419SOL     OW29155   2.759   4.091   5.748
 9419SOL    HW129156   2.714   4.075   5.660
 9419SOL    HW229157   2.832   4.158   5.736
 9420SOL     OW29158   5.555   4.384   6.358
 9420SOL    HW129159   5.537   4.433   6.443
 9420SOL    HW229160   5.650   4.398   6.331
 9421SOL     OW29161   2.209   6.130   4.651
 9421SOL    HW129162   2.213   6.031   4.635
 9421SOL    HW229163   2.271   6.176   4.588
 9422SOL     OW29164   3.028   5.454   2.995
 9422SOL    HW129165   2.945   5.399   2.996
 9422SOL    HW229166   3.102   5.403   3.039
 9423SOL     OW29167   2.749   6.669   3.745
 9423SOL    HW129168   2.708   6.759   3.757
 9423SOL    HW229169   2.849   6.678   3.739
 9424SOL     OW29170   5.202   2.035   5.051
 9424SOL    HW129171   5.196   2.132   5.075
 9424SOL    HW229172   5.263   1.989   5.115
 9425SOL     OW29173   5.418   3.642   1.272
 9425SOL    HW129174   5.323   3.636   1.240
 9425SOL    HW229175   5.421   3.631   1.371
 9426SOL     OW29176   3.246   1.777   6.062
 9426SOL    HW129177   3.248   1.834   5.980
 9426SOL    HW229178   3.268   1.682   6.038
 9427SOL     OW29179   2.432   5.285   3.390
 9427SOL    HW129180   2.445   5.382   3.369
 9427SOL    HW229181   2.346   5.273   3.439
 9428SOL     OW29182   6.633   1.137   1.526
 9428SOL    HW129183   6.591   1.227   1.536
 9428SOL    HW229184   6.655   1.122   1.429
 9429SOL     OW29185   2.037   4.043   3.373
 9429SOL    HW129186   2.074   4.111   3.436
 9429SOL    HW229187   2.105   4.021   3.303
 9430SOL     OW29188   0.274   3.230   4.957
 9430SOL    HW129189   0.310   3.298   4.893
 9430SOL    HW229190   0.342   3.158   4.971
 9431SOL     OW29191   6.575   4.212   0.724
 9431SOL    HW129192   6.633   4.290   0.701
 9431SOL    HW229193   6.601   4.133   0.669
 9432SOL     OW29194   5.606   0.262   3.279
 9432SOL    HW129195   5.616   0.257   3.378
 9432SOL    HW229196   5.526   0.209   3.251
 9433SOL     OW29197   3.073   6.153   3.437
 9433SOL    HW129198   3.107   6.203   3.357
 9433SOL    HW229199   2.979   6.182   3.457
 9434SOL     OW29200   5.447   5.598   1.822
 9434SOL    HW129201   5.469   5.676   1.881
 9434SOL    HW229202   5.376   5.626   1.756
 9435SOL     OW29203   0.578   2.929   3.564
 9435SOL    HW129204   0.490   2.920   3.611
 9435SOL    HW229205   0.629   3.006   3.603
 9436SOL     OW29206   1.532   2.910   1.326
 9436SOL    HW129207   1.610   2.847   1.322
 9436SOL    HW229208   1.546   2.984   1.260
 9437SOL     OW29209   1.265   6.025   3.187
 9437SOL    HW129210   1.328   6.038   3.263
 9437SOL    HW229211   1.292   5.943   3.135
 9438SOL     OW29212   0.450   6.847   1.694
 9438SOL    HW129213   0.361   6.803   1.683
 9438SOL    HW229214   0.472   6.854   1.791
 9439SOL     OW29215   0.227   2.873   0.232
 9439SOL    HW129216   0.289   2.914   0.165
 9439SOL    HW229217   0.259   2.781   0.255
 9440SOL     OW29218   3.883   4.816   3.251
 9440SOL    HW129219   3.951   4.757   3.295
 9440SOL    HW229220   3.922   4.854   3.167
 9441SOL     OW29221   6.061   4.247   5.864
 9441SOL    HW129222   6.075   4.283   5.956
 9441SOL    HW229223   6.109   4.304   5.798
 9442SOL     OW29224   4.586   3.604   1.197
 9442SOL    HW129225   4.522   3.534   1.163
 9442SOL    HW229226   4.611   3.584   1.292
 9443SOL     OW29227   2.576   5.043   0.933
 9443SOL    HW129228   2.599   5.139   0.915
 9443SOL    HW229229   2.572   5.028   1.031
 9444SOL     OW29230   1.880   3.694   0.709
 9444SOL    HW129231   1.877   3.769   0.776
 9444SOL    HW229232   1.917   3.612   0.752
 9445SOL     OW29233   6.208   3.311   3.038
 9445SOL    HW129234   6.205   3.221   2.995
 9445SOL    HW229235   6.277   3.311   3.110
 9446SOL     OW29236   6.166   5.311   4.842
 9446SOL    HW129237   6.237   5.378   4.866
 9446SOL    HW229238   6.101   5.353   4.779
 9447SOL     OW29239   5.962   4.893   3.932
 9447SOL    HW129240   5.901   4.917   4.008
 9447SOL    HW229241   5.914   4.830   3.871
 9448SOL     OW29242   6.933   0.472   5.842
 9448SOL    HW129243   0.001   0.445   5.876
 9448SOL    HW229244   6.906   0.559   5.884
 9449SOL     OW29245   5.554   0.249   0.195
 9449SOL    HW129246   5.585   0.235   0.289
 9449SOL    HW229247   5.467   0.201   0.182
 9450SOL     OW29248   2.307   5.950   4.402
 9450SOL    HW129249   2.326   5.994   4.315
 9450SOL    HW229250   2.249   5.870   4.387
 9451SOL     OW29251   4.563   6.747   5.621
 9451SOL    HW129252   4.543   6.728   5.525
 9451SOL    HW229253   4.581   6.661   5.669
 9452SOL     OW29254   2.238   3.822   0.338
 9452SOL    HW129255   2.202   3.846   0.248
 9452SOL    HW229256   2.167   3.777   0.392
 9453SOL     OW29257   3.080   4.841   2.798
 9453SOL    HW129258   3.046   4.750   2.774
 9453SOL    HW229259   3.071   4.855   2.896
 9454SOL     OW29260   3.662   4.030   6.411
 9454SOL    HW129261   3.624   3.942   6.440
 9454SOL    HW229262   3.762   4.023   6.407
 9455SOL     OW29263   2.103   1.874   3.807
 9455SOL    HW129264   2.029   1.896   3.743
 9455SOL    HW229265   2.099   1.777   3.831
 9456SOL     OW29266   0.066   3.358   0.959
 9456SOL    HW129267   0.029   3.370   0.867
 9456SOL    HW229268   0.003   3.398   1.026
 9457SOL     OW29269   1.736   3.691   3.853
 9457SOL    HW129270   1.809   3.748   3.814
 9457SOL    HW229271   1.731   3.707   3.952
 9458SOL     OW29272   0.785   3.398   6.660
 9458SOL    HW129273   0.834   3.448   6.731
 9458SOL    HW229274   0.690   3.386   6.688
 9459SOL     OW29275   5.365   4.754   3.832
 9459SOL    HW129276   5.340   4.658   3.816
 9459SOL    HW229277   5.452   4.758   3.881
 9460SOL     OW29278   1.771   3.422   3.913
 9460SOL    HW129279   1.866   3.394   3.903
 9460SOL    HW229280   1.762   3.519   3.890
 9461SOL     OW29281   0.505   1.814   1.532
 9461SOL    HW129282   0.414   1.774   1.539
 9461SOL    HW229283   0.545   1.823   1.624
 9462SOL     OW29284   1.994   3.500   3.329
 9462SOL    HW129285   1.903   3.467   3.353
 9462SOL    HW229286   2.014   3.583   3.380
 9463SOL     OW29287   5.821   0.422   1.287
 9463SOL    HW129288   5.760   0.444   1.210
 9463SOL    HW229289   5.843   0.324   1.284
 9464SOL     OW29290   5.950   0.693   1.120
 9464SOL    HW129291   5.913   0.731   1.205
 9464SOL    HW229292   5.959   0.594   1.129
 9465SOL     OW29293   0.467   4.123   1.767
 9465SOL    HW129294   0.565   4.105   1.776
 9465SOL    HW229295   0.415   4.045   1.801
 9466SOL     OW29296   3.779   4.728   5.380
 9466SOL    HW129297   3.871   4.716   5.341
 9466SOL    HW229298   3.719   4.657   5.345
 9467SOL     OW29299   1.602   2.456   1.358
 9467SOL    HW129300   1.579   2.388   1.428
 9467SOL    HW229301   1.519   2.479   1.307
 9468SOL     OW29302   5.619   3.723   6.318
 9468SOL    HW129303   5.713   3.751   6.336
 9468SOL    HW229304   5.574   3.790   6.260
 9469SOL     OW29305   6.823   4.863   1.709
 9469SOL    HW129306   6.828   4.770   1.674
 9469SOL    HW229307   6.777   4.864   1.798
 9470SOL     OW29308   4.989   3.364   6.592
 9470SOL    HW129309   4.953   3.453   6.620
 9470SOL    HW229310   5.011   3.366   6.494
 9471SOL     OW29311   6.498   2.223   4.063
 9471SOL    HW129312   6.477   2.230   3.966
 9471SOL    HW229313   6.414   2.218   4.116
 9472SOL     OW29314   6.349   2.740   5.007
 9472SOL    HW129315   6.428   2.780   5.054
 9472SOL    HW229316   6.318   2.802   4.935
 9473SOL     OW29317   3.008   5.261   0.405
 9473SOL    HW129318   3.027   5.214   0.319
 9473SOL    HW229319   3.093   5.300   0.440
 9474SOL     OW29320   6.841   3.331   0.024
 9474SOL    HW129321   6.742   3.342   0.013
 9474SOL    HW229322   6.888   3.407   7.001
 9475SOL     OW29323   3.600   3.383   6.803
 9475SOL    HW129324   3.637   3.417   6.890
 9475SOL    HW229325   3.658   3.309   6.769
 9476SOL     OW29326   4.056   3.696   4.068
 9476SOL    HW129327   4.111   3.629   4.117
 9476SOL    HW229328   4.085   3.699   3.972
 9477SOL     OW29329   0.921   2.622   0.404
 9477SOL    HW129330   0.847   2.593   0.343
 9477SOL    HW229331   0.882   2.660   0.488
 9478SOL     OW29332   5.056   3.100   1.244
 9478SOL    HW129333   4.979   3.133   1.298
 9478SOL    HW229334   5.110   3.178   1.212
 9479SOL     OW29335   4.562   6.594   0.222
 9479SOL    HW129336   4.614   6.575   0.139
 9479SOL    HW229337   4.618   6.645   0.287
 9480SOL     OW29338   5.417   4.422   0.521
 9480SOL    HW129339   5.323   4.446   0.499
 9480SOL    HW229340   5.424   4.324   0.539
 9481SOL     OW29341   4.895   3.132   2.896
 9481SOL    HW129342   4.865   3.186   2.817
 9481SOL    HW229343   4.992   3.148   2.913
 9482SOL     OW29344   0.553   1.327   2.503
 9482SOL    HW129345   0.591   1.390   2.571
 9482SOL    HW229346   0.523   1.379   2.423
 9483SOL     OW29347   1.616   0.538   1.031
 9483SOL    HW129348   1.546   0.474   1.063
 9483SOL    HW229349   1.707   0.498   1.045
 9484SOL     OW29350   4.269   0.282   4.472
 9484SOL    HW129351   4.293   0.346   4.545
 9484SOL    HW229352   4.172   0.261   4.476
 9485SOL     OW29353   0.484   0.964   0.895
 9485SOL    HW129354   0.480   1.054   0.938
 9485SOL    HW229355   0.579   0.939   0.877
 9486SOL     OW29356   3.851   6.515   0.802
 9486SOL    HW129357   3.849   6.602   0.752
 9486SOL    HW229358   3.769   6.462   0.779
 9487SOL     OW29359   3.301   3.875   3.789
 9487SOL    HW129360   3.358   3.908   3.864
 9487SOL    HW229361   3.205   3.874   3.817
 9488SOL     OW29362   2.916   0.422   1.116
 9488SOL    HW129363   2.830   0.448   1.159
 9488SOL    HW229364   2.988   0.416   1.186
 9489SOL     OW29365   4.511   4.131   1.016
 9489SOL    HW129366   4.507   4.059   1.085
 9489SOL    HW229367   4.604   4.169   1.014
 9490SOL     OW29368   6.032   5.081   2.304
 9490SOL    HW129369   6.039   5.091   2.403
 9490SOL    HW229370   5.945   5.036   2.281
 9491SOL     OW29371   5.645   4.776   3.956
 9491SOL    HW129372   5.696   4.740   4.034
 9491SOL    HW229373   5.696   4.758   3.872
 9492SOL     OW29374   3.522   3.203   4.784
 9492SOL    HW129375   3.530   3.294   4.742
 9492SOL    HW229376   3.597   3.189   4.848
 9493SOL     OW29377   2.599   5.536   4.724
 9493SOL    HW129378   2.549   5.601   4.781
 9493SOL    HW229379   2.587   5.444   4.759
 9494SOL     OW29380   5.039   2.767   2.670
 9494SOL    HW129381   5.049   2.676   2.629
 9494SOL    HW229382   4.943   2.792   2.672
 9495SOL     OW29383   6.752   1.899   3.000
 9495SOL    HW129384   6.809   1.873   2.922
 9495SOL    HW229385   6.666   1.938   2.968
 9496SOL     OW29386   5.904   3.641   1.495
 9496SOL    HW129387   5.831   3.660   1.428
 9496SOL    HW229388   5.966   3.572   1.457
 9497SOL     OW29389   5.984   6.960   6.173
 9497SOL    HW129390   5.911   6.967   6.241
 9497SOL    HW229391   6.001   6.864   6.151
 9498SOL     OW29392   5.122   6.765   4.212
 9498SOL    HW129393   5.059   6.730   4.143
 9498SOL    HW229394   5.070   6.813   4.283
 9499SOL     OW29395   2.393   4.397   6.382
 9499SOL    HW129396   2.355   4.469   6.324
 9499SOL    HW229397   2.321   4.361   6.441
 9500SOL     OW29398   4.863   0.102   1.193
 9500SOL    HW129399   4.845   0.200   1.194
 9500SOL    HW229400   4.777   0.052   1.205
 9501SOL     OW29401   2.786   1.187   5.452
 9501SOL    HW129402   2.814   1.093   5.435
 9501SOL    HW229403   2.791   1.206   5.550
 9502SOL     OW29404   5.878   2.539   5.329
 9502SOL    HW129405   5.934   2.622   5.341
 9502SOL    HW229406   5.820   2.550   5.249
 9503SOL     OW29407   0.926   1.863   1.141
 9503SOL    HW129408   0.843   1.807   1.139
 9503SOL    HW229409   0.938   1.902   1.232
 9504SOL     OW29410   6.925   2.759   0.609
 9504SOL    HW129411   6.919   2.751   0.708
 9504SOL    HW229412   7.018   2.736   0.580
 9505SOL     OW29413   5.302   4.361   4.313
 9505SOL    HW129414   5.287   4.384   4.217
 9505SOL    HW229415   5.223   4.310   4.348
 9506SOL     OW29416   1.627   2.468   6.359
 9506SOL    HW129417   1.613   2.510   6.449
 9506SOL    HW229418   1.704   2.406   6.363
 9507SOL     OW29419   0.698   1.102   2.366
 9507SOL    HW129420   0.791   1.122   2.398
 9507SOL    HW229421   0.631   1.142   2.428
 9508SOL     OW29422   6.103   1.662   1.367
 9508SOL    HW129423   6.034   1.634   1.300
 9508SOL    HW229424   6.149   1.744   1.336
 9509SOL     OW29425   0.469   0.876   3.505
 9509SOL    HW129426   0.391   0.938   3.493
 9509SOL    HW229427   0.550   0.929   3.529
 9510SOL     OW29428   2.028   3.761   3.442
 9510SOL    HW129429   2.070   3.753   3.532
 9510SOL    HW229430   2.041   3.854   3.407
 9511SOL     OW29431   1.667   0.193   1.255
 9511SOL    HW129432   1.617   0.142   1.185
 9511SOL    HW229433   1.608   0.211   1.333
 9512SOL     OW29434   5.969   1.634   1.589
 9512SOL    HW129435   6.036   1.655   1.518
 9512SOL    HW229436   5.963   1.534   1.600
 9513SOL     OW29437   2.206   3.976   6.205
 9513SOL    HW129438   2.190   3.907   6.134
 9513SOL    HW229439   2.289   4.027   6.183
 9514SOL     OW29440   1.662   5.134   5.946
 9514SOL    HW129441   1.706   5.044   5.957
 9514SOL    HW229442   1.636   5.169   6.036
 9515SOL     OW29443   1.275   5.598   0.710
 9515SOL    HW129444   1.287   5.597   0.809
 9515SOL    HW229445   1.238   5.687   0.683
 9516SOL     OW29446   6.198   4.948   6.751
 9516SOL    HW129447   6.139   5.008   6.696
 9516SOL    HW229448   6.151   4.922   6.835
 9517SOL     OW29449   1.413   4.547   1.003
 9517SOL    HW129450   1.457   4.631   0.971
 9517SOL    HW229451   1.444   4.526   1.096
 9518SOL     OW29452   1.880   1.836   0.212
 9518SOL    HW129453   1.837   1.805   0.127
 9518SOL    HW229454   1.879   1.761   0.278
 9519SOL     OW29455   2.940   3.726   4.509
 9519SOL    HW129456   2.963   3.763   4.599
 9519SOL    HW229457   3.012   3.748   4.444
 9520SOL     OW29458   1.926   1.697   3.213
 9520SOL    HW129459   1.924   1.657   3.304
 9520SOL    HW229460   1.865   1.776   3.210
 9521SOL     OW29461   4.937   5.532   1.729
 9521SOL    HW129462   5.004   5.471   1.772
 9521SOL    HW229463   4.948   5.625   1.766
 9522SOL     OW29464   2.506   5.687   1.147
 9522SOL    HW129465   2.555   5.609   1.184
 9522SOL    HW229466   2.548   5.716   1.061
 9523SOL     OW29467   2.848   4.851   4.863
 9523SOL    HW129468   2.945   4.844   4.838
 9523SOL    HW229469   2.829   4.792   4.941
 9524SOL     OW29470   3.681   2.981   1.768
 9524SOL    HW129471   3.652   2.927   1.847
 9524SOL    HW229472   3.760   2.937   1.725
 9525SOL     OW29473   2.675   3.168   5.591
 9525SOL    HW129474   2.707   3.189   5.499
 9525SOL    HW229475   2.582   3.131   5.586
 9526SOL     OW29476   5.262   5.656   1.629
 9526SOL    HW129477   5.287   5.727   1.562
 9526SOL    HW229478   5.235   5.573   1.580
 9527SOL     OW29479   1.001   0.393   3.220
 9527SOL    HW129480   1.081   0.450   3.242
 9527SOL    HW229481   0.940   0.390   3.299
 9528SOL     OW29482   0.536   1.192   6.998
 9528SOL    HW129483   0.445   1.158   6.972
 9528SOL    HW229484   0.551   1.281   6.956
 9529SOL     OW29485   6.179   2.959   5.267
 9529SOL    HW129486   6.270   2.925   5.291
 9529SOL    HW229487   6.154   3.034   5.327
 9530SOL     OW29488   1.755   3.786   2.141
 9530SOL    HW129489   1.810   3.703   2.142
 9530SOL    HW229490   1.813   3.865   2.123
 9531SOL     OW29491   5.179   5.065   3.163
 9531SOL    HW129492   5.193   5.137   3.095
 9531SOL    HW229493   5.262   5.054   3.217
 9532SOL     OW29494   0.414   6.986   2.358
 9532SOL    HW129495   0.439   6.892   2.334
 9532SOL    HW229496   0.495   0.015   2.384
 9533SOL     OW29497   6.689   6.936   5.563
 9533SOL    HW129498   6.617   6.973   5.505
 9533SOL    HW229499   6.764   6.901   5.505
 9534SOL     OW29500   6.684   3.083   5.417
 9534SOL    HW129501   6.694   3.175   5.453
 9534SOL    HW229502   6.711   3.082   5.321
 9535SOL     OW29503   2.709   1.642   5.595
 9535SOL    HW129504   2.638   1.586   5.552
 9535SOL    HW229505   2.777   1.668   5.527
 9536SOL     OW29506   2.668   4.612   5.304
 9536SOL    HW129507   2.755   4.600   5.255
 9536SOL    HW229508   2.592   4.583   5.246
 9537SOL     OW29509   2.856   6.376   2.735
 9537SOL    HW129510   2.871   6.336   2.825
 9537SOL    HW229511   2.940   6.421   2.705
 9538SOL     OW29512   6.337   1.998   3.704
 9538SOL    HW129513   6.288   2.064   3.646
 9538SOL    HW229514   6.300   1.907   3.688
 9539SOL     OW29515   2.161   3.699   5.495
 9539SOL    HW129516   2.189   3.747   5.577
 9539SOL    HW229517   2.226   3.718   5.421
 9540SOL     OW29518   5.691   4.199   4.294
 9540SOL    HW129519   5.715   4.225   4.200
 9540SOL    HW229520   5.622   4.127   4.292
 9541SOL     OW29521   3.157   1.418   5.490
 9541SOL    HW129522   3.180   1.515   5.476
 9541SOL    HW229523   3.232   1.373   5.539
 9542SOL     OW29524   5.123   3.809   4.551
 9542SOL    HW129525   5.026   3.810   4.575
 9542SOL    HW229526   5.178   3.813   4.635
 9543SOL     OW29527   3.568   1.086   4.950
 9543SOL    HW129528   3.645   1.149   4.960
 9543SOL    HW229529   3.482   1.136   4.956
 9544SOL     OW29530   0.312   1.136   3.294
 9544SOL    HW129531   0.263   1.067   3.241
 9544SOL    HW229532   0.408   1.138   3.267
 9545SOL     OW29533   5.931   5.266   3.852
 9545SOL    HW129534   5.831   5.256   3.853
 9545SOL    HW229535   5.973   5.179   3.827
 9546SOL     OW29536   3.439   2.941   5.546
 9546SOL    HW129537   3.341   2.963   5.550
 9546SOL    HW229538   3.488   2.998   5.612
 9547SOL     OW29539   2.521   6.261   4.325
 9547SOL    HW129540   2.451   6.205   4.281
 9547SOL    HW229541   2.567   6.317   4.256
 9548SOL     OW29542   5.759   6.339   5.528
 9548SOL    HW129543   5.755   6.346   5.429
 9548SOL    HW229544   5.723   6.250   5.557
 9549SOL     OW29545   2.853   3.094   1.408
 9549SOL    HW129546   2.809   3.006   1.426
 9549SOL    HW229547   2.805   3.166   1.457
 9550SOL     OW29548   0.526   1.412   0.677
 9550SOL    HW129549   0.558   1.398   0.584
 9550SOL    HW229550   0.604   1.433   0.736
 9551SOL     OW29551   6.322   1.094   3.992
 9551SOL    HW129552   6.366   1.088   3.903
 9551SOL    HW229553   6.254   1.022   4.001
 9552SOL     OW29554   1.247   6.223   2.577
 9552SOL    HW129555   1.346   6.212   2.564
 9552SOL    HW229556   1.200   6.216   2.489
 9553SOL     OW29557   6.027   3.881   6.800
 9553SOL    HW129558   5.931   3.903   6.815
 9553SOL    HW229559   6.084   3.936   6.861
 9554SOL     OW29560   2.348   0.685   1.678
 9554SOL    HW129561   2.409   0.728   1.745
 9554SOL    HW229562   2.255   0.680   1.715
 9555SOL     OW29563   1.190   1.063   2.337
 9555SOL    HW129564   1.118   1.084   2.270
 9555SOL    HW229565   1.276   1.106   2.308
 9556SOL     OW29566   2.126   2.397   1.286
 9556SOL    HW129567   2.051   2.416   1.223
 9556SOL    HW229568   2.134   2.471   1.353
 9557SOL     OW29569   0.040   0.419   2.876
 9557SOL    HW129570   0.130   0.443   2.838
 9557SOL    HW229571   7.020   0.347   2.820
 9558SOL     OW29572   6.420   6.157   4.339
 9558SOL    HW129573   6.324   6.136   4.360
 9558SOL    HW229574   6.436   6.146   4.241
 9559SOL     OW29575   0.469   4.137   1.252
 9559SOL    HW129576   0.503   4.228   1.274
 9559SOL    HW229577   0.432   4.137   1.159
 9560SOL     OW29578   1.528   1.320   2.915
 9560SOL    HW129579   1.438   1.295   2.878
 9560SOL    HW229580   1.595   1.323   2.841
 9561SOL     OW29581   1.074   6.349   0.294
 9561SOL    HW129582   1.037   6.298   0.371
 9561SOL    HW229583   1.067   6.294   0.211
 9562SOL     OW29584   3.222   0.087   5.126
 9562SOL    HW129585   3.206   0.076   5.224
 9562SOL    HW229586   3.250   7.021   5.086
 9563SOL     OW29587   6.685   6.850   0.318
 9563SOL    HW129588   6.599   6.810   0.287
 9563SOL    HW229589   6.667   6.916   0.392
 9564SOL     OW29590   2.834   6.818   6.701
 9564SOL    HW129591   2.849   6.730   6.746
 9564SOL    HW229592   2.790   6.881   6.765
 9565SOL     OW29593   3.945   6.133   5.310
 9565SOL    HW129594   3.949   6.196   5.387
 9565SOL    HW229595   3.872   6.067   5.324
 9566SOL     OW29596   2.844   5.307   6.784
 9566SOL    HW129597   2.869   5.245   6.709
 9566SOL    HW229598   2.927   5.342   6.826
 9567SOL     OW29599   6.309   4.429   6.573
 9567SOL    HW129600   6.387   4.420   6.635
 9567SOL    HW229601   6.324   4.507   6.512
 9568SOL     OW29602   4.779   2.681   0.033
 9568SOL    HW129603   4.740   2.710   6.968
 9568SOL    HW229604   4.722   2.609   0.073
 9569SOL     OW29605   0.276   0.419   2.728
 9569SOL    HW129606   0.351   0.421   2.795
 9569SOL    HW229607   0.299   0.357   2.653
 9570SOL     OW29608   1.122   2.513   2.130
 9570SOL    HW129609   1.119   2.528   2.229
 9570SOL    HW229610   1.141   2.417   2.111
 9571SOL     OW29611   2.582   3.682   0.025
 9571SOL    HW129612   2.666   3.630   0.043
 9571SOL    HW229613   2.524   3.680   0.106
 9572SOL     OW29614   1.668   5.448   0.911
 9572SOL    HW129615   1.620   5.409   0.832
 9572SOL    HW229616   1.686   5.376   0.977
 9573SOL     OW29617   0.689   1.596   6.737
 9573SOL    HW129618   0.655   1.585   6.644
 9573SOL    HW229619   0.638   1.537   6.799
 9574SOL     OW29620   3.689   3.019   4.230
 9574SOL    HW129621   3.786   3.011   4.251
 9574SOL    HW229622   3.658   3.112   4.252
 9575SOL     OW29623   5.778   0.870   0.746
 9575SOL    HW129624   5.810   0.931   0.818
 9575SOL    HW229625   5.845   0.868   0.672
 9576SOL     OW29626   3.230   0.600   2.524
 9576SOL    HW129627   3.174   0.602   2.607
 9576SOL    HW229628   3.171   0.588   2.445
 9577SOL     OW29629   1.360   1.198   3.897
 9577SOL    HW129630   1.443   1.203   3.842
 9577SOL    HW229631   1.291   1.260   3.859
 9578SOL     OW29632   6.910   3.617   3.281
 9578SOL    HW129633   6.971   3.603   3.359
 9578SOL    HW229634   6.824   3.656   3.313
 9579SOL     OW29635   1.775   5.223   2.942
 9579SOL    HW129636   1.711   5.210   3.017
 9579SOL    HW229637   1.869   5.222   2.978
 9580SOL     OW29638   4.575   3.000   0.728
 9580SOL    HW129639   4.520   3.021   0.809
 9580SOL    HW229640   4.518   3.007   0.647
 9581SOL     OW29641   1.113   5.180   6.554
 9581SOL    HW129642   1.080   5.272   6.575
 9581SOL    HW229643   1.144   5.135   6.638
 9582SOL     OW29644   4.375   4.700   4.799
 9582SOL    HW129645   4.363   4.632   4.871
 9582SOL    HW229646   4.473   4.712   4.781
 9583SOL     OW29647   2.902   3.458   1.006
 9583SOL    HW129648   2.959   3.499   1.077
 9583SOL    HW229649   2.956   3.447   0.922
 9584SOL     OW29650   6.201   6.600   6.938
 9584SOL    HW129651   6.175   6.525   6.877
 9584SOL    HW229652   6.300   6.601   6.949
 9585SOL     OW29653   6.574   0.896   2.840
 9585SOL    HW129654   6.517   0.822   2.803
 9585SOL    HW229655   6.595   0.878   2.936
 9586SOL     OW29656   6.194   3.832   2.304
 9586SOL    HW129657   6.144   3.762   2.253
 9586SOL    HW229658   6.219   3.796   2.394
 9587SOL     OW29659   6.149   0.713   2.070
 9587SOL    HW129660   6.205   0.667   2.138
 9587SOL    HW229661   6.183   0.806   2.056
 9588SOL     OW29662   0.558   1.814   2.312
 9588SOL    HW129663   0.560   1.882   2.385
 9588SOL    HW229664   0.636   1.752   2.323
 9589SOL     OW29665   2.786   5.720   6.260
 9589SOL    HW129666   2.774   5.758   6.352
 9589SOL    HW229667   2.822   5.791   6.199
 9590SOL     OW29668   0.454   4.918   2.410
 9590SOL    HW129669   0.511   5.000   2.400
 9590SOL    HW229670   0.512   4.840   2.436
 9591SOL     OW29671   3.153   6.285   0.053
 9591SOL    HW129672   3.216   6.211   0.027
 9591SOL    HW229673   3.145   6.349   6.999
 9592SOL     OW29674   3.773   5.218   1.934
 9592SOL    HW129675   3.800   5.275   2.012
 9592SOL    HW229676   3.765   5.274   1.852
 9593SOL     OW29677   6.191   1.298   4.466
 9593SOL    HW129678   6.233   1.383   4.497
 9593SOL    HW229679   6.091   1.308   4.465
 9594SOL     OW29680   0.724   5.994   3.548
 9594SOL    HW129681   0.716   5.936   3.467
 9594SOL    HW229682   0.795   5.959   3.608
 9595SOL     OW29683   1.995   4.360   4.296
 9595SOL    HW129684   1.923   4.295   4.272
 9595SOL    HW229685   1.953   4.442   4.336
 9596SOL     OW29686   6.956   5.772   0.583
 9596SOL    HW129687   6.867   5.733   0.561
 9596SOL    HW229688   6.946   5.834   0.661
 9597SOL     OW29689   6.973   4.315   0.913
 9597SOL    HW129690   0.033   4.366   0.941
 9597SOL    HW229691   6.978   4.222   0.950
 9598SOL     OW29692   0.591   3.839   5.089
 9598SOL    HW129693   0.536   3.765   5.049
 9598SOL    HW229694   0.683   3.836   5.051
 9599SOL     OW29695   3.196   0.784   5.313
 9599SOL    HW129696   3.287   0.790   5.355
 9599SOL    HW229697   3.181   0.863   5.254
 9600SOL     OW29698   2.230   6.866   6.360
 9600SOL    HW129699   2.276   6.925   6.293
 9600SOL    HW229700   2.152   6.915   6.400
 9601SOL     OW29701   6.206   4.052   6.939
 9601SOL    HW129702   6.297   4.028   6.905
 9601SOL    HW229703   6.186   4.147   6.915
 9602SOL     OW29704   6.225   4.944   6.156
 9602SOL    HW129705   6.208   4.882   6.233
 9602SOL    HW229706   6.139   4.986   6.127
 9603SOL     OW29707   2.653   6.908   4.455
 9603SOL    HW129708   2.748   6.927   4.429
 9603SOL    HW229709   2.647   6.897   4.554
 9604SOL     OW29710   5.024   0.256   0.729
 9604SOL    HW129711   4.942   0.270   0.674
 9604SOL    HW229712   5.096   0.215   0.671
 9605SOL     OW29713   6.870   4.760   5.336
 9605SOL    HW129714   6.948   4.809   5.297
 9605SOL    HW229715   6.903   4.681   5.387
 9606SOL     OW29716   1.115   6.451   4.685
 9606SOL    HW129717   1.030   6.501   4.696
 9606SOL    HW229718   1.131   6.394   4.766
 9607SOL     OW29719   0.951   2.280   2.131
 9607SOL    HW129720   0.902   2.201   2.167
 9607SOL    HW229721   1.019   2.250   2.065
 9608SOL     OW29722   0.250   6.606   2.662
 9608SOL    HW129723   0.230   6.542   2.737
 9608SOL    HW229724   0.306   6.680   2.696
 9609SOL     OW29725   1.405   4.110   4.673
 9609SOL    HW129726   1.442   4.040   4.611
 9609SOL    HW229727   1.477   4.144   4.732
 9610SOL     OW29728   1.471   3.902   4.490
 9610SOL    HW129729   1.534   3.825   4.500
 9610SOL    HW229730   1.485   3.945   4.401
 9611SOL     OW29731   0.435   6.275   1.295
 9611SOL    HW129732   0.444   6.182   1.258
 9611SOL    HW229733   0.348   6.282   1.345
 9612SOL     OW29734   6.092   3.335   1.613
 9612SOL    HW129735   6.121   3.329   1.708
 9612SOL    HW229736   6.087   3.243   1.574
 9613SOL     OW29737   5.060   6.065   3.730
 9613SOL    HW129738   5.124   6.057   3.806
 9613SOL    HW229739   5.110   6.053   3.644
 9614SOL     OW29740   3.737   3.613   1.278
 9614SOL    HW129741   3.639   3.620   1.260
 9614SOL    HW229742   3.787   3.668   1.212
 9615SOL     OW29743   1.302   6.725   2.291
 9615SOL    HW129744   1.258   6.707   2.203
 9615SOL    HW229745   1.362   6.648   2.314
 9616SOL     OW29746   4.043   4.172   0.389
 9616SOL    HW129747   4.054   4.174   0.488
 9616SOL    HW229748   3.993   4.253   0.360
 9617SOL     OW29749   0.769   4.127   4.276
 9617SOL    HW129750   0.827   4.184   4.217
 9617SOL    HW229751   0.753   4.174   4.363
 9618SOL     OW29752   3.836   6.745   6.185
 9618SOL    HW129753   3.804   6.653   6.209
 9618SOL    HW229754   3.769   6.788   6.124
 9619SOL     OW29755   1.434   0.291   0.966
 9619SOL    HW129756   1.503   0.230   1.003
 9619SOL    HW229757   1.352   0.239   0.941
 9620SOL     OW29758   5.352   1.718   6.513
 9620SOL    HW129759   5.368   1.794   6.450
 9620SOL    HW229760   5.439   1.689   6.553
 9621SOL     OW29761   1.644   1.316   2.662
 9621SOL    HW129762   1.568   1.276   2.613
 9621SOL    HW229763   1.639   1.416   2.657
 9622SOL     OW29764   6.086   1.526   6.472
 9622SOL    HW129765   6.098   1.625   6.485
 9622SOL    HW229766   6.173   1.479   6.488
 9623SOL     OW29767   3.981   5.243   5.609
 9623SOL    HW129768   3.942   5.321   5.560
 9623SOL    HW229769   3.916   5.211   5.679
 9624SOL     OW29770   5.246   4.036   5.139
 9624SOL    HW129771   5.316   4.107   5.143
 9624SOL    HW229772   5.287   3.948   5.163
 9625SOL     OW29773   5.105   4.426   0.131
 9625SOL    HW129774   5.125   4.329   0.127
 9625SOL    HW229775   5.188   4.479   0.112
 9626SOL     OW29776   2.501   5.786   5.535
 9626SOL    HW129777   2.546   5.850   5.597
 9626SOL    HW229778   2.515   5.814   5.440
 9627SOL     OW29779   0.229   4.101   4.833
 9627SOL    HW129780   0.290   4.067   4.904
 9627SOL    HW229781   0.280   4.110   4.747
 9628SOL     OW29782   6.065   3.641   0.900
 9628SOL    HW129783   6.096   3.724   0.853
 9628SOL    HW229784   5.995   3.666   0.967
 9629SOL     OW29785   6.738   5.898   3.313
 9629SOL    HW129786   6.767   5.960   3.241
 9629SOL    HW229787   6.640   5.877   3.302
 9630SOL     OW29788   6.100   6.211   5.582
 9630SOL    HW129789   6.196   6.189   5.597
 9630SOL    HW229790   6.085   6.232   5.485
 9631SOL     OW29791   4.388   1.843   0.834
 9631SOL    HW129792   4.325   1.891   0.895
 9631SOL    HW229793   4.380   1.879   0.741
 9632SOL     OW29794   2.077   5.181   2.252
 9632SOL    HW129795   2.058   5.253   2.185
 9632SOL    HW229796   1.999   5.172   2.314
 9633SOL     OW29797   3.766   4.086   0.332
 9633SOL    HW129798   3.717   4.000   0.319
 9633SOL    HW229799   3.864   4.069   0.328
 9634SOL     OW29800   0.016   5.415   3.565
 9634SOL    HW129801   6.948   5.384   3.598
 9634SOL    HW229802   0.025   5.514   3.577
 9635SOL     OW29803   1.161   4.257   5.794
 9635SOL    HW129804   1.206   4.191   5.854
 9635SOL    HW229805   1.223   4.333   5.777
 9636SOL     OW29806   3.956   1.387   5.736
 9636SOL    HW129807   3.902   1.394   5.652
 9636SOL    HW229808   3.896   1.380   5.815
 9637SOL     OW29809   3.759   2.917   1.424
 9637SOL    HW129810   3.807   2.863   1.354
 9637SOL    HW229811   3.775   2.877   1.514
 9638SOL     OW29812   6.890   3.321   5.866
 9638SOL    HW129813   6.969   3.335   5.805
 9638SOL    HW229814   6.864   3.408   5.907
 9639SOL     OW29815   4.307   2.029   1.747
 9639SOL    HW129816   4.294   1.946   1.693
 9639SOL    HW229817   4.218   2.071   1.765
 9640SOL     OW29818   3.337   0.447   2.205
 9640SOL    HW129819   3.424   0.418   2.245
 9640SOL    HW229820   3.266   0.450   2.276
 9641SOL     OW29821   6.045   5.913   2.029
 9641SOL    HW129822   5.957   5.865   2.031
 9641SOL    HW229823   6.118   5.848   2.010
 9642SOL     OW29824   1.423   6.467   4.156
 9642SOL    HW129825   1.334   6.513   4.157
 9642SOL    HW229826   1.422   6.390   4.220
 9643SOL     OW29827   5.029   4.032   3.798
 9643SOL    HW129828   5.108   4.019   3.739
 9643SOL    HW229829   5.033   3.968   3.875
 9644SOL     OW29830   1.536   5.643   5.692
 9644SOL    HW129831   1.594   5.664   5.770
 9644SOL    HW229832   1.472   5.570   5.717
 9645SOL     OW29833   2.594   4.712   4.690
 9645SOL    HW129834   2.629   4.701   4.783
 9645SOL    HW229835   2.533   4.635   4.668
 9646SOL     OW29836   2.734   5.267   1.869
 9646SOL    HW129837   2.673   5.227   1.937
 9646SOL    HW229838   2.821   5.216   1.867
 9647SOL     OW29839   0.101   6.720   3.390
 9647SOL    HW129840   0.029   6.707   3.323
 9647SOL    HW229841   0.065   6.704   3.482
 9648SOL     OW29842   4.324   2.429   0.756
 9648SOL    HW129843   4.357   2.339   0.727
 9648SOL    HW229844   4.270   2.420   0.840
 9649SOL     OW29845   2.318   4.313   7.018
 9649SOL    HW129846   2.390   4.271   6.964
 9649SOL    HW229847   2.348   4.320   0.092
 9650SOL     OW29848   4.576   4.315   2.715
 9650SOL    HW129849   4.620   4.268   2.792
 9650SOL    HW229850   4.587   4.262   2.632
 9651SOL     OW29851   5.285   1.065   0.893
 9651SOL    HW129852   5.324   1.128   0.959
 9651SOL    HW229853   5.257   1.115   0.811
 9652SOL     OW29854   1.093   5.204   1.575
 9652SOL    HW129855   1.013   5.258   1.548
 9652SOL    HW229856   1.074   5.155   1.660
 9653SOL     OW29857   4.703   4.666   4.692
 9653SOL    HW129858   4.693   4.645   4.790
 9653SOL    HW229859   4.775   4.608   4.653
 9654SOL     OW29860   3.145   3.411   3.247
 9654SOL    HW129861   3.097   3.456   3.322
 9654SOL    HW229862   3.106   3.320   3.231
 9655SOL     OW29863   0.102   2.135   0.582
 9655SOL    HW129864   0.081   2.039   0.568
 9655SOL    HW229865   0.033   2.177   0.641
 9656SOL     OW29866   4.298   2.888   1.333
 9656SOL    HW129867   4.285   2.946   1.252
 9656SOL    HW229868   4.310   2.946   1.414
 9657SOL     OW29869   5.509   3.666   2.727
 9657SOL    HW129870   5.498   3.656   2.628
 9657SOL    HW229871   5.569   3.594   2.762
 9658SOL     OW29872   5.402   1.343   2.266
 9658SOL    HW129873   5.411   1.358   2.168
 9658SOL    HW229874   5.335   1.407   2.304
 9659SOL     OW29875   1.144   3.072   0.255
 9659SOL    HW129876   1.180   3.132   0.184
 9659SOL    HW229877   1.217   3.050   0.320
 9660SOL     OW29878   0.644   0.007   2.924
 9660SOL    HW129879   0.647   6.930   2.943
 9660SOL    HW229880   0.584   0.053   2.990
 9661SOL     OW29881   3.736   6.349   1.455
 9661SOL    HW129882   3.781   6.422   1.403
 9661SOL    HW229883   3.656   6.385   1.501
 9662SOL     OW29884   4.538   3.824   6.530
 9662SOL    HW129885   4.502   3.911   6.564
 9662SOL    HW229886   4.590   3.779   6.603
 9663SOL     OW29887   0.128   5.842   2.816
 9663SOL    HW129888   0.041   5.883   2.843
 9663SOL    HW229889   0.120   5.803   2.724
 9664SOL     OW29890   5.791   4.989   4.152
 9664SOL    HW129891   5.790   4.907   4.208
 9664SOL    HW229892   5.710   5.045   4.173
 9665SOL     OW29893   5.810   6.612   6.215
 9665SOL    HW129894   5.895   6.644   6.173
 9665SOL    HW229895   5.826   6.595   6.313
 9666SOL     OW29896   6.571   3.837   1.766
 9666SOL    HW129897   6.481   3.881   1.763
 9666SOL    HW229898   6.596   3.819   1.861
 9667SOL     OW29899   4.082   3.800   7.010
 9667SOL    HW129900   4.084   3.716   6.957
 9667SOL    HW229901   4.018   3.865   6.969
 9668SOL     OW29902   0.796   0.674   6.381
 9668SOL    HW129903   0.845   0.595   6.417
 9668SOL    HW229904   0.714   0.644   6.332
 9669SOL     OW29905   2.265   6.676   1.952
 9669SOL    HW129906   2.243   6.733   2.032
 9669SOL    HW229907   2.271   6.734   1.871
 9670SOL     OW29908   0.331   4.976   5.664
 9670SOL    HW129909   0.316   4.878   5.680
 9670SOL    HW229910   0.418   5.003   5.705
 9671SOL     OW29911   6.777   4.332   0.348
 9671SOL    HW129912   6.772   4.265   0.274
 9671SOL    HW229913   6.829   4.294   0.425
 9672SOL     OW29914   1.906   4.764   3.440
 9672SOL    HW129915   1.874   4.762   3.534
 9672SOL    HW229916   1.995   4.718   3.433
 9673SOL     OW29917   3.456   3.446   0.648
 9673SOL    HW129918   3.415   3.366   0.604
 9673SOL    HW229919   3.384   3.510   0.674
 9674SOL     OW29920   3.929   6.608   3.614
 9674SOL    HW129921   4.016   6.560   3.630
 9674SOL    HW229922   3.940   6.705   3.637
 9675SOL     OW29923   5.583   2.342   6.521
 9675SOL    HW129924   5.644   2.368   6.596
 9675SOL    HW229925   5.557   2.423   6.469
 9676SOL     OW29926   1.408   3.329   5.990
 9676SOL    HW129927   1.341   3.347   5.918
 9676SOL    HW229928   1.491   3.291   5.950
 9677SOL     OW29929   6.571   5.149   4.806
 9677SOL    HW129930   6.485   5.152   4.756
 9677SOL    HW229931   6.566   5.211   4.884
 9678SOL     OW29932   2.909   3.418   3.964
 9678SOL    HW129933   2.917   3.340   3.902
 9678SOL    HW229934   2.887   3.500   3.911
 9679SOL     OW29935   2.368   0.449   3.740
 9679SOL    HW129936   2.289   0.391   3.718
 9679SOL    HW229937   2.425   0.403   3.809
 9680SOL     OW29938   4.504   0.109   4.199
 9680SOL    HW129939   4.516   0.080   4.294
 9680SOL    HW229940   4.448   0.041   4.151
 9681SOL     OW29941   2.501   2.366   0.844
 9681SOL    HW129942   2.457   2.338   0.929
 9681SOL    HW229943   2.432   2.373   0.772
 9682SOL     OW29944   4.761   4.091   3.889
 9682SOL    HW129945   4.701   4.088   3.809
 9682SOL    HW229946   4.798   3.999   3.906
 9683SOL     OW29947   3.386   6.670   1.772
 9683SOL    HW129948   3.478   6.658   1.809
 9683SOL    HW229949   3.334   6.586   1.784
 9684SOL     OW29950   0.722   3.467   5.611
 9684SOL    HW129951   0.769   3.441   5.695
 9684SOL    HW229952   0.790   3.500   5.544
 9685SOL     OW29953   4.829   4.041   1.100
 9685SOL    HW129954   4.792   4.133   1.094
 9685SOL    HW229955   4.832   4.000   1.009
 9686SOL     OW29956   0.537   3.351   6.106
 9686SOL    HW129957   0.490   3.429   6.149
 9686SOL    HW229958   0.481   3.315   6.032
 9687SOL     OW29959   0.865   0.901   3.774
 9687SOL    HW129960   0.771   0.868   3.788
 9687SOL    HW229961   0.925   0.862   3.843
 9688SOL     OW29962   0.943   2.712   1.039
 9688SOL    HW129963   0.929   2.704   1.137
 9688SOL    HW229964   0.862   2.752   0.997
 9689SOL     OW29965   1.180   4.605   6.497
 9689SOL    HW129966   1.101   4.666   6.505
 9689SOL    HW229967   1.221   4.592   6.587
 9690SOL     OW29968   5.796   6.239   6.398
 9690SOL    HW129969   5.824   6.332   6.421
 9690SOL    HW229970   5.815   6.222   6.301
 9691SOL     OW29971   2.724   3.980   1.230
 9691SOL    HW129972   2.636   3.960   1.271
 9691SOL    HW229973   2.747   3.909   1.163
 9692SOL     OW29974   3.940   6.214   1.642
 9692SOL    HW129975   3.878   6.249   1.572
 9692SOL    HW229976   3.971   6.289   1.700
 9693SOL     OW29977   5.739   4.009   2.715
 9693SOL    HW129978   5.698   4.038   2.628
 9693SOL    HW229979   5.667   3.991   2.782
 9694SOL     OW29980   3.135   1.320   1.578
 9694SOL    HW129981   3.198   1.372   1.521
 9694SOL    HW229982   3.177   1.304   1.668
 9695SOL     OW29983   0.101   2.703   3.555
 9695SOL    HW129984   0.014   2.695   3.604
 9695SOL    HW229985   0.100   2.786   3.500
 9696SOL     OW29986   5.080   2.705   1.411
 9696SOL    HW129987   5.032   2.734   1.329
 9696SOL    HW229988   5.081   2.605   1.417
 9697SOL     OW29989   0.405   5.657   6.938
 9697SOL    HW129990   0.483   5.595   6.925
 9697SOL    HW229991   0.429   5.727   7.004
 9698SOL     OW29992   5.715   2.147   6.174
 9698SOL    HW129993   5.688   2.220   6.110
 9698SOL    HW229994   5.640   2.081   6.182
 9699SOL     OW29995   6.473   5.801   6.816
 9699SOL    HW129996   6.453   5.766   6.907
 9699SOL    HW229997   6.392   5.848   6.780
 9700SOL     OW29998   5.724   5.611   5.112
 9700SOL    HW129999   5.706   5.568   5.023
 9700SOL    HW230000   5.805   5.569   5.153
 9701SOL     OW30001   4.600   4.530   5.458
 9701SOL    HW130002   4.557   4.502   5.544
 9701SOL    HW230003   4.665   4.459   5.429
 9702SOL     OW30004   3.693   1.993   6.943
 9702SOL    HW130005   3.599   1.962   6.927
 9702SOL    HW230006   3.690   2.085   6.982
 9703SOL     OW30007   4.970   3.656   3.707
 9703SOL    HW130008   5.062   3.688   3.686
 9703SOL    HW230009   4.967   3.556   3.702
 9704SOL     OW30010   3.182   6.348   1.108
 9704SOL    HW130011   3.161   6.362   1.205
 9704SOL    HW230012   3.105   6.380   1.053
 9705SOL     OW30013   5.526   4.125   6.318
 9705SOL    HW130014   5.522   4.225   6.314
 9705SOL    HW230015   5.559   4.097   6.409
 9706SOL     OW30016   2.059   2.839   1.007
 9706SOL    HW130017   1.997   2.889   0.948
 9706SOL    HW230018   2.145   2.890   1.018
 9707SOL     OW30019   6.397   4.502   2.684
 9707SOL    HW130020   6.348   4.417   2.668
 9707SOL    HW230021   6.351   4.576   2.634
 9708SOL     OW30022   0.790   1.397   3.758
 9708SOL    HW130023   0.695   1.378   3.783
 9708SOL    HW230024   0.839   1.311   3.744
 9709SOL     OW30025   5.566   6.017   2.288
 9709SOL    HW130026   5.555   5.921   2.312
 9709SOL    HW230027   5.624   6.062   2.356
 9710SOL     OW30028   6.583   1.270   1.288
 9710SOL    HW130029   6.653   1.278   1.218
 9710SOL    HW230030   6.554   1.362   1.317
 9711SOL     OW30031   3.214   5.338   5.178
 9711SOL    HW130032   3.189   5.241   5.176
 9711SOL    HW230033   3.212   5.371   5.273
 9712SOL     OW30034   5.475   3.641   6.529
 9712SOL    HW130035   5.531   3.657   6.447
 9712SOL    HW230036   5.488   3.716   6.593
 9713SOL     OW30037   2.122   4.345   3.360
 9713SOL    HW130038   2.147   4.284   3.435
 9713SOL    HW230039   2.165   4.434   3.375
 9714SOL     OW30040   4.303   6.372   6.678
 9714SOL    HW130041   4.295   6.465   6.642
 9714SOL    HW230042   4.359   6.317   6.617
 9715SOL     OW30043   5.808   3.934   6.936
 9715SOL    HW130044   5.877   3.926   7.008
 9715SOL    HW230045   5.732   3.872   6.955
 9716SOL     OW30046   3.414   4.632   6.907
 9716SOL    HW130047   3.401   4.722   6.949
 9716SOL    HW230048   3.328   4.582   6.909
 9717SOL     OW30049   5.213   6.833   5.960
 9717SOL    HW130050   5.306   6.869   5.949
 9717SOL    HW230051   5.218   6.744   6.006
 9718SOL     OW30052   5.205   3.360   0.548
 9718SOL    HW130053   5.175   3.321   0.461
 9718SOL    HW230054   5.158   3.314   0.623
 9719SOL     OW30055   6.170   1.053   5.486
 9719SOL    HW130056   6.074   1.069   5.508
 9719SOL    HW230057   6.201   1.121   5.419
 9720SOL     OW30058   0.912   4.518   1.961
 9720SOL    HW130059   0.894   4.440   2.022
 9720SOL    HW230060   0.930   4.600   2.017
 9721SOL     OW30061   0.424   1.670   0.624
 9721SOL    HW130062   0.375   1.702   0.706
 9721SOL    HW230063   0.474   1.587   0.646
 9722SOL     OW30064   4.234   1.406   5.128
 9722SOL    HW130065   4.327   1.376   5.148
 9722SOL    HW230066   4.218   1.402   5.029
 9723SOL     OW30067   3.682   6.562   3.515
 9723SOL    HW130068   3.645   6.649   3.480
 9723SOL    HW230069   3.761   6.581   3.573
 9724SOL     OW30070   1.798   4.879   6.760
 9724SOL    HW130071   1.886   4.865   6.805
 9724SOL    HW230072   1.807   4.860   6.663
 9725SOL     OW30073   4.646   5.944   6.073
 9725SOL    HW130074   4.582   5.993   6.014
 9725SOL    HW230075   4.697   5.877   6.019
 9726SOL     OW30076   4.760   1.330   3.855
 9726SOL    HW130077   4.716   1.292   3.936
 9726SOL    HW230078   4.696   1.326   3.778
 9727SOL     OW30079   1.436   2.455   6.825
 9727SOL    HW130080   1.474   2.388   6.888
 9727SOL    HW230081   1.446   2.547   6.863
 9728SOL     OW30082   0.813   0.571   5.636
 9728SOL    HW130083   0.732   0.524   5.672
 9728SOL    HW230084   0.799   0.591   5.539
 9729SOL     OW30085   0.935   3.982   3.219
 9729SOL    HW130086   0.932   4.063   3.278
 9729SOL    HW230087   1.029   3.961   3.196
 9730SOL     OW30088   1.841   4.765   2.728
 9730SOL    HW130089   1.822   4.701   2.803
 9730SOL    HW230090   1.786   4.847   2.739
 9731SOL     OW30091   5.222   5.188   1.313
 9731SOL    HW130092   5.198   5.164   1.219
 9731SOL    HW230093   5.244   5.105   1.364
 9732SOL     OW30094   0.203   4.862   2.283
 9732SOL    HW130095   0.287   4.880   2.335
 9732SOL    HW230096   0.216   4.889   2.188
 9733SOL     OW30097   4.971   5.225   0.467
 9733SOL    HW130098   5.015   5.237   0.379
 9733SOL    HW230099   4.872   5.216   0.454
 9734SOL     OW30100   6.570   1.148   0.868
 9734SOL    HW130101   6.630   1.138   0.789
 9734SOL    HW230102   6.485   1.192   0.840
 9735SOL     OW30103   2.086   3.378   3.579
 9735SOL    HW130104   2.076   3.278   3.580
 9735SOL    HW230105   2.053   3.414   3.492
 9736SOL     OW30106   6.061   1.365   5.651
 9736SOL    HW130107   5.964   1.386   5.663
 9736SOL    HW230108   6.079   1.272   5.682
 9737SOL     OW30109   5.246   2.332   3.319
 9737SOL    HW130110   5.147   2.321   3.308
 9737SOL    HW230111   5.279   2.403   3.257
 9738SOL     OW30112   2.326   0.054   0.295
 9738SOL    HW130113   2.377   0.140   0.298
 9738SOL    HW230114   2.254   0.061   0.226
 9739SOL     OW30115   4.866   5.755   1.001
 9739SOL    HW130116   4.815   5.737   1.085
 9739SOL    HW230117   4.869   5.854   0.985
 9740SOL     OW30118   0.101   1.210   3.512
 9740SOL    HW130119   0.187   1.221   3.463
 9740SOL    HW230120   0.026   1.198   3.446
 9741SOL     OW30121   3.248   1.842   2.385
 9741SOL    HW130122   3.151   1.825   2.368
 9741SOL    HW230123   3.267   1.833   2.483
 9742SOL     OW30124   3.935   1.218   0.324
 9742SOL    HW130125   3.986   1.300   0.299
 9742SOL    HW230126   3.862   1.202   0.257
 9743SOL     OW30127   6.782   3.630   4.053
 9743SOL    HW130128   6.780   3.706   4.118
 9743SOL    HW230129   6.688   3.598   4.037
 9744SOL     OW30130   1.548   6.649   1.911
 9744SOL    HW130131   1.618   6.671   1.843
 9744SOL    HW230132   1.457   6.659   1.869
 9745SOL     OW30133   5.017   2.396   6.529
 9745SOL    HW130134   4.979   2.418   6.619
 9745SOL    HW230135   5.100   2.343   6.540
 9746SOL     OW30136   6.077   0.660   5.966
 9746SOL    HW130137   6.078   0.629   6.061
 9746SOL    HW230138   6.158   0.625   5.919
 9747SOL     OW30139   2.632   1.862   1.827
 9747SOL    HW130140   2.693   1.787   1.804
 9747SOL    HW230141   2.678   1.949   1.811
 9748SOL     OW30142   6.628   6.853   3.824
 9748SOL    HW130143   6.570   6.771   3.824
 9748SOL    HW230144   6.618   6.901   3.911
 9749SOL     OW30145   1.925   0.334   4.305
 9749SOL    HW130146   1.935   0.405   4.236
 9749SOL    HW230147   1.830   0.332   4.337
 9750SOL     OW30148   5.897   4.727   3.091
 9750SOL    HW130149   5.985   4.754   3.053
 9750SOL    HW230150   5.867   4.641   3.049
 9751SOL     OW30151   2.512   0.664   0.886
 9751SOL    HW130152   2.592   0.667   0.826
 9751SOL    HW230153   2.458   0.582   0.865
 9752SOL     OW30154   3.885   2.162   5.110
 9752SOL    HW130155   3.902   2.063   5.117
 9752SOL    HW230156   3.904   2.192   5.017
 9753SOL     OW30157   6.976   5.442   6.453
 9753SOL    HW130158   6.998   5.540   6.446
 9753SOL    HW230159   6.948   5.421   6.546
 9754SOL     OW30160   1.747   0.164   0.623
 9754SOL    HW130161   1.765   0.133   0.530
 9754SOL    HW230162   1.740   0.084   0.684
 9755SOL     OW30163   3.500   3.681   4.232
 9755SOL    HW130164   3.596   3.662   4.212
 9755SOL    HW230165   3.459   3.601   4.276
 9756SOL     OW30166   5.758   2.553   6.347
 9756SOL    HW130167   5.788   2.612   6.273
 9756SOL    HW230168   5.823   2.476   6.356
 9757SOL     OW30169   5.667   4.350   4.046
 9757SOL    HW130170   5.702   4.396   3.965
 9757SOL    HW230171   5.567   4.354   4.047
 9758SOL     OW30172   2.567   0.507   6.661
 9758SOL    HW130173   2.534   0.542   6.749
 9758SOL    HW230174   2.622   0.577   6.616
 9759SOL     OW30175   1.362   0.557   0.244
 9759SOL    HW130176   1.330   0.497   0.170
 9759SOL    HW230177   1.287   0.616   0.274
 9760SOL     OW30178   5.168   3.096   5.797
 9760SOL    HW130179   5.128   3.075   5.708
 9760SOL    HW230180   5.104   3.072   5.870
 9761SOL     OW30181   0.252   1.578   2.273
 9761SOL    HW130182   0.243   1.502   2.209
 9761SOL    HW230183   0.168   1.585   2.327
 9762SOL     OW30184   2.882   2.013   4.632
 9762SOL    HW130185   2.979   1.990   4.628
 9762SOL    HW230186   2.872   2.111   4.653
 9763SOL     OW30187   4.924   1.912   2.631
 9763SOL    HW130188   4.918   2.010   2.648
 9763SOL    HW230189   4.832   1.875   2.618
 9764SOL     OW30190   6.826   2.882   3.221
 9764SOL    HW130191   6.810   2.846   3.129
 9764SOL    HW230192   6.758   2.952   3.242
 9765SOL     OW30193   6.642   6.423   3.654
 9765SOL    HW130194   6.741   6.420   3.657
 9765SOL    HW230195   6.609   6.373   3.574
 9766SOL     OW30196   2.614   0.300   2.156
 9766SOL    HW130197   2.660   0.217   2.186
 9766SOL    HW230198   2.571   0.345   2.234
 9767SOL     OW30199   3.777   1.449   5.543
 9767SOL    HW130200   3.703   1.384   5.563
 9767SOL    HW230201   3.803   1.441   5.447
 9768SOL     OW30202   5.623   1.164   1.684
 9768SOL    HW130203   5.692   1.097   1.712
 9768SOL    HW230204   5.584   1.208   1.765
 9769SOL     OW30205   4.177   0.509   4.675
 9769SOL    HW130206   4.205   0.586   4.733
 9769SOL    HW230207   4.203   0.423   4.719
 9770SOL     OW30208   3.744   1.138   5.754
 9770SOL    HW130209   3.739   1.215   5.817
 9770SOL    HW230210   3.724   1.053   5.803
 9771SOL     OW30211   2.695   5.828   0.458
 9771SOL    HW130212   2.690   5.766   0.379
 9771SOL    HW230213   2.625   5.899   0.448
 9772SOL     OW30214   1.483   5.844   1.356
 9772SOL    HW130215   1.539   5.863   1.276
 9772SOL    HW230216   1.541   5.839   1.437
 9773SOL     OW30217   5.111   5.429   4.471
 9773SOL    HW130218   5.200   5.472   4.452
 9773SOL    HW230219   5.066   5.406   4.385
 9774SOL     OW30220   0.108   5.834   1.973
 9774SOL    HW130221   0.011   5.808   1.970
 9774SOL    HW230222   0.161   5.761   2.015
 9775SOL     OW30223   3.205   0.506   3.200
 9775SOL    HW130224   3.230   0.507   3.103
 9775SOL    HW230225   3.195   0.412   3.231
 9776SOL     OW30226   0.806   4.540   5.336
 9776SOL    HW130227   0.727   4.570   5.283
 9776SOL    HW230228   0.890   4.580   5.298
 9777SOL     OW30229   5.890   5.993   0.253
 9777SOL    HW130230   5.908   5.894   0.252
 9777SOL    HW230231   5.968   6.041   0.212
 9778SOL     OW30232   0.432   1.480   4.413
 9778SOL    HW130233   0.357   1.545   4.401
 9778SOL    HW230234   0.397   1.387   4.407
 9779SOL     OW30235   0.981   1.824   3.851
 9779SOL    HW130236   0.905   1.761   3.836
 9779SOL    HW230237   0.950   1.902   3.906
 9780SOL     OW30238   2.287   2.604   0.613
 9780SOL    HW130239   2.240   2.617   0.701
 9780SOL    HW230240   2.376   2.650   0.616
 9781SOL     OW30241   2.053   2.666   4.704
 9781SOL    HW130242   2.130   2.689   4.764
 9781SOL    HW230243   1.968   2.667   4.756
 9782SOL     OW30244   0.250   0.926   1.190
 9782SOL    HW130245   0.259   1.002   1.126
 9782SOL    HW230246   0.336   0.914   1.241
 9783SOL     OW30247   4.634   2.545   3.318
 9783SOL    HW130248   4.594   2.454   3.323
 9783SOL    HW230249   4.609   2.597   3.399
 9784SOL     OW30250   3.152   2.413   6.163
 9784SOL    HW130251   3.112   2.373   6.081
 9784SOL    HW230252   3.108   2.375   6.244
 9785SOL     OW30253   1.306   2.265   5.986
 9785SOL    HW130254   1.324   2.277   6.083
 9785SOL    HW230255   1.221   2.214   5.973
 9786SOL     OW30256   2.770   4.254   0.220
 9786SOL    HW130257   2.790   4.282   0.127
 9786SOL    HW230258   2.688   4.197   0.222
 9787SOL     OW30259   3.303   3.873   2.873
 9787SOL    HW130260   3.280   3.896   2.779
 9787SOL    HW230261   3.219   3.848   2.922
 9788SOL     OW30262   1.014   0.228   3.706
 9788SOL    HW130263   1.030   0.200   3.800
 9788SOL    HW230264   1.046   0.157   3.643
 9789SOL     OW30265   1.809   5.568   0.700
 9789SOL    HW130266   1.740   5.550   0.770
 9789SOL    HW230267   1.772   5.545   0.610
 9790SOL     OW30268   6.557   4.891   6.384
 9790SOL    HW130269   6.486   4.932   6.441
 9790SOL    HW230270   6.569   4.945   6.301
 9791SOL     OW30271   0.193   0.686   0.328
 9791SOL    HW130272   0.223   0.695   0.233
 9791SOL    HW230273   0.272   0.697   0.388
 9792SOL     OW30274   3.552   4.259   0.312
 9792SOL    HW130275   3.639   4.223   0.344
 9792SOL    HW230276   3.514   4.199   0.242
 9793SOL     OW30277   4.021   6.904   2.555
 9793SOL    HW130278   3.997   6.864   2.644
 9793SOL    HW230279   4.104   6.958   2.564
 9794SOL     OW30280   0.161   4.042   6.871
 9794SOL    HW130281   0.115   4.128   6.853
 9794SOL    HW230282   0.210   4.048   6.958
 9795SOL     OW30283   1.936   1.674   4.499
 9795SOL    HW130284   1.943   1.772   4.479
 9795SOL    HW230285   1.949   1.659   4.597
 9796SOL     OW30286   2.978   3.151   2.522
 9796SOL    HW130287   2.985   3.224   2.454
 9796SOL    HW230288   2.992   3.062   2.478
 9797SOL     OW30289   1.866   5.877   0.150
 9797SOL    HW130290   1.766   5.883   0.145
 9797SOL    HW230291   1.892   5.838   0.239
 9798SOL     OW30292   3.246   0.344   2.466
 9798SOL    HW130293   3.245   0.433   2.512
 9798SOL    HW230294   3.284   0.275   2.528
 9799SOL     OW30295   3.015   3.973   5.486
 9799SOL    HW130296   2.963   4.058   5.500
 9799SOL    HW230297   2.957   3.906   5.439
 9800SOL     OW30298   4.469   5.197   4.929
 9800SOL    HW130299   4.486   5.287   4.888
 9800SOL    HW230300   4.397   5.150   4.878
 9801SOL     OW30301   4.713   4.236   0.310
 9801SOL    HW130302   4.782   4.192   0.368
 9801SOL    HW230303   4.758   4.286   0.236
 9802SOL     OW30304   6.901   4.609   1.897
 9802SOL    HW130305   6.874   4.605   1.800
 9802SOL    HW230306   6.940   4.521   1.924
 9803SOL     OW30307   1.760   2.051   6.467
 9803SOL    HW130308   1.833   2.114   6.439
 9803SOL    HW230309   1.695   2.100   6.526
 9804SOL     OW30310   1.042   5.932   3.413
 9804SOL    HW130311   1.011   5.848   3.456
 9804SOL    HW230312   1.139   5.925   3.391
 9805SOL     OW30313   1.139   6.816   3.853
 9805SOL    HW130314   1.213   6.753   3.877
 9805SOL    HW230315   1.083   6.776   3.781
 9806SOL     OW30316   1.153   1.320   6.649
 9806SOL    HW130317   1.084   1.371   6.700
 9806SOL    HW230318   1.167   1.230   6.691
 9807SOL     OW30319   3.237   4.465   0.316
 9807SOL    HW130320   3.229   4.487   0.413
 9807SOL    HW230321   3.333   4.467   0.289
 9808SOL     OW30322   3.683   0.358   5.252
 9808SOL    HW130323   3.623   0.342   5.331
 9808SOL    HW230324   3.635   0.332   5.168
 9809SOL     OW30325   1.222   3.191   6.636
 9809SOL    HW130326   1.279   3.138   6.699
 9809SOL    HW230327   1.230   3.288   6.659
 9810SOL     OW30328   1.771   2.647   3.953
 9810SOL    HW130329   1.753   2.568   3.895
 9810SOL    HW230330   1.694   2.662   4.015
 9811SOL     OW30331   5.214   4.759   3.149
 9811SOL    HW130332   5.267   4.842   3.166
 9811SOL    HW230333   5.121   4.784   3.120
 9812SOL     OW30334   3.614   2.577   5.875
 9812SOL    HW130335   3.594   2.609   5.782
 9812SOL    HW230336   3.582   2.483   5.885
 9813SOL     OW30337   5.075   1.234   0.726
 9813SOL    HW130338   5.062   1.332   0.717
 9813SOL    HW230339   5.127   1.199   0.648
 9814SOL     OW30340   6.549   0.293   6.807
 9814SOL    HW130341   6.585   0.297   6.900
 9814SOL    HW230342   6.558   0.200   6.771
 9815SOL     OW30343   5.570   4.014   4.620
 9815SOL    HW130344   5.620   4.061   4.692
 9815SOL    HW230345   5.635   3.978   4.552
 9816SOL     OW30346   0.616   1.028   6.227
 9816SOL    HW130347   0.543   1.008   6.161
 9816SOL    HW230348   0.576   1.044   6.317
 9817SOL     OW30349   3.216   6.889   3.668
 9817SOL    HW130350   3.194   6.792   3.660
 9817SOL    HW230351   3.132   6.943   3.659
 9818SOL     OW30352   1.103   0.518   3.909
 9818SOL    HW130353   1.065   0.610   3.918
 9818SOL    HW230354   1.030   0.454   3.881
 9819SOL     OW30355   4.990   3.388   3.675
 9819SOL    HW130356   4.899   3.348   3.682
 9819SOL    HW230357   5.053   3.320   3.637
 9820SOL     OW30358   4.258   3.486   6.641
 9820SOL    HW130359   4.252   3.578   6.602
 9820SOL    HW230360   4.200   3.424   6.587
 9821SOL     OW30361   5.160   0.992   6.433
 9821SOL    HW130362   5.156   0.988   6.533
 9821SOL    HW230363   5.120   0.908   6.395
 9822SOL     OW30364   2.133   6.329   3.741
 9822SOL    HW130365   2.059   6.367   3.685
 9822SOL    HW230366   2.220   6.365   3.709
 9823SOL     OW30367   2.440   1.406   0.128
 9823SOL    HW130368   2.527   1.357   0.123
 9823SOL    HW230369   2.386   1.371   0.204
 9824SOL     OW30370   1.793   4.863   4.933
 9824SOL    HW130371   1.839   4.815   4.858
 9824SOL    HW230372   1.780   4.959   4.908
 9825SOL     OW30373   5.070   5.643   5.113
 9825SOL    HW130374   4.973   5.619   5.117
 9825SOL    HW230375   5.125   5.561   5.130
 9826SOL     OW30376   4.222   5.382   5.591
 9826SOL    HW130377   4.250   5.350   5.501
 9826SOL    HW230378   4.133   5.343   5.614
 9827SOL     OW30379   2.019   3.329   3.920
 9827SOL    HW130380   2.083   3.330   3.997
 9827SOL    HW230381   2.029   3.413   3.867
 9828SOL     OW30382   2.353   2.533   5.612
 9828SOL    HW130383   2.441   2.491   5.590
 9828SOL    HW230384   2.298   2.539   5.530
 9829SOL     OW30385   4.076   5.697   6.335
 9829SOL    HW130386   4.099   5.681   6.431
 9829SOL    HW230387   4.035   5.788   6.325
 9830SOL     OW30388   6.004   2.602   2.155
 9830SOL    HW130389   5.983   2.626   2.060
 9830SOL    HW230390   5.920   2.603   2.209
 9831SOL     OW30391   2.272   5.447   1.404
 9831SOL    HW130392   2.188   5.501   1.393
 9831SOL    HW230393   2.341   5.480   1.339
 9832SOL     OW30394   5.122   5.862   2.416
 9832SOL    HW130395   5.141   5.765   2.424
 9832SOL    HW230396   5.023   5.877   2.409
 9833SOL     OW30397   3.103   3.624   4.851
 9833SOL    HW130398   3.085   3.526   4.846
 9833SOL    HW230399   3.135   3.648   4.942
 9834SOL     OW30400   2.509   4.261   5.283
 9834SOL    HW130401   2.480   4.174   5.242
 9834SOL    HW230402   2.483   4.261   5.380
 9835SOL     OW30403   4.021   3.025   5.251
 9835SOL    HW130404   3.998   2.928   5.237
 9835SOL    HW230405   3.937   3.077   5.266
 9836SOL     OW30406   6.653   4.213   3.856
 9836SOL    HW130407   6.695   4.152   3.924
 9836SOL    HW230408   6.722   4.277   3.822
 9837SOL     OW30409   3.329   0.210   2.708
 9837SOL    HW130410   3.420   0.238   2.678
 9837SOL    HW230411   3.336   0.153   2.789
 9838SOL     OW30412   1.609   6.969   6.996
 9838SOL    HW130413   1.625   6.914   0.056
 9838SOL    HW230414   1.515   6.956   6.965
 9839SOL     OW30415   5.543   0.323   3.595
 9839SOL    HW130416   5.501   0.233   3.587
 9839SOL    HW230417   5.575   0.337   3.689
 9840SOL     OW30418   5.592   1.418   0.604
 9840SOL    HW130419   5.673   1.422   0.662
 9840SOL    HW230420   5.604   1.478   0.524
 9841SOL     OW30421   1.453   4.646   5.180
 9841SOL    HW130422   1.367   4.686   5.210
 9841SOL    HW230423   1.437   4.590   5.099
 9842SOL     OW30424   3.393   3.286   1.874
 9842SOL    HW130425   3.352   3.298   1.964
 9842SOL    HW230426   3.421   3.374   1.837
 9843SOL     OW30427   6.143   1.227   1.387
 9843SOL    HW130428   6.092   1.214   1.302
 9843SOL    HW230429   6.239   1.202   1.372
 9844SOL     OW30430   6.419   0.708   2.594
 9844SOL    HW130431   6.336   0.724   2.541
 9844SOL    HW230432   6.498   0.705   2.533
 9845SOL     OW30433   2.182   2.955   2.968
 9845SOL    HW130434   2.202   3.051   2.949
 9845SOL    HW230435   2.195   2.937   3.066
 9846SOL     OW30436   3.818   2.967   2.102
 9846SOL    HW130437   3.774   3.056   2.093
 9846SOL    HW230438   3.883   2.969   2.178
 9847SOL     OW30439   3.592   2.997   3.563
 9847SOL    HW130440   3.671   2.998   3.624
 9847SOL    HW230441   3.536   3.078   3.580
 9848SOL     OW30442   3.758   3.214   4.965
 9848SOL    HW130443   3.849   3.198   5.004
 9848SOL    HW230444   3.690   3.212   5.039
 9849SOL     OW30445   1.349   6.819   6.947
 9849SOL    HW130446   1.276   6.751   6.954
 9849SOL    HW230447   1.315   6.908   6.978
 9850SOL     OW30448   6.286   6.613   4.316
 9850SOL    HW130449   6.319   6.577   4.228
 9850SOL    HW230450   6.252   6.706   4.303
 9851SOL     OW30451   6.397   0.562   4.654
 9851SOL    HW130452   6.341   0.634   4.612
 9851SOL    HW230453   6.458   0.523   4.585
 9852SOL     OW30454   3.839   1.782   3.827
 9852SOL    HW130455   3.854   1.844   3.750
 9852SOL    HW230456   3.748   1.798   3.866
 9853SOL     OW30457   4.839   3.751   4.572
 9853SOL    HW130458   4.823   3.690   4.494
 9853SOL    HW230459   4.852   3.697   4.655
 9854SOL     OW30460   6.577   5.720   5.179
 9854SOL    HW130461   6.519   5.800   5.170
 9854SOL    HW230462   6.521   5.638   5.181
 9855SOL     OW30463   1.900   3.939   0.831
 9855SOL    HW130464   1.960   3.974   0.758
 9855SOL    HW230465   1.956   3.905   0.906
 9856SOL     OW30466   4.782   4.012   4.528
 9856SOL    HW130467   4.806   3.916   4.542
 9856SOL    HW230468   4.798   4.037   4.432
 9857SOL     OW30469   4.571   2.586   2.898
 9857SOL    HW130470   4.610   2.589   2.806
 9857SOL    HW230471   4.617   2.652   2.957
 9858SOL     OW30472   0.002   0.905   1.616
 9858SOL    HW130473   0.014   0.829   1.552
 9858SOL    HW230474   0.081   0.910   1.677
 9859SOL     OW30475   6.420   6.269   2.789
 9859SOL    HW130476   6.417   6.247   2.886
 9859SOL    HW230477   6.466   6.357   2.776
 9860SOL     OW30478   1.578   1.804   3.390
 9860SOL    HW130479   1.554   1.746   3.312
 9860SOL    HW230480   1.666   1.775   3.428
 9861SOL     OW30481   2.764   0.350   3.615
 9861SOL    HW130482   2.689   0.319   3.672
 9861SOL    HW230483   2.792   0.442   3.644
 9862SOL     OW30484   3.657   2.876   6.757
 9862SOL    HW130485   3.719   2.949   6.785
 9862SOL    HW230486   3.563   2.910   6.755
 9863SOL     OW30487   3.434   6.677   2.614
 9863SOL    HW130488   3.413   6.723   2.527
 9863SOL    HW230489   3.414   6.580   2.606
 9864SOL     OW30490   3.852   6.371   3.755
 9864SOL    HW130491   3.893   6.447   3.705
 9864SOL    HW230492   3.796   6.316   3.692
 9865SOL     OW30493   1.677   0.356   4.390
 9865SOL    HW130494   1.633   0.439   4.425
 9865SOL    HW230495   1.608   0.295   4.352
 9866SOL     OW30496   4.928   4.249   6.410
 9866SOL    HW130497   4.898   4.212   6.498
 9866SOL    HW230498   4.860   4.314   6.376
 9867SOL     OW30499   6.978   1.543   0.885
 9867SOL    HW130500   6.946   1.471   0.823
 9867SOL    HW230501   6.927   1.627   0.869
 9868SOL     OW30502   0.881   3.763   5.555
 9868SOL    HW130503   0.874   3.711   5.470
 9868SOL    HW230504   0.976   3.761   5.587
 9869SOL     OW30505   0.973   2.692   1.587
 9869SOL    HW130506   1.016   2.637   1.516
 9869SOL    HW230507   1.041   2.754   1.627
 9870SOL     OW30508   3.439   5.884   2.642
 9870SOL    HW130509   3.467   5.907   2.548
 9870SOL    HW230510   3.501   5.815   2.679
 9871SOL     OW30511   0.300   5.910   5.947
 9871SOL    HW130512   0.217   5.856   5.932
 9871SOL    HW230513   0.339   5.886   6.036
 9872SOL     OW30514   2.552   5.263   4.773
 9872SOL    HW130515   2.639   5.222   4.745
 9872SOL    HW230516   2.522   5.220   4.858
 9873SOL     OW30517   2.183   2.924   0.435
 9873SOL    HW130518   2.184   3.010   0.383
 9873SOL    HW230519   2.104   2.869   0.407
 9874SOL     OW30520   5.697   3.396   5.503
 9874SOL    HW130521   5.721   3.323   5.567
 9874SOL    HW230522   5.731   3.373   5.412
 9875SOL     OW30523   6.064   6.072   1.498
 9875SOL    HW130524   6.066   6.157   1.445
 9875SOL    HW230525   6.151   6.061   1.546
 9876SOL     OW30526   6.139   0.672   3.802
 9876SOL    HW130527   6.123   0.610   3.726
 9876SOL    HW230528   6.147   0.620   3.887
 9877SOL     OW30529   6.297   5.426   4.193
 9877SOL    HW130530   6.299   5.326   4.197
 9877SOL    HW230531   6.233   5.454   4.121
 9878SOL     OW30532   2.898   3.775   5.872
 9878SOL    HW130533   2.812   3.771   5.923
 9878SOL    HW230534   2.948   3.689   5.885
 9879SOL     OW30535   5.321   5.902   5.431
 9879SOL    HW130536   5.350   5.830   5.369
 9879SOL    HW230537   5.375   5.984   5.414
 9880SOL     OW30538   3.959   0.667   0.257
 9880SOL    HW130539   3.978   0.713   0.344
 9880SOL    HW230540   4.000   0.719   0.182
 9881SOL     OW30541   1.698   1.362   4.291
 9881SOL    HW130542   1.601   1.368   4.267
 9881SOL    HW230543   1.737   1.454   4.292
 9882SOL     OW30544   1.771   3.829   4.657
 9882SOL    HW130545   1.836   3.871   4.720
 9882SOL    HW230546   1.812   3.746   4.618
 9883SOL     OW30547   1.150   6.146   0.767
 9883SOL    HW130548   1.203   6.087   0.828
 9883SOL    HW230549   1.053   6.132   0.784
 9884SOL     OW30550   4.759   2.295   1.710
 9884SOL    HW130551   4.667   2.261   1.731
 9884SOL    HW230552   4.771   2.386   1.750
 9885SOL     OW30553   0.001   2.108   4.901
 9885SOL    HW130554   0.097   2.119   4.927
 9885SOL    HW230555   6.971   2.070   4.978
 9886SOL     OW30556   1.372   5.243   1.995
 9886SOL    HW130557   1.295   5.260   1.934
 9886SOL    HW230558   1.457   5.268   1.950
 9887SOL     OW30559   4.396   0.663   0.009
 9887SOL    HW130560   4.397   0.565   7.010
 9887SOL    HW230561   4.348   0.678   0.095
 9888SOL     OW30562   5.418   5.048   2.498
 9888SOL    HW130563   5.380   4.996   2.422
 9888SOL    HW230564   5.414   5.146   2.478
 9889SOL     OW30565   6.023   4.752   0.597
 9889SOL    HW130566   6.066   4.753   0.687
 9889SOL    HW230567   5.979   4.840   0.580
 9890SOL     OW30568   0.699   2.945   1.448
 9890SOL    HW130569   0.639   2.868   1.470
 9890SOL    HW230570   0.769   2.916   1.383
 9891SOL     OW30571   5.817   3.042   1.042
 9891SOL    HW130572   5.805   3.041   0.943
 9891SOL    HW230573   5.758   2.973   1.083
 9892SOL     OW30574   1.636   4.861   2.433
 9892SOL    HW130575   1.625   4.762   2.423
 9892SOL    HW230576   1.731   4.881   2.456
 9893SOL     OW30577   6.882   0.449   2.340
 9893SOL    HW130578   6.932   0.482   2.421
 9893SOL    HW230579   6.929   0.482   2.258
 9894SOL     OW30580   3.016   2.308   0.183
 9894SOL    HW130581   2.969   2.389   0.216
 9894SOL    HW230582   3.064   2.329   0.098
 9895SOL     OW30583   5.244   3.895   5.489
 9895SOL    HW130584   5.228   3.983   5.532
 9895SOL    HW230585   5.334   3.896   5.444
 9896SOL     OW30586   5.802   1.442   1.267
 9896SOL    HW130587   5.816   1.372   1.197
 9896SOL    HW230588   5.761   1.400   1.348
 9897SOL     OW30589   6.120   0.035   1.980
 9897SOL    HW130590   6.214   0.052   2.009
 9897SOL    HW230591   6.112   6.963   1.945
 9898SOL     OW30592   0.946   4.743   6.546
 9898SOL    HW130593   0.882   4.711   6.616
 9898SOL    HW230594   0.907   4.725   6.455
 9899SOL     OW30595   1.159   5.054   1.797
 9899SOL    HW130596   1.129   4.984   1.862
 9899SOL    HW230597   1.251   5.032   1.765
 9900SOL     OW30598   1.608   3.185   2.351
 9900SOL    HW130599   1.652   3.096   2.366
 9900SOL    HW230600   1.667   3.258   2.384
 9901SOL     OW30601   3.037   0.713   6.591
 9901SOL    HW130602   3.119   0.685   6.542
 9901SOL    HW230603   2.959   0.658   6.560
 9902SOL     OW30604   3.615   4.257   1.680
 9902SOL    HW130605   3.683   4.238   1.609
 9902SOL    HW230606   3.559   4.176   1.695
 9903SOL     OW30607   5.445   1.524   1.378
 9903SOL    HW130608   5.494   1.576   1.307
 9903SOL    HW230609   5.449   1.575   1.464
 9904SOL     OW30610   0.414   3.918   6.196
 9904SOL    HW130611   0.360   3.840   6.229
 9904SOL    HW230612   0.356   3.976   6.138
 9905SOL     OW30613   2.356   0.624   5.912
 9905SOL    HW130614   2.355   0.528   5.940
 9905SOL    HW230615   2.450   0.651   5.889
 9906SOL     OW30616   1.935   3.467   0.834
 9906SOL    HW130617   1.925   3.492   0.930
 9906SOL    HW230618   2.025   3.426   0.819
 9907SOL     OW30619   1.509   0.534   1.407
 9907SOL    HW130620   1.485   0.457   1.465
 9907SOL    HW230621   1.598   0.516   1.363
 9908SOL     OW30622   6.336   2.457   4.958
 9908SOL    HW130623   6.257   2.417   5.003
 9908SOL    HW230624   6.339   2.556   4.977
 9909SOL     OW30625   3.957   0.862   2.557
 9909SOL    HW130626   4.029   0.914   2.604
 9909SOL    HW230627   3.983   0.850   2.461
 9910SOL     OW30628   1.387   5.300   1.258
 9910SOL    HW130629   1.383   5.270   1.353
 9910SOL    HW230630   1.301   5.345   1.233
 9911SOL     OW30631   2.532   5.851   1.637
 9911SOL    HW130632   2.605   5.829   1.702
 9911SOL    HW230633   2.540   5.793   1.556
 9912SOL     OW30634   3.895   1.413   0.761
 9912SOL    HW130635   3.934   1.473   0.831
 9912SOL    HW230636   3.875   1.324   0.801
 9913SOL     OW30637   6.275   3.235   0.740
 9913SOL    HW130638   6.175   3.239   0.733
 9913SOL    HW230639   6.316   3.293   0.671
 9914SOL     OW30640   6.760   0.113   5.739
 9914SOL    HW130641   6.716   0.050   5.674
 9914SOL    HW230642   6.701   0.192   5.754
 9915SOL     OW30643   5.819   0.612   3.470
 9915SOL    HW130644   5.734   0.622   3.419
 9915SOL    HW230645   5.818   0.527   3.522
 9916SOL     OW30646   2.284   2.394   3.135
 9916SOL    HW130647   2.195   2.427   3.105
 9916SOL    HW230648   2.289   2.295   3.122
 9917SOL     OW30649   4.049   3.735   5.699
 9917SOL    HW130650   4.148   3.734   5.711
 9917SOL    HW230651   4.026   3.779   5.612
 9918SOL     OW30652   1.646   2.922   2.727
 9918SOL    HW130653   1.681   2.924   2.634
 9918SOL    HW230654   1.668   2.834   2.770
 9919SOL     OW30655   2.513   5.529   1.760
 9919SOL    HW130656   2.515   5.460   1.688
 9919SOL    HW230657   2.593   5.588   1.751
 9920SOL     OW30658   4.624   0.447   2.668
 9920SOL    HW130659   4.700   0.471   2.607
 9920SOL    HW230660   4.641   0.485   2.759
 9921SOL     OW30661   4.463   6.434   4.608
 9921SOL    HW130662   4.371   6.469   4.589
 9921SOL    HW230663   4.530   6.507   4.594
 9922SOL     OW30664   3.829   4.217   1.019
 9922SOL    HW130665   3.890   4.181   0.948
 9922SOL    HW230666   3.825   4.317   1.011
 9923SOL     OW30667   6.416   3.706   0.166
 9923SOL    HW130668   6.380   3.799   0.174
 9923SOL    HW230669   6.405   3.674   0.072
 9924SOL     OW30670   5.708   2.014   2.933
 9924SOL    HW130671   5.637   2.002   3.002
 9924SOL    HW230672   5.680   1.970   2.848
 9925SOL     OW30673   0.245   4.894   3.625
 9925SOL    HW130674   0.191   4.955   3.683
 9925SOL    HW230675   0.270   4.812   3.678
 9926SOL     OW30676   4.085   2.772   0.932
 9926SOL    HW130677   4.171   2.745   0.976
 9926SOL    HW230678   4.037   2.838   0.990
 9927SOL     OW30679   1.194   1.247   0.773
 9927SOL    HW130680   1.144   1.294   0.846
 9927SOL    HW230681   1.208   1.151   0.798
 9928SOL     OW30682   5.154   4.571   3.348
 9928SOL    HW130683   5.195   4.545   3.261
 9928SOL    HW230684   5.072   4.626   3.331
 9929SOL     OW30685   3.531   4.147   4.218
 9929SOL    HW130686   3.494   4.173   4.307
 9929SOL    HW230687   3.620   4.103   4.231
 9930SOL     OW30688   0.757   6.865   5.989
 9930SOL    HW130689   0.820   6.930   5.947
 9930SOL    HW230690   0.744   6.787   5.928
 9931SOL     OW30691   6.927   5.737   4.566
 9931SOL    HW130692   6.847   5.678   4.554
 9931SOL    HW230693   6.942   5.789   4.482
 9932SOL     OW30694   2.783   2.559   5.643
 9932SOL    HW130695   2.737   2.645   5.664
 9932SOL    HW230696   2.715   2.486   5.636
 9933SOL     OW30697   2.073   6.841   4.088
 9933SOL    HW130698   2.019   6.925   4.080
 9933SOL    HW230699   2.045   6.777   4.017
 9934SOL     OW30700   0.331   2.148   6.215
 9934SOL    HW130701   0.404   2.147   6.283
 9934SOL    HW230702   0.318   2.055   6.179
 9935SOL     OW30703   2.794   0.080   1.271
 9935SOL    HW130704   2.751   0.013   1.210
 9935SOL    HW230705   2.739   0.164   1.272
 9936SOL     OW30706   6.264   4.694   0.446
 9936SOL    HW130707   6.271   4.658   0.539
 9936SOL    HW230708   6.192   4.763   0.442
 9937SOL     OW30709   0.314   1.466   1.530
 9937SOL    HW130710   0.295   1.562   1.548
 9937SOL    HW230711   0.412   1.454   1.514
 9938SOL     OW30712   5.341   5.061   3.999
 9938SOL    HW130713   5.259   5.043   4.054
 9938SOL    HW230714   5.326   5.029   3.906
 9939SOL     OW30715   3.506   2.789   1.040
 9939SOL    HW130716   3.587   2.735   1.062
 9939SOL    HW230717   3.429   2.758   1.096
 9940SOL     OW30718   1.033   0.130   2.098
 9940SOL    HW130719   1.043   0.076   2.182
 9940SOL    HW230720   1.118   0.178   2.079
 9941SOL     OW30721   3.305   4.287   6.000
 9941SOL    HW130722   3.356   4.366   6.035
 9941SOL    HW230723   3.208   4.310   5.995
 9942SOL     OW30724   3.748   5.465   2.476
 9942SOL    HW130725   3.714   5.393   2.536
 9942SOL    HW230726   3.764   5.428   2.385
 9943SOL     OW30727   0.953   4.713   6.963
 9943SOL    HW130728   0.861   4.716   6.924
 9943SOL    HW230729   0.988   4.807   6.970
 9944SOL     OW30730   1.018   4.372   6.710
 9944SOL    HW130731   1.068   4.330   6.785
 9944SOL    HW230732   0.989   4.302   6.645
 9945SOL     OW30733   4.583   5.972   6.933
 9945SOL    HW130734   4.525   5.893   6.952
 9945SOL    HW230735   4.541   6.028   6.861
 9946SOL     OW30736   6.693   6.884   3.575
 9946SOL    HW130737   6.744   6.799   3.562
 9946SOL    HW230738   6.666   6.892   3.671
 9947SOL     OW30739   2.753   2.329   4.515
 9947SOL    HW130740   2.849   2.312   4.490
 9947SOL    HW230741   2.745   2.335   4.615
 9948SOL     OW30742   7.000   5.215   4.910
 9948SOL    HW130743   6.989   5.303   4.864
 9948SOL    HW230744   6.925   5.153   4.884
 9949SOL     OW30745   0.074   4.795   4.020
 9949SOL    HW130746   0.052   4.884   4.062
 9949SOL    HW230747   0.159   4.761   4.058
 9950SOL     OW30748   5.880   6.020   6.632
 9950SOL    HW130749   5.907   5.955   6.561
 9950SOL    HW230750   5.886   6.113   6.597
 9951SOL     OW30751   0.980   2.495   3.280
 9951SOL    HW130752   0.889   2.535   3.267
 9951SOL    HW230753   1.045   2.539   3.218
 9952SOL     OW30754   1.406   4.362   0.719
 9952SOL    HW130755   1.375   4.286   0.776
 9952SOL    HW230756   1.340   4.437   0.726
 9953SOL     OW30757   6.372   1.790   4.185
 9953SOL    HW130758   6.358   1.706   4.132
 9953SOL    HW230759   6.284   1.829   4.211
 9954SOL     OW30760   1.395   0.179   5.471
 9954SOL    HW130761   1.461   0.229   5.416
 9954SOL    HW230762   1.305   0.185   5.428
 9955SOL     OW30763   4.500   4.206   6.650
 9955SOL    HW130764   4.550   4.264   6.586
 9955SOL    HW230765   4.440   4.144   6.599
 9956SOL     OW30766   0.761   4.884   4.105
 9956SOL    HW130767   0.705   4.950   4.154
 9956SOL    HW230768   0.775   4.915   4.011
 9957SOL     OW30769   6.174   0.219   1.559
 9957SOL    HW130770   6.106   0.187   1.626
 9957SOL    HW230771   6.159   0.316   1.541
 9958SOL     OW30772   2.706   5.801   7.006
 9958SOL    HW130773   2.724   5.742   0.063
 9958SOL    HW230774   2.617   5.780   6.967
 9959SOL     OW30775   4.138   3.574   3.511
 9959SOL    HW130776   4.225   3.602   3.471
 9959SOL    HW230777   4.063   3.617   3.462
 9960SOL     OW30778   0.613   0.213   2.495
 9960SOL    HW130779   0.653   0.142   2.552
 9960SOL    HW230780   0.660   0.216   2.407
 9961SOL     OW30781   1.206   5.208   4.769
 9961SOL    HW130782   1.192   5.306   4.777
 9961SOL    HW230783   1.146   5.171   4.698
 9962SOL     OW30784   4.684   0.569   2.928
 9962SOL    HW130785   4.748   0.492   2.931
 9962SOL    HW230786   4.635   0.575   3.015
 9963SOL     OW30787   2.270   2.120   6.225
 9963SOL    HW130788   2.307   2.037   6.267
 9963SOL    HW230789   2.344   2.175   6.187
 9964SOL     OW30790   4.291   4.169   6.098
 9964SOL    HW130791   4.262   4.169   6.002
 9964SOL    HW230792   4.388   4.190   6.104
 9965SOL     OW30793   4.077   4.992   5.547
 9965SOL    HW130794   3.991   4.945   5.568
 9965SOL    HW230795   4.062   5.091   5.549
 9966SOL     OW30796   2.619   5.620   2.183
 9966SOL    HW130797   2.678   5.585   2.110
 9966SOL    HW230798   2.591   5.544   2.242
 9967SOL     OW30799   5.968   5.859   1.618
 9967SOL    HW130800   5.916   5.805   1.552
 9967SOL    HW230801   6.039   5.910   1.570
 9968SOL     OW30802   3.142   4.680   6.063
 9968SOL    HW130803   3.236   4.659   6.089
 9968SOL    HW230804   3.094   4.595   6.040
 9969SOL     OW30805   1.338   2.435   3.991
 9969SOL    HW130806   1.326   2.337   4.007
 9969SOL    HW230807   1.355   2.481   4.078
 9970SOL     OW30808   5.951   4.360   2.147
 9970SOL    HW130809   5.893   4.282   2.123
 9970SOL    HW230810   6.037   4.353   2.096
 9971SOL     OW30811   2.614   3.982   0.301
 9971SOL    HW130812   2.678   3.909   0.324
 9971SOL    HW230813   2.531   3.972   0.356
 9972SOL     OW30814   3.802   4.711   0.403
 9972SOL    HW130815   3.731   4.734   0.470
 9972SOL    HW230816   3.767   4.730   0.311
 9973SOL     OW30817   4.572   1.977   4.675
 9973SOL    HW130818   4.659   1.997   4.631
 9973SOL    HW230819   4.553   1.879   4.666
 9974SOL     OW30820   5.885   3.250   3.604
 9974SOL    HW130821   5.903   3.260   3.506
 9974SOL    HW230822   5.966   3.215   3.650
 9975SOL     OW30823   6.887   4.569   0.233
 9975SOL    HW130824   6.858   4.638   0.300
 9975SOL    HW230825   6.862   4.478   0.267
 9976SOL     OW30826   0.132   5.253   5.735
 9976SOL    HW130827   0.210   5.316   5.741
 9976SOL    HW230828   0.165   5.159   5.745
 9977SOL     OW30829   6.889   5.209   6.108
 9977SOL    HW130830   6.823   5.190   6.181
 9977SOL    HW230831   6.841   5.244   6.027
 9978SOL     OW30832   6.198   2.333   3.403
 9978SOL    HW130833   6.174   2.289   3.489
 9978SOL    HW230834   6.158   2.282   3.327
 9979SOL     OW30835   6.501   4.972   6.096
 9979SOL    HW130836   6.510   5.066   6.063
 9979SOL    HW230837   6.404   4.951   6.111
 9980SOL     OW30838   1.788   1.383   0.083
 9980SOL    HW130839   1.711   1.343   0.131
 9980SOL    HW230840   1.757   1.463   0.032
 9981SOL     OW30841   2.469   1.925   1.203
 9981SOL    HW130842   2.560   1.894   1.174
 9981SOL    HW230843   2.436   1.867   1.277
 9982SOL     OW30844   0.613   1.123   3.287
 9982SOL    HW130845   0.587   1.027   3.291
 9982SOL    HW230846   0.672   1.138   3.208
 9983SOL     OW30847   1.427   2.004   1.958
 9983SOL    HW130848   1.501   1.952   1.916
 9983SOL    HW230849   1.343   1.949   1.956
 9984SOL     OW30850   1.133   6.959   0.607
 9984SOL    HW130851   1.069   6.890   0.573
 9984SOL    HW230852   1.090   7.012   0.680
 9985SOL     OW30853   2.483   0.820   1.888
 9985SOL    HW130854   2.581   0.809   1.905
 9985SOL    HW230855   2.459   0.917   1.891
 9986SOL     OW30856   5.281   4.181   6.513
 9986SOL    HW130857   5.341   4.243   6.461
 9986SOL    HW230858   5.322   4.162   6.602
 9987SOL     OW30859   5.714   1.651   2.537
 9987SOL    HW130860   5.782   1.586   2.503
 9987SOL    HW230861   5.622   1.615   2.522
 9988SOL     OW30862   0.328   5.123   5.219
 9988SOL    HW130863   0.288   5.058   5.154
 9988SOL    HW230864   0.396   5.077   5.276
 9989SOL     OW30865   5.513   3.935   2.822
 9989SOL    HW130866   5.511   3.842   2.786
 9989SOL    HW230867   5.453   3.941   2.902
 9990SOL     OW30868   2.592   6.847   3.115
 9990SOL    HW130869   2.553   6.937   3.097
 9990SOL    HW230870   2.627   6.808   3.029
 9991SOL     OW30871   1.676   3.474   4.743
 9991SOL    HW130872   1.665   3.518   4.832
 9991SOL    HW230873   1.605   3.506   4.681
 9992SOL     OW30874   4.855   3.522   0.583
 9992SOL    HW130875   4.872   3.462   0.661
 9992SOL    HW230876   4.768   3.498   0.540
 9993SOL     OW30877   4.265   0.345   2.420
 9993SOL    HW130878   4.275   0.352   2.519
 9993SOL    HW230879   4.335   0.401   2.375
 9994SOL     OW30880   0.055   3.484   4.302
 9994SOL    HW130881   0.028   3.517   4.211
 9994SOL    HW230882   0.065   3.562   4.363
 9995SOL     OW30883   3.096   0.085   2.669
 9995SOL    HW130884   3.124   0.008   2.611
 9995SOL    HW230885   3.176   0.142   2.688
 9996SOL     OW30886   2.834   2.751   1.147
 9996SOL    HW130887   2.774   2.694   1.091
 9996SOL    HW230888   2.919   2.703   1.165
 9997SOL     OW30889   4.013   2.288   1.097
 9997SOL    HW130890   4.058   2.368   1.058
 9997SOL    HW230891   3.918   2.309   1.119
 9998SOL     OW30892   6.804   3.712   2.027
 9998SOL    HW130893   6.824   3.806   1.998
 9998SOL    HW230894   6.876   3.651   1.995
 9999SOL     OW30895   6.556   4.568   4.889
 9999SOL    HW130896   6.481   4.598   4.948
 9999SOL    HW230897   6.536   4.594   4.794
10000SOL     OW30898   5.311   2.828   0.139
10000SOL    HW130899   5.257   2.894   0.087
10000SOL    HW230900   5.309   2.739   0.093
10001SOL     OW30901   4.871   1.368   1.915
10001SOL    HW130902   4.868   1.421   1.830
10001SOL    HW230903   4.910   1.278   1.896
10002SOL     OW30904   1.339   0.702   1.274
10002SOL    HW130905   1.321   0.644   1.195
10002SOL    HW230906   1.391   0.651   1.342
10003SOL     OW30907   4.391   1.690   3.501
10003SOL    HW130908   4.428   1.676   3.409
10003SOL    HW230909   4.328   1.615   3.522
10004SOL     OW30910   4.679   2.566   4.527
10004SOL    HW130911   4.625   2.495   4.482
10004SOL    HW230912   4.723   2.623   4.457
10005SOL     OW30913   4.850   6.623   3.535
10005SOL    HW130914   4.811   6.709   3.568
10005SOL    HW230915   4.945   6.615   3.565
10006SOL     OW30916   5.281   0.904   4.242
10006SOL    HW130917   5.335   0.885   4.324
10006SOL    HW230918   5.264   1.002   4.235
10007SOL     OW30919   0.595   4.329   5.009
10007SOL    HW130920   0.617   4.233   5.027
10007SOL    HW230921   0.509   4.352   5.053
10008SOL     OW30922   4.777   1.594   3.980
10008SOL    HW130923   4.753   1.646   3.898
10008SOL    HW230924   4.775   1.496   3.960
10009SOL     OW30925   1.937   4.173   1.735
10009SOL    HW130926   1.853   4.216   1.701
10009SOL    HW230927   1.933   4.075   1.718
10010SOL     OW30928   2.299   6.977   6.930
10010SOL    HW130929   2.219   0.006   6.898
10010SOL    HW230930   2.372   0.020   6.953
10011SOL     OW30931   6.474   2.294   4.793
10011SOL    HW130932   6.433   2.363   4.853
10011SOL    HW230933   6.404   2.227   4.766
10012SOL     OW30934   4.844   0.153   2.752
10012SOL    HW130935   4.748   0.128   2.738
10012SOL    HW230936   4.902   0.093   2.697
10013SOL     OW30937   1.755   1.637   4.288
10013SOL    HW130938   1.794   1.696   4.217
10013SOL    HW230939   1.806   1.649   4.373
10014SOL     OW30940   6.499   2.999   0.052
10014SOL    HW130941   6.595   3.015   0.029
10014SOL    HW230942   6.443   3.006   6.992
10015SOL     OW30943   2.852   4.332   0.471
10015SOL    HW130944   2.824   4.298   0.381
10015SOL    HW230945   2.938   4.288   0.498
10016SOL     OW30946   2.220   0.305   4.961
10016SOL    HW130947   2.191   0.295   5.057
10016SOL    HW230948   2.161   0.248   4.903
10017SOL     OW30949   2.171   2.593   2.256
10017SOL    HW130950   2.240   2.662   2.278
10017SOL    HW230951   2.150   2.540   2.338
10018SOL     OW30952   5.006   6.738   5.788
10018SOL    HW130953   5.052   6.655   5.757
10018SOL    HW230954   5.072   6.800   5.829
10019SOL     OW30955   1.519   1.912   2.934
10019SOL    HW130956   1.442   1.882   2.878
10019SOL    HW230957   1.605   1.894   2.885
10020SOL     OW30958   0.565   2.695   1.552
10020SOL    HW130959   0.582   2.607   1.507
10020SOL    HW230960   0.626   2.705   1.630
10021SOL     OW30961   0.490   3.357   1.336
10021SOL    HW130962   0.490   3.446   1.291
10021SOL    HW230963   0.465   3.368   1.432
10022SOL     OW30964   3.427   6.854   0.780
10022SOL    HW130965   3.468   6.904   0.704
10022SOL    HW230966   3.328   6.873   0.782
10023SOL     OW30967   1.645   5.202   6.224
10023SOL    HW130968   1.615   5.106   6.222
10023SOL    HW230969   1.603   5.247   6.303
10024SOL     OW30970   2.271   6.778   1.694
10024SOL    HW130971   2.313   6.688   1.683
10024SOL    HW230972   2.280   6.829   1.608
10025SOL     OW30973   1.166   0.959   1.691
10025SOL    HW130974   1.146   0.873   1.643
10025SOL    HW230975   1.080   1.005   1.713
10026SOL     OW30976   4.743   6.821   3.669
10026SOL    HW130977   4.682   6.814   3.748
10026SOL    HW230978   4.835   6.845   3.701
10027SOL     OW30979   0.356   3.973   5.031
10027SOL    HW130980   0.348   4.036   5.108
10027SOL    HW230981   0.440   3.919   5.040
10028SOL     OW30982   1.030   1.987   1.461
10028SOL    HW130983   1.039   2.076   1.504
10028SOL    HW230984   0.986   1.923   1.524
10029SOL     OW30985   3.687   2.056   3.747
10029SOL    HW130986   3.705   2.126   3.678
10029SOL    HW230987   3.592   2.062   3.777
10030SOL     OW30988   2.215   6.250   3.996
10030SOL    HW130989   2.149   6.294   4.058
10030SOL    HW230990   2.191   6.271   3.901
10031SOL     OW30991   5.673   5.165   3.874
10031SOL    HW130992   5.634   5.185   3.964
10031SOL    HW230993   5.712   5.073   3.875
10032SOL     OW30994   2.842   1.900   4.986
10032SOL    HW130995   2.877   1.959   4.913
10032SOL    HW230996   2.882   1.928   5.074
10033SOL     OW30997   4.745   2.168   3.982
10033SOL    HW130998   4.656   2.184   3.940
10033SOL    HW230999   4.794   2.097   3.931
10034SOL     OW31000   2.929   0.195   4.002
10034SOL    HW131001   2.948   0.107   3.958
10034SOL    HW231002   2.831   0.204   4.018
10035SOL     OW31003   6.600   4.495   1.910
10035SOL    HW131004   6.679   4.556   1.920
10035SOL    HW231005   6.600   4.428   1.984
10036SOL     OW31006   5.955   1.990   1.167
10036SOL    HW131007   5.904   1.904   1.164
10036SOL    HW231008   5.892   2.066   1.188
10037SOL     OW31009   6.012   1.228   1.171
10037SOL    HW131010   6.040   1.251   1.078
10037SOL    HW231011   5.937   1.161   1.169
10038SOL     OW31012   4.612   0.801   6.928
10038SOL    HW131013   4.547   0.732   6.961
10038SOL    HW231014   4.704   0.778   6.961
10039SOL     OW31015   3.617   0.479   3.691
10039SOL    HW131016   3.518   0.491   3.696
10039SOL    HW231017   3.642   0.438   3.603
10040SOL     OW31018   4.368   5.674   6.303
10040SOL    HW131019   4.295   5.684   6.370
10040SOL    HW231020   4.453   5.647   6.349
10041SOL     OW31021   4.038   6.244   6.666
10041SOL    HW131022   4.130   6.231   6.631
10041SOL    HW231023   3.975   6.259   6.590
10042SOL     OW31024   1.206   1.933   4.605
10042SOL    HW131025   1.264   1.858   4.571
10042SOL    HW231026   1.126   1.894   4.652
10043SOL     OW31027   6.512   1.600   4.916
10043SOL    HW131028   6.422   1.641   4.925
10043SOL    HW231029   6.560   1.642   4.839
10044SOL     OW31030   2.466   1.572   5.036
10044SOL    HW131031   2.523   1.652   5.017
10044SOL    HW231032   2.473   1.507   4.960
10045SOL     OW31033   3.516   0.362   3.127
10045SOL    HW131034   3.503   0.396   3.220
10045SOL    HW231035   3.613   0.360   3.106
10046SOL     OW31036   2.188   4.016   0.781
10046SOL    HW131037   2.249   4.042   0.855
10046SOL    HW231038   2.164   4.097   0.727
10047SOL     OW31039   1.085   3.570   4.359
10047SOL    HW131040   1.162   3.629   4.381
10047SOL    HW231041   1.119   3.483   4.322
10048SOL     OW31042   6.510   0.254   2.595
10048SOL    HW131043   6.594   0.290   2.553
10048SOL    HW231044   6.459   0.329   2.637
10049SOL     OW31045   1.246   1.698   6.203
10049SOL    HW131046   1.319   1.683   6.269
10049SOL    HW231047   1.282   1.690   6.110
10050SOL     OW31048   5.374   3.484   4.998
10050SOL    HW131049   5.421   3.412   5.050
10050SOL    HW231050   5.289   3.508   5.044
10051SOL     OW31051   6.139   3.917   5.632
10051SOL    HW131052   6.107   3.889   5.541
10051SOL    HW231053   6.061   3.942   5.689
10052SOL     OW31054   2.104   1.203   2.977
10052SOL    HW131055   2.038   1.135   2.947
10052SOL    HW231056   2.062   1.294   2.974
10053SOL     OW31057   3.895   5.507   3.179
10053SOL    HW131058   3.993   5.531   3.175
10053SOL    HW231059   3.853   5.553   3.258
10054SOL     OW31060   5.572   6.413   6.299
10054SOL    HW131061   5.621   6.493   6.265
10054SOL    HW231062   5.635   6.354   6.348
10055SOL     OW31063   6.017   1.176   4.967
10055SOL    HW131064   6.093   1.163   4.903
10055SOL    HW231065   6.052   1.205   5.055
10056SOL     OW31066   5.106   4.511   2.758
10056SOL    HW131067   5.128   4.461   2.841
10056SOL    HW231068   5.021   4.475   2.719
10057SOL     OW31069   4.091   2.564   5.572
10057SOL    HW131070   4.018   2.495   5.566
10057SOL    HW231071   4.096   2.614   5.485
10058SOL     OW31072   6.264   3.831   5.251
10058SOL    HW131073   6.318   3.907   5.215
10058SOL    HW231074   6.252   3.761   5.180
10059SOL     OW31075   0.219   1.565   6.555
10059SOL    HW131076   0.132   1.518   6.540
10059SOL    HW231077   0.229   1.586   6.652
10060SOL     OW31078   2.339   2.785   2.315
10060SOL    HW131079   2.426   2.793   2.364
10060SOL    HW231080   2.297   2.875   2.305
10061SOL     OW31081   5.063   1.739   3.763
10061SOL    HW131082   5.024   1.784   3.843
10061SOL    HW231083   5.161   1.760   3.756
10062SOL     OW31084   5.860   0.378   3.612
10062SOL    HW131085   5.814   0.405   3.697
10062SOL    HW231086   5.958   0.370   3.629
10063SOL     OW31087   2.786   1.179   4.556
10063SOL    HW131088   2.831   1.268   4.552
10063SOL    HW231089   2.788   1.137   4.466
10064SOL     OW31090   5.008   6.447   0.422
10064SOL    HW131091   5.072   6.393   0.369
10064SOL    HW231092   4.921   6.398   0.430
10065SOL     OW31093   2.655   0.321   2.580
10065SOL    HW131094   2.595   0.371   2.517
10065SOL    HW231095   2.672   0.376   2.661
10066SOL     OW31096   0.628   2.634   4.961
10066SOL    HW131097   0.602   2.722   4.922
10066SOL    HW231098   0.600   2.561   4.899
10067SOL     OW31099   0.571   3.438   5.282
10067SOL    HW131100   0.550   3.477   5.372
10067SOL    HW231101   0.487   3.405   5.239
10068SOL     OW31102   1.020   3.285   3.738
10068SOL    HW131103   1.089   3.314   3.671
10068SOL    HW231104   0.993   3.364   3.793
10069SOL     OW31105   3.317   5.264   1.389
10069SOL    HW131106   3.303   5.256   1.488
10069SOL    HW231107   3.373   5.188   1.357
10070SOL     OW31108   0.200   6.116   5.220
10070SOL    HW131109   0.254   6.190   5.259
10070SOL    HW231110   0.103   6.142   5.218
10071SOL     OW31111   6.890   6.247   4.393
10071SOL    HW131112   6.801   6.215   4.426
10071SOL    HW231113   6.962   6.187   4.428
10072SOL     OW31114   0.351   0.226   4.279
10072SOL    HW131115   0.412   0.186   4.210
10072SOL    HW231116   0.372   0.323   4.289
10073SOL     OW31117   6.767   3.840   4.233
10073SOL    HW131118   6.677   3.883   4.233
10073SOL    HW231119   6.785   3.801   4.323
10074SOL     OW31120   2.051   0.106   6.515
10074SOL    HW131121   1.986   0.056   6.457
10074SOL    HW231122   2.133   0.127   6.462
10075SOL     OW31123   1.621   2.503   1.834
10075SOL    HW131124   1.644   2.444   1.756
10075SOL    HW231125   1.702   2.554   1.862
10076SOL     OW31126   5.782   6.602   3.030
10076SOL    HW131127   5.708   6.570   3.090
10076SOL    HW231128   5.850   6.651   3.084
10077SOL     OW31129   4.251   3.590   0.497
10077SOL    HW131130   4.330   3.595   0.559
10077SOL    HW231131   4.189   3.666   0.515
10078SOL     OW31132   6.164   6.112   4.390
10078SOL    HW131133   6.093   6.105   4.320
10078SOL    HW231134   6.129   6.162   4.469
10079SOL     OW31135   5.696   3.274   3.250
10079SOL    HW131136   5.625   3.208   3.275
10079SOL    HW231137   5.746   3.240   3.171
10080SOL     OW31138   5.146   1.444   6.156
10080SOL    HW131139   5.048   1.461   6.146
10080SOL    HW231140   5.160   1.352   6.192
10081SOL     OW31141   0.690   1.569   0.112
10081SOL    HW131142   0.622   1.548   0.041
10081SOL    HW231143   0.739   1.652   0.087
10082SOL     OW31144   0.736   5.422   2.029
10082SOL    HW131145   0.667   5.359   2.066
10082SOL    HW231146   0.780   5.379   1.950
10083SOL     OW31147   3.654   0.089   3.606
10083SOL    HW131148   3.602   0.152   3.548
10083SOL    HW231149   3.591   0.034   3.661
10084SOL     OW31150   0.964   0.367   5.479
10084SOL    HW131151   0.912   0.338   5.559
10084SOL    HW231152   0.904   0.414   5.415
10085SOL     OW31153   3.510   0.155   0.938
10085SOL    HW131154   3.427   0.203   0.968
10085SOL    HW231155   3.583   0.171   1.005
10086SOL     OW31156   5.929   5.752   3.077
10086SOL    HW131157   5.983   5.790   3.152
10086SOL    HW231158   5.888   5.665   3.106
10087SOL     OW31159   6.507   5.725   4.151
10087SOL    HW131160   6.421   5.750   4.194
10087SOL    HW231161   6.535   5.634   4.182
10088SOL     OW31162   6.708   0.186   2.084
10088SOL    HW131163   6.734   0.176   1.988
10088SOL    HW231164   6.777   0.240   2.132
10089SOL     OW31165   2.964   2.218   3.540
10089SOL    HW131166   3.048   2.191   3.586
10089SOL    HW231167   2.885   2.199   3.600
10090SOL     OW31168   0.116   4.945   2.018
10090SOL    HW131169   0.046   4.947   1.946
10090SOL    HW231170   0.116   5.032   2.067
10091SOL     OW31171   6.327   5.647   6.508
10091SOL    HW131172   6.356   5.717   6.443
10091SOL    HW231173   6.405   5.592   6.535
10092SOL     OW31174   1.925   2.714   6.376
10092SOL    HW131175   1.991   2.652   6.334
10092SOL    HW231176   1.957   2.739   6.467
10093SOL     OW31177   4.683   3.326   5.303
10093SOL    HW131178   4.672   3.363   5.395
10093SOL    HW231179   4.688   3.401   5.237
10094SOL     OW31180   2.510   6.577   1.257
10094SOL    HW131181   2.537   6.526   1.339
10094SOL    HW231182   2.592   6.603   1.205
10095SOL     OW31183   5.169   1.711   4.622
10095SOL    HW131184   5.224   1.722   4.540
10095SOL    HW231185   5.228   1.713   4.703
10096SOL     OW31186   4.903   6.620   3.218
10096SOL    HW131187   4.898   6.526   3.184
10096SOL    HW231188   4.872   6.622   3.313
10097SOL     OW31189   1.618   2.189   6.643
10097SOL    HW131190   1.533   2.206   6.692
10097SOL    HW231191   1.668   2.275   6.633
10098SOL     OW31192   2.833   6.831   4.865
10098SOL    HW131193   2.875   6.898   4.927
10098SOL    HW231194   2.745   6.802   4.902
10099SOL     OW31195   0.197   4.816   1.249
10099SOL    HW131196   0.173   4.831   1.153
10099SOL    HW231197   0.116   4.782   1.298
10100SOL     OW31198   5.206   5.959   5.692
10100SOL    HW131199   5.260   5.912   5.622
10100SOL    HW231200   5.264   5.980   5.771
10101SOL     OW31201   0.011   3.093   1.956
10101SOL    HW131202   6.995   3.162   2.017
10101SOL    HW231203   7.000   3.002   1.984
10102SOL     OW31204   6.367   0.843   1.363
10102SOL    HW131205   6.314   0.780   1.305
10102SOL    HW231206   6.342   0.937   1.342
10103SOL     OW31207   2.416   0.311   5.637
10103SOL    HW131208   2.317   0.331   5.641
10103SOL    HW231209   2.450   0.331   5.545
10104SOL     OW31210   1.559   1.444   5.492
10104SOL    HW131211   1.573   1.540   5.515
10104SOL    HW231212   1.555   1.433   5.393
10105SOL     OW31213   2.172   0.726   6.197
10105SOL    HW131214   2.091   0.670   6.177
10105SOL    HW231215   2.211   0.760   6.112
10106SOL     OW31216   4.129   6.552   0.882
10106SOL    HW131217   4.102   6.631   0.938
10106SOL    HW231218   4.053   6.527   0.822
10107SOL     OW31219   5.268   1.410   6.506
10107SOL    HW131220   5.306   1.502   6.510
10107SOL    HW231221   5.283   1.363   6.593
10108SOL     OW31222   0.257   1.649   6.848
10108SOL    HW131223   0.287   1.744   6.848
10108SOL    HW231224   0.236   1.620   6.941
10109SOL     OW31225   0.495   1.205   0.988
10109SOL    HW131226   0.503   1.245   1.079
10109SOL    HW231227   0.458   1.273   0.925
10110SOL     OW31228   4.515   4.422   4.111
10110SOL    HW131229   4.565   4.337   4.096
10110SOL    HW231230   4.507   4.439   4.210
10111SOL     OW31231   6.992   3.635   3.554
10111SOL    HW131232   6.981   3.543   3.593
10111SOL    HW231233   7.008   3.700   3.628
10112SOL     OW31234   5.944   3.334   2.768
10112SOL    HW131235   5.986   3.424   2.754
10112SOL    HW231236   5.909   3.300   2.681
10113SOL     OW31237   4.676   0.126   0.832
10113SOL    HW131238   4.731   0.172   0.761
10113SOL    HW231239   4.726   0.047   0.866
10114SOL     OW31240   4.474   2.051   2.616
10114SOL    HW131241   4.434   1.966   2.579
10114SOL    HW231242   4.402   2.119   2.626
10115SOL     OW31243   4.196   1.943   4.946
10115SOL    HW131244   4.170   2.037   4.927
10115SOL    HW231245   4.139   1.881   4.892
10116SOL     OW31246   0.428   6.754   7.006
10116SOL    HW131247   0.379   6.708   6.932
10116SOL    HW231248   0.392   6.846   7.018
10117SOL     OW31249   0.054   6.412   5.834
10117SOL    HW131250   6.976   6.407   5.820
10117SOL    HW231251   0.101   6.379   5.752
10118SOL     OW31252   2.464   4.464   4.082
10118SOL    HW131253   2.443   4.550   4.035
10118SOL    HW231254   2.446   4.387   4.021
10119SOL     OW31255   6.424   4.745   3.884
10119SOL    HW131256   6.365   4.793   3.819
10119SOL    HW231257   6.371   4.721   3.965
10120SOL     OW31258   1.863   3.496   4.189
10120SOL    HW131259   1.785   3.500   4.127
10120SOL    HW231260   1.948   3.507   4.136
10121SOL     OW31261   5.561   3.493   6.928
10121SOL    HW131262   5.499   3.456   6.859
10121SOL    HW231263   5.620   3.419   6.962
10122SOL     OW31264   5.319   1.986   3.600
10122SOL    HW131265   5.291   1.985   3.505
10122SOL    HW231266   5.350   1.895   3.628
10123SOL     OW31267   5.916   6.425   0.865
10123SOL    HW131268   5.928   6.326   0.870
10123SOL    HW231269   5.820   6.448   0.885
10124SOL     OW31270   1.448   5.251   0.320
10124SOL    HW131271   1.499   5.249   0.406
10124SOL    HW231272   1.351   5.240   0.338
10125SOL     OW31273   2.329   1.231   0.788
10125SOL    HW131274   2.248   1.260   0.839
10125SOL    HW231275   2.406   1.221   0.851
10126SOL     OW31276   0.057   0.227   6.233
10126SOL    HW131277   6.986   0.191   6.243
10126SOL    HW231278   0.094   0.251   6.323
10127SOL     OW31279   2.015   3.644   0.487
10127SOL    HW131280   2.102   3.613   0.525
10127SOL    HW231281   1.953   3.667   0.562
10128SOL     OW31282   3.003   0.770   5.644
10128SOL    HW131283   2.955   0.857   5.661
10128SOL    HW231284   2.986   0.741   5.550
10129SOL     OW31285   6.713   1.753   2.443
10129SOL    HW131286   6.706   1.680   2.375
10129SOL    HW231287   6.699   1.714   2.534
10130SOL     OW31288   0.455   3.416   1.593
10130SOL    HW131289   0.448   3.317   1.582
10130SOL    HW231290   0.531   3.438   1.654
10131SOL     OW31291   1.626   0.491   3.971
10131SOL    HW131292   1.527   0.483   3.962
10131SOL    HW231293   1.654   0.582   3.942
10132SOL     OW31294   1.600   0.492   3.030
10132SOL    HW131295   1.595   0.571   3.090
10132SOL    HW231296   1.638   0.414   3.079
10133SOL     OW31297   4.669   6.657   0.742
10133SOL    HW131298   4.591   6.705   0.782
10133SOL    HW231299   4.726   6.619   0.815
10134SOL     OW31300   5.606   1.010   2.873
10134SOL    HW131301   5.572   1.097   2.910
10134SOL    HW231302   5.544   0.978   2.802
10135SOL     OW31303   4.732   2.457   4.033
10135SOL    HW131304   4.825   2.452   4.070
10135SOL    HW231305   4.699   2.365   4.012
10136SOL     OW31306   5.233   1.542   2.342
10136SOL    HW131307   5.199   1.608   2.274
10136SOL    HW231308   5.264   1.592   2.423
10137SOL     OW31309   0.320   4.774   5.409
10137SOL    HW131310   0.356   4.705   5.346
10137SOL    HW231311   0.336   4.745   5.503
10138SOL     OW31312   5.852   3.215   0.366
10138SOL    HW131313   5.802   3.228   0.452
10138SOL    HW231314   5.908   3.296   0.348
10139SOL     OW31315   3.043   3.988   4.621
10139SOL    HW131316   2.989   4.072   4.612
10139SOL    HW231317   2.984   3.913   4.648
10140SOL     OW31318   6.960   6.634   6.452
10140SOL    HW131319   0.033   6.635   6.417
10140SOL    HW231320   6.920   6.725   6.443
10141SOL     OW31321   4.042   1.096   4.949
10141SOL    HW131322   4.044   1.179   5.004
10141SOL    HW231323   3.998   1.115   4.861
10142SOL     OW31324   6.125   6.734   5.850
10142SOL    HW131325   6.222   6.708   5.855
10142SOL    HW231326   6.109   6.784   5.765
10143SOL     OW31327   5.564   2.877   0.264
10143SOL    HW131328   5.627   2.940   0.219
10143SOL    HW231329   5.484   2.863   0.207
10144SOL     OW31330   4.978   6.099   5.215
10144SOL    HW131331   5.016   6.025   5.270
10144SOL    HW231332   4.899   6.065   5.164
10145SOL     OW31333   3.630   5.496   3.098
10145SOL    HW131334   3.619   5.397   3.096
10145SOL    HW231335   3.728   5.519   3.100
10146SOL     OW31336   6.763   3.565   4.706
10146SOL    HW131337   6.834   3.567   4.776
10146SOL    HW231338   6.759   3.654   4.659
10147SOL     OW31339   5.062   3.997   6.613
10147SOL    HW131340   5.047   3.910   6.567
10147SOL    HW231341   5.126   4.053   6.560
10148SOL     OW31342   5.850   4.290   1.063
10148SOL    HW131343   5.796   4.210   1.087
10148SOL    HW231344   5.825   4.321   0.971
10149SOL     OW31345   5.175   4.526   1.267
10149SOL    HW131346   5.270   4.555   1.260
10149SOL    HW231347   5.162   4.440   1.216
10150SOL     OW31348   4.411   3.244   1.408
10150SOL    HW131349   4.365   3.288   1.485
10150SOL    HW231350   4.501   3.285   1.395
10151SOL     OW31351   1.259   0.303   6.787
10151SOL    HW131352   1.237   0.274   6.694
10151SOL    HW231353   1.309   0.389   6.784
10152SOL     OW31354   6.385   5.684   3.899
10152SOL    HW131355   6.305   5.638   3.938
10152SOL    HW231356   6.450   5.704   3.973
10153SOL     OW31357   4.812   5.676   4.368
10153SOL    HW131358   4.876   5.604   4.395
10153SOL    HW231359   4.739   5.682   4.436
10154SOL     OW31360   3.541   6.416   5.550
10154SOL    HW131361   3.633   6.454   5.558
10154SOL    HW231362   3.528   6.344   5.618
10155SOL     OW31363   5.018   2.707   5.454
10155SOL    HW131364   5.042   2.631   5.515
10155SOL    HW231365   4.958   2.673   5.381
10156SOL     OW31366   5.375   0.521   1.564
10156SOL    HW131367   5.358   0.614   1.529
10156SOL    HW231368   5.429   0.470   1.497
10157SOL     OW31369   6.994   2.291   0.297
10157SOL    HW131370   0.072   2.298   0.303
10157SOL    HW231371   6.954   2.381   0.283
10158SOL     OW31372   6.322   6.542   1.536
10158SOL    HW131373   6.367   6.486   1.606
10158SOL    HW231374   6.390   6.581   1.475
10159SOL     OW31375   3.779   3.411   2.438
10159SOL    HW131376   3.783   3.493   2.381
10159SOL    HW231377   3.851   3.348   2.410
10160SOL     OW31378   1.772   4.003   3.105
10160SOL    HW131379   1.846   4.027   3.168
10160SOL    HW231380   1.710   3.939   3.150
10161SOL     OW31381   3.309   4.821   6.486
10161SOL    HW131382   3.332   4.729   6.517
10161SOL    HW231383   3.210   4.829   6.477
10162SOL     OW31384   2.450   4.406   0.838
10162SOL    HW131385   2.532   4.362   0.801
10162SOL    HW231386   2.471   4.445   0.928
10163SOL     OW31387   0.556   4.862   6.427
10163SOL    HW131388   0.553   4.957   6.457
10163SOL    HW231389   0.482   4.811   6.471
10164SOL     OW31390   5.814   3.219   4.760
10164SOL    HW131391   5.806   3.310   4.802
10164SOL    HW231392   5.910   3.202   4.735
10165SOL     OW31393   6.583   2.497   3.501
10165SOL    HW131394   6.645   2.556   3.449
10165SOL    HW231395   6.626   2.408   3.514
10166SOL     OW31396   1.419   1.643   1.607
10166SOL    HW131397   1.446   1.585   1.530
10166SOL    HW231398   1.476   1.725   1.608
10167SOL     OW31399   7.009   5.719   6.898
10167SOL    HW131400   0.029   5.751   6.812
10167SOL    HW231401   0.044   5.647   6.938
10168SOL     OW31402   6.936   1.907   6.340
10168SOL    HW131403   7.006   1.975   6.359
10168SOL    HW231404   6.856   1.952   6.299
10169SOL     OW31405   6.560   3.891   3.227
10169SOL    HW131406   6.494   3.957   3.261
10169SOL    HW231407   6.560   3.892   3.127
10170SOL     OW31408   6.478   5.848   6.280
10170SOL    HW131409   6.398   5.792   6.263
10170SOL    HW231410   6.480   5.924   6.215
10171SOL     OW31411   0.535   2.563   4.178
10171SOL    HW131412   0.524   2.643   4.119
10171SOL    HW231413   0.505   2.585   4.271
10172SOL     OW31414   0.330   6.818   4.466
10172SOL    HW131415   0.380   6.789   4.547
10172SOL    HW231416   0.269   6.894   4.490
10173SOL     OW31417   2.393   3.301   6.541
10173SOL    HW131418   2.441   3.281   6.456
10173SOL    HW231419   2.309   3.352   6.522
10174SOL     OW31420   4.422   4.560   3.642
10174SOL    HW131421   4.470   4.522   3.722
10174SOL    HW231422   4.377   4.646   3.668
10175SOL     OW31423   6.258   1.800   3.889
10175SOL    HW131424   6.306   1.885   3.907
10175SOL    HW231425   6.324   1.727   3.870
10176SOL     OW31426   6.414   2.842   5.334
10176SOL    HW131427   6.390   2.809   5.425
10176SOL    HW231428   6.481   2.781   5.292
10177SOL     OW31429   1.606   0.040   1.035
10177SOL    HW131430   1.617   6.985   1.098
10177SOL    HW231431   1.586   0.005   0.943
10178SOL     OW31432   1.490   0.970   0.636
10178SOL    HW131433   1.533   1.018   0.713
10178SOL    HW231434   1.496   1.028   0.554
10179SOL     OW31435   0.191   3.671   6.571
10179SOL    HW131436   0.230   3.746   6.624
10179SOL    HW231437   0.098   3.652   6.602
10180SOL     OW31438   4.619   0.482   0.783
10180SOL    HW131439   4.538   0.530   0.750
10180SOL    HW231440   4.597   0.386   0.797
10181SOL     OW31441   0.649   3.152   1.231
10181SOL    HW131442   0.579   3.222   1.248
10181SOL    HW231443   0.668   3.103   1.317
10182SOL     OW31444   4.879   1.661   0.290
10182SOL    HW131445   4.925   1.597   0.229
10182SOL    HW231446   4.929   1.748   0.292
10183SOL     OW31447   5.826   2.981   6.014
10183SOL    HW131448   5.784   2.899   5.976
10183SOL    HW231449   5.755   3.047   6.037
10184SOL     OW31450   4.998   2.635   0.184
10184SOL    HW131451   4.937   2.645   0.106
10184SOL    HW231452   5.034   2.725   0.210
10185SOL     OW31453   6.110   5.902   2.474
10185SOL    HW131454   6.044   5.939   2.410
10185SOL    HW231455   6.084   5.809   2.500
10186SOL     OW31456   4.908   3.504   4.734
10186SOL    HW131457   4.886   3.551   4.819
10186SOL    HW231458   4.860   3.416   4.731
10187SOL     OW31459   1.673   4.327   5.565
10187SOL    HW131460   1.768   4.295   5.571
10187SOL    HW231461   1.666   4.396   5.493
10188SOL     OW31462   2.726   4.923   6.960
10188SOL    HW131463   2.655   4.993   6.963
10188SOL    HW231464   2.804   4.953   7.014
10189SOL     OW31465   1.480   0.553   6.162
10189SOL    HW131466   1.517   0.498   6.087
10189SOL    HW231467   1.470   0.497   6.244
10190SOL     OW31468   4.254   3.226   1.813
10190SOL    HW131469   4.345   3.187   1.827
10190SOL    HW231470   4.224   3.271   1.897
10191SOL     OW31471   5.188   5.529   0.511
10191SOL    HW131472   5.088   5.529   0.503
10191SOL    HW231473   5.228   5.480   0.433
10192SOL     OW31474   3.268   1.833   4.945
10192SOL    HW131475   3.208   1.760   4.912
10192SOL    HW231476   3.260   1.840   5.045
10193SOL     OW31477   2.962   3.820   2.571
10193SOL    HW131478   2.968   3.881   2.650
10193SOL    HW231479   3.000   3.865   2.491
10194SOL     OW31480   4.715   0.568   4.346
10194SOL    HW131481   4.692   0.545   4.441
10194SOL    HW231482   4.808   0.605   4.342
10195SOL     OW31483   6.580   0.376   1.824
10195SOL    HW131484   6.542   0.285   1.843
10195SOL    HW231485   6.595   0.386   1.725
10196SOL     OW31486   5.294   1.870   3.342
10196SOL    HW131487   5.357   1.797   3.366
10196SOL    HW231488   5.201   1.845   3.370
10197SOL     OW31489   4.801   1.509   4.230
10197SOL    HW131490   4.884   1.457   4.248
10197SOL    HW231491   4.802   1.543   4.136
10198SOL     OW31492   3.942   6.729   0.981
10198SOL    HW131493   3.892   6.651   0.943
10198SOL    HW231494   3.936   6.806   0.918
10199SOL     OW31495   0.676   2.147   6.689
10199SOL    HW131496   0.663   2.054   6.656
10199SOL    HW231497   0.691   2.146   6.788
10200SOL     OW31498   4.947   3.475   5.467
10200SOL    HW131499   4.928   3.422   5.550
10200SOL    HW231500   5.045   3.471   5.448
10201SOL     OW31501   0.319   5.833   1.130
10201SOL    HW131502   0.292   5.751   1.180
10201SOL    HW231503   0.387   5.809   1.061
10202SOL     OW31504   1.186   3.996   0.389
10202SOL    HW131505   1.247   3.931   0.345
10202SOL    HW231506   1.146   3.954   0.471
10203SOL     OW31507   1.337   3.038   1.880
10203SOL    HW131508   1.409   2.969   1.869
10203SOL    HW231509   1.345   3.079   1.971
10204SOL     OW31510   3.154   5.605   6.004
10204SOL    HW131511   3.094   5.530   6.032
10204SOL    HW231512   3.118   5.647   5.920
10205SOL     OW31513   3.306   1.161   2.292
10205SOL    HW131514   3.292   1.122   2.201
10205SOL    HW231515   3.314   1.088   2.360
10206SOL     OW31516   5.185   6.681   6.510
10206SOL    HW131517   5.125   6.703   6.587
10206SOL    HW231518   5.235   6.596   6.530
10207SOL     OW31519   2.218   1.612   0.463
10207SOL    HW131520   2.235   1.515   0.445
10207SOL    HW231521   2.283   1.645   0.531
10208SOL     OW31522   6.204   4.720   4.056
10208SOL    HW131523   6.195   4.724   4.156
10208SOL    HW231524   6.132   4.775   4.014
10209SOL     OW31525   0.591   0.551   5.428
10209SOL    HW131526   0.586   0.496   5.345
10209SOL    HW231527   0.598   0.648   5.404
10210SOL     OW31528   5.136   0.096   1.731
10210SOL    HW131529   5.038   0.111   1.747
10210SOL    HW231530   5.183   0.184   1.735
10211SOL     OW31531   4.107   6.532   5.390
10211SOL    HW131532   4.159   6.516   5.306
10211SOL    HW231533   4.168   6.564   5.462
10212SOL     OW31534   0.283   0.845   4.635
10212SOL    HW131535   0.373   0.887   4.645
10212SOL    HW231536   0.241   0.875   4.549
10213SOL     OW31537   5.774   2.613   2.278
10213SOL    HW131538   5.750   2.542   2.213
10213SOL    HW231539   5.707   2.615   2.352
10214SOL     OW31540   1.209   2.131   2.353
10214SOL    HW131541   1.177   2.039   2.328
10214SOL    HW231542   1.291   2.153   2.301
10215SOL     OW31543   3.629   2.934   3.972
10215SOL    HW131544   3.530   2.929   3.958
10215SOL    HW231545   3.648   2.989   4.054
10216SOL     OW31546   0.804   0.230   1.098
10216SOL    HW131547   0.763   0.205   1.010
10216SOL    HW231548   0.804   0.150   1.158
10217SOL     OW31549   2.720   1.710   3.648
10217SOL    HW131550   2.766   1.745   3.566
10217SOL    HW231551   2.622   1.708   3.632
10218SOL     OW31552   1.820   0.518   1.832
10218SOL    HW131553   1.762   0.440   1.856
10218SOL    HW231554   1.855   0.506   1.739
10219SOL     OW31555   0.560   3.315   1.880
10219SOL    HW131556   0.628   3.346   1.945
10219SOL    HW231557   0.468   3.334   1.916
10220SOL     OW31558   4.424   1.434   1.926
10220SOL    HW131559   4.425   1.378   1.843
10220SOL    HW231560   4.334   1.477   1.935
10221SOL     OW31561   1.541   2.711   4.097
10221SOL    HW131562   1.446   2.684   4.113
10221SOL    HW231563   1.552   2.809   4.113
10222SOL     OW31564   2.478   3.283   6.280
10222SOL    HW131565   2.399   3.255   6.226
10222SOL    HW231566   2.562   3.266   6.228
10223SOL     OW31567   1.665   6.073   6.767
10223SOL    HW131568   1.598   6.128   6.718
10223SOL    HW231569   1.633   5.978   6.773
10224SOL     OW31570   6.839   1.874   4.871
10224SOL    HW131571   6.884   1.800   4.921
10224SOL    HW231572   6.755   1.901   4.918
10225SOL     OW31573   2.133   6.258   6.299
10225SOL    HW131574   2.102   6.220   6.212
10225SOL    HW231575   2.055   6.269   6.360
10226SOL     OW31576   2.623   6.898   6.920
10226SOL    HW131577   2.559   6.966   6.884
10226SOL    HW231578   2.575   6.813   6.939
10227SOL     OW31579   4.900   4.985   1.140
10227SOL    HW131580   4.841   4.914   1.178
10227SOL    HW231581   4.995   4.954   1.141
10228SOL     OW31582   0.882   5.549   2.235
10228SOL    HW131583   0.945   5.474   2.255
10228SOL    HW231584   0.811   5.517   2.172
10229SOL     OW31585   0.554   1.763   3.977
10229SOL    HW131586   0.507   1.755   3.889
10229SOL    HW231587   0.653   1.753   3.964
10230SOL     OW31588   6.416   6.228   3.104
10230SOL    HW131589   6.363   6.308   3.130
10230SOL    HW231590   6.479   6.205   3.179
10231SOL     OW31591   6.355   5.570   5.536
10231SOL    HW131592   6.403   5.482   5.542
10231SOL    HW231593   6.342   5.594   5.440
10232SOL     OW31594   2.817   0.523   4.134
10232SOL    HW131595   2.756   0.544   4.211
10232SOL    HW231596   2.773   0.456   4.075
10233SOL     OW31597   4.837   3.683   5.305
10233SOL    HW131598   4.798   3.621   5.237
10233SOL    HW231599   4.887   3.630   5.374
10234SOL     OW31600   5.119   1.384   0.346
10234SOL    HW131601   5.189   1.324   0.385
10234SOL    HW231602   5.134   1.393   0.248
10235SOL     OW31603   4.600   2.510   0.165
10235SOL    HW131604   4.605   2.433   0.229
10235SOL    HW231605   4.506   2.541   0.157
10236SOL     OW31606   2.615   6.973   2.066
10236SOL    HW131607   2.535   6.978   2.125
10236SOL    HW231608   2.586   6.966   1.970
10237SOL     OW31609   6.244   4.247   0.867
10237SOL    HW131610   6.225   4.246   0.769
10237SOL    HW231611   6.342   4.244   0.882
10238SOL     OW31612   3.166   4.076   3.607
10238SOL    HW131613   3.225   4.118   3.538
10238SOL    HW231614   3.223   4.036   3.679
10239SOL     OW31615   1.498   4.150   5.122
10239SOL    HW131616   1.410   4.198   5.121
10239SOL    HW231617   1.523   4.127   5.028
10240SOL     OW31618   2.118   4.945   3.156
10240SOL    HW131619   2.092   4.851   3.132
10240SOL    HW231620   2.217   4.951   3.164
10241SOL     OW31621   6.627   0.491   2.424
10241SOL    HW131622   6.724   0.473   2.405
10241SOL    HW231623   6.571   0.442   2.358
10242SOL     OW31624   6.729   1.034   6.903
10242SOL    HW131625   6.771   1.075   6.984
10242SOL    HW231626   6.801   0.990   6.848
10243SOL     OW31627   0.856   5.342   1.533
10243SOL    HW131628   0.836   5.308   1.442
10243SOL    HW231629   0.772   5.375   1.577
10244SOL     OW31630   1.309   4.395   0.323
10244SOL    HW131631   1.345   4.484   0.352
10244SOL    HW231632   1.255   4.355   0.397
10245SOL     OW31633   2.783   4.923   6.662
10245SOL    HW131634   2.744   4.940   6.753
10245SOL    HW231635   2.802   5.010   6.617
10246SOL     OW31636   3.044   3.914   3.871
10246SOL    HW131637   2.994   3.896   3.786
10246SOL    HW231638   3.002   3.862   3.946
10247SOL     OW31639   0.242   5.393   5.233
10247SOL    HW131640   0.240   5.293   5.228
10247SOL    HW231641   0.158   5.426   5.276
10248SOL     OW31642   3.583   6.569   2.254
10248SOL    HW131643   3.512   6.639   2.260
10248SOL    HW231644   3.671   6.612   2.236
10249SOL     OW31645   3.404   1.527   6.080
10249SOL    HW131646   3.399   1.453   6.147
10249SOL    HW231647   3.402   1.489   5.988
10250SOL     OW31648   6.663   2.583   0.910
10250SOL    HW131649   6.606   2.665   0.913
10250SOL    HW231650   6.605   2.502   0.902
10251SOL     OW31651   2.478   2.313   5.333
10251SOL    HW131652   2.538   2.390   5.313
10251SOL    HW231653   2.503   2.235   5.277
10252SOL     OW31654   5.307   5.571   6.828
10252SOL    HW131655   5.354   5.516   6.759
10252SOL    HW231656   5.279   5.513   6.904
10253SOL     OW31657   4.450   5.681   6.911
10253SOL    HW131658   4.446   5.717   6.818
10253SOL    HW231659   4.487   5.588   6.909
10254SOL     OW31660   4.529   1.435   5.153
10254SOL    HW131661   4.545   1.518   5.099
10254SOL    HW231662   4.510   1.460   5.248
10255SOL     OW31663   1.657   6.259   1.471
10255SOL    HW131664   1.751   6.250   1.503
10255SOL    HW231665   1.594   6.246   1.548
10256SOL     OW31666   5.933   0.565   1.898
10256SOL    HW131667   5.966   0.501   1.828
10256SOL    HW231668   6.009   0.624   1.927
10257SOL     OW31669   1.814   5.360   4.210
10257SOL    HW131670   1.754   5.432   4.175
10257SOL    HW231671   1.880   5.335   4.138
10258SOL     OW31672   4.060   1.013   4.190
10258SOL    HW131673   4.138   1.071   4.169
10258SOL    HW231674   4.077   0.963   4.275
10259SOL     OW31675   0.312   4.479   3.168
10259SOL    HW131676   0.404   4.519   3.168
10259SOL    HW231677   0.319   4.380   3.168
10260SOL     OW31678   0.594   0.245   3.546
10260SOL    HW131679   0.628   0.158   3.581
10260SOL    HW231680   0.617   0.318   3.609
10261SOL     OW31681   6.558   4.977   3.597
10261SOL    HW131682   6.571   5.076   3.607
10261SOL    HW231683   6.556   4.953   3.500
10262SOL     OW31684   2.508   6.763   4.701
10262SOL    HW131685   2.561   6.689   4.661
10262SOL    HW231686   2.462   6.814   4.629
10263SOL     OW31687   5.012   0.746   6.372
10263SOL    HW131688   4.920   0.773   6.347
10263SOL    HW231689   5.009   0.662   6.427
10264SOL     OW31690   5.831   2.007   6.397
10264SOL    HW131691   5.805   1.920   6.354
10264SOL    HW231692   5.809   2.082   6.335
10265SOL     OW31693   3.247   2.108   2.900
10265SOL    HW131694   3.327   2.095   2.843
10265SOL    HW231695   3.168   2.131   2.842
10266SOL     OW31696   3.013   3.091   5.242
10266SOL    HW131697   3.097   3.138   5.271
10266SOL    HW231698   3.024   2.993   5.255
10267SOL     OW31699   5.970   1.540   0.433
10267SOL    HW131700   5.896   1.593   0.475
10267SOL    HW231701   6.057   1.561   0.478
10268SOL     OW31702   4.850   4.913   1.701
10268SOL    HW131703   4.814   5.001   1.670
10268SOL    HW231704   4.786   4.871   1.765
10269SOL     OW31705   1.131   2.715   5.086
10269SOL    HW131706   1.038   2.716   5.047
10269SOL    HW231707   1.159   2.810   5.104
10270SOL     OW31708   2.560   5.192   3.708
10270SOL    HW131709   2.643   5.188   3.652
10270SOL    HW231710   2.579   5.241   3.793
10271SOL     OW31711   3.802   2.672   0.329
10271SOL    HW131712   3.888   2.631   0.299
10271SOL    HW231713   3.739   2.601   0.359
10272SOL     OW31714   0.536   0.098   5.088
10272SOL    HW131715   0.568   0.182   5.044
10272SOL    HW231716   0.588   0.020   5.053
10273SOL     OW31717   4.127   5.228   3.558
10273SOL    HW131718   4.193   5.301   3.573
10273SOL    HW231719   4.086   5.239   3.467
10274SOL     OW31720   0.485   4.580   4.511
10274SOL    HW131721   0.481   4.668   4.559
10274SOL    HW231722   0.402   4.528   4.529
10275SOL     OW31723   0.886   6.432   2.092
10275SOL    HW131724   0.933   6.475   2.015
10275SOL    HW231725   0.796   6.399   2.062
10276SOL     OW31726   6.095   5.933   5.703
10276SOL    HW131727   6.178   5.887   5.671
10276SOL    HW231728   6.077   6.013   5.645
10277SOL     OW31729   2.304   5.614   3.838
10277SOL    HW131730   2.354   5.652   3.916
10277SOL    HW231731   2.363   5.549   3.789
10278SOL     OW31732   6.341   1.530   4.443
10278SOL    HW131733   6.291   1.611   4.472
10278SOL    HW231734   6.435   1.535   4.476
10279SOL     OW31735   2.153   5.966   5.113
10279SOL    HW131736   2.168   6.064   5.104
10279SOL    HW231737   2.055   5.946   5.111
10280SOL     OW31738   1.215   3.898   0.862
10280SOL    HW131739   1.126   3.873   0.901
10280SOL    HW231740   1.269   3.815   0.846
10281SOL     OW31741   6.183   1.197   3.084
10281SOL    HW131742   6.144   1.259   3.016
10281SOL    HW231743   6.259   1.147   3.042
10282SOL     OW31744   6.554   4.504   4.333
10282SOL    HW131745   6.562   4.534   4.238
10282SOL    HW231746   6.527   4.408   4.335
10283SOL     OW31747   0.753   3.271   0.545
10283SOL    HW131748   0.717   3.220   0.467
10283SOL    HW231749   0.832   3.223   0.582
10284SOL     OW31750   5.307   3.736   5.208
10284SOL    HW131751   5.250   3.753   5.288
10284SOL    HW231752   5.249   3.726   5.127
10285SOL     OW31753   4.734   1.313   1.149
10285SOL    HW131754   4.812   1.352   1.197
10285SOL    HW231755   4.677   1.387   1.112
10286SOL     OW31756   2.949   1.755   3.458
10286SOL    HW131757   3.008   1.678   3.433
10286SOL    HW231758   3.000   1.818   3.517
10287SOL     OW31759   2.590   6.116   1.569
10287SOL    HW131760   2.627   6.048   1.506
10287SOL    HW231761   2.548   6.071   1.647
10288SOL     OW31762   5.376   5.937   2.537
10288SOL    HW131763   5.285   5.931   2.496
10288SOL    HW231764   5.372   5.902   2.631
10289SOL     OW31765   3.206   0.851   1.951
10289SOL    HW131766   3.125   0.873   2.004
10289SOL    HW231767   3.242   0.762   1.979
10290SOL     OW31768   3.033   3.903   2.315
10290SOL    HW131769   2.997   3.845   2.243
10290SOL    HW231770   3.095   3.971   2.276
10291SOL     OW31771   4.284   1.472   3.975
10291SOL    HW131772   4.347   1.399   3.948
10291SOL    HW231773   4.287   1.483   4.075
10292SOL     OW31774   2.064   0.693   4.406
10292SOL    HW131775   2.067   0.755   4.327
10292SOL    HW231776   1.970   0.688   4.441
10293SOL     OW31777   1.612   5.502   3.626
10293SOL    HW131778   1.702   5.483   3.664
10293SOL    HW231779   1.584   5.595   3.651
10294SOL     OW31780   5.154   3.988   2.674
10294SOL    HW131781   5.220   3.929   2.718
10294SOL    HW231782   5.181   4.004   2.579
10295SOL     OW31783   5.832   5.784   5.810
10295SOL    HW131784   5.926   5.783   5.844
10295SOL    HW231785   5.830   5.824   5.719
10296SOL     OW31786   4.532   3.513   6.985
10296SOL    HW131787   4.457   3.451   7.006
10296SOL    HW231788   4.521   3.598   0.016
10297SOL     OW31789   2.033   6.630   6.344
10297SOL    HW131790   2.025   6.612   6.247
10297SOL    HW231791   2.129   6.621   6.372
10298SOL     OW31792   3.555   5.037   1.962
10298SOL    HW131793   3.588   4.943   1.958
10298SOL    HW231794   3.627   5.099   1.933
10299SOL     OW31795   4.743   4.969   3.015
10299SOL    HW131796   4.800   5.044   3.049
10299SOL    HW231797   4.693   5.000   2.935
10300SOL     OW31798   1.505   4.832   2.900
10300SOL    HW131799   1.535   4.752   2.953
10300SOL    HW231800   1.585   4.886   2.875
10301SOL     OW31801   5.886   2.131   3.313
10301SOL    HW131802   5.807   2.192   3.319
10301SOL    HW231803   5.854   2.037   3.295
10302SOL     OW31804   0.583   5.697   4.008
10302SOL    HW131805   0.561   5.772   3.945
10302SOL    HW231806   0.633   5.734   4.087
10303SOL     OW31807   2.234   5.263   1.952
10303SOL    HW131808   2.157   5.301   2.004
10303SOL    HW231809   2.316   5.316   1.971
10304SOL     OW31810   5.135   0.957   2.723
10304SOL    HW131811   5.186   0.910   2.795
10304SOL    HW231812   5.168   0.927   2.633
10305SOL     OW31813   0.276   4.835   0.129
10305SOL    HW131814   0.258   4.904   0.199
10305SOL    HW231815   0.363   4.790   0.147
10306SOL     OW31816   4.266   6.513   6.966
10306SOL    HW131817   4.225   6.499   0.034
10306SOL    HW231818   4.201   6.486   6.895
10307SOL     OW31819   2.013   2.413   4.641
10307SOL    HW131820   1.947   2.440   4.570
10307SOL    HW231821   2.056   2.494   4.680
10308SOL     OW31822   2.638   5.318   3.947
10308SOL    HW131823   2.632   5.406   3.899
10308SOL    HW231824   2.717   5.319   4.009
10309SOL     OW31825   5.905   1.048   3.468
10309SOL    HW131826   5.874   1.130   3.516
10309SOL    HW231827   5.853   0.969   3.500
10310SOL     OW31828   4.354   2.768   1.645
10310SOL    HW131829   4.355   2.864   1.617
10310SOL    HW231830   4.411   2.756   1.726
10311SOL     OW31831   0.689   5.525   1.026
10311SOL    HW131832   0.688   5.566   1.117
10311SOL    HW231833   0.782   5.528   0.989
10312SOL     OW31834   2.162   6.325   0.748
10312SOL    HW131835   2.199   6.392   0.684
10312SOL    HW231836   2.230   6.302   0.817
10313SOL     OW31837   3.868   0.108   1.541
10313SOL    HW131838   3.788   0.113   1.602
10313SOL    HW231839   3.891   0.012   1.525
10314SOL     OW31840   6.867   0.422   1.995
10314SOL    HW131841   6.863   0.521   2.003
10314SOL    HW231842   6.810   0.391   1.919
10315SOL     OW31843   6.255   5.452   4.469
10315SOL    HW131844   6.186   5.514   4.506
10315SOL    HW231845   6.265   5.468   4.371
10316SOL     OW31846   6.442   2.179   4.493
10316SOL    HW131847   6.425   2.262   4.441
10316SOL    HW231848   6.539   2.154   4.486
10317SOL     OW31849   3.389   6.355   6.350
10317SOL    HW131850   3.372   6.362   6.252
10317SOL    HW231851   3.333   6.282   6.389
10318SOL     OW31852   4.803   6.249   0.128
10318SOL    HW131853   4.815   6.151   0.110
10318SOL    HW231854   4.789   6.263   0.226
10319SOL     OW31855   1.960   2.868   5.620
10319SOL    HW131856   1.939   2.788   5.678
10319SOL    HW231857   1.976   2.838   5.526
10320SOL     OW31858   0.670   0.664   1.243
10320SOL    HW131859   0.642   0.572   1.271
10320SOL    HW231860   0.762   0.661   1.205
10321SOL     OW31861   4.271   0.593   3.470
10321SOL    HW131862   4.192   0.572   3.412
10321SOL    HW231863   4.247   0.663   3.536
10322SOL     OW31864   6.018   5.799   6.074
10322SOL    HW131865   5.939   5.773   6.130
10322SOL    HW231866   6.002   5.890   6.035
10323SOL     OW31867   6.606   4.033   5.758
10323SOL    HW131868   6.638   4.000   5.669
10323SOL    HW231869   6.516   3.994   5.778
10324SOL     OW31870   3.000   3.165   3.341
10324SOL    HW131871   2.916   3.121   3.373
10324SOL    HW231872   3.079   3.122   3.384
10325SOL     OW31873   6.462   4.151   3.260
10325SOL    HW131874   6.431   4.141   3.355
10325SOL    HW231875   6.558   4.180   3.260
10326SOL     OW31876   4.012   2.747   0.010
10326SOL    HW131877   4.032   2.770   0.105
10326SOL    HW231878   3.914   2.753   7.015
10327SOL     OW31879   2.465   1.457   1.917
10327SOL    HW131880   2.491   1.517   1.992
10327SOL    HW231881   2.368   1.433   1.925
10328SOL     OW31882   6.516   3.567   1.715
10328SOL    HW131883   6.567   3.652   1.726
10328SOL    HW231884   6.426   3.577   1.757
10329SOL     OW31885   3.814   7.016   4.433
10329SOL    HW131886   3.773   0.009   4.523
10329SOL    HW231887   3.902   0.042   4.428
10330SOL     OW31888   3.641   5.130   2.508
10330SOL    HW131889   3.565   5.193   2.526
10330SOL    HW231890   3.613   5.063   2.440
10331SOL     OW31891   6.927   0.326   3.349
10331SOL    HW131892   6.842   0.299   3.395
10331SOL    HW231893   6.962   0.410   3.391
10332SOL     OW31894   6.037   1.882   0.413
10332SOL    HW131895   6.061   1.800   0.466
10332SOL    HW231896   6.098   1.957   0.438
10333SOL     OW31897   6.564   4.590   4.604
10333SOL    HW131898   6.492   4.656   4.627
10333SOL    HW231899   6.547   4.553   4.513
10334SOL     OW31900   2.082   5.810   4.011
10334SOL    HW131901   2.056   5.797   3.915
10334SOL    HW231902   2.001   5.800   4.069
10335SOL     OW31903   2.496   4.968   0.222
10335SOL    HW131904   2.492   4.974   0.322
10335SOL    HW231905   2.414   4.922   0.189
10336SOL     OW31906   5.991   6.378   3.419
10336SOL    HW131907   5.933   6.297   3.426
10336SOL    HW231908   5.936   6.460   3.433
10337SOL     OW31909   6.468   6.870   5.818
10337SOL    HW131910   6.566   6.881   5.835
10337SOL    HW231911   6.449   6.882   5.720
10338SOL     OW31912   2.809   6.324   1.874
10338SOL    HW131913   2.820   6.414   1.833
10338SOL    HW231914   2.800   6.255   1.802
10339SOL     OW31915   3.601   5.124   0.634
10339SOL    HW131916   3.628   5.041   0.585
10339SOL    HW231917   3.572   5.194   0.568
10340SOL     OW31918   1.681   5.589   0.406
10340SOL    HW131919   1.582   5.603   0.401
10340SOL    HW231920   1.714   5.553   0.318
10341SOL     OW31921   2.281   3.217   1.707
10341SOL    HW131922   2.299   3.306   1.749
10341SOL    HW231923   2.233   3.158   1.772
10342SOL     OW31924   2.224   5.863   5.577
10342SOL    HW131925   2.317   5.832   5.556
10342SOL    HW231926   2.173   5.787   5.617
10343SOL     OW31927   2.512   3.943   0.618
10343SOL    HW131928   2.462   3.870   0.664
10343SOL    HW231929   2.453   3.987   0.550
10344SOL     OW31930   4.045   3.610   1.853
10344SOL    HW131931   4.080   3.703   1.848
10344SOL    HW231932   3.947   3.610   1.831
10345SOL     OW31933   1.202   0.571   6.429
10345SOL    HW131934   1.262   0.502   6.388
10345SOL    HW231935   1.113   0.530   6.449
10346SOL     OW31936   6.307   1.443   1.145
10346SOL    HW131937   6.314   1.345   1.128
10346SOL    HW231938   6.348   1.465   1.233
10347SOL     OW31939   5.661   2.437   2.097
10347SOL    HW131940   5.572   2.480   2.106
10347SOL    HW231941   5.659   2.371   2.022
10348SOL     OW31942   6.564   1.211   6.748
10348SOL    HW131943   6.613   1.251   6.671
10348SOL    HW231944   6.624   1.150   6.799
10349SOL     OW31945   7.010   1.461   6.838
10349SOL    HW131946   0.060   1.434   6.902
10349SOL    HW231947   0.026   1.467   6.745
10350SOL     OW31948   2.810   6.344   4.773
10350SOL    HW131949   2.880   6.276   4.796
10350SOL    HW231950   2.819   6.423   4.832
10351SOL     OW31951   5.881   5.371   6.048
10351SOL    HW131952   5.950   5.303   6.022
10351SOL    HW231953   5.921   5.437   6.112
10352SOL     OW31954   5.833   1.618   6.580
10352SOL    HW131955   5.875   1.669   6.505
10352SOL    HW231956   5.904   1.579   6.638
10353SOL     OW31957   7.005   2.764   4.231
10353SOL    HW131958   6.953   2.793   4.151
10353SOL    HW231959   7.007   2.837   4.299
10354SOL     OW31960   0.535   2.173   1.470
10354SOL    HW131961   0.625   2.211   1.447
10354SOL    HW231962   0.464   2.232   1.433
10355SOL     OW31963   1.290   0.509   1.083
10355SOL    HW131964   1.237   0.472   1.159
10355SOL    HW231965   1.337   0.435   1.036
10356SOL     OW31966   6.958   3.678   5.799
10356SOL    HW131967   6.888   3.641   5.737
10356SOL    HW231968   6.940   3.648   5.892
10357SOL     OW31969   4.390   2.703   6.180
10357SOL    HW131970   4.318   2.768   6.204
10357SOL    HW231971   4.368   2.612   6.216
10358SOL     OW31972   0.783   3.107   3.746
10358SOL    HW131973   0.874   3.143   3.765
10358SOL    HW231974   0.745   3.066   3.828
10359SOL     OW31975   5.149   2.276   2.056
10359SOL    HW131976   5.197   2.195   2.023
10359SOL    HW231977   5.051   2.255   2.065
10360SOL     OW31978   5.483   5.872   1.992
10360SOL    HW131979   5.499   5.957   2.043
10360SOL    HW231980   5.492   5.795   2.055
10361SOL     OW31981   2.634   0.995   2.550
10361SOL    HW131982   2.682   0.972   2.465
10361SOL    HW231983   2.651   1.091   2.573
10362SOL     OW31984   0.696   4.856   3.067
10362SOL    HW131985   0.774   4.858   3.129
10362SOL    HW231986   0.723   4.891   2.978
10363SOL     OW31987   5.589   2.491   1.352
10363SOL    HW131988   5.527   2.569   1.359
10363SOL    HW231989   5.579   2.433   1.433
10364SOL     OW31990   4.474   4.201   1.396
10364SOL    HW131991   4.568   4.171   1.382
10364SOL    HW231992   4.413   4.144   1.340
10365SOL     OW31993   5.835   4.279   6.642
10365SOL    HW131994   5.915   4.338   6.653
10365SOL    HW231995   5.816   4.233   6.728
10366SOL     OW31996   3.006   6.679   3.766
10366SOL    HW131997   3.054   6.643   3.686
10366SOL    HW231998   3.055   6.651   3.849
10367SOL     OW31999   0.236   1.731   1.551
10367SOL    HW132000   0.239   1.787   1.633
10367SOL    HW232001   0.141   1.718   1.522
10368SOL     OW32002   1.755   1.328   2.167
10368SOL    HW132003   1.803   1.276   2.238
10368SOL    HW232004   1.751   1.274   2.083
10369SOL     OW32005   2.944   6.419   5.921
10369SOL    HW132006   3.009   6.480   5.877
10369SOL    HW232007   2.884   6.379   5.853
10370SOL     OW32008   6.567   1.483   5.167
10370SOL    HW132009   6.624   1.405   5.139
10370SOL    HW232010   6.525   1.523   5.086
10371SOL     OW32011   2.216   6.661   4.586
10371SOL    HW132012   2.265   6.727   4.529
10371SOL    HW232013   2.131   6.634   4.541
10372SOL     OW32014   2.012   0.833   0.552
10372SOL    HW132015   2.012   0.882   0.465
10372SOL    HW232016   2.054   0.889   0.623
10373SOL     OW32017   0.955   6.665   5.221
10373SOL    HW132018   0.914   6.752   5.191
10373SOL    HW232019   1.044   6.655   5.177
10374SOL     OW32020   3.903   0.523   3.695
10374SOL    HW132021   3.824   0.479   3.737
10374SOL    HW232022   3.940   0.463   3.624
10375SOL     OW32023   2.460   2.318   6.128
10375SOL    HW132024   2.442   2.332   6.030
10375SOL    HW232025   2.482   2.406   6.169
10376SOL     OW32026   1.442   6.313   4.385
10376SOL    HW132027   1.505   6.308   4.462
10376SOL    HW232028   1.370   6.379   4.405
10377SOL     OW32029   0.208   0.790   1.852
10377SOL    HW132030   0.295   0.834   1.874
10377SOL    HW232031   0.222   0.725   1.777
10378SOL     OW32032   5.931   5.961   5.376
10378SOL    HW132033   5.919   6.030   5.305
10378SOL    HW232034   6.017   5.912   5.360
10379SOL     OW32035   3.477   5.998   4.423
10379SOL    HW132036   3.562   5.988   4.371
10379SOL    HW232037   3.408   6.043   4.367
10380SOL     OW32038   1.234   2.678   4.769
10380SOL    HW132039   1.286   2.762   4.786
10380SOL    HW232040   1.141   2.690   4.803
10381SOL     OW32041   4.512   3.847   1.098
10381SOL    HW132042   4.510   3.753   1.131
10381SOL    HW232043   4.606   3.878   1.090
10382SOL     OW32044   2.970   5.364   1.535
10382SOL    HW132045   2.886   5.375   1.482
10382SOL    HW232046   3.035   5.436   1.510
10383SOL     OW32047   0.901   4.467   0.671
10383SOL    HW132048   0.908   4.367   0.669
10383SOL    HW232049   0.931   4.500   0.761
10384SOL     OW32050   6.896   6.975   0.793
10384SOL    HW132051   6.881   6.954   0.697
10384SOL    HW232052   6.987   6.944   0.820
10385SOL     OW32053   3.870   5.912   6.519
10385SOL    HW132054   3.887   5.884   6.614
10385SOL    HW232055   3.828   6.003   6.519
10386SOL     OW32056   0.514   1.713   6.089
10386SOL    HW132057   0.608   1.721   6.120
10386SOL    HW232058   0.508   1.642   6.019
10387SOL     OW32059   4.775   2.688   3.112
10387SOL    HW132060   4.713   2.622   3.155
10387SOL    HW232061   4.814   2.748   3.182
10388SOL     OW32062   1.649   5.631   1.742
10388SOL    HW132063   1.643   5.531   1.742
10388SOL    HW232064   1.712   5.661   1.814
10389SOL     OW32065   6.474   4.524   0.962
10389SOL    HW132066   6.483   4.503   1.059
10389SOL    HW232067   6.564   4.515   0.918
10390SOL     OW32068   2.332   3.470   0.668
10390SOL    HW132069   2.264   3.443   0.736
10390SOL    HW232070   2.355   3.567   0.681
10391SOL     OW32071   0.027   6.118   4.038
10391SOL    HW132072   6.951   6.136   4.048
10391SOL    HW232073   0.044   6.076   3.949
10392SOL     OW32074   6.174   4.740   5.851
10392SOL    HW132075   6.263   4.775   5.821
10392SOL    HW232076   6.107   4.754   5.778
10393SOL     OW32077   2.229   2.721   2.864
10393SOL    HW132078   2.256   2.740   2.770
10393SOL    HW232079   2.204   2.807   2.910
10394SOL     OW32080   2.340   5.181   5.550
10394SOL    HW132081   2.338   5.107   5.483
10394SOL    HW232082   2.427   5.180   5.598
10395SOL     OW32083   0.691   0.901   1.695
10395SOL    HW132084   0.669   0.804   1.682
10395SOL    HW232085   0.749   0.932   1.620
10396SOL     OW32086   3.399   1.106   4.245
10396SOL    HW132087   3.489   1.133   4.210
10396SOL    HW232088   3.365   1.178   4.306
10397SOL     OW32089   3.507   1.362   4.544
10397SOL    HW132090   3.513   1.376   4.445
10397SOL    HW232091   3.598   1.372   4.584
10398SOL     OW32092   5.830   2.345   0.936
10398SOL    HW132093   5.760   2.282   0.902
10398SOL    HW232094   5.818   2.357   1.034
10399SOL     OW32095   4.651   1.874   3.365
10399SOL    HW132096   4.644   1.913   3.456
10399SOL    HW232097   4.693   1.783   3.371
10400SOL     OW32098   4.293   5.972   6.914
10400SOL    HW132099   4.241   5.985   6.998
10400SOL    HW232100   4.343   6.056   6.893
10401SOL     OW32101   0.505   6.221   2.462
10401SOL    HW132102   0.526   6.165   2.382
10401SOL    HW232103   0.587   6.272   2.488
10402SOL     OW32104   0.311   1.866   6.195
10402SOL    HW132105   0.225   1.817   6.183
10402SOL    HW232106   0.387   1.813   6.157
10403SOL     OW32107   4.421   2.464   3.141
10403SOL    HW132108   4.458   2.484   3.050
10403SOL    HW232109   4.465   2.524   3.208
10404SOL     OW32110   5.933   6.101   4.246
10404SOL    HW132111   5.898   6.026   4.302
10404SOL    HW232112   5.875   6.110   4.164
10405SOL     OW32113   1.299   6.143   4.658
10405SOL    HW132114   1.237   6.163   4.583
10405SOL    HW232115   1.267   6.189   4.741
10406SOL     OW32116   1.959   3.059   3.943
10406SOL    HW132117   2.038   2.997   3.940
10406SOL    HW232118   1.992   3.153   3.942
10407SOL     OW32119   2.714   6.917   6.246
10407SOL    HW132120   2.768   6.912   6.163
10407SOL    HW232121   2.758   6.863   6.318
10408SOL     OW32122   4.459   0.601   1.600
10408SOL    HW132123   4.487   0.683   1.651
10408SOL    HW232124   4.528   0.530   1.611
10409SOL     OW32125   6.619   4.808   1.169
10409SOL    HW132126   6.713   4.822   1.137
10409SOL    HW232127   6.607   4.852   1.258
10410SOL     OW32128   5.043   1.866   1.732
10410SOL    HW132129   5.018   1.954   1.692
10410SOL    HW232130   4.989   1.850   1.815
10411SOL     OW32131   2.793   6.390   3.576
10411SOL    HW132132   2.821   6.325   3.647
10411SOL    HW232133   2.771   6.478   3.618
10412SOL     OW32134   0.315   1.371   0.851
10412SOL    HW132135   0.395   1.382   0.791
10412SOL    HW232136   0.250   1.445   0.834
10413SOL     OW32137   6.524   3.016   1.353
10413SOL    HW132138   6.472   3.086   1.402
10413SOL    HW232139   6.575   2.960   1.418
10414SOL     OW32140   3.317   5.023   5.622
10414SOL    HW132141   3.306   4.926   5.646
10414SOL    HW232142   3.305   5.079   5.704
10415SOL     OW32143   1.539   3.984   4.226
10415SOL    HW132144   1.591   4.053   4.276
10415SOL    HW232145   1.452   4.024   4.196
10416SOL     OW32146   5.866   7.000   5.306
10416SOL    HW132147   5.794   6.952   5.357
10416SOL    HW232148   5.955   6.960   5.329
10417SOL     OW32149   3.346   4.903   3.804
10417SOL    HW132150   3.351   4.968   3.879
10417SOL    HW232151   3.437   4.867   3.785
10418SOL     OW32152   6.469   4.270   5.632
10418SOL    HW132153   6.478   4.175   5.663
10418SOL    HW232154   6.466   4.272   5.532
10419SOL     OW32155   3.322   6.766   6.444
10419SOL    HW132156   3.228   6.752   6.414
10419SOL    HW232157   3.333   6.860   6.476
10420SOL     OW32158   0.268   3.311   4.188
10420SOL    HW132159   0.197   3.357   4.240
10420SOL    HW232160   0.271   3.214   4.214
10421SOL     OW32161   1.293   2.890   3.982
10421SOL    HW132162   1.230   2.814   3.965
10421SOL    HW232163   1.275   2.929   4.072
10422SOL     OW32164   6.213   2.910   4.805
10422SOL    HW132165   6.152   2.940   4.878
10422SOL    HW232166   6.163   2.850   4.743
10423SOL     OW32167   5.643   5.256   6.125
10423SOL    HW132168   5.734   5.298   6.113
10423SOL    HW232169   5.613   5.269   6.219
10424SOL     OW32170   3.806   3.222   1.151
10424SOL    HW132171   3.788   3.215   1.053
10424SOL    HW232172   3.868   3.149   1.179
10425SOL     OW32173   1.524   6.824   2.448
10425SOL    HW132174   1.474   6.825   2.535
10425SOL    HW232175   1.476   6.765   2.383
10426SOL     OW32176   5.548   4.627   0.258
10426SOL    HW132177   5.458   4.669   0.243
10426SOL    HW232178   5.563   4.616   0.357
10427SOL     OW32179   4.238   1.156   6.889
10427SOL    HW132180   4.245   1.186   6.984
10427SOL    HW232181   4.257   1.234   6.828
10428SOL     OW32182   3.669   0.860   3.910
10428SOL    HW132183   3.672   0.959   3.898
10428SOL    HW232184   3.707   0.815   3.829
10429SOL     OW32185   0.100   4.036   1.964
10429SOL    HW132186   0.002   4.021   1.952
10429SOL    HW232187   0.124   4.129   1.936
10430SOL     OW32188   5.302   0.008   4.628
10430SOL    HW132189   5.234   0.011   4.555
10430SOL    HW232190   5.305   6.938   4.668
10431SOL     OW32191   2.438   5.785   4.759
10431SOL    HW132192   2.358   5.739   4.720
10431SOL    HW232193   2.463   5.863   4.702
10432SOL     OW32194   6.092   0.198   4.550
10432SOL    HW132195   6.162   0.228   4.615
10432SOL    HW232196   6.074   0.271   4.483
10433SOL     OW32197   1.311   6.056   2.209
10433SOL    HW132198   1.363   6.000   2.273
10433SOL    HW232199   1.337   6.033   2.115
10434SOL     OW32200   3.752   5.853   2.660
10434SOL    HW132201   3.682   5.884   2.595
10434SOL    HW232202   3.775   5.928   2.722
10435SOL     OW32203   0.904   1.196   5.592
10435SOL    HW132204   0.951   1.284   5.593
10435SOL    HW232205   0.866   1.177   5.683
10436SOL     OW32206   6.472   4.660   5.420
10436SOL    HW132207   6.520   4.593   5.364
10436SOL    HW232208   6.483   4.751   5.379
10437SOL     OW32209   4.593   4.148   6.105
10437SOL    HW132210   4.610   4.067   6.048
10437SOL    HW232211   4.602   4.123   6.201
10438SOL     OW32212   6.827   6.641   6.886
10438SOL    HW132213   6.882   6.713   6.844
10438SOL    HW232214   6.757   6.610   6.823
10439SOL     OW32215   4.052   1.798   4.763
10439SOL    HW132216   4.106   1.798   4.679
10439SOL    HW232217   3.962   1.837   4.745
10440SOL     OW32218   0.623   6.377   0.836
10440SOL    HW132219   0.714   6.418   0.848
10440SOL    HW232220   0.622   6.286   0.878
10441SOL     OW32221   4.181   1.610   1.444
10441SOL    HW132222   4.084   1.632   1.454
10441SOL    HW232223   4.193   1.511   1.439
10442SOL     OW32224   4.076   6.743   6.723
10442SOL    HW132225   4.169   6.781   6.725
10442SOL    HW232226   4.038   6.754   6.631
10443SOL     OW32227   4.911   3.416   4.044
10443SOL    HW132228   4.832   3.422   3.983
10443SOL    HW232229   4.888   3.359   4.123
10444SOL     OW32230   4.454   5.816   3.565
10444SOL    HW132231   4.490   5.802   3.657
10444SOL    HW232232   4.377   5.880   3.568
10445SOL     OW32233   0.540   4.497   4.175
10445SOL    HW132234   0.558   4.417   4.118
10445SOL    HW232235   0.622   4.519   4.228
10446SOL     OW32236   1.881   3.090   5.909
10446SOL    HW132237   1.845   2.997   5.909
10446SOL    HW232238   1.979   3.088   5.928
10447SOL     OW32239   0.292   1.132   2.119
10447SOL    HW132240   0.249   1.202   2.062
10447SOL    HW232241   0.267   1.148   2.215
10448SOL     OW32242   4.709   0.801   2.376
10448SOL    HW132243   4.739   0.896   2.370
10448SOL    HW232244   4.628   0.787   2.319
10449SOL     OW32245   1.749   5.436   5.014
10449SOL    HW132246   1.808   5.484   5.079
10449SOL    HW232247   1.699   5.502   4.959
10450SOL     OW32248   0.741   1.467   0.814
10450SOL    HW132249   0.728   1.539   0.882
10450SOL    HW232250   0.815   1.492   0.752
10451SOL     OW32251   2.330   5.545   2.398
10451SOL    HW132252   2.367   5.572   2.487
10451SOL    HW232253   2.373   5.460   2.369
10452SOL     OW32254   6.665   3.366   1.943
10452SOL    HW132255   6.684   3.275   1.982
10452SOL    HW232256   6.624   3.424   2.013
10453SOL     OW32257   4.166   6.938   1.395
10453SOL    HW132258   4.103   6.887   1.454
10453SOL    HW232259   4.249   6.959   1.446
10454SOL     OW32260   5.037   3.232   0.343
10454SOL    HW132261   5.033   3.160   0.273
10454SOL    HW232262   5.003   3.317   0.304
10455SOL     OW32263   5.939   5.974   3.742
10455SOL    HW132264   5.989   5.938   3.821
10455SOL    HW232265   5.987   5.950   3.658
10456SOL     OW32266   1.863   5.811   0.432
10456SOL    HW132267   1.933   5.785   0.498
10456SOL    HW232268   1.787   5.746   0.436
10457SOL     OW32269   3.603   3.385   1.478
10457SOL    HW132270   3.652   3.471   1.491
10457SOL    HW232271   3.657   3.310   1.517
10458SOL     OW32272   6.359   0.486   6.740
10458SOL    HW132273   6.415   0.410   6.772
10458SOL    HW232274   6.414   0.570   6.737
10459SOL     OW32275   4.578   5.862   1.616
10459SOL    HW132276   4.633   5.861   1.700
10459SOL    HW232277   4.481   5.864   1.639
10460SOL     OW32278   0.709   4.181   2.324
10460SOL    HW132279   0.692   4.277   2.346
10460SOL    HW232280   0.781   4.145   2.383
10461SOL     OW32281   6.747   5.282   5.875
10461SOL    HW132282   6.736   5.373   5.915
10461SOL    HW232283   6.773   5.291   5.779
10462SOL     OW32284   5.786   1.325   3.464
10462SOL    HW132285   5.742   1.314   3.553
10462SOL    HW232286   5.716   1.331   3.393
10463SOL     OW32287   4.599   2.888   6.096
10463SOL    HW132288   4.551   2.970   6.127
10463SOL    HW232289   4.545   2.807   6.118
10464SOL     OW32290   6.741   6.753   1.565
10464SOL    HW132291   6.714   6.689   1.638
10464SOL    HW232292   6.732   6.847   1.600
10465SOL     OW32293   6.104   5.350   0.804
10465SOL    HW132294   6.090   5.408   0.724
10465SOL    HW232295   6.032   5.369   0.872
10466SOL     OW32296   4.407   5.089   5.827
10466SOL    HW132297   4.465   5.008   5.820
10466SOL    HW232298   4.322   5.075   5.777
10467SOL     OW32299   2.891   1.126   6.950
10467SOL    HW132300   2.866   1.091   6.860
10467SOL    HW232301   2.955   1.202   6.940
10468SOL     OW32302   3.887   5.233   3.122
10468SOL    HW132303   3.884   5.325   3.161
10468SOL    HW232304   3.836   5.170   3.182
10469SOL     OW32305   4.233   4.355   5.657
10469SOL    HW132306   4.164   4.427   5.649
10469SOL    HW232307   4.215   4.300   5.738
10470SOL     OW32308   2.330   2.721   3.742
10470SOL    HW132309   2.401   2.677   3.686
10470SOL    HW232310   2.241   2.684   3.718
10471SOL     OW32311   2.746   1.876   1.073
10471SOL    HW132312   2.792   1.844   0.990
10471SOL    HW232313   2.807   1.862   1.151
10472SOL     OW32314   4.158   5.566   0.261
10472SOL    HW132315   4.197   5.498   0.323
10472SOL    HW232316   4.069   5.596   0.297
10473SOL     OW32317   6.805   0.371   6.332
10473SOL    HW132318   6.742   0.332   6.265
10473SOL    HW232319   6.755   0.389   6.417
10474SOL     OW32320   3.411   1.998   4.403
10474SOL    HW132321   3.419   2.060   4.482
10474SOL    HW232322   3.320   2.007   4.363
10475SOL     OW32323   4.370   6.683   1.383
10475SOL    HW132324   4.285   6.706   1.431
10475SOL    HW232325   4.390   6.586   1.396
10476SOL     OW32326   6.889   5.821   0.096
10476SOL    HW132327   6.958   5.814   0.168
10476SOL    HW232328   6.932   5.805   0.007
10477SOL     OW32329   0.322   1.671   4.847
10477SOL    HW132330   0.377   1.600   4.802
10477SOL    HW232331   0.252   1.704   4.783
10478SOL     OW32332   6.912   0.660   1.045
10478SOL    HW132333   6.869   0.576   1.078
10478SOL    HW232334   7.005   0.666   1.081
10479SOL     OW32335   0.101   2.329   2.258
10479SOL    HW132336   0.169   2.327   2.184
10479SOL    HW232337   0.016   2.370   2.225
10480SOL     OW32338   6.476   0.120   1.829
10480SOL    HW132339   6.412   0.156   1.760
10480SOL    HW232340   6.535   0.052   1.787
10481SOL     OW32341   2.376   6.871   4.424
10481SOL    HW132342   2.471   6.884   4.396
10481SOL    HW232343   2.331   6.959   4.433
10482SOL     OW32344   6.093   4.971   4.630
10482SOL    HW132345   6.058   5.064   4.642
10482SOL    HW232346   6.193   4.971   4.634
10483SOL     OW32347   6.725   4.775   6.860
10483SOL    HW132348   6.710   4.700   6.924
10483SOL    HW232349   6.700   4.746   6.768
10484SOL     OW32350   5.736   0.977   2.101
10484SOL    HW132351   5.781   0.895   2.137
10484SOL    HW232352   5.755   0.985   2.003
10485SOL     OW32353   3.258   3.761   1.202
10485SOL    HW132354   3.296   3.808   1.122
10485SOL    HW232355   3.258   3.823   1.281
10486SOL     OW32356   6.859   0.735   0.200
10486SOL    HW132357   6.940   0.692   0.161
10486SOL    HW232358   6.784   0.731   0.135
10487SOL     OW32359   4.682   1.722   2.552
10487SOL    HW132360   4.690   1.623   2.556
10487SOL    HW232361   4.594   1.749   2.592
10488SOL     OW32362   2.746   2.033   5.582
10488SOL    HW132363   2.791   2.095   5.518
10488SOL    HW232364   2.719   1.950   5.534
10489SOL     OW32365   0.320   0.121   4.510
10489SOL    HW132366   0.236   0.076   4.542
10489SOL    HW232367   0.304   0.162   4.420
10490SOL     OW32368   5.975   1.805   0.700
10490SOL    HW132369   5.946   1.892   0.740
10490SOL    HW232370   6.068   1.783   0.729
10491SOL     OW32371   2.802   2.182   5.814
10491SOL    HW132372   2.793   2.135   5.726
10491SOL    HW232373   2.778   2.119   5.888
10492SOL     OW32374   5.432   5.535   0.648
10492SOL    HW132375   5.464   5.440   0.645
10492SOL    HW232376   5.333   5.537   0.637
10493SOL     OW32377   3.238   6.827   2.008
10493SOL    HW132378   3.286   6.799   1.925
10493SOL    HW232379   3.151   6.868   1.983
10494SOL     OW32380   5.508   4.561   6.135
10494SOL    HW132381   5.589   4.618   6.143
10494SOL    HW232382   5.505   4.496   6.210
10495SOL     OW32383   1.017   6.293   1.061
10495SOL    HW132384   1.055   6.215   1.110
10495SOL    HW232385   1.089   6.361   1.046
10496SOL     OW32386   5.997   3.733   6.131
10496SOL    HW132387   6.056   3.751   6.210
10496SOL    HW232388   5.960   3.640   6.138
10497SOL     OW32389   2.127   6.967   1.541
10497SOL    HW132390   2.084   6.983   1.630
10497SOL    HW232391   2.109   0.024   1.482
10498SOL     OW32392   5.110   5.162   0.700
10498SOL    HW132393   5.063   5.080   0.734
10498SOL    HW232394   5.075   5.186   0.609
10499SOL     OW32395   4.714   0.191   2.186
10499SOL    HW132396   4.792   0.254   2.183
10499SOL    HW232397   4.745   0.100   2.158
10500SOL     OW32398   6.219   1.465   5.861
10500SOL    HW132399   6.167   1.415   5.930
10500SOL    HW232400   6.174   1.456   5.772
10501SOL     OW32401   2.046   5.526   2.366
10501SOL    HW132402   2.143   5.541   2.387
10501SOL    HW232403   2.039   5.474   2.281
10502SOL     OW32404   2.725   2.062   1.628
10502SOL    HW132405   2.631   2.067   1.596
10502SOL    HW232406   2.768   2.152   1.621
10503SOL     OW32407   5.164   2.928   0.958
10503SOL    HW132408   5.181   2.902   0.862
10503SOL    HW232409   5.234   2.887   1.016
10504SOL     OW32410   1.457   2.728   5.564
10504SOL    HW132411   1.452   2.813   5.617
10504SOL    HW232412   1.373   2.718   5.511
10505SOL     OW32413   5.427   5.219   0.942
10505SOL    HW132414   5.514   5.204   0.991
10505SOL    HW232415   5.443   5.210   0.844
10506SOL     OW32416   0.040   3.716   0.169
10506SOL    HW132417   0.035   3.719   0.069
10506SOL    HW232418   7.006   3.641   0.203
10507SOL     OW32419   1.670   6.099   0.959
10507SOL    HW132420   1.621   6.022   1.000
10507SOL    HW232421   1.747   6.125   1.017
10508SOL     OW32422   6.731   5.758   4.890
10508SOL    HW132423   6.703   5.757   4.986
10508SOL    HW232424   6.830   5.746   4.885
10509SOL     OW32425   6.886   5.552   5.152
10509SOL    HW132426   6.809   5.488   5.158
10509SOL    HW232427   6.957   5.525   5.216
10510SOL     OW32428   4.885   6.342   6.890
10510SOL    HW132429   4.872   6.296   6.978
10510SOL    HW232430   4.856   6.282   6.816
10511SOL     OW32431   2.631   1.326   2.282
10511SOL    HW132432   2.646   1.425   2.273
10511SOL    HW232433   2.679   1.278   2.208
10512SOL     OW32434   4.255   0.489   5.304
10512SOL    HW132435   4.249   0.444   5.393
10512SOL    HW232436   4.349   0.485   5.271
10513SOL     OW32437   6.454   2.827   3.705
10513SOL    HW132438   6.420   2.920   3.713
10513SOL    HW232439   6.380   2.767   3.675
10514SOL     OW32440   0.679   3.311   0.969
10514SOL    HW132441   0.672   3.243   1.041
10514SOL    HW232442   0.608   3.297   0.901
10515SOL     OW32443   1.175   4.005   4.033
10515SOL    HW132444   1.090   4.055   4.018
10515SOL    HW232445   1.209   3.970   3.946
10516SOL     OW32446   3.396   2.015   0.768
10516SOL    HW132447   3.431   1.926   0.738
10516SOL    HW232448   3.382   2.073   0.688
10517SOL     OW32449   0.543   2.908   0.788
10517SOL    HW132450   0.487   2.964   0.849
10517SOL    HW232451   0.572   2.963   0.710
10518SOL     OW32452   0.054   6.018   0.671
10518SOL    HW132453   0.043   6.112   0.640
10518SOL    HW232454   7.017   6.001   0.750
10519SOL     OW32455   3.189   3.576   0.947
10519SOL    HW132456   3.210   3.596   1.043
10519SOL    HW232457   3.247   3.501   0.915
10520SOL     OW32458   0.884   2.396   6.023
10520SOL    HW132459   0.934   2.459   6.083
10520SOL    HW232460   0.945   2.323   5.993
10521SOL     OW32461   6.524   5.249   1.569
10521SOL    HW132462   6.453   5.195   1.525
10521SOL    HW232463   6.611   5.235   1.521
10522SOL     OW32464   0.497   1.144   4.282
10522SOL    HW132465   0.419   1.099   4.324
10522SOL    HW232466   0.478   1.159   4.185
10523SOL     OW32467   0.650   4.600   2.927
10523SOL    HW132468   0.638   4.698   2.912
10523SOL    HW232469   0.741   4.573   2.896
10524SOL     OW32470   0.935   6.376   3.747
10524SOL    HW132471   0.976   6.466   3.735
10524SOL    HW232472   0.835   6.385   3.749
10525SOL     OW32473   3.897   0.544   5.324
10525SOL    HW132474   3.940   0.530   5.414
10525SOL    HW232475   3.837   0.467   5.303
10526SOL     OW32476   1.112   6.761   2.868
10526SOL    HW132477   1.082   6.765   2.963
10526SOL    HW232478   1.031   6.764   2.808
10527SOL     OW32479   1.266   0.817   5.255
10527SOL    HW132480   1.264   0.745   5.325
10527SOL    HW232481   1.327   0.789   5.180
10528SOL     OW32482   1.324   3.644   5.873
10528SOL    HW132483   1.338   3.583   5.951
10528SOL    HW232484   1.380   3.613   5.796
10529SOL     OW32485   2.766   6.552   4.347
10529SOL    HW132486   2.749   6.472   4.405
10529SOL    HW232487   2.864   6.568   4.340
10530SOL     OW32488   1.186   0.232   6.528
10530SOL    HW132489   1.206   0.210   6.433
10530SOL    HW232490   1.088   0.243   6.540
10531SOL     OW32491   1.693   2.500   4.220
10531SOL    HW132492   1.629   2.433   4.257
10531SOL    HW232493   1.650   2.590   4.216
10532SOL     OW32494   0.815   6.935   6.249
10532SOL    HW132495   0.823   0.007   6.213
10532SOL    HW232496   0.795   6.872   6.174
10533SOL     OW32497   2.960   6.761   3.435
10533SOL    HW132498   3.035   6.737   3.374
10533SOL    HW232499   2.989   6.836   3.495
10534SOL     OW32500   6.218   5.285   2.179
10534SOL    HW132501   6.196   5.382   2.175
10534SOL    HW232502   6.135   5.232   2.199
10535SOL     OW32503   1.771   1.796   2.119
10535SOL    HW132504   1.723   1.733   2.181
10535SOL    HW232505   1.737   1.889   2.135
10536SOL     OW32506   4.658   0.661   4.083
10536SOL    HW132507   4.560   0.675   4.094
10536SOL    HW232508   4.698   0.639   4.172
10537SOL     OW32509   4.463   6.186   4.373
10537SOL    HW132510   4.435   6.156   4.465
10537SOL    HW232511   4.409   6.265   4.346
10538SOL     OW32512   6.460   3.622   1.202
10538SOL    HW132513   6.366   3.639   1.172
10538SOL    HW232514   6.510   3.576   1.129
10539SOL     OW32515   7.013   5.031   0.322
10539SOL    HW132516   6.958   5.011   0.241
10539SOL    HW232517   0.033   4.946   0.356
10540SOL     OW32518   1.660   3.259   5.876
10540SOL    HW132519   1.745   3.211   5.853
10540SOL    HW232520   1.682   3.342   5.927
10541SOL     OW32521   3.697   4.003   2.037
10541SOL    HW132522   3.723   4.035   2.128
10541SOL    HW232523   3.614   4.051   2.007
10542SOL     OW32524   0.028   1.408   5.624
10542SOL    HW132525   7.009   1.400   5.715
10542SOL    HW232526   6.976   1.418   5.556
10543SOL     OW32527   0.469   1.840   5.004
10543SOL    HW132528   0.495   1.927   4.963
10543SOL    HW232529   0.414   1.787   4.939
10544SOL     OW32530   2.813   6.603   1.841
10544SOL    HW132531   2.836   6.699   1.826
10544SOL    HW232532   2.717   6.596   1.868
10545SOL     OW32533   0.554   2.244   0.881
10545SOL    HW132534   0.630   2.186   0.853
10545SOL    HW232535   0.485   2.189   0.928
10546SOL     OW32536   1.512   7.013   0.753
10546SOL    HW132537   1.444   6.952   0.794
10546SOL    HW232538   1.492   0.003   0.656
10547SOL     OW32539   5.341   2.806   3.268
10547SOL    HW132540   5.321   2.904   3.272
10547SOL    HW232541   5.429   2.792   3.223
10548SOL     OW32542   5.924   4.104   4.704
10548SOL    HW132543   5.958   4.011   4.693
10548SOL    HW232544   5.984   4.154   4.767
10549SOL     OW32545   0.662   0.606   1.611
10549SOL    HW132546   0.748   0.582   1.566
10549SOL    HW232547   0.605   0.660   1.549
10550SOL     OW32548   5.038   6.819   3.706
10550SOL    HW132549   5.064   6.726   3.681
10550SOL    HW232550   5.105   6.857   3.769
10551SOL     OW32551   1.860   2.513   6.591
10551SOL    HW132552   1.917   2.435   6.564
10551SOL    HW232553   1.897   2.597   6.551
10552SOL     OW32554   2.243   1.043   5.884
10552SOL    HW132555   2.201   0.952   5.889
10552SOL    HW232556   2.206   1.100   5.958
10553SOL     OW32557   0.249   4.553   1.498
10553SOL    HW132558   0.279   4.631   1.553
10553SOL    HW232559   0.266   4.468   1.549
10554SOL     OW32560   5.135   4.862   1.099
10554SOL    HW132561   5.149   4.852   1.197
10554SOL    HW232562   5.223   4.866   1.052
10555SOL     OW32563   2.304   2.591   1.083
10555SOL    HW132564   2.261   2.628   1.000
10555SOL    HW232565   2.233   2.549   1.141
10556SOL     OW32566   1.369   1.490   4.078
10556SOL    HW132567   1.315   1.417   4.034
10556SOL    HW232568   1.427   1.534   4.010
10557SOL     OW32569   2.176   3.236   2.892
10557SOL    HW132570   2.088   3.262   2.851
10557SOL    HW232571   2.251   3.275   2.838
10558SOL     OW32572   3.871   6.600   4.837
10558SOL    HW132573   3.870   6.503   4.862
10558SOL    HW232574   3.929   6.650   4.901
10559SOL     OW32575   4.673   1.260   1.638
10559SOL    HW132576   4.709   1.168   1.653
10559SOL    HW232577   4.669   1.308   1.726
10560SOL     OW32578   4.917   6.650   2.404
10560SOL    HW132579   4.866   6.727   2.442
10560SOL    HW232580   4.907   6.571   2.465
10561SOL     OW32581   3.632   4.526   1.692
10561SOL    HW132582   3.614   4.428   1.698
10561SOL    HW232583   3.571   4.575   1.754
10562SOL     OW32584   4.040   5.412   0.053
10562SOL    HW132585   4.077   5.482   0.114
10562SOL    HW232586   3.998   5.339   0.108
10563SOL     OW32587   0.055   0.871   2.894
10563SOL    HW132588   0.092   0.852   2.803
10563SOL    HW232589   7.019   0.795   2.924
10564SOL     OW32590   5.387   5.861   2.799
10564SOL    HW132591   5.302   5.810   2.809
10564SOL    HW232592   5.415   5.898   2.888
10565SOL     OW32593   0.287   6.902   6.170
10565SOL    HW132594   0.383   6.911   6.144
10565SOL    HW232595   0.256   6.988   6.212
10566SOL     OW32596   3.602   1.996   6.524
10566SOL    HW132597   3.649   1.996   6.435
10566SOL    HW232598   3.667   2.022   6.596
10567SOL     OW32599   2.619   2.467   4.986
10567SOL    HW132600   2.671   2.391   4.946
10567SOL    HW232601   2.589   2.529   4.914
10568SOL     OW32602   6.778   3.064   1.225
10568SOL    HW132603   6.834   3.032   1.301
10568SOL    HW232604   6.682   3.066   1.253
10569SOL     OW32605   5.304   1.355   1.886
10569SOL    HW132606   5.342   1.444   1.913
10569SOL    HW232607   5.266   1.362   1.794
10570SOL     OW32608   1.636   4.349   3.359
10570SOL    HW132609   1.547   4.380   3.393
10570SOL    HW232610   1.677   4.287   3.426
10571SOL     OW32611   7.013   4.295   5.205
10571SOL    HW132612   0.047   4.285   5.287
10571SOL    HW232613   6.934   4.352   5.225
10572SOL     OW32614   6.739   4.234   2.558
10572SOL    HW132615   6.680   4.168   2.605
10572SOL    HW232616   6.766   4.197   2.469
10573SOL     OW32617   5.382   0.611   5.067
10573SOL    HW132618   5.438   0.687   5.102
10573SOL    HW232619   5.311   0.648   5.007
10574SOL     OW32620   0.674   1.547   4.297
10574SOL    HW132621   0.590   1.509   4.336
10574SOL    HW232622   0.676   1.646   4.316
10575SOL     OW32623   6.984   1.055   3.775
10575SOL    HW132624   0.020   1.055   3.857
10575SOL    HW232625   6.991   1.144   3.729
10576SOL     OW32626   0.536   5.590   4.651
10576SOL    HW132627   0.588   5.596   4.566
10576SOL    HW232628   0.438   5.594   4.631
10577SOL     OW32629   1.848   4.844   0.405
10577SOL    HW132630   1.761   4.794   0.407
10577SOL    HW232631   1.848   4.907   0.328
10578SOL     OW32632   4.264   1.261   2.516
10578SOL    HW132633   4.344   1.290   2.567
10578SOL    HW232634   4.181   1.283   2.567
10579SOL     OW32635   4.362   3.036   1.574
10579SOL    HW132636   4.361   3.118   1.517
10579SOL    HW232637   4.413   3.055   1.658
10580SOL     OW32638   6.867   0.632   6.598
10580SOL    HW132639   6.916   0.546   6.614
10580SOL    HW232640   6.924   0.693   6.543
10581SOL     OW32641   5.686   0.046   2.932
10581SOL    HW132642   5.653   0.138   2.952
10581SOL    HW232643   5.680   0.029   2.834
10582SOL     OW32644   4.579   4.070   5.642
10582SOL    HW132645   4.673   4.049   5.669
10582SOL    HW232646   4.568   4.051   5.544
10583SOL     OW32647   3.608   1.264   4.072
10583SOL    HW132648   3.631   1.361   4.062
10583SOL    HW232649   3.691   1.212   4.093
10584SOL     OW32650   6.799   0.476   0.391
10584SOL    HW132651   6.735   0.543   0.354
10584SOL    HW232652   6.790   0.390   0.342
10585SOL     OW32653   2.614   2.138   5.153
10585SOL    HW132654   2.583   2.143   5.058
10585SOL    HW232655   2.713   2.147   5.157
10586SOL     OW32656   5.754   4.875   5.671
10586SOL    HW132657   5.677   4.897   5.611
10586SOL    HW232658   5.763   4.946   5.741
10587SOL     OW32659   6.263   4.695   6.974
10587SOL    HW132660   6.336   4.757   6.945
10587SOL    HW232661   6.183   4.709   6.915
10588SOL     OW32662   1.571   2.702   4.735
10588SOL    HW132663   1.496   2.759   4.767
10588SOL    HW232664   1.537   2.611   4.714
10589SOL     OW32665   6.090   1.006   4.498
10589SOL    HW132666   6.113   1.101   4.518
10589SOL    HW232667   6.052   0.999   4.406
10590SOL     OW32668   0.236   0.321   0.788
10590SOL    HW132669   0.268   0.393   0.849
10590SOL    HW232670   0.213   0.360   0.699
10591SOL     OW32671   1.405   2.257   0.045
10591SOL    HW132672   1.460   2.174   0.059
10591SOL    HW232673   1.456   2.336   0.080
10592SOL     OW32674   5.814   3.670   2.992
10592SOL    HW132675   5.723   3.671   3.034
10592SOL    HW232676   5.855   3.580   3.003
10593SOL     OW32677   2.846   5.705   0.663
10593SOL    HW132678   2.914   5.649   0.618
10593SOL    HW232679   2.788   5.750   0.595
10594SOL     OW32680   5.339   1.343   3.154
10594SOL    HW132681   5.280   1.286   3.211
10594SOL    HW232682   5.307   1.437   3.156
10595SOL     OW32683   5.524   6.822   0.026
10595SOL    HW132684   5.584   6.893   0.063
10595SOL    HW232685   5.538   6.814   6.949
10596SOL     OW32686   4.485   1.010   0.247
10596SOL    HW132687   4.508   1.051   0.159
10596SOL    HW232688   4.517   0.915   0.249
10597SOL     OW32689   3.219   1.586   5.769
10597SOL    HW132690   3.145   1.520   5.780
10597SOL    HW232691   3.198   1.646   5.693
10598SOL     OW32692   3.085   2.726   0.110
10598SOL    HW132693   3.001   2.715   0.058
10598SOL    HW232694   3.064   2.730   0.208
10599SOL     OW32695   5.381   3.334   6.417
10599SOL    HW132696   5.284   3.356   6.429
10599SOL    HW232697   5.419   3.389   6.343
10600SOL     OW32698   3.462   2.731   0.798
10600SOL    HW132699   3.367   2.745   0.769
10600SOL    HW232700   3.473   2.764   0.892
10601SOL     OW32701   1.205   4.851   5.098
10601SOL    HW132702   1.138   4.910   5.053
10601SOL    HW232703   1.285   4.904   5.125
10602SOL     OW32704   1.646   0.434   2.263
10602SOL    HW132705   1.674   0.341   2.236
10602SOL    HW232706   1.709   0.500   2.223
10603SOL     OW32707   4.008   0.335   3.540
10603SOL    HW132708   4.073   0.299   3.606
10603SOL    HW232709   4.042   0.320   3.447
10604SOL     OW32710   6.753   6.080   5.420
10604SOL    HW132711   6.853   6.075   5.425
10604SOL    HW232712   6.725   6.176   5.420
10605SOL     OW32713   2.254   6.704   6.856
10605SOL    HW132714   2.338   6.652   6.842
10605SOL    HW232715   2.276   6.802   6.864
10606SOL     OW32716   0.160   0.361   1.609
10606SOL    HW132717   0.171   0.338   1.706
10606SOL    HW232718   0.242   0.334   1.559
10607SOL     OW32719   3.918   5.757   6.077
10607SOL    HW132720   3.962   5.812   6.007
10607SOL    HW232721   3.961   5.668   6.082
10608SOL     OW32722   6.632   3.263   4.434
10608SOL    HW132723   6.565   3.325   4.392
10608SOL    HW232724   6.716   3.314   4.453
10609SOL     OW32725   2.888   6.578   6.817
10609SOL    HW132726   2.959   6.578   6.887
10609SOL    HW232727   2.916   6.519   6.741
10610SOL     OW32728   0.630   2.498   3.717
10610SOL    HW132729   0.552   2.495   3.655
10610SOL    HW232730   0.615   2.434   3.792
10611SOL     OW32731   2.536   4.087   0.081
10611SOL    HW132732   2.568   4.042   0.165
10611SOL    HW232733   2.520   4.017   0.011
10612SOL     OW32734   3.437   2.162   4.640
10612SOL    HW132735   3.529   2.153   4.680
10612SOL    HW232736   3.370   2.166   4.713
10613SOL     OW32737   5.585   6.112   5.572
10613SOL    HW132738   5.631   6.023   5.570
10613SOL    HW232739   5.554   6.132   5.665
10614SOL     OW32740   4.816   1.826   5.243
10614SOL    HW132741   4.753   1.859   5.313
10614SOL    HW232742   4.767   1.769   5.177
10615SOL     OW32743   4.011   0.489   5.560
10615SOL    HW132744   3.979   0.471   5.653
10615SOL    HW232745   4.106   0.458   5.552
10616SOL     OW32746   2.049   7.011   0.396
10616SOL    HW132747   2.084   7.017   0.302
10616SOL    HW232748   2.093   6.935   0.443
10617SOL     OW32749   2.965   4.103   1.239
10617SOL    HW132750   3.049   4.049   1.239
10617SOL    HW232751   2.886   4.043   1.234
10618SOL     OW32752   1.023   3.921   5.919
10618SOL    HW132753   0.959   3.862   5.967
10618SOL    HW232754   0.977   4.006   5.892
10619SOL     OW32755   0.614   2.938   2.961
10619SOL    HW132756   0.588   2.903   3.052
10619SOL    HW232757   0.537   2.925   2.898
10620SOL     OW32758   1.377   6.584   5.264
10620SOL    HW132759   1.378   6.650   5.339
10620SOL    HW232760   1.427   6.501   5.291
10621SOL     OW32761   0.634   5.122   1.696
10621SOL    HW132762   0.555   5.069   1.728
10621SOL    HW232763   0.713   5.062   1.688
10622SOL     OW32764   5.075   1.735   2.226
10622SOL    HW132765   5.037   1.819   2.264
10622SOL    HW232766   5.002   1.669   2.209
10623SOL     OW32767   0.097   4.872   5.318
10623SOL    HW132768   0.091   4.932   5.238
10623SOL    HW232769   0.182   4.821   5.316
10624SOL     OW32770   0.899   2.417   4.742
10624SOL    HW132771   0.971   2.389   4.806
10624SOL    HW232772   0.941   2.448   4.657
10625SOL     OW32773   0.104   4.792   0.977
10625SOL    HW132774   0.201   4.808   0.958
10625SOL    HW232775   0.052   4.795   0.892
10626SOL     OW32776   2.571   3.067   0.508
10626SOL    HW132777   2.509   3.050   0.584
10626SOL    HW232778   2.527   3.038   0.423
10627SOL     OW32779   5.291   0.546   6.487
10627SOL    HW132780   5.370   0.485   6.477
10627SOL    HW232781   5.319   0.630   6.532
10628SOL     OW32782   5.011   6.150   0.843
10628SOL    HW132783   4.923   6.118   0.878
10628SOL    HW232784   5.019   6.249   0.857
10629SOL     OW32785   2.766   5.178   4.621
10629SOL    HW132786   2.736   5.083   4.614
10629SOL    HW232787   2.843   5.183   4.685
10630SOL     OW32788   6.392   1.148   3.667
10630SOL    HW132789   6.429   1.058   3.642
10630SOL    HW232790   6.465   1.204   3.705
10631SOL     OW32791   3.215   5.042   5.061
10631SOL    HW132792   3.263   4.975   5.118
10631SOL    HW232793   3.267   5.059   4.978
10632SOL     OW32794   5.247   6.985   4.133
10632SOL    HW132795   5.226   6.887   4.141
10632SOL    HW232796   5.318   7.009   4.199
10633SOL     OW32797   2.524   2.724   0.600
10633SOL    HW132798   2.570   2.699   0.515
10633SOL    HW232799   2.591   2.727   0.674
10634SOL     OW32800   3.070   4.207   0.541
10634SOL    HW132801   3.052   4.116   0.579
10634SOL    HW232802   3.161   4.208   0.499
10635SOL     OW32803   1.883   3.738   6.984
10635SOL    HW132804   1.875   3.831   6.946
10635SOL    HW232805   1.883   3.743   0.063
10636SOL     OW32806   0.370   2.111   1.005
10636SOL    HW132807   0.389   2.021   1.044
10636SOL    HW232808   0.272   2.128   1.005
10637SOL     OW32809   1.519   4.746   5.888
10637SOL    HW132810   1.513   4.845   5.874
10637SOL    HW232811   1.452   4.718   5.957
10638SOL     OW32812   5.407   5.587   2.677
10638SOL    HW132813   5.413   5.653   2.603
10638SOL    HW232814   5.312   5.564   2.695
10639SOL     OW32815   0.779   3.876   2.965
10639SOL    HW132816   0.831   3.915   3.041
10639SOL    HW232817   0.682   3.896   2.978
10640SOL     OW32818   5.008   6.910   4.461
10640SOL    HW132819   5.071   6.986   4.442
10640SOL    HW232820   4.923   6.947   4.498
10641SOL     OW32821   1.769   2.207   2.058
10641SOL    HW132822   1.815   2.293   2.077
10641SOL    HW232823   1.713   2.181   2.137
10642SOL     OW32824   6.596   2.566   1.278
10642SOL    HW132825   6.633   2.606   1.361
10642SOL    HW232826   6.671   2.536   1.219
10643SOL     OW32827   1.473   5.827   4.309
10643SOL    HW132828   1.458   5.738   4.267
10643SOL    HW232829   1.405   5.892   4.275
10644SOL     OW32830   5.960   2.757   2.458
10644SOL    HW132831   6.047   2.712   2.438
10644SOL    HW232832   5.885   2.702   2.422
10645SOL     OW32833   1.782   2.817   4.540
10645SOL    HW132834   1.778   2.854   4.632
10645SOL    HW232835   1.799   2.891   4.475
10646SOL     OW32836   0.687   0.288   6.909
10646SOL    HW132837   0.725   0.229   6.838
10646SOL    HW232838   0.612   0.242   6.955
10647SOL     OW32839   2.970   5.642   4.782
10647SOL    HW132840   2.917   5.560   4.798
10647SOL    HW232841   2.909   5.719   4.761
10648SOL     OW32842   5.816   3.930   6.408
10648SOL    HW132843   5.753   3.959   6.480
10648SOL    HW232844   5.858   3.843   6.434
10649SOL     OW32845   0.050   4.341   2.361
10649SOL    HW132846   0.105   4.389   2.292
10649SOL    HW232847   0.016   4.407   2.428
10650SOL     OW32848   0.863   0.619   3.686
10650SOL    HW132849   0.887   0.691   3.621
10650SOL    HW232850   0.934   0.549   3.686
10651SOL     OW32851   5.605   6.506   0.054
10651SOL    HW132852   5.668   6.483   0.128
10651SOL    HW232853   5.530   6.440   0.053
10652SOL     OW32854   3.464   6.664   5.469
10652SOL    HW132855   3.471   6.567   5.490
10652SOL    HW232856   3.474   6.717   5.553
10653SOL     OW32857   4.171   5.465   3.814
10653SOL    HW132858   4.222   5.516   3.884
10653SOL    HW232859   4.235   5.410   3.760
10654SOL     OW32860   5.507   0.946   0.681
10654SOL    HW132861   5.586   0.918   0.734
10654SOL    HW232862   5.429   0.961   0.742
10655SOL     OW32863   2.322   5.533   0.513
10655SOL    HW132864   2.297   5.579   0.427
10655SOL    HW232865   2.414   5.560   0.539
10656SOL     OW32866   0.164   2.018   3.144
10656SOL    HW132867   0.092   2.084   3.123
10656SOL    HW232868   0.188   1.968   3.061
10657SOL     OW32869   5.623   0.419   5.578
10657SOL    HW132870   5.660   0.327   5.591
10657SOL    HW232871   5.639   0.473   5.660
10658SOL     OW32872   6.432   4.873   5.148
10658SOL    HW132873   6.416   4.890   5.245
10658SOL    HW232874   6.521   4.910   5.122
10659SOL     OW32875   0.652   5.482   1.347
10659SOL    HW132876   0.619   5.442   1.432
10659SOL    HW232877   0.731   5.430   1.314
10660SOL     OW32878   4.997   3.648   6.102
10660SOL    HW132879   4.930   3.652   6.176
10660SOL    HW232880   4.952   3.673   6.016
10661SOL     OW32881   1.320   6.727   1.735
10661SOL    HW132882   1.333   6.825   1.721
10661SOL    HW232883   1.311   6.682   1.647
10662SOL     OW32884   5.741   6.615   2.446
10662SOL    HW132885   5.788   6.688   2.396
10662SOL    HW232886   5.702   6.652   2.530
10663SOL     OW32887   0.641   1.981   2.793
10663SOL    HW132888   0.553   2.012   2.829
10663SOL    HW232889   0.688   2.058   2.749
10664SOL     OW32890   6.671   4.289   4.663
10664SOL    HW132891   6.716   4.273   4.575
10664SOL    HW232892   6.688   4.383   4.692
10665SOL     OW32893   0.885   1.838   0.561
10665SOL    HW132894   0.830   1.809   0.483
10665SOL    HW232895   0.975   1.868   0.529
10666SOL     OW32896   3.537   3.951   1.655
10666SOL    HW132897   3.490   3.881   1.708
10666SOL    HW232898   3.596   3.907   1.587
10667SOL     OW32899   4.633   2.763   5.071
10667SOL    HW132900   4.547   2.756   5.121
10667SOL    HW232901   4.627   2.709   4.987
10668SOL     OW32902   2.438   0.439   5.136
10668SOL    HW132903   2.368   0.499   5.175
10668SOL    HW232904   2.394   0.357   5.098
10669SOL     OW32905   5.999   6.854   1.308
10669SOL    HW132906   6.038   6.781   1.253
10669SOL    HW232907   5.908   6.877   1.273
10670SOL     OW32908   5.165   4.443   5.213
10670SOL    HW132909   5.160   4.515   5.282
10670SOL    HW232910   5.261   4.421   5.194
10671SOL     OW32911   2.768   2.361   3.184
10671SOL    HW132912   2.702   2.296   3.146
10671SOL    HW232913   2.750   2.452   3.147
10672SOL     OW32914   6.547   3.459   1.022
10672SOL    HW132915   6.476   3.505   0.969
10672SOL    HW232916   6.515   3.368   1.049
10673SOL     OW32917   1.202   0.915   6.651
10673SOL    HW132918   1.132   0.935   6.582
10673SOL    HW232919   1.178   0.960   6.737
10674SOL     OW32920   3.714   4.114   2.296
10674SOL    HW132921   3.743   4.022   2.321
10674SOL    HW232922   3.752   4.180   2.361
10675SOL     OW32923   1.753   0.308   6.808
10675SOL    HW132924   1.827   0.261   6.761
10675SOL    HW232925   1.791   0.363   6.883
10676SOL     OW32926   6.509   6.084   6.135
10676SOL    HW132927   6.482   6.123   6.047
10676SOL    HW232928   6.583   6.140   6.174
10677SOL     OW32929   1.268   0.281   2.140
10677SOL    HW132930   1.354   0.240   2.108
10677SOL    HW232931   1.287   0.338   2.220
10678SOL     OW32932   4.414   5.403   4.246
10678SOL    HW132933   4.344   5.456   4.199
10678SOL    HW232934   4.467   5.463   4.306
10679SOL     OW32935   4.594   5.618   6.422
10679SOL    HW132936   4.571   5.654   6.512
10679SOL    HW232937   4.683   5.653   6.393
10680SOL     OW32938   3.387   1.691   3.490
10680SOL    HW132939   3.422   1.671   3.399
10680SOL    HW232940   3.421   1.623   3.555
10681SOL     OW32941   0.834   3.540   0.562
10681SOL    HW132942   0.881   3.547   0.650
10681SOL    HW232943   0.783   3.454   0.558
10682SOL     OW32944   0.925   1.230   5.140
10682SOL    HW132945   1.002   1.228   5.203
10682SOL    HW232946   0.875   1.144   5.146
10683SOL     OW32947   3.827   1.900   3.516
10683SOL    HW132948   3.876   1.987   3.520
10683SOL    HW232949   3.729   1.916   3.511
10684SOL     OW32950   5.583   4.397   2.005
10684SOL    HW132951   5.524   4.453   2.065
10684SOL    HW232952   5.530   4.363   1.928
10685SOL     OW32953   0.545   5.554   2.532
10685SOL    HW132954   0.630   5.605   2.523
10685SOL    HW232955   0.563   5.456   2.516
10686SOL     OW32956   0.762   4.749   6.295
10686SOL    HW132957   0.734   4.654   6.286
10686SOL    HW232958   0.688   4.802   6.337
10687SOL     OW32959   6.601   5.552   1.806
10687SOL    HW132960   6.633   5.628   1.750
10687SOL    HW232961   6.667   5.533   1.879
10688SOL     OW32962   6.590   3.978   2.686
10688SOL    HW132963   6.510   4.012   2.636
10688SOL    HW232964   6.609   3.884   2.658
10689SOL     OW32965   0.469   5.673   3.579
10689SOL    HW132966   0.427   5.763   3.578
10689SOL    HW232967   0.507   5.652   3.489
10690SOL     OW32968   0.147   6.008   3.470
10690SOL    HW132969   0.159   6.104   3.446
10690SOL    HW232970   0.050   5.984   3.467
10691SOL     OW32971   0.276   2.219   2.425
10691SOL    HW132972   0.362   2.262   2.454
10691SOL    HW232973   0.219   2.286   2.377
10692SOL     OW32974   3.168   6.332   3.275
10692SOL    HW132975   3.244   6.391   3.248
10692SOL    HW232976   3.090   6.389   3.302
10693SOL     OW32977   2.206   6.844   0.133
10693SOL    HW132978   2.272   6.846   0.057
10693SOL    HW232979   2.118   6.877   0.100
10694SOL     OW32980   5.453   6.371   1.881
10694SOL    HW132981   5.396   6.414   1.951
10694SOL    HW232982   5.485   6.282   1.914
10695SOL     OW32983   5.526   1.965   3.128
10695SOL    HW132984   5.432   1.998   3.123
10695SOL    HW232985   5.528   1.866   3.118
10696SOL     OW32986   0.307   3.539   3.805
10696SOL    HW132987   0.404   3.518   3.804
10696SOL    HW232988   0.281   3.585   3.719
10697SOL     OW32989   0.067   6.301   4.607
10697SOL    HW132990   0.111   6.217   4.574
10697SOL    HW232991   6.992   6.283   4.625
10698SOL     OW32992   4.548   5.528   5.497
10698SOL    HW132993   4.495   5.605   5.463
10698SOL    HW232994   4.515   5.502   5.588
10699SOL     OW32995   4.060   3.355   1.972
10699SOL    HW132996   3.981   3.330   1.917
10699SOL    HW232997   4.076   3.454   1.964
10700SOL     OW32998   6.974   6.905   1.694
10700SOL    HW132999   6.972   6.816   1.738
10700SOL    HW233000   7.003   6.975   1.759
10701SOL     OW33001   3.531   6.349   0.290
10701SOL    HW133002   3.537   6.263   0.340
10701SOL    HW233003   3.437   6.363   0.258
10702SOL     OW33004   5.939   3.053   2.247
10702SOL    HW133005   5.879   3.032   2.324
10702SOL    HW233006   6.031   3.074   2.281
10703SOL     OW33007   3.176   4.096   5.114
10703SOL    HW133008   3.107   4.070   5.047
10703SOL    HW233009   3.153   4.185   5.154
10704SOL     OW33010   6.364   5.462   1.690
10704SOL    HW133011   6.434   5.515   1.738
10704SOL    HW233012   6.397   5.369   1.675
10705SOL     OW33013   6.565   4.658   1.552
10705SOL    HW133014   6.508   4.652   1.470
10705SOL    HW233015   6.639   4.591   1.545
10706SOL     OW33016   5.092   0.061   2.295
10706SOL    HW133017   5.058   0.119   2.221
10706SOL    HW233018   5.088   6.987   2.266
10707SOL     OW33019   0.170   6.273   3.769
10707SOL    HW133020   0.247   6.253   3.829
10707SOL    HW233021   0.088   6.228   3.804
10708SOL     OW33022   4.018   0.811   2.285
10708SOL    HW133023   3.956   0.838   2.211
10708SOL    HW233024   4.049   0.717   2.270
10709SOL     OW33025   6.317   6.367   4.853
10709SOL    HW133026   6.364   6.297   4.800
10709SOL    HW233027   6.294   6.444   4.793
10710SOL     OW33028   0.544   6.654   4.931
10710SOL    HW133029   0.510   6.667   5.024
10710SOL    HW233030   0.623   6.593   4.933
10711SOL     OW33031   1.748   6.454   3.884
10711SOL    HW133032   1.670   6.474   3.825
10711SOL    HW233033   1.727   6.480   3.978
10712SOL     OW33034   2.720   1.495   1.553
10712SOL    HW133035   2.704   1.408   1.507
10712SOL    HW233036   2.633   1.535   1.580
10713SOL     OW33037   1.339   4.289   1.489
10713SOL    HW133038   1.339   4.220   1.563
10713SOL    HW233039   1.269   4.265   1.422
10714SOL     OW33040   6.241   3.713   4.623
10714SOL    HW133041   6.250   3.653   4.543
10714SOL    HW233042   6.326   3.712   4.675
10715SOL     OW33043   5.347   6.677   2.817
10715SOL    HW133044   5.299   6.761   2.789
10715SOL    HW233045   5.371   6.624   2.736
10716SOL     OW33046   5.727   2.125   4.589
10716SOL    HW133047   5.699   2.169   4.504
10716SOL    HW233048   5.652   2.069   4.624
10717SOL     OW33049   1.288   2.692   1.004
10717SOL    HW133050   1.197   2.725   1.029
10717SOL    HW233051   1.305   2.710   0.907
10718SOL     OW33052   1.673   2.806   6.501
10718SOL    HW133053   1.639   2.717   6.529
10718SOL    HW233054   1.770   2.799   6.476
10719SOL     OW33055   5.205   5.957   0.788
10719SOL    HW133056   5.121   6.012   0.794
10719SOL    HW233057   5.183   5.869   0.746
10720SOL     OW33058   6.720   3.347   5.001
10720SOL    HW133059   6.809   3.387   5.023
10720SOL    HW233060   6.705   3.351   4.903
10721SOL     OW33061   6.298   4.314   5.067
10721SOL    HW133062   6.288   4.304   5.166
10721SOL    HW233063   6.305   4.411   5.044
10722SOL     OW33064   0.342   3.790   0.780
10722SOL    HW133065   0.409   3.858   0.810
10722SOL    HW233066   0.268   3.784   0.846
10723SOL     OW33067   0.728   3.957   6.258
10723SOL    HW133068   0.767   3.884   6.202
10723SOL    HW233069   0.634   3.975   6.228
10724SOL     OW33070   4.636   1.051   6.869
10724SOL    HW133071   4.598   1.110   6.940
10724SOL    HW233072   4.639   0.957   6.903
10725SOL     OW33073   0.225   4.545   4.619
10725SOL    HW133074   0.147   4.506   4.571
10725SOL    HW233075   0.229   4.643   4.602
10726SOL     OW33076   5.292   7.008   5.745
10726SOL    HW133077   5.234   0.050   5.795
10726SOL    HW233078   5.374   6.988   5.798
10727SOL     OW33079   0.521   5.460   4.283
10727SOL    HW133080   0.600   5.478   4.341
10727SOL    HW233081   0.530   5.513   4.198
10728SOL     OW33082   6.303   6.424   1.072
10728SOL    HW133083   6.332   6.498   1.132
10728SOL    HW233084   6.372   6.352   1.072
10729SOL     OW33085   5.330   1.071   2.515
10729SOL    HW133086   5.409   1.011   2.508
10729SOL    HW233087   5.275   1.064   2.431
10730SOL     OW33088   2.175   0.085   2.036
10730SOL    HW133089   2.203   0.176   2.068
10730SOL    HW233090   2.247   0.019   2.055
10731SOL     OW33091   3.075   5.810   0.452
10731SOL    HW133092   3.047   5.733   0.394
10731SOL    HW233093   3.084   5.892   0.395
10732SOL     OW33094   4.871   5.087   2.160
10732SOL    HW133095   4.823   5.131   2.236
10732SOL    HW233096   4.937   5.021   2.196
10733SOL     OW33097   5.082   2.171   0.158
10733SOL    HW133098   5.110   2.266   0.171
10733SOL    HW233099   5.043   2.160   0.066
10734SOL     OW33100   1.215   0.152   0.193
10734SOL    HW133101   1.278   0.151   0.270
10734SOL    HW233102   1.132   0.201   0.219
10735SOL     OW33103   1.675   4.367   2.856
10735SOL    HW133104   1.638   4.431   2.789
10735SOL    HW233105   1.601   4.332   2.914
10736SOL     OW33106   0.135   0.473   3.426
10736SOL    HW133107   0.181   0.389   3.396
10736SOL    HW233108   0.169   0.550   3.372
10737SOL     OW33109   1.596   1.736   0.319
10737SOL    HW133110   1.675   1.768   0.268
10737SOL    HW233111   1.522   1.803   0.312
10738SOL     OW33112   2.664   0.685   3.380
10738SOL    HW133113   2.606   0.766   3.372
10738SOL    HW233114   2.607   0.605   3.397
10739SOL     OW33115   6.994   1.020   1.302
10739SOL    HW133116   0.054   0.998   1.247
10739SOL    HW233117   7.016   1.009   1.399
10740SOL     OW33118   0.724   4.735   5.712
10740SOL    HW133119   0.799   4.698   5.766
10740SOL    HW233120   0.697   4.669   5.642
10741SOL     OW33121   0.685   0.602   2.956
10741SOL    HW133122   0.769   0.566   2.997
10741SOL    HW233123   0.709   0.673   2.889
10742SOL     OW33124   5.878   0.166   1.365
10742SOL    HW133125   5.849   0.151   1.459
10742SOL    HW233126   5.869   0.081   1.313
10743SOL     OW33127   2.250   1.738   4.816
10743SOL    HW133128   2.255   1.650   4.769
10743SOL    HW233129   2.270   1.725   4.913
10744SOL     OW33130   2.593   1.586   2.166
10744SOL    HW133131   2.579   1.646   2.244
10744SOL    HW233132   2.688   1.592   2.135
10745SOL     OW33133   0.946   4.767   0.667
10745SOL    HW133134   0.957   4.673   0.634
10745SOL    HW233135   0.865   4.807   0.624
10746SOL     OW33136   1.925   3.918   1.587
10746SOL    HW133137   1.836   3.876   1.606
10746SOL    HW233138   1.948   3.904   1.491
10747SOL     OW33139   4.274   0.472   2.940
10747SOL    HW133140   4.290   0.462   2.842
10747SOL    HW233141   4.309   0.391   2.989
10748SOL     OW33142   3.482   0.667   1.328
10748SOL    HW133143   3.450   0.732   1.259
10748SOL    HW233144   3.508   0.716   1.411
10749SOL     OW33145   0.001   4.808   3.735
10749SOL    HW133146   0.039   4.867   3.806
10749SOL    HW233147   6.997   4.720   3.774
10750SOL     OW33148   3.729   5.986   4.174
10750SOL    HW133149   3.782   5.973   4.258
10750SOL    HW233150   3.673   6.068   4.183
10751SOL     OW33151   1.363   4.228   4.368
10751SOL    HW133152   1.343   4.261   4.460
10751SOL    HW233153   1.327   4.135   4.357
10752SOL     OW33154   6.456   3.702   6.009
10752SOL    HW133155   6.540   3.735   6.053
10752SOL    HW233156   6.408   3.641   6.072
10753SOL     OW33157   4.271   6.854   4.590
10753SOL    HW133158   4.202   6.794   4.550
10753SOL    HW233159   4.344   6.799   4.629
10754SOL     OW33160   1.179   1.732   3.462
10754SOL    HW133161   1.106   1.801   3.466
10754SOL    HW233162   1.254   1.759   3.521
10755SOL     OW33163   0.359   2.127   6.989
10755SOL    HW133164   0.264   2.146   7.012
10755SOL    HW233165   0.418   2.153   0.044
10756SOL     OW33166   6.387   4.447   0.045
10756SOL    HW133167   6.374   4.525   7.005
10756SOL    HW233168   6.352   4.469   0.136
10757SOL     OW33169   1.118   2.698   6.924
10757SOL    HW133170   1.037   2.756   6.927
10757SOL    HW233171   1.193   2.744   6.972
10758SOL     OW33172   1.064   6.702   5.505
10758SOL    HW133173   1.158   6.723   5.533
10758SOL    HW233174   1.059   6.699   5.406
10759SOL     OW33175   1.995   3.125   6.608
10759SOL    HW133176   1.942   3.109   6.692
10759SOL    HW233177   2.028   3.220   6.607
10760SOL     OW33178   6.511   1.010   0.262
10760SOL    HW133179   6.487   0.933   0.320
10760SOL    HW233180   6.433   1.035   0.205
10761SOL     OW33181   1.504   1.996   6.310
10761SOL    HW133182   1.450   2.037   6.383
10761SOL    HW233183   1.601   2.009   6.330
10762SOL     OW33184   3.868   1.669   5.069
10762SOL    HW133185   3.928   1.630   4.998
10762SOL    HW233186   3.915   1.744   5.114
10763SOL     OW33187   4.698   6.592   1.589
10763SOL    HW133188   4.762   6.631   1.523
10763SOL    HW233189   4.652   6.666   1.638
10764SOL     OW33190   5.811   1.726   5.623
10764SOL    HW133191   5.869   1.749   5.545
10764SOL    HW233192   5.728   1.781   5.620
10765SOL     OW33193   5.790   2.691   0.971
10765SOL    HW133194   5.764   2.595   0.984
10765SOL    HW233195   5.885   2.704   0.997
10766SOL     OW33196   3.501   2.975   1.376
10766SOL    HW133197   3.496   3.034   1.295
10766SOL    HW233198   3.594   2.941   1.387
10767SOL     OW33199   1.515   0.664   0.007
10767SOL    HW133200   1.491   0.631   0.098
10767SOL    HW233201   1.532   0.763   0.010
10768SOL     OW33202   4.197   5.096   0.854
10768SOL    HW133203   4.097   5.094   0.862
10768SOL    HW233204   4.229   5.191   0.853
10769SOL     OW33205   2.141   5.107   5.055
10769SOL    HW133206   2.229   5.088   5.013
10769SOL    HW233207   2.147   5.192   5.108
10770SOL     OW33208   5.713   0.160   4.908
10770SOL    HW133209   5.631   0.106   4.891
10770SOL    HW233210   5.693   0.257   4.897
10771SOL     OW33211   5.390   1.108   4.752
10771SOL    HW133212   5.355   1.157   4.832
10771SOL    HW233213   5.447   1.170   4.697
10772SOL     OW33214   0.003   6.534   4.417
10772SOL    HW133215   0.095   6.509   4.385
10772SOL    HW233216   6.968   6.453   4.422
10773SOL     OW33217   6.839   5.366   6.667
10773SOL    HW133218   6.770   5.295   6.676
10773SOL    HW233219   6.816   5.442   6.728
10774SOL     OW33220   1.743   2.000   6.916
10774SOL    HW133221   1.671   1.979   6.849
10774SOL    HW233222   1.787   2.086   6.891
10775SOL     OW33223   0.170   2.695   0.593
10775SOL    HW133224   0.252   2.714   0.648
10775SOL    HW233225   0.164   2.597   0.574
10776SOL     OW33226   1.327   6.279   6.751
10776SOL    HW133227   1.380   6.345   6.804
10776SOL    HW233228   1.364   6.273   6.658
10777SOL     OW33229   4.163   5.906   4.264
10777SOL    HW133230   4.181   5.906   4.166
10777SOL    HW233231   4.066   5.889   4.281
10778SOL     OW33232   5.718   6.355   5.260
10778SOL    HW133233   5.728   6.314   5.169
10778SOL    HW233234   5.650   6.428   5.256
10779SOL     OW33235   6.132   4.999   3.365
10779SOL    HW133236   6.213   4.942   3.353
10779SOL    HW233237   6.051   4.940   3.369
10780SOL     OW33238   1.725   0.197   4.064
10780SOL    HW133239   1.659   0.200   4.140
10780SOL    HW233240   1.740   0.290   4.030
10781SOL     OW33241   4.026   1.359   3.023
10781SOL    HW133242   4.077   1.382   3.105
10781SOL    HW233243   3.928   1.359   3.043
10782SOL     OW33244   6.977   1.750   3.566
10782SOL    HW133245   6.912   1.690   3.612
10782SOL    HW233246   7.018   1.813   3.632
10783SOL     OW33247   1.105   3.321   3.078
10783SOL    HW133248   1.104   3.256   3.154
10783SOL    HW233249   1.011   3.336   3.045
10784SOL     OW33250   3.333   0.460   3.662
10784SOL    HW133251   3.331   0.360   3.665
10784SOL    HW233252   3.255   0.496   3.712
10785SOL     OW33253   0.175   5.087   1.324
10785SOL    HW133254   0.165   4.989   1.305
10785SOL    HW233255   0.253   5.124   1.273
10786SOL     OW33256   5.048   4.956   1.941
10786SOL    HW133257   5.060   4.976   1.843
10786SOL    HW233258   4.977   5.016   1.978
10787SOL     OW33259   2.891   1.429   4.505
10787SOL    HW133260   2.966   1.419   4.440
10787SOL    HW233261   2.913   1.502   4.570
10788SOL     OW33262   2.206   4.840   6.460
10788SOL    HW133263   2.193   4.892   6.544
10788SOL    HW233264   2.285   4.779   6.470
10789SOL     OW33265   5.895   2.693   0.282
10789SOL    HW133266   5.908   2.791   0.298
10789SOL    HW233267   5.830   2.680   0.208
10790SOL     OW33268   1.079   0.710   2.284
10790SOL    HW133269   1.046   0.632   2.338
10790SOL    HW233270   1.029   0.792   2.311
10791SOL     OW33271   6.959   0.349   0.895
10791SOL    HW133272   6.921   0.378   0.807
10791SOL    HW233273   0.036   0.337   0.887
10792SOL     OW33274   3.870   3.881   2.284
10792SOL    HW133275   3.914   3.875   2.374
10792SOL    HW233276   3.940   3.876   2.213
10793SOL     OW33277   5.341   2.615   4.247
10793SOL    HW133278   5.281   2.609   4.167
10793SOL    HW233279   5.290   2.656   4.323
10794SOL     OW33280   2.917   3.660   3.814
10794SOL    HW133281   2.970   3.692   3.892
10794SOL    HW233282   2.957   3.697   3.730
10795SOL     OW33283   0.063   4.077   3.112
10795SOL    HW133284   0.042   4.011   3.185
10795SOL    HW233285   7.016   4.071   3.040
10796SOL     OW33286   5.593   6.816   0.742
10796SOL    HW133287   5.633   6.737   0.696
10796SOL    HW233288   5.536   6.867   0.678
10797SOL     OW33289   3.696   1.743   1.402
10797SOL    HW133290   3.652   1.833   1.403
10797SOL    HW233291   3.642   1.680   1.347
10798SOL     OW33292   2.552   6.356   0.975
10798SOL    HW133293   2.595   6.382   0.889
10798SOL    HW233294   2.582   6.418   1.048
10799SOL     OW33295   3.648   0.924   1.841
10799SOL    HW133296   3.580   0.948   1.911
10799SOL    HW233297   3.620   0.839   1.796
10800SOL     OW33298   0.331   0.208   0.336
10800SOL    HW133299   0.291   0.116   0.331
10800SOL    HW233300   0.278   0.263   0.400
10801SOL     OW33301   1.247   6.916   5.770
10801SOL    HW133302   1.238   7.006   5.728
10801SOL    HW233303   1.328   6.870   5.733
10802SOL     OW33304   1.168   2.605   3.046
10802SOL    HW133305   1.116   2.613   2.961
10802SOL    HW233306   1.152   2.685   3.104
10803SOL     OW33307   3.542   3.763   5.922
10803SOL    HW133308   3.612   3.817   5.875
10803SOL    HW233309   3.499   3.701   5.857
10804SOL     OW33310   5.696   3.428   1.603
10804SOL    HW133311   5.764   3.500   1.591
10804SOL    HW233312   5.684   3.410   1.701
10805SOL     OW33313   3.901   6.769   6.909
10805SOL    HW133314   3.976   6.767   6.843
10805SOL    HW233315   3.928   6.719   6.991
10806SOL     OW33316   4.719   3.893   5.979
10806SOL    HW133317   4.796   3.866   5.921
10806SOL    HW233318   4.745   3.881   6.075
10807SOL     OW33319   1.339   6.619   2.937
10807SOL    HW133320   1.258   6.657   2.893
10807SOL    HW233321   1.420   6.667   2.904
10808SOL     OW33322   6.471   3.259   6.305
10808SOL    HW133323   6.402   3.329   6.284
10808SOL    HW233324   6.542   3.298   6.363
10809SOL     OW33325   3.078   6.052   3.792
10809SOL    HW133326   3.130   5.988   3.848
10809SOL    HW233327   3.141   6.116   3.748
10810SOL     OW33328   2.234   0.589   4.837
10810SOL    HW133329   2.205   0.517   4.900
10810SOL    HW233330   2.202   0.568   4.745
10811SOL     OW33331   4.086   4.598   5.679
10811SOL    HW133332   3.992   4.584   5.710
10811SOL    HW233333   4.114   4.692   5.698
10812SOL     OW33334   1.006   3.635   1.651
10812SOL    HW133335   0.977   3.641   1.746
10812SOL    HW233336   1.102   3.663   1.643
10813SOL     OW33337   2.102   4.962   6.883
10813SOL    HW133338   2.122   5.036   6.947
10813SOL    HW233339   2.079   4.879   6.934
10814SOL     OW33340   1.384   6.624   6.510
10814SOL    HW133341   1.347   6.653   6.421
10814SOL    HW233342   1.363   6.693   6.579
10815SOL     OW33343   4.536   4.431   3.836
10815SOL    HW133344   4.496   4.418   3.927
10815SOL    HW233345   4.622   4.380   3.831
10816SOL     OW33346   1.865   2.281   1.312
10816SOL    HW133347   1.910   2.234   1.389
10816SOL    HW233348   1.774   2.309   1.340
10817SOL     OW33349   5.296   6.848   3.236
10817SOL    HW133350   5.305   6.793   3.152
10817SOL    HW233351   5.367   6.821   3.301
10818SOL     OW33352   4.315   4.526   5.453
10818SOL    HW133353   4.400   4.520   5.400
10818SOL    HW233354   4.292   4.435   5.488
10819SOL     OW33355   6.536   4.419   6.709
10819SOL    HW133356   6.547   4.374   6.797
10819SOL    HW233357   6.615   4.398   6.651
10820SOL     OW33358   6.055   5.913   3.975
10820SOL    HW133359   6.006   5.997   3.997
10820SOL    HW233360   5.989   5.838   3.968
10821SOL     OW33361   5.677   6.559   2.014
10821SOL    HW133362   5.633   6.538   1.927
10821SOL    HW233363   5.608   6.563   2.087
10822SOL     OW33364   0.916   2.928   3.063
10822SOL    HW133365   0.882   2.996   3.128
10822SOL    HW233366   0.907   2.962   2.970
10823SOL     OW33367   1.616   5.649   1.077
10823SOL    HW133368   1.596   5.604   1.165
10823SOL    HW233369   1.649   5.581   1.012
10824SOL     OW33370   6.213   0.977   3.424
10824SOL    HW133371   6.251   0.944   3.510
10824SOL    HW233372   6.113   0.970   3.426
10825SOL     OW33373   3.018   0.528   6.254
10825SOL    HW133374   2.969   0.588   6.190
10825SOL    HW233375   3.071   0.460   6.202
10826SOL     OW33376   0.810   3.240   3.482
10826SOL    HW133377   0.850   3.227   3.573
10826SOL    HW233378   0.763   3.329   3.479
10827SOL     OW33379   6.363   4.285   4.344
10827SOL    HW133380   6.313   4.213   4.391
10827SOL    HW233381   6.358   4.271   4.245
10828SOL     OW33382   0.861   5.229   1.842
10828SOL    HW133383   0.907   5.299   1.786
10828SOL    HW233384   0.788   5.187   1.788
10829SOL     OW33385   3.413   2.182   0.990
10829SOL    HW133386   3.387   2.139   0.904
10829SOL    HW233387   3.405   2.281   0.982
10830SOL     OW33388   5.364   1.756   3.749
10830SOL    HW133389   5.401   1.763   3.842
10830SOL    HW233390   5.379   1.663   3.715
10831SOL     OW33391   3.783   6.123   2.215
10831SOL    HW133392   3.871   6.169   2.200
10831SOL    HW233393   3.789   6.029   2.182
10832SOL     OW33394   1.371   2.774   0.185
10832SOL    HW133395   1.309   2.842   0.224
10832SOL    HW233396   1.430   2.737   0.256
10833SOL     OW33397   1.440   1.203   2.253
10833SOL    HW133398   1.444   1.236   2.158
10833SOL    HW233399   1.488   1.115   2.260
10834SOL     OW33400   1.228   2.338   6.498
10834SOL    HW133401   1.209   2.430   6.534
10834SOL    HW233402   1.233   2.273   6.574
10835SOL     OW33403   6.565   2.086   0.167
10835SOL    HW133404   6.657   2.082   0.126
10835SOL    HW233405   6.514   2.004   0.142
10836SOL     OW33406   0.065   2.070   4.508
10836SOL    HW133407   7.001   2.042   4.552
10836SOL    HW233408   0.070   2.170   4.505
10837SOL     OW33409   6.906   4.974   0.075
10837SOL    HW133410   6.952   5.007   7.015
10837SOL    HW233411   6.809   4.957   0.054
10838SOL     OW33412   5.977   6.482   4.830
10838SOL    HW133413   6.045   6.409   4.829
10838SOL    HW233414   5.889   6.447   4.797
10839SOL     OW33415   3.823   2.932   1.036
10839SOL    HW133416   3.834   2.876   1.118
10839SOL    HW233417   3.726   2.947   1.018
10840SOL     OW33418   3.830   5.399   2.169
10840SOL    HW133419   3.838   5.302   2.193
10840SOL    HW233420   3.738   5.417   2.134
10841SOL     OW33421   4.794   5.326   0.260
10841SOL    HW133422   4.729   5.400   0.277
10841SOL    HW233423   4.753   5.239   0.286
10842SOL     OW33424   5.081   2.428   1.421
10842SOL    HW133425   5.129   2.404   1.506
10842SOL    HW233426   5.007   2.363   1.405
10843SOL     OW33427   1.126   2.392   1.213
10843SOL    HW133428   1.152   2.306   1.255
10843SOL    HW233429   1.041   2.380   1.161
10844SOL     OW33430   0.552   6.609   4.012
10844SOL    HW133431   0.512   6.631   3.923
10844SOL    HW233432   0.581   6.513   4.012
10845SOL     OW33433   3.240   0.331   5.703
10845SOL    HW133434   3.245   0.412   5.643
10845SOL    HW233435   3.299   0.346   5.783
10846SOL     OW33436   4.722   2.444   1.190
10846SOL    HW133437   4.791   2.454   1.119
10846SOL    HW233438   4.764   2.408   1.273
10847SOL     OW33439   3.916   3.645   6.516
10847SOL    HW133440   3.880   3.690   6.598
10847SOL    HW233441   4.015   3.640   6.522
10848SOL     OW33442   3.062   2.626   6.631
10848SOL    HW133443   3.125   2.692   6.589
10848SOL    HW233444   3.111   2.542   6.652
10849SOL     OW33445   2.650   5.890   3.247
10849SOL    HW133446   2.583   5.947   3.199
10849SOL    HW233447   2.606   5.804   3.275
10850SOL     OW33448   3.696   5.779   6.936
10850SOL    HW133449   3.724   5.730   6.854
10850SOL    HW233450   3.722   5.875   6.928
10851SOL     OW33451   2.538   2.719   6.445
10851SOL    HW133452   2.460   2.714   6.508
10851SOL    HW233453   2.618   2.678   6.487
10852SOL     OW33454   1.027   0.083   6.838
10852SOL    HW133455   1.079   0.162   6.870
10852SOL    HW233456   0.999   0.027   6.916
10853SOL     OW33457   3.216   2.373   5.674
10853SOL    HW133458   3.306   2.332   5.689
10853SOL    HW233459   3.151   2.337   5.741
10854SOL     OW33460   5.019   6.834   5.158
10854SOL    HW133461   5.069   6.879   5.084
10854SOL    HW233462   4.922   6.825   5.132
10855SOL     OW33463   2.751   6.327   1.595
10855SOL    HW133464   2.688   6.390   1.641
10855SOL    HW233465   2.701   6.252   1.554
10856SOL     OW33466   5.722   2.021   1.629
10856SOL    HW133467   5.808   2.073   1.620
10856SOL    HW233468   5.736   1.928   1.596
10857SOL     OW33469   5.924   2.457   2.934
10857SOL    HW133470   6.002   2.488   2.988
10857SOL    HW233471   5.899   2.529   2.868
10858SOL     OW33472   0.893   2.232   6.497
10858SOL    HW133473   0.904   2.326   6.528
10858SOL    HW233474   0.805   2.196   6.528
10859SOL     OW33475   2.164   3.363   4.128
10859SOL    HW133476   2.167   3.263   4.136
10859SOL    HW233477   2.179   3.404   4.218
10860SOL     OW33478   6.575   1.476   6.030
10860SOL    HW133479   6.561   1.564   6.076
10860SOL    HW233480   6.600   1.492   5.935
10861SOL     OW33481   3.843   3.305   3.096
10861SOL    HW133482   3.908   3.292   3.170
10861SOL    HW233483   3.881   3.268   3.011
10862SOL     OW33484   2.762   1.646   6.300
10862SOL    HW133485   2.836   1.682   6.243
10862SOL    HW233486   2.761   1.694   6.387
10863SOL     OW33487   4.015   0.304   3.022
10863SOL    HW133488   4.040   0.399   3.043
10863SOL    HW233489   4.085   0.264   2.962
10864SOL     OW33490   3.764   5.483   0.539
10864SOL    HW133491   3.834   5.499   0.609
10864SOL    HW233492   3.692   5.425   0.576
10865SOL     OW33493   6.023   1.344   2.869
10865SOL    HW133494   6.006   1.435   2.829
10865SOL    HW233495   5.993   1.274   2.804
10866SOL     OW33496   4.525   4.593   0.384
10866SOL    HW133497   4.435   4.567   0.349
10866SOL    HW233498   4.523   4.593   0.484
10867SOL     OW33499   3.000   3.933   0.238
10867SOL    HW133500   3.025   4.030   0.240
10867SOL    HW233501   3.074   3.882   0.195
10868SOL     OW33502   2.478   2.343   3.713
10868SOL    HW133503   2.396   2.287   3.705
10868SOL    HW233504   2.504   2.377   3.622
10869NA      NA33505   0.683   2.502   5.985
10870NA      NA33506   4.268   4.674   5.216
10871NA      NA33507   2.057   4.321   2.423
10872NA      NA33508   4.934   4.255   3.819
10873NA      NA33509   4.207   2.299   5.234
10874NA      NA33510   3.260   4.615   1.447
10875NA      NA33511   0.103   4.591   0.230
10876NA      NA33512   3.292   3.439   3.066
10877NA      NA33513   4.746   5.157   1.128
10878NA      NA33514   3.576   6.897   5.361
10879NA      NA33515   6.080   5.555   1.106
10880NA      NA33516   2.229   0.815   4.887
10881NA      NA33517   3.955   5.049   1.954
10882NA      NA33518   4.009   3.151   1.717
   7.02150   7.02150   7.02150
