Generated by trjconv : CNT in water t= 533.00000
33518
    1C        C    1   2.843   2.767   4.750
    1C        C    2   2.903   2.725   4.870
    1C        C    3   2.848   2.776   4.988
    1C        C    4   2.857   2.780   4.264
    1C        C    5   2.910   2.731   4.385
    1C        C    6   2.856   2.779   4.507
    1C        C    7   3.016   2.641   4.627
    1C        C    8   2.901   2.723   4.629
    1C        C    9   3.079   2.608   4.749
    1C        C   10   3.010   2.632   4.869
    1C        C   11   3.185   2.495   4.980
    1C        C   12   3.064   2.566   4.980
    1C        C   13   2.853   2.775   3.775
    1C        C   14   2.906   2.725   3.897
    1C        C   15   2.855   2.778   4.018
    1C        C   16   3.022   2.649   4.141
    1C        C   17   2.911   2.736   4.141
    1C        C   18   3.085   2.612   4.263
    1C        C   19   3.025   2.649   4.385
    1C        C   20   3.210   2.548   4.507
    1C        C   21   3.079   2.603   4.507
    1C        C   22   3.280   2.533   4.628
    1C        C   23   3.209   2.550   4.749
    1C        C   24   3.414   2.482   4.870
    1C        C   25   3.272   2.501   4.867
    1C        C   26   3.489   2.481   4.988
    1C        C   27   2.858   2.775   3.286
    1C        C   28   2.913   2.729   3.407
    1C        C   29   2.865   2.782   3.529
    1C        C   30   3.021   2.645   3.652
    1C        C   31   2.910   2.732   3.653
    1C        C   32   3.079   2.603   3.774
    1C        C   33   3.018   2.639   3.896
    1C        C   34   3.208   2.548   4.017
    1C        C   35   3.080   2.607   4.019
    1C        C   36   3.278   2.531   4.139
    1C        C   37   3.215   2.557   4.263
    1C        C   38   3.420   2.506   4.383
    1C        C   39   3.282   2.536   4.386
    1C        C   40   3.488   2.499   4.506
    1C        C   41   3.419   2.509   4.629
    1C        C   42   3.631   2.486   4.747
    1C        C   43   3.489   2.482   4.749
    1C        C   44   3.705   2.487   4.867
    1C        C   45   3.628   2.481   4.984
    1C        C   46   2.845   2.761   2.795
    1C        C   47   2.901   2.717   2.917
    1C        C   48   2.854   2.770   3.039
    1C        C   49   3.022   2.645   3.165
    1C        C   50   2.906   2.726   3.162
    1C        C   51   3.085   2.608   3.285
    1C        C   52   3.024   2.641   3.408
    1C        C   53   3.212   2.548   3.530
    1C        C   54   3.083   2.605   3.531
    1C        C   55   3.276   2.522   3.653
    1C        C   56   3.210   2.550   3.775
    1C        C   57   3.416   2.498   3.894
    1C        C   58   3.277   2.524   3.897
    1C        C   59   3.486   2.489   4.017
    1C        C   60   3.416   2.502   4.139
    1C        C   61   3.630   2.499   4.261
    1C        C   62   3.489   2.498   4.260
    1C        C   63   3.701   2.508   4.383
    1C        C   64   3.629   2.501   4.505
    1C        C   65   3.837   2.546   4.624
    1C        C   66   3.701   2.508   4.626
    1C        C   67   3.906   2.563   4.746
    1C        C   68   3.841   2.526   4.866
    1C        C   69   4.054   2.587   4.979
    1C        C   70   3.924   2.536   4.979
    1C        C   71   2.833   2.742   2.311
    1C        C   72   2.889   2.696   2.432
    1C        C   73   2.843   2.753   2.552
    1C        C   74   3.011   2.624   2.677
    1C        C   75   2.899   2.710   2.675
    1C        C   76   3.075   2.591   2.798
    1C        C   77   3.016   2.634   2.919
    1C        C   78   3.206   2.544   3.040
    1C        C   79   3.079   2.605   3.042
    1C        C   80   3.276   2.518   3.161
    1C        C   81   3.212   2.545   3.284
    1C        C   82   3.416   2.490   3.406
    1C        C   83   3.279   2.527   3.407
    1C        C   84   3.484   2.487   3.529
    1C        C   85   3.415   2.500   3.652
    1C        C   86   3.629   2.503   3.771
    1C        C   87   3.488   2.491   3.773
    1C        C   88   3.697   2.508   3.895
    1C        C   89   3.627   2.496   4.017
    1C        C   90   3.836   2.546   4.139
    1C        C   91   3.700   2.507   4.138
    1C        C   92   3.903   2.571   4.260
    1C        C   93   3.838   2.543   4.382
    1C        C   94   4.031   2.636   4.500
    1C        C   95   3.906   2.569   4.503
    1C        C   96   4.092   2.671   4.622
    1C        C   97   4.032   2.629   4.742
    1C        C   98   4.185   2.774   4.862
    1C        C   99   4.098   2.661   4.864
    1C        C  100   4.223   2.843   4.978
    1C        C  101   2.829   2.730   2.071
    1C        C  102   2.993   2.593   2.193
    1C        C  103   2.879   2.679   2.192
    1C        C  104   3.066   2.574   2.314
    1C        C  105   3.006   2.617   2.435
    1C        C  106   3.204   2.533   2.551
    1C        C  107   3.073   2.587   2.556
    1C        C  108   3.269   2.512   2.674
    1C        C  109   3.205   2.535   2.798
    1C        C  110   3.412   2.486   2.917
    1C        C  111   3.273   2.514   2.919
    1C        C  112   3.484   2.489   3.038
    1C        C  113   3.415   2.498   3.161
    1C        C  114   3.627   2.491   3.282
    1C        C  115   3.486   2.486   3.283
    1C        C  116   3.696   2.506   3.404
    1C        C  117   3.625   2.495   3.526
    1C        C  118   3.833   2.546   3.649
    1C        C  119   3.697   2.509   3.647
    1C        C  120   3.897   2.574   3.772
    1C        C  121   3.833   2.546   3.895
    1C        C  122   4.024   2.642   4.016
    1C        C  123   3.900   2.574   4.016
    1C        C  124   4.087   2.678   4.137
    1C        C  125   4.029   2.635   4.259
    1C        C  126   4.202   2.762   4.378
    1C        C  127   4.095   2.670   4.379
    1C        C  128   4.244   2.824   4.498
    1C        C  129   4.192   2.771   4.619
    1C        C  130   4.320   2.942   4.742
    1C        C  131   4.240   2.824   4.740
    1C        C  132   4.352   3.012   4.860
    1C        C  133   4.294   2.963   4.978
    1C        C  134   3.176   2.472   2.081
    1C        C  135   3.042   2.513   2.085
    1C        C  136   3.263   2.479   2.191
    1C        C  137   3.199   2.524   2.309
    1C        C  138   3.408   2.479   2.430
    1C        C  139   3.269   2.505   2.429
    1C        C  140   3.482   2.478   2.551
    1C        C  141   3.409   2.492   2.672
    1C        C  142   3.621   2.493   2.794
    1C        C  143   3.480   2.485   2.793
    1C        C  144   3.693   2.511   2.914
    1C        C  145   3.625   2.498   3.037
    1C        C  146   3.833   2.536   3.156
    1C        C  147   3.697   2.498   3.159
    1C        C  148   3.898   2.563   3.279
    1C        C  149   3.832   2.544   3.402
    1C        C  150   4.022   2.634   3.525
    1C        C  151   3.896   2.570   3.525
    1C        C  152   4.083   2.672   3.647
    1C        C  153   4.022   2.640   3.770
    1C        C  154   4.187   2.773   3.890
    1C        C  155   4.079   2.681   3.892
    1C        C  156   4.240   2.820   4.012
    1C        C  157   4.194   2.771   4.137
    1C        C  158   4.337   2.928   4.253
    1C        C  159   4.253   2.814   4.257
    1C        C  160   4.377   2.987   4.375
    1C        C  161   4.334   2.932   4.498
    1C        C  162   4.440   3.117   4.617
    1C        C  163   4.369   2.995   4.620
    1C        C  164   4.468   3.187   4.736
    1C        C  165   4.433   3.128   4.859
    1C        C  166   4.517   3.326   4.975
    1C        C  167   4.478   3.193   4.975
    1C        C  168   3.477   2.443   2.072
    1C        C  169   3.402   2.454   2.189
    1C        C  170   3.619   2.469   2.311
    1C        C  171   3.477   2.459   2.309
    1C        C  172   3.694   2.490   2.428
    1C        C  173   3.622   2.489   2.550
    1C        C  174   3.828   2.540   2.670
    1C        C  175   3.693   2.496   2.672
    1C        C  176   3.897   2.564   2.791
    1C        C  177   3.832   2.537   2.914
    1C        C  178   4.024   2.631   3.033
    1C        C  179   3.900   2.562   3.035
    1C        C  180   4.084   2.665   3.156
    1C        C  181   4.023   2.629   3.279
    1C        C  182   4.193   2.754   3.400
    1C        C  183   4.081   2.669   3.402
    1C        C  184   4.245   2.807   3.520
    1C        C  185   4.191   2.763   3.643
    1C        C  186   4.333   2.920   3.766
    1C        C  187   4.237   2.816   3.766
    1C        C  188   4.377   2.982   3.885
    1C        C  189   4.333   2.926   4.007
    1C        C  190   4.445   3.106   4.128
    1C        C  191   4.377   2.982   4.129
    1C        C  192   4.470   3.173   4.250
    1C        C  193   4.443   3.112   4.374
    1C        C  194   4.511   3.316   4.491
    1C        C  195   4.470   3.180   4.495
    1C        C  196   4.528   3.389   4.611
    1C        C  197   4.517   3.321   4.734
    1C        C  198   4.556   3.536   4.854
    1C        C  199   4.536   3.395   4.854
    1C        C  200   4.584   3.621   4.966
    1C        C  201   3.616   2.424   2.074
    1C        C  202   3.826   2.513   2.186
    1C        C  203   3.691   2.466   2.188
    1C        C  204   3.901   2.539   2.304
    1C        C  205   3.832   2.521   2.426
    1C        C  206   4.020   2.623   2.544
    1C        C  207   3.896   2.555   2.547
    1C        C  208   4.079   2.667   2.664
    1C        C  209   4.020   2.633   2.788
    1C        C  210   4.194   2.753   2.908
    1C        C  211   4.081   2.669   2.910
    1C        C  212   4.246   2.800   3.031
    1C        C  213   4.197   2.750   3.154
    1C        C  214   4.329   2.913   3.275
    1C        C  215   4.246   2.799   3.277
    1C        C  216   4.370   2.974   3.396
    1C        C  217   4.333   2.918   3.520
    1C        C  218   4.441   3.100   3.639
    1C        C  219   4.373   2.976   3.642
    1C        C  220   4.467   3.169   3.760
    1C        C  221   4.441   3.107   3.885
    1C        C  222   4.501   3.312   4.007
    1C        C  223   4.468   3.174   4.006
    1C        C  224   4.518   3.383   4.128
    1C        C  225   4.502   3.311   4.248
    1C        C  226   4.520   3.526   4.368
    1C        C  227   4.514   3.385   4.368
    1C        C  228   4.525   3.599   4.488
    1C        C  229   4.532   3.530   4.611
    1C        C  230   4.511   3.744   4.727
    1C        C  231   4.542   3.605   4.730
    1C        C  232   4.499   3.821   4.845
    1C        C  233   4.547   3.756   4.960
    1C        C  234   4.021   2.603   2.066
    1C        C  235   3.899   2.536   2.069
    1C        C  236   4.088   2.645   2.182
    1C        C  237   4.025   2.609   2.303
    1C        C  238   4.198   2.740   2.420
    1C        C  239   4.085   2.654   2.423
    1C        C  240   4.254   2.786   2.541
    1C        C  241   4.195   2.748   2.664
    1C        C  242   4.334   2.910   2.785
    1C        C  243   4.244   2.802   2.785
    1C        C  244   4.375   2.966   2.908
    1C        C  245   4.334   2.911   3.031
    1C        C  246   4.434   3.098   3.151
    1C        C  247   4.369   2.973   3.153
    1C        C  248   4.457   3.166   3.273
    1C        C  249   4.430   3.102   3.396
    1C        C  250   4.500   3.304   3.514
    1C        C  251   4.458   3.169   3.517
    1C        C  252   4.511   3.373   3.637
    1C        C  253   4.501   3.306   3.761
    1C        C  254   4.526   3.517   3.879
    1C        C  255   4.515   3.376   3.882
    1C        C  256   4.520   3.590   4.000
    1C        C  257   4.527   3.524   4.125
    1C        C  258   4.499   3.737   4.244
    1C        C  259   4.523   3.597   4.246
    1C        C  260   4.481   3.808   4.365
    1C        C  261   4.495   3.737   4.486
    1C        C  262   4.432   3.943   4.604
    1C        C  263   4.481   3.811   4.606
    1C        C  264   4.406   4.013   4.724
    1C        C  265   4.440   3.949   4.845
    1C        C  266   4.319   4.131   4.960
    1C        C  267   4.387   4.010   4.960
    1C        C  268   4.257   2.782   2.061
    1C        C  269   4.197   2.734   2.179
    1C        C  270   4.346   2.892   2.300
    1C        C  271   4.255   2.784   2.298
    1C        C  272   4.382   2.956   2.420
    1C        C  273   4.342   2.896   2.542
    1C        C  274   4.445   3.087   2.662
    1C        C  275   4.379   2.962   2.661
    1C        C  276   4.471   3.156   2.783
    1C        C  277   4.437   3.093   2.905
    1C        C  278   4.507   3.293   3.028
    1C        C  279   4.466   3.158   3.027
    1C        C  280   4.513   3.369   3.148
    1C        C  281   4.499   3.301   3.271
    1C        C  282   4.521   3.514   3.389
    1C        C  283   4.514   3.373   3.392
    1C        C  284   4.519   3.584   3.512
    1C        C  285   4.518   3.515   3.636
    1C        C  286   4.501   3.727   3.753
    1C        C  287   4.523   3.588   3.756
    1C        C  288   4.482   3.796   3.876
    1C        C  289   4.500   3.730   3.999
    1C        C  290   4.430   3.932   4.118
    1C        C  291   4.486   3.802   4.120
    1C        C  292   4.397   4.000   4.238
    1C        C  293   4.433   3.941   4.361
    1C        C  294   4.324   4.126   4.482
    1C        C  295   4.400   4.007   4.481
    1C        C  296   4.283   4.186   4.603
    1C        C  297   4.329   4.132   4.725
    1C        C  298   4.200   4.315   4.842
    1C        C  299   4.283   4.198   4.842
    1C        C  300   4.170   4.404   4.950
    1C        C  301   4.355   2.880   2.062
    1C        C  302   4.471   3.069   2.178
    1C        C  303   4.399   2.945   2.178
    1C        C  304   4.485   3.144   2.298
    1C        C  305   4.448   3.082   2.419
    1C        C  306   4.511   3.287   2.538
    1C        C  307   4.474   3.151   2.540
    1C        C  308   4.521   3.359   2.659
    1C        C  309   4.507   3.292   2.782
    1C        C  310   4.535   3.501   2.901
    1C        C  311   4.523   3.360   2.905
    1C        C  312   4.530   3.577   3.020
    1C        C  313   4.522   3.510   3.144
    1C        C  314   4.495   3.721   3.266
    1C        C  315   4.518   3.582   3.265
    1C        C  316   4.479   3.792   3.387
    1C        C  317   4.497   3.723   3.509
    1C        C  318   4.432   3.926   3.628
    1C        C  319   4.483   3.795   3.630
    1C        C  320   4.404   3.991   3.751
    1C        C  321   4.434   3.929   3.874
    1C        C  322   4.320   4.110   3.990
    1C        C  323   4.398   3.993   3.995
    1C        C  324   4.278   4.171   4.111
    1C        C  325   4.324   4.121   4.234
    1C        C  326   4.188   4.282   4.357
    1C        C  327   4.286   4.180   4.357
    1C        C  328   4.132   4.330   4.477
    1C        C  329   4.183   4.286   4.601
    1C        C  330   4.023   4.432   4.715
    1C        C  331   4.139   4.351   4.718
    1C        C  332   3.970   4.493   4.832
    1C        C  333   4.055   4.483   4.943
    1C        C  334   4.561   3.267   2.065
    1C        C  335   4.536   3.129   2.066
    1C        C  336   4.545   3.350   2.176
    1C        C  337   4.521   3.282   2.297
    1C        C  338   4.529   3.499   2.415
    1C        C  339   4.523   3.358   2.416
    1C        C  340   4.528   3.571   2.536
    1C        C  341   4.533   3.500   2.659
    1C        C  342   4.497   3.711   2.776
    1C        C  343   4.525   3.572   2.780
    1C        C  344   4.486   3.783   2.897
    1C        C  345   4.505   3.716   3.020
    1C        C  346   4.431   3.917   3.139
    1C        C  347   4.481   3.785   3.141
    1C        C  348   4.396   3.982   3.260
    1C        C  349   4.429   3.924   3.384
    1C        C  350   4.319   4.106   3.503
    1C        C  351   4.399   3.989   3.506
    1C        C  352   4.274   4.161   3.625
    1C        C  353   4.318   4.103   3.746
    1C        C  354   4.175   4.263   3.869
    1C        C  355   4.269   4.157   3.867
    1C        C  356   4.122   4.313   3.990
    1C        C  357   4.176   4.269   4.112
    1C        C  358   4.014   4.404   4.233
    1C        C  359   4.128   4.320   4.235
    1C        C  360   3.951   4.444   4.353
    1C        C  361   4.017   4.413   4.474
    1C        C  362   3.831   4.521   4.594
    1C        C  363   3.960   4.463   4.593
    1C        C  364   3.762   4.545   4.714
    1C        C  365   3.838   4.541   4.833
    1C        C  366   3.628   4.600   4.951
    1C        C  367   3.764   4.570   4.949
    1C        C  368   4.517   3.565   2.057
    1C        C  369   4.535   3.491   2.174
    1C        C  370   4.505   3.708   2.288
    1C        C  371   4.527   3.569   2.292
    1C        C  372   4.487   3.779   2.409
    1C        C  373   4.504   3.710   2.531
    1C        C  374   4.431   3.909   2.650
    1C        C  375   4.484   3.778   2.653
    1C        C  376   4.397   3.975   2.771
    1C        C  377   4.433   3.914   2.893
    1C        C  378   4.320   4.093   3.013
    1C        C  379   4.403   3.978   3.015
    1C        C  380   4.273   4.150   3.134
    1C        C  381   4.312   4.096   3.259
    1C        C  382   4.174   4.259   3.377
    1C        C  383   4.272   4.157   3.380
    1C        C  384   4.121   4.305   3.500
    1C        C  385   4.175   4.262   3.623
    1C        C  386   4.005   4.387   3.744
    1C        C  387   4.123   4.309   3.745
    1C        C  388   3.946   4.430   3.865
    1C        C  389   4.007   4.395   3.988
    1C        C  390   3.820   4.491   4.111
    1C        C  391   3.951   4.437   4.111
    1C        C  392   3.750   4.514   4.232
    1C        C  393   3.821   4.498   4.353
    1C        C  394   3.617   4.556   4.478
    1C        C  395   3.756   4.531   4.474
    1C        C  396   3.545   4.569   4.599
    1C        C  397   3.621   4.562   4.717
    1C        C  398   3.410   4.552   4.843
    1C        C  399   3.549   4.576   4.838
    1C        C  400   3.342   4.513   4.959
    1C        C  401   4.505   3.704   2.054
    1C        C  402   4.457   3.919   2.170
    1C        C  403   4.497   3.784   2.169
    1C        C  404   4.415   3.984   2.288
    1C        C  405   4.441   3.913   2.407
    1C        C  406   4.325   4.092   2.527
    1C        C  407   4.405   3.976   2.528
    1C        C  408   4.278   4.148   2.648
    1C        C  409   4.320   4.093   2.771
    1C        C  410   4.175   4.251   2.891
    1C        C  411   4.272   4.148   2.893
    1C        C  412   4.123   4.299   3.013
    1C        C  413   4.174   4.251   3.135
    1C        C  414   3.998   4.376   3.254
    1C        C  415   4.117   4.300   3.255
    1C        C  416   3.941   4.414   3.377
    1C        C  417   4.003   4.383   3.500
    1C        C  418   3.812   4.475   3.623
    1C        C  419   3.941   4.418   3.622
    1C        C  420   3.749   4.505   3.746
    1C        C  421   3.816   4.484   3.869
    1C        C  422   3.611   4.539   3.990
    1C        C  423   3.749   4.509   3.991
    1C        C  424   3.541   4.544   4.112
    1C        C  425   3.613   4.547   4.234
    1C        C  426   3.403   4.553   4.358
    1C        C  427   3.544   4.555   4.357
    1C        C  428   3.332   4.552   4.480
    1C        C  429   3.404   4.563   4.602
    1C        C  430   3.195   4.520   4.726
    1C        C  431   3.334   4.548   4.723
    1C        C  432   3.124   4.499   4.847
    1C        C  433   3.205   4.489   4.961
    1C        C  434   4.385   4.124   2.053
    1C        C  435   4.451   4.000   2.056
    1C        C  436   4.305   4.166   2.163
    1C        C  437   4.335   4.101   2.286
    1C        C  438   4.186   4.254   2.403
    1C        C  439   4.288   4.156   2.407
    1C        C  440   4.128   4.296   2.525
    1C        C  441   4.179   4.249   2.648
    1C        C  442   4.007   4.379   2.766
    1C        C  443   4.122   4.296   2.768
    1C        C  444   3.945   4.416   2.888
    1C        C  445   4.006   4.378   3.010
    1C        C  446   3.812   4.470   3.133
    1C        C  447   3.941   4.412   3.130
    1C        C  448   3.746   4.495   3.256
    1C        C  449   3.814   4.476   3.378
    1C        C  450   3.609   4.534   3.498
    1C        C  451   3.746   4.500   3.500
    1C        C  452   3.542   4.545   3.622
    1C        C  453   3.612   4.537   3.745
    1C        C  454   3.401   4.552   3.867
    1C        C  455   3.542   4.550   3.867
    1C        C  456   3.331   4.541   3.989
    1C        C  457   3.399   4.543   4.113
    1C        C  458   3.193   4.514   4.237
    1C        C  459   3.331   4.544   4.237
    1C        C  460   3.126   4.496   4.359
    1C        C  461   3.196   4.516   4.480
    1C        C  462   3.001   4.435   4.606
    1C        C  463   3.130   4.494   4.603
    1C        C  464   2.932   4.403   4.725
    1C        C  465   2.990   4.450   4.846
    1C        C  466   2.801   4.342   4.962
    1C        C  467   2.906   4.435   4.961
    1C        C  468   4.126   4.290   2.044
    1C        C  469   4.195   4.258   2.161
    1C        C  470   4.011   4.375   2.278
    1C        C  471   4.132   4.301   2.282
    1C        C  472   3.945   4.404   2.400
    1C        C  473   4.007   4.370   2.523
    1C        C  474   3.815   4.465   2.645
    1C        C  475   3.944   4.407   2.643
    1C        C  476   3.748   4.491   2.766
    1C        C  477   3.815   4.470   2.889
    1C        C  478   3.609   4.523   3.010
    1C        C  479   3.747   4.494   3.010
    1C        C  480   3.537   4.534   3.132
    1C        C  481   3.608   4.525   3.254
    1C        C  482   3.397   4.534   3.379
    1C        C  483   3.538   4.531   3.376
    1C        C  484   3.329   4.535   3.502
    1C        C  485   3.400   4.548   3.624
    1C        C  486   3.193   4.507   3.747
    1C        C  487   3.329   4.546   3.745
    1C        C  488   3.128   4.481   3.870
    1C        C  489   3.195   4.505   3.992
    1C        C  490   3.005   4.416   4.118
    1C        C  491   3.128   4.486   4.115
    1C        C  492   2.948   4.380   4.242
    1C        C  493   3.003   4.426   4.364
    1C        C  494   2.833   4.301   4.487
    1C        C  495   2.939   4.394   4.486
    1C        C  496   2.775   4.255   4.607
    1C        C  497   2.825   4.310   4.727
    1C        C  498   2.663   4.172   4.845
    1C        C  499   2.755   4.279   4.846
    1C        C  500   2.598   4.119   4.957
    1C        C  501   4.007   4.362   2.040
    1C        C  502   3.814   4.461   2.159
    1C        C  503   3.942   4.401   2.158
    1C        C  504   3.746   4.485   2.280
    1C        C  505   3.814   4.454   2.400
    1C        C  506   3.608   4.505   2.521
    1C        C  507   3.747   4.480   2.522
    1C        C  508   3.538   4.518   2.642
    1C        C  509   3.609   4.516   2.765
    1C        C  510   3.398   4.525   2.887
    1C        C  511   3.539   4.525   2.887
    1C        C  512   3.327   4.525   3.010
    1C        C  513   3.396   4.538   3.132
    1C        C  514   3.192   4.491   3.259
    1C        C  515   3.328   4.532   3.255
    1C        C  516   3.125   4.469   3.381
    1C        C  517   3.193   4.495   3.502
    1C        C  518   3.001   4.412   3.626
    1C        C  519   3.128   4.474   3.626
    1C        C  520   2.946   4.372   3.750
    1C        C  521   3.005   4.413   3.872
    1C        C  522   2.837   4.287   3.996
    1C        C  523   2.946   4.378   3.995
    1C        C  524   2.789   4.241   4.120
    1C        C  525   2.838   4.292   4.243
    1C        C  526   2.701   4.133   4.365
    1C        C  527   2.786   4.246   4.366
    1C        C  528   2.656   4.077   4.486
    1C        C  529   2.686   4.145   4.606
    1C        C  530   2.586   3.962   4.732
    1C        C  531   2.641   4.093   4.730
    1C        C  532   2.545   3.904   4.855
    1C        C  533   2.532   3.996   4.964
    1C        C  534   3.623   4.559   2.043
    1C        C  535   3.757   4.519   2.045
    1C        C  536   3.538   4.532   2.155
    1C        C  537   3.607   4.517   2.278
    1C        C  538   3.394   4.513   2.400
    1C        C  539   3.536   4.517   2.400
    1C        C  540   3.325   4.512   2.523
    1C        C  541   3.397   4.517   2.645
    1C        C  542   3.187   4.488   2.766
    1C        C  543   3.325   4.515   2.767
    1C        C  544   3.125   4.465   2.891
    1C        C  545   3.192   4.485   3.014
    1C        C  546   2.997   4.407   3.138
    1C        C  547   3.126   4.464   3.138
    1C        C  548   2.938   4.367   3.260
    1C        C  549   2.997   4.409   3.382
    1C        C  550   2.833   4.279   3.508
    1C        C  551   2.940   4.371   3.506
    1C        C  552   2.785   4.228   3.631
    1C        C  553   2.839   4.280   3.751
    1C        C  554   2.701   4.123   3.878
    1C        C  555   2.790   4.232   3.874
    1C        C  556   2.662   4.065   4.001
    1C        C  557   2.702   4.130   4.120
    1C        C  558   2.607   3.942   4.248
    1C        C  559   2.669   4.069   4.243
    1C        C  560   2.565   3.885   4.370
    1C        C  561   2.586   3.954   4.491
    1C        C  562   2.526   3.752   4.617
    1C        C  563   2.565   3.888   4.614
    1C        C  564   2.518   3.682   4.740
    1C        C  565   2.519   3.763   4.857
    1C        C  566   2.524   3.546   4.975
    1C        C  567   2.526   3.685   4.974
    1C        C  568   3.329   4.474   2.039
    1C        C  569   3.397   4.511   2.156
    1C        C  570   3.184   4.481   2.283
    1C        C  571   3.324   4.506   2.278
    1C        C  572   3.117   4.459   2.405
    1C        C  573   3.186   4.487   2.525
    1C        C  574   2.988   4.406   2.651
    1C        C  575   3.116   4.467   2.646
    1C        C  576   2.933   4.362   2.774
    1C        C  577   3.002   4.395   2.893
    1C        C  578   2.831   4.274   3.019
    1C        C  579   2.938   4.367   3.016
    1C        C  580   2.784   4.221   3.141
    1C        C  581   2.833   4.273   3.262
    1C        C  582   2.699   4.114   3.388
    1C        C  583   2.785   4.226   3.387
    1C        C  584   2.663   4.054   3.511
    1C        C  585   2.702   4.113   3.633
    1C        C  586   2.596   3.935   3.758
    1C        C  587   2.663   4.059   3.758
    1C        C  588   2.569   3.875   3.883
    1C        C  589   2.603   3.937   4.005
    1C        C  590   2.534   3.739   4.130
    1C        C  591   2.575   3.874   4.128
    1C        C  592   2.523   3.673   4.255
    1C        C  593   2.529   3.748   4.374
    1C        C  594   2.511   3.539   4.499
    1C        C  595   2.514   3.680   4.497
    1C        C  596   2.519   3.465   4.619
    1C        C  597   2.523   3.540   4.739
    1C        C  598   2.538   3.327   4.865
    1C        C  599   2.529   3.467   4.859
    1C        C  600   2.532   3.248   4.981
    1C        C  601   3.197   4.435   2.045
    1C        C  602   2.985   4.400   2.164
    1C        C  603   3.120   4.446   2.161
    1C        C  604   2.925   4.361   2.287
    1C        C  605   2.989   4.399   2.406
    1C        C  606   2.821   4.273   2.532
    1C        C  607   2.933   4.359   2.530
    1C        C  608   2.774   4.221   2.655
    1C        C  609   2.824   4.272   2.776
    1C        C  610   2.686   4.114   2.898
    1C        C  611   2.775   4.225   2.899
    1C        C  612   2.652   4.053   3.021
    1C        C  613   2.692   4.114   3.142
    1C        C  614   2.594   3.930   3.268
    1C        C  615   2.659   4.055   3.266
    1C        C  616   2.566   3.867   3.391
    1C        C  617   2.599   3.928   3.514
    1C        C  618   2.529   3.730   3.642
    1C        C  619   2.573   3.864   3.638
    1C        C  620   2.518   3.663   3.767
    1C        C  621   2.528   3.740   3.885
    1C        C  622   2.508   3.530   4.011
    1C        C  623   2.517   3.670   4.008
    1C        C  624   2.511   3.459   4.133
    1C        C  625   2.513   3.532   4.254
    1C        C  626   2.539   3.327   4.379
    1C        C  627   2.511   3.465   4.379
    1C        C  628   2.562   3.259   4.501
    1C        C  629   2.541   3.325   4.623
    1C        C  630   2.594   3.118   4.745
    1C        C  631   2.553   3.254   4.745
    1C        C  632   2.619   3.050   4.868
    1C        C  633   2.563   3.112   4.984
    1C        C  634   2.784   4.310   2.058
    1C        C  635   2.892   4.399   2.054
    1C        C  636   2.748   4.234   2.170
    1C        C  637   2.810   4.277   2.289
    1C        C  638   2.682   4.109   2.410
    1C        C  639   2.768   4.221   2.412
    1C        C  640   2.647   4.049   2.533
    1C        C  641   2.688   4.108   2.654
    1C        C  642   2.584   3.927   2.779
    1C        C  643   2.643   4.055   2.777
    1C        C  644   2.567   3.859   2.902
    1C        C  645   2.591   3.926   3.024
    1C        C  646   2.522   3.727   3.150
    1C        C  647   2.563   3.863   3.147
    1C        C  648   2.512   3.660   3.274
    1C        C  649   2.525   3.732   3.394
    1C        C  650   2.508   3.524   3.520
    1C        C  651   2.512   3.665   3.518
    1C        C  652   2.518   3.454   3.643
    1C        C  653   2.513   3.522   3.766
    1C        C  654   2.533   3.316   3.892
    1C        C  655   2.510   3.456   3.891
    1C        C  656   2.551   3.250   4.015
    1C        C  657   2.535   3.319   4.137
    1C        C  658   2.613   3.123   4.262
    1C        C  659   2.560   3.254   4.260
    1C        C  660   2.640   3.059   4.385
    1C        C  661   2.608   3.125   4.506
    1C        C  662   2.715   2.939   4.629
    1C        C  663   2.633   3.054   4.625
    1C        C  664   2.749   2.875   4.750
    1C        C  665   2.699   2.931   4.870
    1C        C  666   2.745   2.869   4.987
    1C        C  667   2.696   4.020   2.061
    1C        C  668   2.689   4.106   2.172
    1C        C  669   2.585   3.915   2.293
    1C        C  670   2.645   4.044   2.291
    1C        C  671   2.559   3.852   2.417
    1C        C  672   2.579   3.924   2.536
    1C        C  673   2.524   3.721   2.663
    1C        C  674   2.554   3.859   2.659
    1C        C  675   2.508   3.652   2.785
    1C        C  676   2.528   3.724   2.905
    1C        C  677   2.512   3.515   3.032
    1C        C  678   2.513   3.657   3.028
    1C        C  679   2.514   3.445   3.155
    1C        C  680   2.507   3.518   3.276
    1C        C  681   2.537   3.312   3.402
    1C        C  682   2.508   3.451   3.400
    1C        C  683   2.556   3.246   3.525
    1C        C  684   2.534   3.314   3.647
    1C        C  685   2.606   3.116   3.773
    1C        C  686   2.551   3.246   3.770
    1C        C  687   2.644   3.058   3.896
    1C        C  688   2.614   3.123   4.019
    1C        C  689   2.723   2.940   4.141
    1C        C  690   2.648   3.060   4.141
    1C        C  691   2.764   2.886   4.265
    1C        C  692   2.717   2.941   4.386
    1C        C  693   2.762   2.884   4.508
    1C        C  694   2.634   3.895   2.060
    1C        C  695   2.525   3.707   2.177
    1C        C  696   2.574   3.840   2.174
    1C        C  697   2.500   3.642   2.300
    1C        C  698   2.516   3.717   2.418
    1C        C  699   2.496   3.509   2.544
    1C        C  700   2.507   3.650   2.542
    1C        C  701   2.502   3.440   2.667
    1C        C  702   2.499   3.511   2.789
    1C        C  703   2.530   3.302   2.913
    1C        C  704   2.507   3.442   2.912
    1C        C  705   2.549   3.234   3.035
    1C        C  706   2.533   3.305   3.156
    1C        C  707   2.601   3.110   3.281
    1C        C  708   2.550   3.241   3.280
    1C        C  709   2.634   3.051   3.405
    1C        C  710   2.605   3.114   3.528
    1C        C  711   2.714   2.933   3.651
    1C        C  712   2.637   3.052   3.651
    1C        C  713   2.757   2.879   3.774
    1C        C  714   2.718   2.938   3.896
    1C        C  715   2.756   2.878   4.019
    1C        C  716   2.454   3.502   2.064
    1C        C  717   2.497   3.635   2.060
    1C        C  718   2.461   3.424   2.184
    1C        C  719   2.480   3.502   2.302
    1C        C  720   2.521   3.294   2.426
    1C        C  721   2.495   3.433   2.425
    1C        C  722   2.545   3.228   2.549
    1C        C  723   2.528   3.301   2.668
    1C        C  724   2.598   3.102   2.792
    1C        C  725   2.544   3.233   2.791
    1C        C  726   2.633   3.041   2.914
    1C        C  727   2.605   3.104   3.038
    1C        C  728   2.719   2.929   3.163
    1C        C  729   2.637   3.044   3.161
    1C        C  730   2.763   2.879   3.288
    1C        C  731   2.722   2.939   3.409
    1C        C  732   2.764   2.881   3.530
    1C        C  733   2.487   3.198   2.075
    1C        C  734   2.489   3.284   2.185
    1C        C  735   2.584   3.090   2.307
    1C        C  736   2.526   3.220   2.306
    1C        C  737   2.619   3.025   2.427
    1C        C  738   2.594   3.096   2.547
    1C        C  739   2.703   2.917   2.671
    1C        C  740   2.626   3.035   2.670
    1C        C  741   2.744   2.860   2.794
    1C        C  742   2.705   2.920   2.916
    1C        C  743   2.755   2.871   3.039
    1C        C  744   2.551   3.074   2.075
    1C        C  745   2.692   2.902   2.186
    1C        C  746   2.613   3.019   2.188
    1C        C  747   2.740   2.850   2.308
    1C        C  748   2.696   2.907   2.429
    1C        C  749   2.746   2.856   2.551
    1C        C  750   2.740   2.837   2.072
    1C        C  751   3.657   2.301   2.002
    1C        O  752   3.677   2.195   2.067
    1C        O  753   3.669   2.299   1.862
    1C        C  754   4.616   3.048   1.972
    1C        O  755   4.584   3.026   1.852
    1C        O  756   4.725   2.977   2.023
    1C        C  757   4.458   4.220   1.967
    1C        O  758   4.560   4.281   2.009
    1C        O  759   4.438   4.238   1.830
    1C        C  760   3.597   4.675   1.955
    1C        O  761   3.679   4.764   1.920
    1C        O  762   3.522   4.647   1.840
    1C        C  763   2.883   4.527   1.980
    1C        O  764   2.889   4.535   1.855
    1C        O  765   2.817   4.633   2.043
    1C        C  766   2.350   3.478   1.961
    1C        O  767   2.374   3.449   1.842
    1C        O  768   2.216   3.517   1.977
    1C        C  769   4.700   3.594   5.054
    1C        O  770   4.693   3.593   5.180
    1C        O  771   4.831   3.600   5.007
    1C        C  772   4.269   4.441   5.053
    1C        O  773   4.266   4.405   5.174
    1C        O  774   4.340   4.562   5.041
    1C        C  775   4.154   2.508   5.055
    1C        O  776   4.244   2.449   4.990
    1C        O  777   4.169   2.507   5.194
    1C        C  778   2.883   4.546   5.057
    1C        O  779   2.774   4.608   5.045
    1C        O  780   2.916   4.520   5.190
    1C        C  781   2.463   3.031   5.058
    1C        O  782   2.354   2.989   5.011
    1C        O  783   2.453   3.031   5.197
    1C        C  784   2.424   3.978   5.064
    1C        O  785   2.302   3.988   5.035
    1C        O  786   2.449   3.936   5.195
    1C        C  787   2.947   2.443   1.996
    1C        O  788   2.898   2.488   1.889
    1C        O  789   2.916   2.312   2.030
    1C        C  790   3.189   2.376   5.069
    1C        O  791   3.111   2.278   5.050
    1C        O  792   3.277   2.364   5.177
    1C        H  793   4.256   3.037   5.044
    1C        H  794   4.210   2.793   5.071
    1C        H  795   4.478   3.142   5.069
    1C        H  796   4.479   3.383   5.057
    1C        H  797   4.562   3.817   5.046
    1C        H  798   4.355   3.942   5.036
    1C        H  799   4.252   4.142   5.042
    1C        H  800   4.040   4.552   5.024
    1C        H  801   3.823   4.593   5.035
    1C        H  802   3.587   4.652   5.035
    1C        H  803   3.402   4.467   5.035
    1C        H  804   3.161   4.464   5.055
    1C        H  805   3.893   2.499   5.074
    1C        H  806   3.668   2.503   5.081
    1C        H  807   2.997   2.539   5.059
    1C        H  808   3.440   2.499   5.082
    1C        H  809   2.909   2.765   5.076
    1C        H  810   2.688   2.879   5.077
    1C        H  811   2.543   3.295   5.077
    1C        H  812   2.521   3.507   5.075
    1C        H  813   2.496   3.729   5.066
    1C        H  814   2.587   4.182   5.044
    1C        H  815   2.766   4.314   5.059
    1C        H  816   2.769   2.909   1.998
    1C        H  817   2.802   2.658   1.997
    1C        H  818   3.200   2.412   1.996
    1C        H  819   3.432   2.471   1.979
    1C        H  820   3.861   2.495   1.978
    1C        H  821   4.035   2.667   1.981
    1C        H  822   4.250   2.718   1.976
    1C        H  823   4.389   2.913   1.966
    1C        H  824   4.627   3.306   1.990
    1C        H  825   4.556   3.525   1.966
    1C        H  826   4.502   3.755   1.960
    1C        H  827   3.825   4.565   1.976
    1C        H  828   3.941   4.337   1.960
    1C        H  829   4.166   4.258   1.949
    1C        H  830   4.478   3.955   1.962
    1C        H  831   2.672   3.827   1.986
    1C        H  832   2.777   4.035   1.993
    1C        H  833   2.730   4.299   1.967
    1C        H  834   3.385   4.451   1.951
    1C        H  835   3.162   4.385   1.957
    1C        H  836   2.559   3.030   1.978
    1C        H  837   2.430   3.222   1.987
    1C        H  838   2.443   3.693   1.987
    2V3OU   H29  839   2.803   3.547   5.907
    2V3OU   C27  840   2.785   3.504   6.009
    2V3OU   H27  841   2.729   3.569   6.080
    2V3OU   H28  842   2.725   3.410   6.000
    2V3OU   O11  843   2.910   3.474   6.073
    2V3OU   C15  844   2.921   3.397   6.187
    2V3OU   C13  845   3.052   3.376   6.233
    2V3OU   C14  846   3.079   3.267   6.316
    2V3OU   C16  847   2.970   3.189   6.353
    2V3OU    H6  848   2.988   3.108   6.425
    2V3OU   C12  849   3.217   3.233   6.358
    2V3OU    O2  850   3.240   3.124   6.415
    2V3OU   C10  851   3.330   3.312   6.307
    2V3OU    C8  852   3.462   3.275   6.327
    2V3OU   O10  853   3.494   3.156   6.384
    2V3OU   H26  854   3.410   3.109   6.401
    2V3OU    C6  855   3.565   3.352   6.264
    2V3OU    C5  856   3.534   3.468   6.194
    2V3OU    C4  857   3.702   3.293   6.261
    2V3OU    H4  858   3.721   3.226   6.351
    2V3OU    H5  859   3.715   3.226   6.171
    2V3OU    C2  860   3.818   3.393   6.266
    2V3OU    O6  861   3.811   3.471   6.386
    2V3OU   H21  862   3.767   3.550   6.351
    2V3OU    C3  863   3.784   3.494   6.156
    2V3OU    H2  864   3.863   3.572   6.154
    2V3OU    H3  865   3.788   3.443   6.056
    2V3OU   C25  866   3.956   3.328   6.255
    2V3OU    O7  867   4.009   3.287   6.152
    2V3OU   C26  868   4.031   3.293   6.383
    2V3OU   H22  869   4.066   3.386   6.434
    2V3OU   H23  870   4.124   3.237   6.357
    2V3OU    O8  871   3.964   3.214   6.478
    2V3OU   H24  872   3.921   3.268   6.546
    2V3OU    C1  873   3.649   3.562   6.171
    2V3OU    H1  874   3.628   3.618   6.076
    2V3OU    O3  875   3.659   3.655   6.280
    2V3OU   C19  876   3.622   3.793   6.274
    2V3OU    H9  877   3.526   3.809   6.216
    2V3OU    O4  878   3.721   3.850   6.192
    2V3OU   C20  879   3.850   3.872   6.250
    2V3OU   H10  880   3.905   3.774   6.266
    2V3OU   C24  881   3.609   3.854   6.413
    2V3OU   H16  882   3.552   3.789   6.484
    2V3OU   H17  883   3.565   3.956   6.404
    2V3OU   C23  884   3.749   3.876   6.472
    2V3OU   H15  885   3.793   3.774   6.497
    2V3OU    N1  886   3.734   3.953   6.593
    2V3OU   H19  887   3.806   3.928   6.658
    2V3OU   H20  888   3.650   3.928   6.640
    2V3OU   C21  889   3.850   3.952   6.381
    2V3OU   H11  890   3.954   3.933   6.422
    2V3OU    O5  891   3.831   4.092   6.393
    2V3OU   H18  892   3.783   4.105   6.476
    2V3OU   C22  893   3.916   3.953   6.141
    2V3OU   H12  894   3.863   4.050   6.125
    2V3OU   H13  895   3.912   3.896   6.045
    2V3OU   H14  896   4.027   3.959   6.158
    2V3OU   C11  897   3.161   3.470   6.206
    2V3OU    O1  898   3.133   3.580   6.153
    2V3OU    C9  899   3.301   3.430   6.232
    2V3OU    C7  900   3.399   3.514   6.181
    2V3OU    O9  901   3.385   3.628   6.105
    2V3OU   H25  902   3.288   3.637   6.116
    2V3OU   C17  903   2.813   3.315   6.227
    2V3OU    H7  904   2.711   3.351   6.225
    2V3OU   C18  905   2.838   3.208   6.312
    2V3OU    H8  906   2.754   3.149   6.353
    3SOL     OW  907   2.955   3.236   3.922
    3SOL    HW1  908   2.935   3.325   3.883
    3SOL    HW2  909   2.920   3.231   4.015
    4SOL     OW  910   6.827   6.049   0.995
    4SOL    HW1  911   6.835   6.133   1.048
    4SOL    HW2  912   6.762   6.063   0.920
    5SOL     OW  913   3.992   2.727   0.537
    5SOL    HW1  914   4.018   2.631   0.524
    5SOL    HW2  915   4.069   2.785   0.512
    6SOL     OW  916   4.303   1.437   1.869
    6SOL    HW1  917   4.382   1.493   1.847
    6SOL    HW2  918   4.235   1.443   1.796
    7SOL     OW  919   2.251   2.862   4.666
    7SOL    HW1  920   2.231   2.946   4.718
    7SOL    HW2  921   2.310   2.803   4.720
    8SOL     OW  922   1.302   2.402   5.580
    8SOL    HW1  923   1.266   2.492   5.606
    8SOL    HW2  924   1.243   2.331   5.618
    9SOL     OW  925   1.532   2.054   5.842
    9SOL    HW1  926   1.630   2.044   5.823
    9SOL    HW2  927   1.513   2.149   5.865
   10SOL     OW  928   5.592   5.115   1.569
   10SOL    HW1  929   5.518   5.063   1.527
   10SOL    HW2  930   5.580   5.116   1.668
   11SOL     OW  931   3.030   2.078   0.584
   11SOL    HW1  932   3.060   1.984   0.598
   11SOL    HW2  933   2.966   2.082   0.508
   12SOL     OW  934   4.968   5.074   1.931
   12SOL    HW1  935   4.881   5.024   1.930
   12SOL    HW2  936   5.026   5.039   2.005
   13SOL     OW  937   5.170   6.326   1.866
   13SOL    HW1  938   5.117   6.402   1.828
   13SOL    HW2  939   5.128   6.293   1.950
   14SOL     OW  940   4.397   6.520   6.994
   14SOL    HW1  941   4.396   6.610   6.951
   14SOL    HW2  942   4.480   6.510   0.022
   15SOL     OW  943   0.750   5.678   6.414
   15SOL    HW1  944   0.822   5.669   6.482
   15SOL    HW2  945   0.665   5.640   6.450
   16SOL     OW  946   2.143   6.022   4.679
   16SOL    HW1  947   2.140   6.037   4.580
   16SOL    HW2  948   2.052   5.994   4.711
   17SOL     OW  949   7.024   1.172   4.815
   17SOL    HW1  950   0.009   1.248   4.751
   17SOL    HW2  951   6.968   1.202   4.893
   18SOL     OW  952   2.854   0.820   5.620
   18SOL    HW1  953   2.935   0.877   5.607
   18SOL    HW2  954   2.878   0.724   5.607
   19SOL     OW  955   3.013   6.247   2.518
   19SOL    HW1  956   2.933   6.192   2.543
   19SOL    HW2  957   3.091   6.220   2.573
   20SOL     OW  958   6.980   1.689   6.004
   20SOL    HW1  959   0.027   1.714   6.066
   20SOL    HW2  960   6.939   1.772   5.966
   21SOL     OW  961   2.144   3.969   2.512
   21SOL    HW1  962   2.105   4.032   2.445
   21SOL    HW2  963   2.187   4.020   2.586
   22SOL     OW  964   0.844   1.115   0.302
   22SOL    HW1  965   0.749   1.099   0.279
   22SOL    HW2  966   0.899   1.117   0.218
   23SOL     OW  967   6.818   5.148   0.844
   23SOL    HW1  968   6.742   5.148   0.779
   23SOL    HW2  969   6.891   5.088   0.810
   24SOL     OW  970   5.105   1.559   0.152
   24SOL    HW1  971   5.116   1.462   0.173
   24SOL    HW2  972   5.120   1.574   0.054
   25SOL     OW  973   1.725   0.958   4.482
   25SOL    HW1  974   1.641   0.988   4.528
   25SOL    HW2  975   1.701   0.916   4.394
   26SOL     OW  976   1.795   0.733   6.307
   26SOL    HW1  977   1.846   0.818   6.311
   26SOL    HW2  978   1.706   0.744   6.351
   27SOL     OW  979   0.060   0.127   2.480
   27SOL    HW1  980   0.096   0.061   2.547
   27SOL    HW2  981   7.014   0.180   2.521
   28SOL     OW  982   1.283   0.850   5.591
   28SOL    HW1  983   1.214   0.865   5.519
   28SOL    HW2  984   1.373   0.872   5.555
   29SOL     OW  985   5.664   0.653   1.619
   29SOL    HW1  986   5.621   0.574   1.576
   29SOL    HW2  987   5.639   0.736   1.570
   30SOL     OW  988   4.590   0.183   5.060
   30SOL    HW1  989   4.521   0.229   5.117
   30SOL    HW2  990   4.638   0.115   5.115
   31SOL     OW  991   6.708   4.676   4.070
   31SOL    HW1  992   6.697   4.633   4.160
   31SOL    HW2  993   6.634   4.741   4.055
   32SOL     OW  994   2.511   1.014   0.974
   32SOL    HW1  995   2.495   1.021   1.072
   32SOL    HW2  996   2.609   1.008   0.957
   33SOL     OW  997   2.372   5.096   5.611
   33SOL    HW1  998   2.454   5.044   5.635
   33SOL    HW2  999   2.386   5.139   5.522
   34SOL     OW 1000   2.195   6.042   5.482
   34SOL    HW1 1001   2.135   6.028   5.403
   34SOL    HW2 1002   2.235   6.134   5.478
   35SOL     OW 1003   1.553   3.648   5.383
   35SOL    HW1 1004   1.556   3.575   5.452
   35SOL    HW2 1005   1.582   3.734   5.425
   36SOL     OW 1006   6.088   1.139   3.849
   36SOL    HW1 1007   6.068   1.219   3.905
   36SOL    HW2 1008   6.136   1.071   3.904
   37SOL     OW 1009   2.209   6.660   4.403
   37SOL    HW1 1010   2.122   6.709   4.404
   37SOL    HW2 1011   2.281   6.719   4.367
   38SOL     OW 1012   0.954   4.062   2.392
   38SOL    HW1 1013   1.010   3.995   2.440
   38SOL    HW2 1014   0.917   4.021   2.309
   39SOL     OW 1015   6.596   5.053   1.194
   39SOL    HW1 1016   6.684   5.009   1.214
   39SOL    HW2 1017   6.600   5.150   1.220
   40SOL     OW 1018   3.655   0.862   6.518
   40SOL    HW1 1019   3.647   0.844   6.420
   40SOL    HW2 1020   3.592   0.803   6.568
   41SOL     OW 1021   5.080   3.458   1.623
   41SOL    HW1 1022   5.078   3.370   1.671
   41SOL    HW2 1023   5.015   3.521   1.666
   42SOL     OW 1024   2.908   3.409   6.555
   42SOL    HW1 1025   2.853   3.356   6.492
   42SOL    HW2 1026   2.893   3.507   6.539
   43SOL     OW 1027   5.241   7.003   4.903
   43SOL    HW1 1028   5.149   7.022   4.936
   43SOL    HW2 1029   5.291   0.062   4.890
   44SOL     OW 1030   6.319   1.215   5.930
   44SOL    HW1 1031   6.226   1.193   5.961
   44SOL    HW2 1032   6.316   1.298   5.875
   45SOL     OW 1033   2.836   4.327   5.862
   45SOL    HW1 1034   2.770   4.260   5.895
   45SOL    HW2 1035   2.813   4.352   5.768
   46SOL     OW 1036   0.945   4.482   4.982
   46SOL    HW1 1037   0.882   4.530   5.043
   46SOL    HW2 1038   0.904   4.471   4.892
   47SOL     OW 1039   6.313   3.919   0.137
   47SOL    HW1 1040   6.362   3.922   0.224
   47SOL    HW2 1041   6.222   3.958   0.149
   48SOL     OW 1042   0.075   4.319   0.695
   48SOL    HW1 1043   7.016   4.292   0.651
   48SOL    HW2 1044   0.069   4.415   0.723
   49SOL     OW 1045   2.909   2.458   6.724
   49SOL    HW1 1046   2.930   2.553   6.746
   49SOL    HW2 1047   2.819   2.434   6.760
   50SOL     OW 1048   5.330   2.062   0.041
   50SOL    HW1 1049   5.263   2.008   7.017
   50SOL    HW2 1050   5.340   2.024   0.133
   51SOL     OW 1051   0.937   6.281   1.956
   51SOL    HW1 1052   0.863   6.233   2.003
   51SOL    HW2 1053   1.023   6.231   1.970
   52SOL     OW 1054   5.672   2.069   2.136
   52SOL    HW1 1055   5.688   1.975   2.165
   52SOL    HW2 1056   5.637   2.122   2.213
   53SOL     OW 1057   4.690   0.856   0.646
   53SOL    HW1 1058   4.631   0.917   0.699
   53SOL    HW2 1059   4.651   0.843   0.555
   54SOL     OW 1060   6.248   0.310   6.813
   54SOL    HW1 1061   6.227   0.212   6.814
   54SOL    HW2 1062   6.190   0.356   6.746
   55SOL     OW 1063   1.553   3.929   5.932
   55SOL    HW1 1064   1.619   3.915   6.006
   55SOL    HW2 1065   1.598   3.975   5.855
   56SOL     OW 1066   0.476   2.237   6.722
   56SOL    HW1 1067   0.453   2.142   6.699
   56SOL    HW2 1068   0.535   2.239   6.802
   57SOL     OW 1069   4.039   5.890   1.165
   57SOL    HW1 1070   4.092   5.906   1.082
   57SOL    HW2 1071   4.043   5.971   1.223
   58SOL     OW 1072   1.041   0.340   6.469
   58SOL    HW1 1073   0.993   0.321   6.555
   58SOL    HW2 1074   1.003   0.423   6.428
   59SOL     OW 1075   4.086   2.975   6.610
   59SOL    HW1 1076   4.171   2.927   6.629
   59SOL    HW2 1077   4.103   3.074   6.607
   60SOL     OW 1078   6.770   3.398   2.756
   60SOL    HW1 1079   6.806   3.486   2.790
   60SOL    HW2 1080   6.717   3.354   2.827
   61SOL     OW 1081   1.452   5.870   3.137
   61SOL    HW1 1082   1.366   5.904   3.101
   61SOL    HW2 1083   1.508   5.833   3.063
   62SOL     OW 1084   5.846   2.569   3.424
   62SOL    HW1 1085   5.851   2.555   3.523
   62SOL    HW2 1086   5.760   2.614   3.402
   63SOL     OW 1087   3.923   6.892   5.944
   63SOL    HW1 1088   3.969   6.849   6.021
   63SOL    HW2 1089   3.968   6.978   5.921
   64SOL     OW 1090   1.402   2.299   6.003
   64SOL    HW1 1091   1.455   2.377   6.038
   64SOL    HW2 1092   1.418   2.219   6.060
   65SOL     OW 1093   1.520   5.082   4.901
   65SOL    HW1 1094   1.605   5.131   4.919
   65SOL    HW2 1095   1.480   5.115   4.816
   66SOL     OW 1096   4.518   1.116   1.449
   66SOL    HW1 1097   4.595   1.076   1.499
   66SOL    HW2 1098   4.503   1.209   1.480
   67SOL     OW 1099   0.347   3.619   1.299
   67SOL    HW1 1100   0.268   3.633   1.239
   67SOL    HW2 1101   0.357   3.697   1.360
   68SOL     OW 1102   0.608   0.795   6.460
   68SOL    HW1 1103   0.678   0.854   6.420
   68SOL    HW2 1104   0.595   0.715   6.401
   69SOL     OW 1105   1.421   6.536   0.301
   69SOL    HW1 1106   1.511   6.573   0.323
   69SOL    HW2 1107   1.432   6.459   0.238
   70SOL     OW 1108   4.922   4.693   3.494
   70SOL    HW1 1109   4.898   4.787   3.468
   70SOL    HW2 1110   4.994   4.659   3.434
   71SOL     OW 1111   5.163   1.312   5.444
   71SOL    HW1 1112   5.151   1.304   5.345
   71SOL    HW2 1113   5.074   1.306   5.489
   72SOL     OW 1114   0.380   0.653   2.027
   72SOL    HW1 1115   0.289   0.615   2.042
   72SOL    HW2 1116   0.448   0.600   2.078
   73SOL     OW 1117   2.270   1.024   0.846
   73SOL    HW1 1118   2.279   0.988   0.753
   73SOL    HW2 1119   2.358   1.020   0.892
   74SOL     OW 1120   2.617   1.332   0.031
   74SOL    HW1 1121   2.670   1.414   0.009
   74SOL    HW2 1122   2.636   1.305   0.125
   75SOL     OW 1123   2.294   2.523   0.808
   75SOL    HW1 1124   2.322   2.529   0.712
   75SOL    HW2 1125   2.230   2.447   0.820
   76SOL     OW 1126   3.943   4.917   5.625
   76SOL    HW1 1127   3.953   4.975   5.544
   76SOL    HW2 1128   3.885   4.964   5.693
   77SOL     OW 1129   0.355   5.258   4.568
   77SOL    HW1 1130   0.418   5.303   4.631
   77SOL    HW2 1131   0.300   5.328   4.521
   78SOL     OW 1132   5.714   1.807   1.528
   78SOL    HW1 1133   5.732   1.900   1.496
   78SOL    HW2 1134   5.762   1.741   1.468
   79SOL     OW 1135   1.412   4.004   4.331
   79SOL    HW1 1136   1.330   4.021   4.385
   79SOL    HW2 1137   1.494   4.017   4.388
   80SOL     OW 1138   3.676   2.134   5.019
   80SOL    HW1 1139   3.649   2.218   4.972
   80SOL    HW2 1140   3.732   2.078   4.958
   81SOL     OW 1141   3.400   5.279   2.299
   81SOL    HW1 1142   3.351   5.362   2.274
   81SOL    HW2 1143   3.343   5.222   2.358
   82SOL     OW 1144   3.170   0.478   2.346
   82SOL    HW1 1145   3.229   0.550   2.308
   82SOL    HW2 1146   3.160   0.492   2.445
   83SOL     OW 1147   5.702   0.688   4.738
   83SOL    HW1 1148   5.699   0.738   4.825
   83SOL    HW2 1149   5.636   0.613   4.740
   84SOL     OW 1150   5.916   2.664   3.044
   84SOL    HW1 1151   5.830   2.616   3.062
   84SOL    HW2 1152   5.965   2.677   3.131
   85SOL     OW 1153   2.201   5.977   3.297
   85SOL    HW1 1154   2.256   5.937   3.370
   85SOL    HW2 1155   2.248   6.057   3.260
   86SOL     OW 1156   4.777   0.585   0.677
   86SOL    HW1 1157   4.734   0.672   0.699
   86SOL    HW2 1158   4.802   0.584   0.580
   87SOL     OW 1159   2.777   2.997   6.658
   87SOL    HW1 1160   2.807   2.955   6.744
   87SOL    HW2 1161   2.793   2.933   6.583
   88SOL     OW 1162   2.185   2.660   1.759
   88SOL    HW1 1163   2.160   2.645   1.663
   88SOL    HW2 1164   2.282   2.683   1.765
   89SOL     OW 1165   3.321   3.627   5.322
   89SOL    HW1 1166   3.351   3.716   5.288
   89SOL    HW2 1167   3.361   3.554   5.267
   90SOL     OW 1168   6.796   4.545   1.736
   90SOL    HW1 1169   6.714   4.524   1.683
   90SOL    HW2 1170   6.861   4.470   1.728
   91SOL     OW 1171   4.523   6.218   0.714
   91SOL    HW1 1172   4.499   6.307   0.675
   91SOL    HW2 1173   4.588   6.172   0.654
   92SOL     OW 1174   5.830   5.244   0.125
   92SOL    HW1 1175   5.764   5.222   0.052
   92SOL    HW2 1176   5.822   5.176   0.198
   93SOL     OW 1177   2.827   3.911   1.749
   93SOL    HW1 1178   2.898   3.961   1.799
   93SOL    HW2 1179   2.848   3.814   1.750
   94SOL     OW 1180   2.990   1.596   4.073
   94SOL    HW1 1181   3.073   1.622   4.024
   94SOL    HW2 1182   3.012   1.526   4.140
   95SOL     OW 1183   0.777   6.862   3.786
   95SOL    HW1 1184   0.721   6.927   3.735
   95SOL    HW2 1185   0.838   6.911   3.848
   96SOL     OW 1186   0.339   5.669   6.675
   96SOL    HW1 1187   0.431   5.701   6.651
   96SOL    HW2 1188   0.339   5.570   6.684
   97SOL     OW 1189   3.612   4.396   5.255
   97SOL    HW1 1190   3.561   4.310   5.252
   97SOL    HW2 1191   3.560   4.463   5.307
   98SOL     OW 1192   0.471   2.897   4.653
   98SOL    HW1 1193   0.473   2.997   4.651
   98SOL    HW2 1194   0.384   2.866   4.692
   99SOL     OW 1195   4.361   4.785   5.285
   99SOL    HW1 1196   4.351   4.846   5.363
   99SOL    HW2 1197   4.271   4.766   5.246
  100SOL     OW 1198   1.651   0.570   5.358
  100SOL    HW1 1199   1.687   0.521   5.278
  100SOL    HW2 1200   1.552   0.583   5.346
  101SOL     OW 1201   5.385   3.474   2.377
  101SOL    HW1 1202   5.431   3.460   2.464
  101SOL    HW2 1203   5.348   3.386   2.345
  102SOL     OW 1204   3.747   0.400   6.666
  102SOL    HW1 1205   3.762   0.444   6.755
  102SOL    HW2 1206   3.779   0.460   6.593
  103SOL     OW 1207   1.144   1.566   1.610
  103SOL    HW1 1208   1.211   1.495   1.631
  103SOL    HW2 1209   1.053   1.536   1.638
  104SOL     OW 1210   6.582   4.777   1.514
  104SOL    HW1 1211   6.569   4.695   1.570
  104SOL    HW2 1212   6.580   4.858   1.573
  105SOL     OW 1213   0.156   0.626   5.198
  105SOL    HW1 1214   0.203   0.677   5.126
  105SOL    HW2 1215   0.100   0.554   5.158
  106SOL     OW 1216   4.356   2.916   1.746
  106SOL    HW1 1217   4.302   3.001   1.745
  106SOL    HW2 1218   4.446   2.934   1.785
  107SOL     OW 1219   4.951   6.828   2.094
  107SOL    HW1 1220   4.864   6.878   2.098
  107SOL    HW2 1221   4.949   6.753   2.160
  108SOL     OW 1222   3.537   1.725   4.762
  108SOL    HW1 1223   3.482   1.807   4.782
  108SOL    HW2 1224   3.560   1.725   4.664
  109SOL     OW 1225   2.249   1.070   5.621
  109SOL    HW1 1226   2.195   1.014   5.684
  109SOL    HW2 1227   2.333   1.021   5.596
  110SOL     OW 1228   4.220   4.495   5.632
  110SOL    HW1 1229   4.165   4.550   5.570
  110SOL    HW2 1230   4.162   4.456   5.703
  111SOL     OW 1231   6.207   3.413   1.927
  111SOL    HW1 1232   6.285   3.396   1.866
  111SOL    HW2 1233   6.164   3.500   1.903
  112SOL     OW 1234   4.636   6.907   4.862
  112SOL    HW1 1235   4.634   6.984   4.798
  112SOL    HW2 1236   4.570   6.923   4.935
  113SOL     OW 1237   0.698   5.138   2.647
  113SOL    HW1 1238   0.716   5.141   2.549
  113SOL    HW2 1239   0.784   5.141   2.697
  114SOL     OW 1240   6.917   2.175   1.929
  114SOL    HW1 1241   6.982   2.100   1.917
  114SOL    HW2 1242   6.824   2.138   1.931
  115SOL     OW 1243   4.186   1.091   2.686
  115SOL    HW1 1244   4.252   1.161   2.715
  115SOL    HW2 1245   4.139   1.122   2.603
  116SOL     OW 1246   6.616   5.325   1.238
  116SOL    HW1 1247   6.695   5.353   1.184
  116SOL    HW2 1248   6.638   5.330   1.336
  117SOL     OW 1249   2.985   1.762   0.690
  117SOL    HW1 1250   3.082   1.757   0.667
  117SOL    HW2 1251   2.970   1.830   0.762
  118SOL     OW 1252   7.012   2.616   2.250
  118SOL    HW1 1253   6.964   2.704   2.249
  118SOL    HW2 1254   6.947   2.543   2.272
  119SOL     OW 1255   6.453   6.254   4.612
  119SOL    HW1 1256   6.402   6.192   4.672
  119SOL    HW2 1257   6.405   6.263   4.525
  120SOL     OW 1258   4.499   1.889   4.402
  120SOL    HW1 1259   4.523   1.947   4.480
  120SOL    HW2 1260   4.423   1.929   4.352
  121SOL     OW 1261   0.382   5.792   6.164
  121SOL    HW1 1262   0.479   5.768   6.160
  121SOL    HW2 1263   0.357   5.811   6.258
  122SOL     OW 1264   6.634   4.979   5.996
  122SOL    HW1 1265   6.665   5.061   6.045
  122SOL    HW2 1266   6.633   4.901   6.059
  123SOL     OW 1267   0.453   2.759   1.367
  123SOL    HW1 1268   0.384   2.788   1.301
  123SOL    HW2 1269   0.536   2.730   1.318
  124SOL     OW 1270   1.945   3.451   6.878
  124SOL    HW1 1271   1.863   3.458   6.821
  124SOL    HW2 1272   1.974   3.356   6.885
  125SOL     OW 1273   4.455   2.286   0.393
  125SOL    HW1 1274   4.423   2.222   0.463
  125SOL    HW2 1275   4.460   2.239   0.305
  126SOL     OW 1276   3.525   3.502   4.819
  126SOL    HW1 1277   3.535   3.531   4.914
  126SOL    HW2 1278   3.432   3.471   4.803
  127SOL     OW 1279   0.419   5.210   6.205
  127SOL    HW1 1280   0.394   5.303   6.179
  127SOL    HW2 1281   0.340   5.164   6.243
  128SOL     OW 1282   4.396   3.747   6.149
  128SOL    HW1 1283   4.332   3.805   6.199
  128SOL    HW2 1284   4.359   3.725   6.059
  129SOL     OW 1285   0.575   4.656   1.474
  129SOL    HW1 1286   0.499   4.680   1.414
  129SOL    HW2 1287   0.649   4.721   1.461
  130SOL     OW 1288   6.119   3.568   4.918
  130SOL    HW1 1289   6.117   3.536   5.013
  130SOL    HW2 1290   6.027   3.598   4.892
  131SOL     OW 1291   1.020   3.788   3.293
  131SOL    HW1 1292   1.090   3.731   3.336
  131SOL    HW2 1293   1.000   3.753   3.202
  132SOL     OW 1294   4.523   2.878   1.524
  132SOL    HW1 1295   4.459   2.904   1.597
  132SOL    HW2 1296   4.529   2.778   1.519
  133SOL     OW 1297   4.622   4.529   6.550
  133SOL    HW1 1298   4.536   4.480   6.565
  133SOL    HW2 1299   4.679   4.479   6.485
  134SOL     OW 1300   6.475   1.777   0.699
  134SOL    HW1 1301   6.462   1.736   0.609
  134SOL    HW2 1302   6.428   1.722   0.768
  135SOL     OW 1303   4.143   4.786   3.821
  135SOL    HW1 1304   4.098   4.806   3.735
  135SOL    HW2 1305   4.075   4.761   3.890
  136SOL     OW 1306   4.064   6.781   6.217
  136SOL    HW1 1307   4.146   6.801   6.270
  136SOL    HW2 1308   4.058   6.682   6.201
  137SOL     OW 1309   2.159   4.311   6.804
  137SOL    HW1 1310   2.104   4.234   6.772
  137SOL    HW2 1311   2.240   4.320   6.745
  138SOL     OW 1312   1.227   5.612   6.798
  138SOL    HW1 1313   1.309   5.561   6.824
  138SOL    HW2 1314   1.228   5.630   6.700
  139SOL     OW 1315   0.174   0.783   1.026
  139SOL    HW1 1316   0.267   0.819   1.022
  139SOL    HW2 1317   0.172   0.706   1.090
  140SOL     OW 1318   3.736   0.188   1.779
  140SOL    HW1 1319   3.749   0.284   1.758
  140SOL    HW2 1320   3.816   0.153   1.829
  141SOL     OW 1321   0.726   1.384   6.682
  141SOL    HW1 1322   0.630   1.380   6.710
  141SOL    HW2 1323   0.782   1.336   6.749
  142SOL     OW 1324   1.957   3.931   6.953
  142SOL    HW1 1325   1.962   3.839   6.992
  142SOL    HW2 1326   1.868   3.971   6.974
  143SOL     OW 1327   5.122   5.459   1.640
  143SOL    HW1 1328   5.205   5.443   1.586
  143SOL    HW2 1329   5.131   5.413   1.728
  144SOL     OW 1330   3.186   5.431   2.858
  144SOL    HW1 1331   3.167   5.352   2.915
  144SOL    HW2 1332   3.109   5.495   2.862
  145SOL     OW 1333   0.493   5.651   3.378
  145SOL    HW1 1334   0.529   5.624   3.468
  145SOL    HW2 1335   0.563   5.635   3.308
  146SOL     OW 1336   6.831   0.611   5.788
  146SOL    HW1 1337   6.813   0.522   5.747
  146SOL    HW2 1338   6.800   0.611   5.883
  147SOL     OW 1339   6.102   1.259   5.085
  147SOL    HW1 1340   6.021   1.233   5.032
  147SOL    HW2 1341   6.084   1.344   5.135
  148SOL     OW 1342   1.755   6.590   1.402
  148SOL    HW1 1343   1.704   6.675   1.401
  148SOL    HW2 1344   1.727   6.533   1.324
  149SOL     OW 1345   1.440   3.291   4.649
  149SOL    HW1 1346   1.359   3.243   4.683
  149SOL    HW2 1347   1.433   3.388   4.670
  150SOL     OW 1348   4.669   2.512   5.455
  150SOL    HW1 1349   4.730   2.463   5.518
  150SOL    HW2 1350   4.705   2.505   5.362
  151SOL     OW 1351   6.104   2.654   0.994
  151SOL    HW1 1352   6.202   2.637   1.004
  151SOL    HW2 1353   6.072   2.708   1.072
  152SOL     OW 1354   0.243   2.629   1.155
  152SOL    HW1 1355   0.192   2.712   1.175
  152SOL    HW2 1356   0.195   2.576   1.084
  153SOL     OW 1357   1.631   2.151   3.597
  153SOL    HW1 1358   1.620   2.170   3.499
  153SOL    HW2 1359   1.548   2.108   3.632
  154SOL     OW 1360   0.231   1.417   4.036
  154SOL    HW1 1361   0.200   1.426   4.130
  154SOL    HW2 1362   0.154   1.428   3.973
  155SOL     OW 1363   5.560   4.764   3.626
  155SOL    HW1 1364   5.590   4.698   3.694
  155SOL    HW2 1365   5.558   4.720   3.536
  156SOL     OW 1366   4.719   1.014   1.573
  156SOL    HW1 1367   4.790   0.950   1.603
  156SOL    HW2 1368   4.713   1.089   1.639
  157SOL     OW 1369   5.025   0.248   1.258
  157SOL    HW1 1370   5.083   0.321   1.294
  157SOL    HW2 1371   4.982   0.198   1.333
  158SOL     OW 1372   0.894   3.225   4.154
  158SOL    HW1 1373   0.975   3.180   4.117
  158SOL    HW2 1374   0.841   3.266   4.080
  159SOL     OW 1375   6.336   5.315   6.970
  159SOL    HW1 1376   6.297   5.405   6.985
  159SOL    HW2 1377   6.432   5.315   6.996
  160SOL     OW 1378   4.147   0.595   1.013
  160SOL    HW1 1379   4.073   0.578   1.077
  160SOL    HW2 1380   4.228   0.624   1.063
  161SOL     OW 1381   0.330   6.464   0.519
  161SOL    HW1 1382   0.403   6.401   0.545
  161SOL    HW2 1383   0.359   6.520   0.442
  162SOL     OW 1384   4.483   0.070   5.566
  162SOL    HW1 1385   4.443   7.022   5.514
  162SOL    HW2 1386   4.539   0.032   5.640
  163SOL     OW 1387   0.819   3.834   2.657
  163SOL    HW1 1388   0.843   3.919   2.703
  163SOL    HW2 1389   0.752   3.784   2.712
  164SOL     OW 1390   1.519   1.877   2.283
  164SOL    HW1 1391   1.451   1.950   2.284
  164SOL    HW2 1392   1.475   1.789   2.265
  165SOL     OW 1393   0.072   6.562   4.073
  165SOL    HW1 1394   0.005   6.590   4.005
  165SOL    HW2 1395   0.163   6.595   4.048
  166SOL     OW 1396   0.502   4.509   3.867
  166SOL    HW1 1397   0.504   4.436   3.798
  166SOL    HW2 1398   0.589   4.512   3.915
  167SOL     OW 1399   0.995   1.241   3.358
  167SOL    HW1 1400   1.039   1.325   3.391
  167SOL    HW2 1401   0.897   1.257   3.347
  168SOL     OW 1402   3.164   3.785   2.994
  168SOL    HW1 1403   3.085   3.819   3.045
  168SOL    HW2 1404   3.162   3.824   2.901
  169SOL     OW 1405   5.344   2.346   7.017
  169SOL    HW1 1406   5.365   2.368   0.084
  169SOL    HW2 1407   5.339   2.246   7.006
  170SOL     OW 1408   0.140   5.715   1.663
  170SOL    HW1 1409   0.075   5.669   1.602
  170SOL    HW2 1410   0.126   5.814   1.657
  171SOL     OW 1411   3.028   2.710   0.857
  171SOL    HW1 1412   3.037   2.696   0.758
  171SOL    HW2 1413   2.985   2.799   0.874
  172SOL     OW 1414   1.297   1.197   6.960
  172SOL    HW1 1415   1.394   1.198   6.985
  172SOL    HW2 1416   1.289   1.205   6.860
  173SOL     OW 1417   6.035   1.155   4.545
  173SOL    HW1 1418   6.113   1.217   4.535
  173SOL    HW2 1419   5.970   1.193   4.611
  174SOL     OW 1420   5.956   4.316   5.145
  174SOL    HW1 1421   6.049   4.281   5.132
  174SOL    HW2 1422   5.943   4.343   5.240
  175SOL     OW 1423   0.377   6.563   2.826
  175SOL    HW1 1424   0.399   6.651   2.785
  175SOL    HW2 1425   0.461   6.510   2.839
  176SOL     OW 1426   6.829   3.797   0.956
  176SOL    HW1 1427   6.880   3.879   0.982
  176SOL    HW2 1428   6.891   3.730   0.917
  177SOL     OW 1429   6.391   2.135   3.813
  177SOL    HW1 1430   6.388   2.067   3.887
  177SOL    HW2 1431   6.329   2.108   3.740
  178SOL     OW 1432   2.227   5.750   4.736
  178SOL    HW1 1433   2.320   5.715   4.727
  178SOL    HW2 1434   2.223   5.843   4.698
  179SOL     OW 1435   3.697   4.189   1.854
  179SOL    HW1 1436   3.691   4.144   1.943
  179SOL    HW2 1437   3.659   4.281   1.861
  180SOL     OW 1438   4.583   1.989   6.495
  180SOL    HW1 1439   4.500   1.939   6.517
  180SOL    HW2 1440   4.559   2.076   6.452
  181SOL     OW 1441   3.871   0.527   5.385
  181SOL    HW1 1442   3.773   0.544   5.393
  181SOL    HW2 1443   3.920   0.587   5.449
  182SOL     OW 1444   2.927   3.017   5.566
  182SOL    HW1 1445   2.954   3.112   5.582
  182SOL    HW2 1446   2.946   2.992   5.471
  183SOL     OW 1447   2.926   1.171   3.114
  183SOL    HW1 1448   2.942   1.194   3.210
  183SOL    HW2 1449   2.898   1.253   3.064
  184SOL     OW 1450   4.774   5.466   3.514
  184SOL    HW1 1451   4.678   5.456   3.488
  184SOL    HW2 1452   4.796   5.398   3.583
  185SOL     OW 1453   0.207   6.610   4.912
  185SOL    HW1 1454   0.306   6.606   4.929
  185SOL    HW2 1455   0.190   6.651   4.823
  186SOL     OW 1456   2.955   5.797   5.299
  186SOL    HW1 1457   3.005   5.875   5.263
  186SOL    HW2 1458   2.997   5.712   5.266
  187SOL     OW 1459   3.805   5.744   1.135
  187SOL    HW1 1460   3.739   5.755   1.210
  187SOL    HW2 1461   3.881   5.807   1.148
  188SOL     OW 1462   1.809   3.480   3.013
  188SOL    HW1 1463   1.750   3.413   3.059
  188SOL    HW2 1464   1.765   3.511   2.929
  189SOL     OW 1465   5.591   4.702   5.863
  189SOL    HW1 1466   5.670   4.670   5.812
  189SOL    HW2 1467   5.622   4.748   5.947
  190SOL     OW 1468   6.041   6.575   0.886
  190SOL    HW1 1469   6.102   6.548   0.960
  190SOL    HW2 1470   6.038   6.503   0.817
  191SOL     OW 1471   1.720   2.646   5.421
  191SOL    HW1 1472   1.706   2.549   5.441
  191SOL    HW2 1473   1.818   2.668   5.430
  192SOL     OW 1474   0.269   6.624   1.677
  192SOL    HW1 1475   0.312   6.714   1.668
  192SOL    HW2 1476   0.320   6.569   1.742
  193SOL     OW 1477   3.455   0.626   2.109
  193SOL    HW1 1478   3.478   0.538   2.150
  193SOL    HW2 1479   3.402   0.680   2.175
  194SOL     OW 1480   4.168   6.292   2.754
  194SOL    HW1 1481   4.189   6.358   2.827
  194SOL    HW2 1482   4.160   6.201   2.794
  195SOL     OW 1483   3.264   0.255   0.742
  195SOL    HW1 1484   3.175   0.210   0.736
  195SOL    HW2 1485   3.319   0.231   0.662
  196SOL     OW 1486   4.536   2.550   1.211
  196SOL    HW1 1487   4.526   2.575   1.308
  196SOL    HW2 1488   4.604   2.477   1.203
  197SOL     OW 1489   2.041   6.039   0.621
  197SOL    HW1 1490   2.075   6.127   0.652
  197SOL    HW2 1491   2.117   5.977   0.606
  198SOL     OW 1492   4.880   6.993   6.746
  198SOL    HW1 1493   4.876   6.982   6.647
  198SOL    HW2 1494   4.803   0.022   6.776
  199SOL     OW 1495   1.898   0.724   2.747
  199SOL    HW1 1496   1.891   0.817   2.711
  199SOL    HW2 1497   1.908   0.660   2.672
  200SOL     OW 1498   0.894   3.522   4.097
  200SOL    HW1 1499   0.977   3.522   4.041
  200SOL    HW2 1500   0.919   3.503   4.192
  201SOL     OW 1501   4.409   1.742   6.581
  201SOL    HW1 1502   4.332   1.783   6.630
  201SOL    HW2 1503   4.485   1.728   6.645
  202SOL     OW 1504   4.065   0.823   3.153
  202SOL    HW1 1505   4.056   0.723   3.151
  202SOL    HW2 1506   4.041   0.860   3.063
  203SOL     OW 1507   5.737   2.594   0.062
  203SOL    HW1 1508   5.773   2.528   0.129
  203SOL    HW2 1509   5.670   2.548   0.004
  204SOL     OW 1510   1.940   6.391   1.074
  204SOL    HW1 1511   2.032   6.351   1.073
  204SOL    HW2 1512   1.893   6.364   1.158
  205SOL     OW 1513   5.599   0.398   1.527
  205SOL    HW1 1514   5.559   0.401   1.618
  205SOL    HW2 1515   5.695   0.370   1.533
  206SOL     OW 1516   6.593   5.950   1.103
  206SOL    HW1 1517   6.682   5.968   1.062
  206SOL    HW2 1518   6.556   6.034   1.142
  207SOL     OW 1519   6.128   1.903   6.074
  207SOL    HW1 1520   6.206   1.945   6.028
  207SOL    HW2 1521   6.136   1.804   6.070
  208SOL     OW 1522   3.958   4.490   6.993
  208SOL    HW1 1523   4.017   4.563   6.957
  208SOL    HW2 1524   3.879   4.530   0.011
  209SOL     OW 1525   0.166   6.348   3.815
  209SOL    HW1 1526   0.265   6.329   3.812
  209SOL    HW2 1527   0.143   6.416   3.746
  210SOL     OW 1528   3.948   2.124   0.680
  210SOL    HW1 1529   3.903   2.057   0.738
  210SOL    HW2 1530   3.880   2.175   0.628
  211SOL     OW 1531   0.865   3.188   1.487
  211SOL    HW1 1532   0.788   3.252   1.490
  211SOL    HW2 1533   0.838   3.103   1.532
  212SOL     OW 1534   0.909   5.345   4.838
  212SOL    HW1 1535   0.971   5.299   4.775
  212SOL    HW2 1536   0.822   5.296   4.842
  213SOL     OW 1537   3.865   2.242   6.914
  213SOL    HW1 1538   3.787   2.305   6.913
  213SOL    HW2 1539   3.950   2.294   6.923
  214SOL     OW 1540   1.662   6.279   3.254
  214SOL    HW1 1541   1.692   6.185   3.270
  214SOL    HW2 1542   1.721   6.342   3.304
  215SOL     OW 1543   3.272   4.096   3.021
  215SOL    HW1 1544   3.254   4.044   2.938
  215SOL    HW2 1545   3.191   4.094   3.080
  216SOL     OW 1546   3.049   0.226   5.760
  216SOL    HW1 1547   2.982   0.166   5.717
  216SOL    HW2 1548   3.043   0.216   5.860
  217SOL     OW 1549   6.664   2.268   4.980
  217SOL    HW1 1550   6.567   2.293   4.978
  217SOL    HW2 1551   6.720   2.351   4.988
  218SOL     OW 1552   2.700   3.986   5.635
  218SOL    HW1 1553   2.638   3.935   5.576
  218SOL    HW2 1554   2.672   4.082   5.639
  219SOL     OW 1555   3.709   5.147   0.242
  219SOL    HW1 1556   3.728   5.136   0.144
  219SOL    HW2 1557   3.703   5.244   0.264
  220SOL     OW 1558   1.541   4.447   0.207
  220SOL    HW1 1559   1.577   4.420   0.296
  220SOL    HW2 1560   1.441   4.446   0.209
  221SOL     OW 1561   5.912   2.532   4.495
  221SOL    HW1 1562   5.986   2.527   4.427
  221SOL    HW2 1563   5.909   2.623   4.535
  222SOL     OW 1564   1.993   6.496   4.658
  222SOL    HW1 1565   2.066   6.513   4.593
  222SOL    HW2 1566   1.985   6.574   4.720
  223SOL     OW 1567   5.783   5.018   2.528
  223SOL    HW1 1568   5.875   5.043   2.558
  223SOL    HW2 1569   5.764   5.063   2.440
  224SOL     OW 1570   4.145   2.238   2.481
  224SOL    HW1 1571   4.076   2.175   2.517
  224SOL    HW2 1572   4.110   2.332   2.485
  225SOL     OW 1573   4.794   6.762   1.114
  225SOL    HW1 1574   4.872   6.762   1.052
  225SOL    HW2 1575   4.726   6.829   1.084
  226SOL     OW 1576   0.463   5.733   2.540
  226SOL    HW1 1577   0.428   5.822   2.510
  226SOL    HW2 1578   0.562   5.732   2.533
  227SOL     OW 1579   1.382   3.596   3.079
  227SOL    HW1 1580   1.456   3.616   3.143
  227SOL    HW2 1581   1.409   3.521   3.019
  228SOL     OW 1582   3.979   6.428   2.616
  228SOL    HW1 1583   4.034   6.477   2.549
  228SOL    HW2 1584   4.040   6.373   2.674
  229SOL     OW 1585   6.563   5.148   2.975
  229SOL    HW1 1586   6.517   5.071   2.930
  229SOL    HW2 1587   6.496   5.219   2.996
  230SOL     OW 1588   0.830   4.425   6.541
  230SOL    HW1 1589   0.791   4.334   6.557
  230SOL    HW2 1590   0.785   4.492   6.600
  231SOL     OW 1591   0.434   1.833   6.862
  231SOL    HW1 1592   0.406   1.863   6.953
  231SOL    HW2 1593   0.387   1.889   6.793
  232SOL     OW 1594   1.126   3.939   6.191
  232SOL    HW1 1595   1.207   3.990   6.166
  232SOL    HW2 1596   1.106   3.871   6.120
  233SOL     OW 1597   3.330   6.613   6.678
  233SOL    HW1 1598   3.395   6.543   6.708
  233SOL    HW2 1599   3.251   6.568   6.635
  234SOL     OW 1600   2.643   4.668   5.990
  234SOL    HW1 1601   2.712   4.687   5.921
  234SOL    HW2 1602   2.663   4.580   6.033
  235SOL     OW 1603   3.207   3.475   5.816
  235SOL    HW1 1604   3.270   3.454   5.742
  235SOL    HW2 1605   3.153   3.555   5.791
  236SOL     OW 1606   0.287   1.976   6.387
  236SOL    HW1 1607   0.271   1.995   6.290
  236SOL    HW2 1608   0.212   1.920   6.422
  237SOL     OW 1609   6.341   6.695   1.848
  237SOL    HW1 1610   6.303   6.646   1.770
  237SOL    HW2 1611   6.427   6.738   1.822
  238SOL     OW 1612   6.922   1.914   2.507
  238SOL    HW1 1613   6.832   1.959   2.513
  238SOL    HW2 1614   6.955   1.919   2.413
  239SOL     OW 1615   6.400   5.506   0.610
  239SOL    HW1 1616   6.463   5.436   0.644
  239SOL    HW2 1617   6.328   5.520   0.678
  240SOL     OW 1618   0.277   2.638   5.532
  240SOL    HW1 1619   0.268   2.544   5.501
  240SOL    HW2 1620   0.305   2.640   5.628
  241SOL     OW 1621   5.790   2.388   4.706
  241SOL    HW1 1622   5.830   2.419   4.792
  241SOL    HW2 1623   5.822   2.445   4.631
  242SOL     OW 1624   2.714   2.341   4.182
  242SOL    HW1 1625   2.633   2.399   4.171
  242SOL    HW2 1626   2.686   2.246   4.191
  243SOL     OW 1627   4.754   1.285   6.789
  243SOL    HW1 1628   4.722   1.324   6.703
  243SOL    HW2 1629   4.724   1.343   6.865
  244SOL     OW 1630   0.789   1.789   6.165
  244SOL    HW1 1631   0.713   1.846   6.198
  244SOL    HW2 1632   0.814   1.818   6.073
  245SOL     OW 1633   5.138   2.934   3.713
  245SOL    HW1 1634   5.229   2.896   3.695
  245SOL    HW2 1635   5.131   2.960   3.809
  246SOL     OW 1636   4.829   3.085   3.706
  246SOL    HW1 1637   4.834   3.185   3.705
  246SOL    HW2 1638   4.880   3.049   3.627
  247SOL     OW 1639   2.938   0.634   3.159
  247SOL    HW1 1640   3.011   0.570   3.185
  247SOL    HW2 1641   2.961   0.725   3.192
  248SOL     OW 1642   6.925   1.637   2.240
  248SOL    HW1 1643   6.945   1.540   2.255
  248SOL    HW2 1644   6.861   1.647   2.164
  249SOL     OW 1645   2.314   5.398   4.919
  249SOL    HW1 1646   2.243   5.467   4.907
  249SOL    HW2 1647   2.276   5.319   4.968
  250SOL     OW 1648   5.441   2.477   0.346
  250SOL    HW1 1649   5.468   2.489   0.441
  250SOL    HW2 1650   5.502   2.411   0.302
  251SOL     OW 1651   1.750   1.178   0.506
  251SOL    HW1 1652   1.827   1.120   0.534
  251SOL    HW2 1653   1.775   1.229   0.424
  252SOL     OW 1654   0.663   1.812   0.338
  252SOL    HW1 1655   0.704   1.808   0.429
  252SOL    HW2 1656   0.735   1.827   0.270
  253SOL     OW 1657   1.856   4.525   6.185
  253SOL    HW1 1658   1.814   4.568   6.105
  253SOL    HW2 1659   1.801   4.545   6.267
  254SOL     OW 1660   4.547   3.546   5.929
  254SOL    HW1 1661   4.579   3.451   5.924
  254SOL    HW2 1662   4.622   3.607   5.905
  255SOL     OW 1663   4.050   2.141   2.222
  255SOL    HW1 1664   4.068   2.221   2.279
  255SOL    HW2 1665   4.093   2.153   2.133
  256SOL     OW 1666   6.710   5.523   1.583
  256SOL    HW1 1667   6.699   5.424   1.573
  256SOL    HW2 1668   6.620   5.567   1.581
  257SOL     OW 1669   2.782   5.881   5.977
  257SOL    HW1 1670   2.720   5.861   6.052
  257SOL    HW2 1671   2.840   5.801   5.960
  258SOL     OW 1672   4.008   4.819   4.068
  258SOL    HW1 1673   3.910   4.836   4.066
  258SOL    HW2 1674   4.034   4.789   4.160
  259SOL     OW 1675   0.638   2.112   2.812
  259SOL    HW1 1676   0.638   2.130   2.911
  259SOL    HW2 1677   0.617   2.196   2.763
  260SOL     OW 1678   0.062   6.714   5.721
  260SOL    HW1 1679   0.104   6.798   5.687
  260SOL    HW2 1680   0.113   6.681   5.801
  261SOL     OW 1681   0.655   1.172   3.940
  261SOL    HW1 1682   0.559   1.150   3.926
  261SOL    HW2 1683   0.694   1.207   3.855
  262SOL     OW 1684   0.851   4.640   1.896
  262SOL    HW1 1685   0.781   4.635   1.825
  262SOL    HW2 1686   0.934   4.593   1.865
  263SOL     OW 1687   0.462   3.931   4.521
  263SOL    HW1 1688   0.548   3.937   4.471
  263SOL    HW2 1689   0.392   3.890   4.463
  264SOL     OW 1690   3.260   4.294   0.091
  264SOL    HW1 1691   3.240   4.206   0.048
  264SOL    HW2 1692   3.201   4.364   0.051
  265SOL     OW 1693   4.152   5.405   3.549
  265SOL    HW1 1694   4.211   5.436   3.474
  265SOL    HW2 1695   4.060   5.441   3.537
  266SOL     OW 1696   4.548   3.683   7.017
  266SOL    HW1 1697   4.547   3.627   0.073
  266SOL    HW2 1698   4.643   3.696   6.987
  267SOL     OW 1699   1.766   2.358   6.105
  267SOL    HW1 1700   1.849   2.306   6.086
  267SOL    HW2 1701   1.701   2.346   6.029
  268SOL     OW 1702   2.458   4.601   3.641
  268SOL    HW1 1703   2.403   4.679   3.612
  268SOL    HW2 1704   2.532   4.633   3.700
  269SOL     OW 1705   2.253   2.197   5.294
  269SOL    HW1 1706   2.295   2.142   5.222
  269SOL    HW2 1707   2.252   2.145   5.379
  270SOL     OW 1708   5.094   6.273   4.672
  270SOL    HW1 1709   5.023   6.305   4.735
  270SOL    HW2 1710   5.154   6.349   4.647
  271SOL     OW 1711   2.075   1.619   0.641
  271SOL    HW1 1712   2.028   1.574   0.565
  271SOL    HW2 1713   2.018   1.693   0.676
  272SOL     OW 1714   4.733   5.306   0.251
  272SOL    HW1 1715   4.811   5.364   0.277
  272SOL    HW2 1716   4.756   5.210   0.268
  273SOL     OW 1717   1.901   6.232   4.101
  273SOL    HW1 1718   1.946   6.288   4.170
  273SOL    HW2 1719   1.828   6.284   4.057
  274SOL     OW 1720   5.684   2.080   1.402
  274SOL    HW1 1721   5.770   2.055   1.357
  274SOL    HW2 1722   5.615   2.102   1.333
  275SOL     OW 1723   5.443   5.859   5.689
  275SOL    HW1 1724   5.507   5.824   5.757
  275SOL    HW2 1725   5.487   5.931   5.636
  276SOL     OW 1726   0.383   0.260   4.326
  276SOL    HW1 1727   0.352   0.205   4.249
  276SOL    HW2 1728   0.348   0.222   4.411
  277SOL     OW 1729   4.125   2.675   5.386
  277SOL    HW1 1730   4.140   2.605   5.316
  277SOL    HW2 1731   4.063   2.640   5.456
  278SOL     OW 1732   5.604   4.085   3.199
  278SOL    HW1 1733   5.653   4.163   3.238
  278SOL    HW2 1734   5.664   4.037   3.135
  279SOL     OW 1735   0.099   3.838   3.734
  279SOL    HW1 1736   0.143   3.913   3.684
  279SOL    HW2 1737   0.156   3.757   3.729
  280SOL     OW 1738   4.139   1.675   3.584
  280SOL    HW1 1739   4.237   1.690   3.573
  280SOL    HW2 1740   4.122   1.625   3.669
  281SOL     OW 1741   4.642   5.963   5.221
  281SOL    HW1 1742   4.564   5.971   5.284
  281SOL    HW2 1743   4.631   5.882   5.165
  282SOL     OW 1744   0.884   2.646   0.523
  282SOL    HW1 1745   0.873   2.620   0.427
  282SOL    HW2 1746   0.853   2.571   0.581
  283SOL     OW 1747   6.357   3.805   3.572
  283SOL    HW1 1748   6.316   3.895   3.590
  283SOL    HW2 1749   6.296   3.752   3.512
  284SOL     OW 1750   5.270   0.020   2.511
  284SOL    HW1 1751   5.218   6.994   2.444
  284SOL    HW2 1752   5.356   7.001   2.531
  285SOL     OW 1753   3.847   6.418   5.831
  285SOL    HW1 1754   3.941   6.441   5.858
  285SOL    HW2 1755   3.802   6.501   5.796
  286SOL     OW 1756   2.955   4.840   5.563
  286SOL    HW1 1757   2.997   4.878   5.481
  286SOL    HW2 1758   3.022   4.838   5.637
  287SOL     OW 1759   3.322   5.491   0.220
  287SOL    HW1 1760   3.413   5.465   0.252
  287SOL    HW2 1761   3.318   5.591   0.210
  288SOL     OW 1762   4.166   1.367   0.243
  288SOL    HW1 1763   4.227   1.306   0.192
  288SOL    HW2 1764   4.197   1.374   0.337
  289SOL     OW 1765   5.690   4.941   4.964
  289SOL    HW1 1766   5.775   4.915   5.011
  289SOL    HW2 1767   5.631   4.860   4.954
  290SOL     OW 1768   3.553   0.428   5.605
  290SOL    HW1 1769   3.568   0.503   5.540
  290SOL    HW2 1770   3.475   0.449   5.664
  291SOL     OW 1771   5.234   1.003   5.433
  291SOL    HW1 1772   5.237   0.987   5.532
  291SOL    HW2 1773   5.319   0.972   5.392
  292SOL     OW 1774   3.468   0.136   4.299
  292SOL    HW1 1775   3.381   0.125   4.250
  292SOL    HW2 1776   3.532   0.187   4.242
  293SOL     OW 1777   4.811   0.412   2.928
  293SOL    HW1 1778   4.754   0.332   2.944
  293SOL    HW2 1779   4.897   0.384   2.885
  294SOL     OW 1780   6.853   1.323   6.714
  294SOL    HW1 1781   6.839   1.283   6.804
  294SOL    HW2 1782   6.780   1.292   6.652
  295SOL     OW 1783   0.556   0.678   5.065
  295SOL    HW1 1784   0.547   0.605   5.133
  295SOL    HW2 1785   0.537   0.642   4.974
  296SOL     OW 1786   0.828   1.751   1.530
  296SOL    HW1 1787   0.883   1.759   1.447
  296SOL    HW2 1788   0.775   1.666   1.526
  297SOL     OW 1789   5.226   3.142   3.333
  297SOL    HW1 1790   5.194   3.088   3.254
  297SOL    HW2 1791   5.307   3.099   3.371
  298SOL     OW 1792   4.057   0.752   6.109
  298SOL    HW1 1793   4.105   0.702   6.036
  298SOL    HW2 1794   4.121   0.813   6.155
  299SOL     OW 1795   0.760   0.966   6.311
  299SOL    HW1 1796   0.757   1.059   6.275
  299SOL    HW2 1797   0.833   0.915   6.265
  300SOL     OW 1798   4.439   6.336   3.484
  300SOL    HW1 1799   4.475   6.377   3.568
  300SOL    HW2 1800   4.484   6.248   3.469
  301SOL     OW 1801   0.134   5.820   5.642
  301SOL    HW1 1802   0.054   5.858   5.597
  301SOL    HW2 1803   0.147   5.864   5.731
  302SOL     OW 1804   6.980   6.808   2.453
  302SOL    HW1 1805   6.988   6.792   2.552
  302SOL    HW2 1806   0.044   6.813   2.413
  303SOL     OW 1807   5.350   5.787   2.438
  303SOL    HW1 1808   5.369   5.766   2.342
  303SOL    HW2 1809   5.269   5.844   2.445
  304SOL     OW 1810   1.942   0.227   4.745
  304SOL    HW1 1811   1.885   0.301   4.710
  304SOL    HW2 1812   1.910   0.200   4.836
  305SOL     OW 1813   0.977   2.147   1.168
  305SOL    HW1 1814   1.071   2.114   1.173
  305SOL    HW2 1815   0.973   2.225   1.104
  306SOL     OW 1816   0.283   0.089   2.860
  306SOL    HW1 1817   0.357   0.129   2.805
  306SOL    HW2 1818   0.248   0.158   2.924
  307SOL     OW 1819   3.909   3.491   3.554
  307SOL    HW1 1820   3.823   3.539   3.566
  307SOL    HW2 1821   3.902   3.399   3.593
  308SOL     OW 1822   6.641   1.601   2.322
  308SOL    HW1 1823   6.676   1.512   2.291
  308SOL    HW2 1824   6.560   1.626   2.268
  309SOL     OW 1825   1.861   4.872   0.297
  309SOL    HW1 1826   1.949   4.875   0.345
  309SOL    HW2 1827   1.864   4.802   0.226
  310SOL     OW 1828   5.069   6.667   4.778
  310SOL    HW1 1829   4.986   6.626   4.741
  310SOL    HW2 1830   5.148   6.611   4.752
  311SOL     OW 1831   1.414   6.224   1.757
  311SOL    HW1 1832   1.393   6.130   1.730
  311SOL    HW2 1833   1.405   6.284   1.677
  312SOL     OW 1834   3.519   0.477   4.135
  312SOL    HW1 1835   3.483   0.471   4.228
  312SOL    HW2 1836   3.443   0.482   4.070
  313SOL     OW 1837   3.032   3.195   2.598
  313SOL    HW1 1838   3.059   3.101   2.620
  313SOL    HW2 1839   3.098   3.234   2.533
  314SOL     OW 1840   2.775   5.756   6.433
  314SOL    HW1 1841   2.834   5.806   6.496
  314SOL    HW2 1842   2.832   5.703   6.370
  315SOL     OW 1843   5.824   0.658   4.488
  315SOL    HW1 1844   5.794   0.623   4.577
  315SOL    HW2 1845   5.924   0.665   4.488
  316SOL     OW 1846   3.387   0.872   6.195
  316SOL    HW1 1847   3.458   0.942   6.186
  316SOL    HW2 1848   3.339   0.884   6.282
  317SOL     OW 1849   0.534   2.233   1.047
  317SOL    HW1 1850   0.516   2.299   1.121
  317SOL    HW2 1851   0.501   2.143   1.074
  318SOL     OW 1852   0.862   0.179   3.688
  318SOL    HW1 1853   0.910   0.267   3.693
  318SOL    HW2 1854   0.873   0.140   3.597
  319SOL     OW 1855   0.306   1.006   2.875
  319SOL    HW1 1856   0.361   1.036   2.797
  319SOL    HW2 1857   0.354   0.932   2.923
  320SOL     OW 1858   4.873   1.435   0.364
  320SOL    HW1 1859   4.907   1.355   0.413
  320SOL    HW2 1860   4.881   1.419   0.266
  321SOL     OW 1861   4.658   2.746   1.052
  321SOL    HW1 1862   4.729   2.789   1.109
  321SOL    HW2 1863   4.621   2.666   1.101
  322SOL     OW 1864   3.454   2.675   6.590
  322SOL    HW1 1865   3.456   2.758   6.535
  322SOL    HW2 1866   3.373   2.621   6.568
  323SOL     OW 1867   1.460   3.594   2.538
  323SOL    HW1 1868   1.491   3.682   2.574
  323SOL    HW2 1869   1.455   3.527   2.612
  324SOL     OW 1870   0.407   0.341   3.315
  324SOL    HW1 1871   0.471   0.394   3.369
  324SOL    HW2 1872   0.450   0.255   3.287
  325SOL     OW 1873   6.373   3.777   0.864
  325SOL    HW1 1874   6.335   3.869   0.870
  325SOL    HW2 1875   6.305   3.710   0.893
  326SOL     OW 1876   6.978   5.863   6.853
  326SOL    HW1 1877   7.020   5.951   6.833
  326SOL    HW2 1878   6.915   5.872   6.931
  327SOL     OW 1879   3.911   6.352   6.274
  327SOL    HW1 1880   3.925   6.254   6.287
  327SOL    HW2 1881   3.813   6.372   6.268
  328SOL     OW 1882   1.290   5.031   3.674
  328SOL    HW1 1883   1.238   5.068   3.751
  328SOL    HW2 1884   1.373   4.988   3.709
  329SOL     OW 1885   3.655   3.204   1.884
  329SOL    HW1 1886   3.752   3.225   1.894
  329SOL    HW2 1887   3.641   3.145   1.805
  330SOL     OW 1888   2.402   3.262   7.025
  330SOL    HW1 1889   2.460   3.256   0.079
  330SOL    HW2 1890   2.458   3.288   6.946
  331SOL     OW 1891   5.530   4.704   4.950
  331SOL    HW1 1892   5.441   4.746   4.964
  331SOL    HW2 1893   5.526   4.643   4.871
  332SOL     OW 1894   5.795   2.370   3.004
  332SOL    HW1 1895   5.879   2.350   3.055
  332SOL    HW2 1896   5.716   2.338   3.055
  333SOL     OW 1897   3.760   6.853   4.251
  333SOL    HW1 1898   3.743   6.906   4.334
  333SOL    HW2 1899   3.800   6.765   4.275
  334SOL     OW 1900   3.175   3.587   3.671
  334SOL    HW1 1901   3.181   3.599   3.572
  334SOL    HW2 1902   3.252   3.634   3.715
  335SOL     OW 1903   3.363   0.946   1.374
  335SOL    HW1 1904   3.388   0.992   1.459
  335SOL    HW2 1905   3.276   0.898   1.386
  336SOL     OW 1906   4.422   2.071   4.985
  336SOL    HW1 1907   4.455   1.978   4.995
  336SOL    HW2 1908   4.427   2.099   4.889
  337SOL     OW 1909   0.122   0.987   5.328
  337SOL    HW1 1910   0.061   0.945   5.260
  337SOL    HW2 1911   0.067   1.022   5.404
  338SOL     OW 1912   4.608   1.475   1.338
  338SOL    HW1 1913   4.687   1.491   1.397
  338SOL    HW2 1914   4.530   1.527   1.374
  339SOL     OW 1915   4.215   5.269   6.087
  339SOL    HW1 1916   4.229   5.363   6.056
  339SOL    HW2 1917   4.185   5.212   6.010
  340SOL     OW 1918   5.214   3.273   4.812
  340SOL    HW1 1919   5.225   3.175   4.798
  340SOL    HW2 1920   5.134   3.305   4.762
  341SOL     OW 1921   0.010   6.958   2.127
  341SOL    HW1 1922   7.020   6.878   2.069
  341SOL    HW2 1923   0.091   6.942   2.183
  342SOL     OW 1924   4.693   1.742   2.558
  342SOL    HW1 1925   4.594   1.743   2.541
  342SOL    HW2 1926   4.742   1.744   2.471
  343SOL     OW 1927   5.397   0.194   1.129
  343SOL    HW1 1928   5.475   0.249   1.099
  343SOL    HW2 1929   5.387   0.115   1.068
  344SOL     OW 1930   6.868   3.303   1.834
  344SOL    HW1 1931   6.939   3.336   1.772
  344SOL    HW2 1932   6.902   3.227   1.888
  345SOL     OW 1933   6.831   2.533   4.304
  345SOL    HW1 1934   6.840   2.632   4.300
  345SOL    HW2 1935   6.750   2.504   4.254
  346SOL     OW 1936   2.234   6.234   2.906
  346SOL    HW1 1937   2.160   6.275   2.959
  346SOL    HW2 1938   2.245   6.138   2.932
  347SOL     OW 1939   2.531   4.636   0.807
  347SOL    HW1 1940   2.473   4.694   0.865
  347SOL    HW2 1941   2.611   4.687   0.778
  348SOL     OW 1942   4.719   4.930   1.681
  348SOL    HW1 1943   4.818   4.919   1.689
  348SOL    HW2 1944   4.689   5.007   1.738
  349SOL     OW 1945   5.345   4.192   0.557
  349SOL    HW1 1946   5.427   4.248   0.549
  349SOL    HW2 1947   5.307   4.201   0.650
  350SOL     OW 1948   2.420   1.531   0.092
  350SOL    HW1 1949   2.377   1.566   0.008
  350SOL    HW2 1950   2.512   1.498   0.071
  351SOL     OW 1951   3.346   4.104   0.933
  351SOL    HW1 1952   3.253   4.107   0.969
  351SOL    HW2 1953   3.348   4.150   0.844
  352SOL     OW 1954   4.582   0.150   2.620
  352SOL    HW1 1955   4.486   0.127   2.604
  352SOL    HW2 1956   4.589   0.223   2.687
  353SOL     OW 1957   2.038   6.749   0.622
  353SOL    HW1 1958   2.100   6.792   0.688
  353SOL    HW2 1959   2.073   6.765   0.529
  354SOL     OW 1960   1.158   2.353   0.304
  354SOL    HW1 1961   1.258   2.345   0.301
  354SOL    HW2 1962   1.118   2.280   0.249
  355SOL     OW 1963   0.393   3.162   3.714
  355SOL    HW1 1964   0.456   3.222   3.665
  355SOL    HW2 1965   0.439   3.075   3.734
  356SOL     OW 1966   2.947   0.372   5.334
  356SOL    HW1 1967   3.040   0.407   5.343
  356SOL    HW2 1968   2.936   0.289   5.390
  357SOL     OW 1969   6.006   6.339   4.564
  357SOL    HW1 1970   6.054   6.394   4.632
  357SOL    HW2 1971   5.971   6.256   4.607
  358SOL     OW 1972   3.374   5.805   6.217
  358SOL    HW1 1973   3.280   5.832   6.196
  358SOL    HW2 1974   3.396   5.832   6.311
  359SOL     OW 1975   1.455   2.102   1.968
  359SOL    HW1 1976   1.368   2.076   2.010
  359SOL    HW2 1977   1.516   2.136   2.039
  360SOL     OW 1978   2.013   4.017   3.620
  360SOL    HW1 1979   1.939   4.072   3.658
  360SOL    HW2 1980   1.976   3.949   3.558
  361SOL     OW 1981   0.064   1.945   1.952
  361SOL    HW1 1982   0.121   1.910   2.026
  361SOL    HW2 1983   0.116   1.945   1.867
  362SOL     OW 1984   3.762   3.778   2.390
  362SOL    HW1 1985   3.710   3.855   2.429
  362SOL    HW2 1986   3.834   3.750   2.454
  363SOL     OW 1987   4.516   5.218   1.205
  363SOL    HW1 1988   4.585   5.226   1.277
  363SOL    HW2 1989   4.499   5.308   1.165
  364SOL     OW 1990   1.084   0.502   0.272
  364SOL    HW1 1991   1.064   0.406   0.252
  364SOL    HW2 1992   1.182   0.516   0.275
  365SOL     OW 1993   5.857   0.619   4.205
  365SOL    HW1 1994   5.913   0.699   4.185
  365SOL    HW2 1995   5.854   0.603   4.304
  366SOL     OW 1996   5.599   1.693   0.132
  366SOL    HW1 1997   5.573   1.653   0.220
  366SOL    HW2 1998   5.517   1.726   0.085
  367SOL     OW 1999   5.255   0.983   6.728
  367SOL    HW1 2000   5.246   0.887   6.754
  367SOL    HW2 2001   5.351   1.010   6.733
  368SOL     OW 2002   1.799   2.059   5.425
  368SOL    HW1 2003   1.812   2.024   5.332
  368SOL    HW2 2004   1.786   2.159   5.421
  369SOL     OW 2005   5.866   4.623   0.340
  369SOL    HW1 2006   5.894   4.541   0.291
  369SOL    HW2 2007   5.913   4.627   0.428
  370SOL     OW 2008   2.298   2.675   3.056
  370SOL    HW1 2009   2.261   2.729   3.132
  370SOL    HW2 2010   2.281   2.722   2.970
  371SOL     OW 2011   1.693   6.096   6.930
  371SOL    HW1 2012   1.751   6.156   6.986
  371SOL    HW2 2013   1.708   6.117   6.833
  372SOL     OW 2014   2.500   5.458   5.767
  372SOL    HW1 2015   2.504   5.430   5.863
  372SOL    HW2 2016   2.421   5.416   5.724
  373SOL     OW 2017   6.288   4.607   3.151
  373SOL    HW1 2018   6.347   4.571   3.223
  373SOL    HW2 2019   6.263   4.533   3.088
  374SOL     OW 2020   3.063   1.603   2.461
  374SOL    HW1 2021   3.088   1.592   2.557
  374SOL    HW2 2022   3.095   1.692   2.428
  375SOL     OW 2023   1.113   5.940   4.159
  375SOL    HW1 2024   1.056   5.974   4.084
  375SOL    HW2 2025   1.078   5.977   4.246
  376SOL     OW 2026   3.733   0.463   3.381
  376SOL    HW1 2027   3.813   0.498   3.333
  376SOL    HW2 2028   3.655   0.523   3.363
  377SOL     OW 2029   2.450   2.231   6.595
  377SOL    HW1 2030   2.437   2.179   6.511
  377SOL    HW2 2031   2.473   2.170   6.670
  378SOL     OW 2032   4.189   1.416   2.125
  378SOL    HW1 2033   4.263   1.421   2.192
  378SOL    HW2 2034   4.220   1.452   2.037
  379SOL     OW 2035   4.109   2.470   6.219
  379SOL    HW1 2036   4.161   2.436   6.297
  379SOL    HW2 2037   4.039   2.535   6.250
  380SOL     OW 2038   4.150   2.121   0.451
  380SOL    HW1 2039   4.220   2.056   0.480
  380SOL    HW2 2040   4.085   2.135   0.526
  381SOL     OW 2041   2.173   4.043   3.023
  381SOL    HW1 2042   2.095   4.106   3.021
  381SOL    HW2 2043   2.144   3.955   3.061
  382SOL     OW 2044   5.504   0.052   6.922
  382SOL    HW1 2045   5.601   0.037   6.938
  382SOL    HW2 2046   5.451   0.020   7.000
  383SOL     OW 2047   4.491   2.917   0.899
  383SOL    HW1 2048   4.398   2.897   0.929
  383SOL    HW2 2049   4.556   2.865   0.955
  384SOL     OW 2050   0.033   3.895   5.260
  384SOL    HW1 2051   0.071   3.904   5.168
  384SOL    HW2 2052   6.988   3.825   5.259
  385SOL     OW 2053   4.447   2.849   0.647
  385SOL    HW1 2054   4.516   2.881   0.582
  385SOL    HW2 2055   4.466   2.887   0.737
  386SOL     OW 2056   4.358   6.454   5.101
  386SOL    HW1 2057   4.309   6.434   5.016
  386SOL    HW2 2058   4.435   6.515   5.082
  387SOL     OW 2059   2.790   5.901   4.071
  387SOL    HW1 2060   2.810   5.986   4.119
  387SOL    HW2 2061   2.862   5.834   4.089
  388SOL     OW 2062   1.528   5.186   6.155
  388SOL    HW1 2063   1.540   5.261   6.221
  388SOL    HW2 2064   1.472   5.114   6.196
  389SOL     OW 2065   2.876   2.639   1.613
  389SOL    HW1 2066   2.793   2.593   1.643
  389SOL    HW2 2067   2.855   2.700   1.536
  390SOL     OW 2068   2.370   1.340   4.918
  390SOL    HW1 2069   2.279   1.320   4.954
  390SOL    HW2 2070   2.366   1.341   4.818
  391SOL     OW 2071   1.434   2.231   6.821
  391SOL    HW1 2072   1.469   2.159   6.760
  391SOL    HW2 2073   1.369   2.288   6.771
  392SOL     OW 2074   3.755   6.015   4.058
  392SOL    HW1 2075   3.711   6.104   4.048
  392SOL    HW2 2076   3.747   5.984   4.153
  393SOL     OW 2077   5.863   3.853   5.623
  393SOL    HW1 2078   5.785   3.806   5.663
  393SOL    HW2 2079   5.876   3.942   5.667
  394SOL     OW 2080   2.050   0.901   6.245
  394SOL    HW1 2081   2.135   0.867   6.286
  394SOL    HW2 2082   2.063   0.914   6.147
  395SOL     OW 2083   6.622   3.632   0.927
  395SOL    HW1 2084   6.546   3.693   0.903
  395SOL    HW2 2085   6.708   3.683   0.922
  396SOL     OW 2086   3.444   3.209   4.942
  396SOL    HW1 2087   3.436   3.281   4.874
  396SOL    HW2 2088   3.408   3.242   5.030
  397SOL     OW 2089   3.599   1.546   6.915
  397SOL    HW1 2090   3.564   1.556   6.821
  397SOL    HW2 2091   3.669   1.615   6.932
  398SOL     OW 2092   1.103   4.908   2.713
  398SOL    HW1 2093   1.117   4.852   2.631
  398SOL    HW2 2094   1.130   4.855   2.794
  399SOL     OW 2095   5.215   4.672   2.554
  399SOL    HW1 2096   5.223   4.635   2.646
  399SOL    HW2 2097   5.228   4.771   2.556
  400SOL     OW 2098   2.438   4.875   4.498
  400SOL    HW1 2099   2.509   4.805   4.500
  400SOL    HW2 2100   2.355   4.839   4.455
  401SOL     OW 2101   5.457   1.464   0.250
  401SOL    HW1 2102   5.441   1.375   0.208
  401SOL    HW2 2103   5.383   1.484   0.315
  402SOL     OW 2104   6.682   4.593   1.157
  402SOL    HW1 2105   6.677   4.548   1.247
  402SOL    HW2 2106   6.769   4.641   1.149
  403SOL     OW 2107   5.109   4.285   0.460
  403SOL    HW1 2108   5.045   4.224   0.508
  403SOL    HW2 2109   5.202   4.266   0.493
  404SOL     OW 2110   0.647   6.426   4.551
  404SOL    HW1 2111   0.652   6.519   4.513
  404SOL    HW2 2112   0.735   6.381   4.542
  405SOL     OW 2113   0.746   2.750   1.301
  405SOL    HW1 2114   0.817   2.738   1.371
  405SOL    HW2 2115   0.761   2.836   1.253
  406SOL     OW 2116   0.712   2.392   3.251
  406SOL    HW1 2117   0.776   2.315   3.256
  406SOL    HW2 2118   0.741   2.463   3.315
  407SOL     OW 2119   2.957   1.809   3.467
  407SOL    HW1 2120   2.945   1.886   3.405
  407SOL    HW2 2121   3.053   1.801   3.493
  408SOL     OW 2122   2.017   0.744   3.391
  408SOL    HW1 2123   2.015   0.644   3.384
  408SOL    HW2 2124   1.933   0.782   3.352
  409SOL     OW 2125   6.435   3.340   4.138
  409SOL    HW1 2126   6.515   3.384   4.097
  409SOL    HW2 2127   6.459   3.247   4.165
  410SOL     OW 2128   2.849   6.913   6.666
  410SOL    HW1 2129   2.939   6.880   6.695
  410SOL    HW2 2130   2.850   6.932   6.568
  411SOL     OW 2131   0.329   3.342   4.833
  411SOL    HW1 2132   0.396   3.292   4.779
  411SOL    HW2 2133   0.269   3.277   4.881
  412SOL     OW 2134   4.192   0.733   2.292
  412SOL    HW1 2135   4.121   0.696   2.353
  412SOL    HW2 2136   4.220   0.823   2.324
  413SOL     OW 2137   2.579   0.559   2.490
  413SOL    HW1 2138   2.510   0.620   2.450
  413SOL    HW2 2139   2.667   0.574   2.444
  414SOL     OW 2140   4.951   3.643   0.526
  414SOL    HW1 2141   4.938   3.724   0.468
  414SOL    HW2 2142   4.883   3.644   0.600
  415SOL     OW 2143   3.730   6.512   2.297
  415SOL    HW1 2144   3.820   6.542   2.329
  415SOL    HW2 2145   3.696   6.576   2.229
  416SOL     OW 2146   3.628   5.764   6.514
  416SOL    HW1 2147   3.553   5.713   6.557
  416SOL    HW2 2148   3.641   5.851   6.562
  417SOL     OW 2149   5.189   4.660   1.010
  417SOL    HW1 2150   5.220   4.751   0.982
  417SOL    HW2 2151   5.090   4.654   1.000
  418SOL     OW 2152   6.667   5.149   0.318
  418SOL    HW1 2153   6.637   5.060   0.283
  418SOL    HW2 2154   6.765   5.146   0.335
  419SOL     OW 2155   5.450   6.180   1.020
  419SOL    HW1 2156   5.492   6.243   1.086
  419SOL    HW2 2157   5.350   6.188   1.026
  420SOL     OW 2158   4.756   4.268   0.053
  420SOL    HW1 2159   4.800   4.342   0.105
  420SOL    HW2 2160   4.755   4.291   6.983
  421SOL     OW 2161   1.393   6.209   6.571
  421SOL    HW1 2162   1.385   6.221   6.472
  421SOL    HW2 2163   1.302   6.210   6.613
  422SOL     OW 2164   5.438   4.167   6.731
  422SOL    HW1 2165   5.381   4.087   6.752
  422SOL    HW2 2166   5.517   4.137   6.677
  423SOL     OW 2167   1.221   3.387   5.824
  423SOL    HW1 2168   1.132   3.417   5.857
  423SOL    HW2 2169   1.271   3.466   5.788
  424SOL     OW 2170   1.967   3.877   0.278
  424SOL    HW1 2171   1.875   3.866   0.315
  424SOL    HW2 2172   1.966   3.863   0.179
  425SOL     OW 2173   2.936   6.805   0.568
  425SOL    HW1 2174   3.034   6.814   0.586
  425SOL    HW2 2175   2.898   6.736   0.629
  426SOL     OW 2176   6.201   4.215   5.690
  426SOL    HW1 2177   6.273   4.278   5.660
  426SOL    HW2 2178   6.218   4.125   5.650
  427SOL     OW 2179   4.813   2.995   0.674
  427SOL    HW1 2180   4.766   3.047   0.745
  427SOL    HW2 2181   4.746   2.965   0.606
  428SOL     OW 2182   3.449   1.620   5.679
  428SOL    HW1 2183   3.457   1.522   5.694
  428SOL    HW2 2184   3.537   1.664   5.695
  429SOL     OW 2185   2.852   5.576   6.930
  429SOL    HW1 2186   2.904   5.616   6.856
  429SOL    HW2 2187   2.757   5.563   6.902
  430SOL     OW 2188   2.432   0.140   4.952
  430SOL    HW1 2189   2.420   0.091   5.039
  430SOL    HW2 2190   2.348   0.191   4.931
  431SOL     OW 2191   2.980   1.803   6.630
  431SOL    HW1 2192   3.060   1.829   6.684
  431SOL    HW2 2193   2.967   1.704   6.634
  432SOL     OW 2194   0.222   1.419   1.283
  432SOL    HW1 2195   0.219   1.322   1.309
  432SOL    HW2 2196   0.317   1.445   1.263
  433SOL     OW 2197   2.896   5.988   4.641
  433SOL    HW1 2198   2.962   6.003   4.714
  433SOL    HW2 2199   2.893   5.891   4.617
  434SOL     OW 2200   6.135   3.651   1.201
  434SOL    HW1 2201   6.222   3.693   1.226
  434SOL    HW2 2202   6.073   3.653   1.280
  435SOL     OW 2203   3.762   3.222   0.918
  435SOL    HW1 2204   3.858   3.194   0.910
  435SOL    HW2 2205   3.750   3.283   0.996
  436SOL     OW 2206   2.630   0.194   0.496
  436SOL    HW1 2207   2.620   0.262   0.424
  436SOL    HW2 2208   2.539   0.168   0.531
  437SOL     OW 2209   6.711   0.092   6.011
  437SOL    HW1 2210   6.696   0.014   6.073
  437SOL    HW2 2211   6.705   0.061   5.916
  438SOL     OW 2212   2.022   3.219   1.489
  438SOL    HW1 2213   2.073   3.241   1.572
  438SOL    HW2 2214   1.928   3.198   1.513
  439SOL     OW 2215   5.843   4.466   2.159
  439SOL    HW1 2216   5.842   4.366   2.161
  439SOL    HW2 2217   5.920   4.497   2.104
  440SOL     OW 2218   1.529   2.916   3.395
  440SOL    HW1 2219   1.564   2.986   3.456
  440SOL    HW2 2220   1.461   2.956   3.333
  441SOL     OW 2221   1.374   1.223   3.059
  441SOL    HW1 2222   1.315   1.160   3.009
  441SOL    HW2 2223   1.331   1.248   3.146
  442SOL     OW 2224   0.077   4.588   0.230
  442SOL    HW1 2225   0.071   4.530   0.310
  442SOL    HW2 2226   0.100   4.533   0.149
  443SOL     OW 2227   0.928   4.349   5.763
  443SOL    HW1 2228   0.936   4.292   5.845
  443SOL    HW2 2229   0.899   4.293   5.686
  444SOL     OW 2230   4.726   3.036   6.663
  444SOL    HW1 2231   4.635   3.066   6.634
  444SOL    HW2 2232   4.770   2.988   6.587
  445SOL     OW 2233   1.967   4.515   3.159
  445SOL    HW1 2234   2.066   4.524   3.153
  445SOL    HW2 2235   1.927   4.605   3.181
  446SOL     OW 2236   4.068   5.386   4.161
  446SOL    HW1 2237   4.027   5.295   4.147
  446SOL    HW2 2238   4.168   5.377   4.160
  447SOL     OW 2239   0.302   5.912   0.120
  447SOL    HW1 2240   0.246   5.847   0.172
  447SOL    HW2 2241   0.284   5.900   0.022
  448SOL     OW 2242   4.260   0.923   6.211
  448SOL    HW1 2243   4.283   0.920   6.308
  448SOL    HW2 2244   4.334   0.883   6.157
  449SOL     OW 2245   6.012   6.605   4.473
  449SOL    HW1 2246   5.960   6.628   4.391
  449SOL    HW2 2247   6.019   6.505   4.481
  450SOL     OW 2248   0.102   5.844   3.592
  450SOL    HW1 2249   0.171   5.885   3.533
  450SOL    HW2 2250   0.014   5.844   3.545
  451SOL     OW 2251   6.026   2.363   3.774
  451SOL    HW1 2252   6.093   2.314   3.829
  451SOL    HW2 2253   6.065   2.384   3.684
  452SOL     OW 2254   6.807   4.735   6.458
  452SOL    HW1 2255   6.759   4.823   6.463
  452SOL    HW2 2256   6.742   4.663   6.436
  453SOL     OW 2257   2.806   0.542   5.925
  453SOL    HW1 2258   2.821   0.561   5.828
  453SOL    HW2 2259   2.713   0.507   5.937
  454SOL     OW 2260   1.065   5.833   0.126
  454SOL    HW1 2261   1.105   5.892   0.055
  454SOL    HW2 2262   1.106   5.742   0.120
  455SOL     OW 2263   4.890   0.806   5.436
  455SOL    HW1 2264   4.919   0.714   5.410
  455SOL    HW2 2265   4.970   0.864   5.450
  456SOL     OW 2266   4.690   5.741   0.048
  456SOL    HW1 2267   4.728   5.765   0.137
  456SOL    HW2 2268   4.679   5.824   7.020
  457SOL     OW 2269   0.556   4.880   1.862
  457SOL    HW1 2270   0.637   4.933   1.839
  457SOL    HW2 2271   0.527   4.828   1.781
  458SOL     OW 2272   6.878   6.573   5.995
  458SOL    HW1 2273   6.911   6.517   6.071
  458SOL    HW2 2274   6.778   6.577   5.997
  459SOL     OW 2275   1.742   0.461   3.099
  459SOL    HW1 2276   1.814   0.518   3.061
  459SOL    HW2 2277   1.662   0.518   3.119
  460SOL     OW 2278   6.885   1.543   4.158
  460SOL    HW1 2279   6.800   1.566   4.206
  460SOL    HW2 2280   6.870   1.460   4.102
  461SOL     OW 2281   5.281   6.228   5.713
  461SOL    HW1 2282   5.292   6.270   5.623
  461SOL    HW2 2283   5.351   6.158   5.726
  462SOL     OW 2284   3.107   2.575   0.050
  462SOL    HW1 2285   3.066   2.659   0.083
  462SOL    HW2 2286   3.146   2.524   0.127
  463SOL     OW 2287   0.112   5.994   1.524
  463SOL    HW1 2288   0.090   6.044   1.440
  463SOL    HW2 2289   0.041   6.011   1.592
  464SOL     OW 2290   1.519   1.098   5.855
  464SOL    HW1 2291   1.508   1.191   5.821
  464SOL    HW2 2292   1.496   1.095   5.952
  465SOL     OW 2293   6.654   3.332   5.221
  465SOL    HW1 2294   6.618   3.241   5.244
  465SOL    HW2 2295   6.578   3.392   5.197
  466SOL     OW 2296   2.103   0.528   3.226
  466SOL    HW1 2297   2.058   0.587   3.160
  466SOL    HW2 2298   2.134   0.444   3.181
  467SOL     OW 2299   1.558   1.260   5.111
  467SOL    HW1 2300   1.583   1.241   5.016
  467SOL    HW2 2301   1.639   1.256   5.169
  468SOL     OW 2302   3.483   3.958   1.666
  468SOL    HW1 2303   3.539   3.904   1.728
  468SOL    HW2 2304   3.537   4.035   1.631
  469SOL     OW 2305   2.563   4.832   6.852
  469SOL    HW1 2306   2.486   4.881   6.895
  469SOL    HW2 2307   2.646   4.850   6.904
  470SOL     OW 2308   3.585   0.875   2.394
  470SOL    HW1 2309   3.622   0.903   2.305
  470SOL    HW2 2310   3.532   0.950   2.433
  471SOL     OW 2311   2.530   1.639   4.895
  471SOL    HW1 2312   2.568   1.604   4.810
  471SOL    HW2 2313   2.604   1.673   4.953
  472SOL     OW 2314   4.096   4.210   5.276
  472SOL    HW1 2315   4.016   4.263   5.304
  472SOL    HW2 2316   4.163   4.270   5.233
  473SOL     OW 2317   0.962   4.368   3.382
  473SOL    HW1 2318   0.977   4.368   3.481
  473SOL    HW2 2319   0.919   4.283   3.355
  474SOL     OW 2320   4.552   5.038   4.707
  474SOL    HW1 2321   4.563   5.116   4.645
  474SOL    HW2 2322   4.622   4.969   4.687
  475SOL     OW 2323   0.757   6.607   6.118
  475SOL    HW1 2324   0.737   6.599   6.215
  475SOL    HW2 2325   0.779   6.516   6.081
  476SOL     OW 2326   0.028   4.969   2.384
  476SOL    HW1 2327   0.035   5.018   2.297
  476SOL    HW2 2328   0.120   4.944   2.415
  477SOL     OW 2329   1.326   5.432   4.517
  477SOL    HW1 2330   1.384   5.497   4.468
  477SOL    HW2 2331   1.367   5.412   4.607
  478SOL     OW 2332   1.724   5.316   3.382
  478SOL    HW1 2333   1.747   5.388   3.448
  478SOL    HW2 2334   1.669   5.245   3.426
  479SOL     OW 2335   3.222   1.399   1.192
  479SOL    HW1 2336   3.126   1.399   1.222
  479SOL    HW2 2337   3.254   1.493   1.180
  480SOL     OW 2338   1.341   6.696   2.449
  480SOL    HW1 2339   1.265   6.631   2.460
  480SOL    HW2 2340   1.419   6.649   2.409
  481SOL     OW 2341   2.908   6.701   1.619
  481SOL    HW1 2342   2.854   6.639   1.562
  481SOL    HW2 2343   2.982   6.650   1.663
  482SOL     OW 2344   5.742   4.759   1.223
  482SOL    HW1 2345   5.677   4.690   1.253
  482SOL    HW2 2346   5.728   4.843   1.277
  483SOL     OW 2347   6.043   1.604   1.028
  483SOL    HW1 2348   6.104   1.526   1.037
  483SOL    HW2 2349   6.069   1.675   1.093
  484SOL     OW 2350   6.928   2.341   5.401
  484SOL    HW1 2351   6.977   2.304   5.321
  484SOL    HW2 2352   6.832   2.353   5.378
  485SOL     OW 2353   3.857   5.425   2.077
  485SOL    HW1 2354   3.761   5.398   2.089
  485SOL    HW2 2355   3.915   5.344   2.078
  486SOL     OW 2356   7.027   0.617   6.700
  486SOL    HW1 2357   6.940   0.649   6.660
  486SOL    HW2 2358   0.070   0.616   6.629
  487SOL     OW 2359   6.476   2.834   6.623
  487SOL    HW1 2360   6.429   2.784   6.695
  487SOL    HW2 2361   6.492   2.773   6.545
  488SOL     OW 2362   0.568   3.297   2.551
  488SOL    HW1 2363   0.641   3.271   2.614
  488SOL    HW2 2364   0.586   3.258   2.461
  489SOL     OW 2365   3.100   6.236   5.751
  489SOL    HW1 2366   3.067   6.329   5.731
  489SOL    HW2 2367   3.165   6.209   5.680
  490SOL     OW 2368   5.002   6.201   4.365
  490SOL    HW1 2369   5.100   6.217   4.378
  490SOL    HW2 2370   4.950   6.273   4.410
  491SOL     OW 2371   0.390   2.453   3.559
  491SOL    HW1 2372   0.331   2.410   3.628
  491SOL    HW2 2373   0.361   2.422   3.468
  492SOL     OW 2374   1.791   0.972   4.937
  492SOL    HW1 2375   1.853   1.021   4.999
  492SOL    HW2 2376   1.717   0.930   4.991
  493SOL     OW 2377   6.272   3.946   3.999
  493SOL    HW1 2378   6.242   3.858   3.961
  493SOL    HW2 2379   6.280   3.939   4.098
  494SOL     OW 2380   6.565   1.020   6.992
  494SOL    HW1 2381   6.523   0.983   0.048
  494SOL    HW2 2382   6.494   1.064   6.936
  495SOL     OW 2383   4.326   4.854   1.127
  495SOL    HW1 2384   4.319   4.931   1.190
  495SOL    HW2 2385   4.310   4.769   1.176
  496SOL     OW 2386   6.152   3.399   3.706
  496SOL    HW1 2387   6.197   3.342   3.637
  496SOL    HW2 2388   6.194   3.382   3.795
  497SOL     OW 2389   4.530   0.492   3.925
  497SOL    HW1 2390   4.528   0.436   4.008
  497SOL    HW2 2391   4.595   0.567   3.938
  498SOL     OW 2392   1.081   3.250   2.908
  498SOL    HW1 2393   1.065   3.169   2.852
  498SOL    HW2 2394   1.080   3.332   2.850
  499SOL     OW 2395   3.350   1.622   5.193
  499SOL    HW1 2396   3.390   1.713   5.204
  499SOL    HW2 2397   3.338   1.579   5.282
  500SOL     OW 2398   1.317   3.937   2.886
  500SOL    HW1 2399   1.307   3.889   2.974
  500SOL    HW2 2400   1.267   3.887   2.815
  501SOL     OW 2401   0.724   4.945   6.437
  501SOL    HW1 2402   0.694   4.975   6.528
  501SOL    HW2 2403   0.657   4.974   6.369
  502SOL     OW 2404   2.895   5.325   6.361
  502SOL    HW1 2405   2.907   5.272   6.277
  502SOL    HW2 2406   2.964   5.299   6.428
  503SOL     OW 2407   5.500   5.545   4.939
  503SOL    HW1 2408   5.493   5.515   4.843
  503SOL    HW2 2409   5.597   5.557   4.963
  504SOL     OW 2410   2.056   5.855   4.218
  504SOL    HW1 2411   2.155   5.871   4.212
  504SOL    HW2 2412   2.009   5.907   4.147
  505SOL     OW 2413   4.148   0.151   5.166
  505SOL    HW1 2414   4.183   0.140   5.259
  505SOL    HW2 2415   4.213   0.114   5.101
  506SOL     OW 2416   2.301   3.777   6.896
  506SOL    HW1 2417   2.300   3.745   6.991
  506SOL    HW2 2418   2.258   3.867   6.891
  507SOL     OW 2419   3.409   1.491   4.197
  507SOL    HW1 2420   3.435   1.568   4.139
  507SOL    HW2 2421   3.451   1.407   4.162
  508SOL     OW 2422   6.300   4.598   3.885
  508SOL    HW1 2423   6.236   4.565   3.816
  508SOL    HW2 2424   6.321   4.695   3.868
  509SOL     OW 2425   4.634   2.378   2.123
  509SOL    HW1 2426   4.568   2.438   2.079
  509SOL    HW2 2427   4.717   2.430   2.145
  510SOL     OW 2428   0.305   4.290   4.365
  510SOL    HW1 2429   0.353   4.252   4.286
  510SOL    HW2 2430   0.230   4.348   4.333
  511SOL     OW 2431   0.575   6.546   1.210
  511SOL    HW1 2432   0.552   6.524   1.305
  511SOL    HW2 2433   0.517   6.620   1.178
  512SOL     OW 2434   0.210   3.671   6.626
  512SOL    HW1 2435   0.284   3.639   6.685
  512SOL    HW2 2436   0.244   3.684   6.533
  513SOL     OW 2437   0.056   5.529   4.638
  513SOL    HW1 2438   0.110   5.493   4.562
  513SOL    HW2 2439   6.986   5.507   4.624
  514SOL     OW 2440   5.963   1.601   3.660
  514SOL    HW1 2441   5.914   1.523   3.621
  514SOL    HW2 2442   5.983   1.668   3.589
  515SOL     OW 2443   1.858   6.385   0.369
  515SOL    HW1 2444   1.913   6.413   0.448
  515SOL    HW2 2445   1.767   6.357   0.400
  516SOL     OW 2446   1.287   5.213   2.517
  516SOL    HW1 2447   1.319   5.192   2.425
  516SOL    HW2 2448   1.362   5.201   2.582
  517SOL     OW 2449   4.843   0.642   0.044
  517SOL    HW1 2450   4.832   0.563   7.011
  517SOL    HW2 2451   4.884   0.717   7.020
  518SOL     OW 2452   2.526   1.979   0.468
  518SOL    HW1 2453   2.450   1.943   0.523
  518SOL    HW2 2454   2.549   2.071   0.502
  519SOL     OW 2455   0.487   6.708   0.868
  519SOL    HW1 2456   0.542   6.782   0.907
  519SOL    HW2 2457   0.544   6.653   0.807
  520SOL     OW 2458   6.268   4.282   5.060
  520SOL    HW1 2459   6.261   4.199   5.005
  520SOL    HW2 2460   6.281   4.361   5.000
  521SOL     OW 2461   6.869   0.867   1.039
  521SOL    HW1 2462   6.943   0.903   0.983
  521SOL    HW2 2463   6.839   0.937   1.103
  522SOL     OW 2464   3.691   3.499   5.226
  522SOL    HW1 2465   3.692   3.423   5.291
  522SOL    HW2 2466   3.769   3.559   5.244
  523SOL     OW 2467   6.917   6.285   4.937
  523SOL    HW1 2468   6.871   6.306   4.851
  523SOL    HW2 2469   6.853   6.298   5.013
  524SOL     OW 2470   3.639   1.393   5.447
  524SOL    HW1 2471   3.700   1.469   5.466
  524SOL    HW2 2472   3.686   1.327   5.387
  525SOL     OW 2473   2.325   3.135   6.641
  525SOL    HW1 2474   2.422   3.155   6.630
  525SOL    HW2 2475   2.289   3.094   6.557
  526SOL     OW 2476   4.191   6.087   4.734
  526SOL    HW1 2477   4.290   6.090   4.735
  526SOL    HW2 2478   4.160   5.996   4.706
  527SOL     OW 2479   1.051   2.044   6.509
  527SOL    HW1 2480   0.969   2.038   6.452
  527SOL    HW2 2481   1.026   2.084   6.598
  528SOL     OW 2482   2.566   0.617   5.518
  528SOL    HW1 2483   2.562   0.679   5.596
  528SOL    HW2 2484   2.593   0.526   5.548
  529SOL     OW 2485   6.988   4.586   4.364
  529SOL    HW1 2486   6.958   4.496   4.396
  529SOL    HW2 2487   6.913   4.631   4.315
  530SOL     OW 2488   1.514   3.055   5.257
  530SOL    HW1 2489   1.609   3.031   5.237
  530SOL    HW2 2490   1.469   2.978   5.304
  531SOL     OW 2491   0.101   0.431   0.381
  531SOL    HW1 2492   0.074   0.403   0.289
  531SOL    HW2 2493   0.022   0.471   0.428
  532SOL     OW 2494   2.103   0.446   5.498
  532SOL    HW1 2495   2.188   0.470   5.544
  532SOL    HW2 2496   2.046   0.392   5.560
  533SOL     OW 2497   5.322   6.879   4.381
  533SOL    HW1 2498   5.338   6.893   4.478
  533SOL    HW2 2499   5.224   6.866   4.365
  534SOL     OW 2500   3.857   5.940   1.976
  534SOL    HW1 2501   3.896   5.851   1.950
  534SOL    HW2 2502   3.767   5.927   2.016
  535SOL     OW 2503   6.836   4.075   3.118
  535SOL    HW1 2504   6.873   4.167   3.131
  535SOL    HW2 2505   6.743   4.070   3.154
  536SOL     OW 2506   1.243   5.449   0.670
  536SOL    HW1 2507   1.166   5.495   0.713
  536SOL    HW2 2508   1.304   5.412   0.740
  537SOL     OW 2509   2.432   0.501   2.716
  537SOL    HW1 2510   2.485   0.516   2.632
  537SOL    HW2 2511   2.416   0.589   2.761
  538SOL     OW 2512   1.510   4.537   3.600
  538SOL    HW1 2513   1.562   4.478   3.538
  538SOL    HW2 2514   1.456   4.602   3.546
  539SOL     OW 2515   1.281   5.073   1.134
  539SOL    HW1 2516   1.283   4.973   1.132
  539SOL    HW2 2517   1.186   5.105   1.128
  540SOL     OW 2518   1.539   2.586   1.622
  540SOL    HW1 2519   1.545   2.526   1.543
  540SOL    HW2 2520   1.624   2.579   1.675
  541SOL     OW 2521   3.818   5.305   4.857
  541SOL    HW1 2522   3.724   5.275   4.840
  541SOL    HW2 2523   3.882   5.239   4.818
  542SOL     OW 2524   5.980   5.930   6.995
  542SOL    HW1 2525   6.002   6.012   6.943
  542SOL    HW2 2526   5.892   5.941   0.013
  543SOL     OW 2527   0.066   6.256   0.026
  543SOL    HW1 2528   0.061   6.349   0.063
  543SOL    HW2 2529   0.150   6.212   0.058
  544SOL     OW 2530   1.420   5.428   6.857
  544SOL    HW1 2531   1.342   5.411   6.917
  544SOL    HW2 2532   1.470   5.342   6.843
  545SOL     OW 2533   3.389   2.113   3.876
  545SOL    HW1 2534   3.431   2.188   3.928
  545SOL    HW2 2535   3.422   2.116   3.782
  546SOL     OW 2536   1.263   3.404   0.073
  546SOL    HW1 2537   1.275   3.362   7.010
  546SOL    HW2 2538   1.337   3.468   0.091
  547SOL     OW 2539   3.027   2.389   0.312
  547SOL    HW1 2540   3.041   2.361   0.217
  547SOL    HW2 2541   2.929   2.393   0.332
  548SOL     OW 2542   3.258   3.397   4.847
  548SOL    HW1 2543   3.174   3.434   4.885
  548SOL    HW2 2544   3.238   3.316   4.792
  549SOL     OW 2545   6.921   3.640   1.636
  549SOL    HW1 2546   6.853   3.616   1.567
  549SOL    HW2 2547   7.008   3.597   1.613
  550SOL     OW 2548   6.922   3.824   1.391
  550SOL    HW1 2549   6.979   3.818   1.472
  550SOL    HW2 2550   6.855   3.750   1.391
  551SOL     OW 2551   7.025   1.966   6.793
  551SOL    HW1 2552   0.045   2.053   6.807
  551SOL    HW2 2553   0.014   1.906   6.871
  552SOL     OW 2554   4.749   5.607   0.687
  552SOL    HW1 2555   4.700   5.567   0.610
  552SOL    HW2 2556   4.845   5.579   0.684
  553SOL     OW 2557   1.282   1.820   1.544
  553SOL    HW1 2558   1.242   1.729   1.556
  553SOL    HW2 2559   1.258   1.878   1.622
  554SOL     OW 2560   5.284   5.712   5.026
  554SOL    HW1 2561   5.208   5.656   5.059
  554SOL    HW2 2562   5.359   5.652   4.999
  555SOL     OW 2563   1.858   4.371   4.730
  555SOL    HW1 2564   1.764   4.396   4.754
  555SOL    HW2 2565   1.887   4.425   4.651
  556SOL     OW 2566   5.618   3.159   2.941
  556SOL    HW1 2567   5.584   3.251   2.918
  556SOL    HW2 2568   5.672   3.164   3.025
  557SOL     OW 2569   7.024   5.216   6.238
  557SOL    HW1 2570   0.017   5.314   6.234
  557SOL    HW2 2571   0.074   5.168   6.281
  558SOL     OW 2572   4.795   3.847   5.575
  558SOL    HW1 2573   4.730   3.876   5.505
  558SOL    HW2 2574   4.771   3.756   5.608
  559SOL     OW 2575   5.929   5.983   6.052
  559SOL    HW1 2576   5.953   5.894   6.012
  559SOL    HW2 2577   5.832   6.002   6.034
  560SOL     OW 2578   4.025   6.557   6.877
  560SOL    HW1 2579   4.091   6.540   6.804
  560SOL    HW2 2580   4.023   6.655   6.899
  561SOL     OW 2581   5.229   6.299   1.151
  561SOL    HW1 2582   5.217   6.300   1.251
  561SOL    HW2 2583   5.232   6.394   1.118
  562SOL     OW 2584   6.634   0.724   6.776
  562SOL    HW1 2585   6.564   0.793   6.788
  562SOL    HW2 2586   6.591   0.634   6.767
  563SOL     OW 2587   3.371   0.352   4.862
  563SOL    HW1 2588   3.330   0.442   4.872
  563SOL    HW2 2589   3.300   0.284   4.844
  564SOL     OW 2590   0.105   1.796   6.998
  564SOL    HW1 2591   0.034   1.772   0.037
  564SOL    HW2 2592   0.195   1.786   0.014
  565SOL     OW 2593   4.582   4.385   5.207
  565SOL    HW1 2594   4.514   4.315   5.230
  565SOL    HW2 2595   4.667   4.366   5.256
  566SOL     OW 2596   5.130   4.974   2.119
  566SOL    HW1 2597   5.084   4.915   2.185
  566SOL    HW2 2598   5.209   5.017   2.162
  567SOL     OW 2599   3.968   3.904   4.143
  567SOL    HW1 2600   3.977   3.810   4.177
  567SOL    HW2 2601   4.055   3.934   4.104
  568SOL     OW 2602   2.075   1.307   6.034
  568SOL    HW1 2603   1.977   1.291   6.020
  568SOL    HW2 2604   2.106   1.258   6.115
  569SOL     OW 2605   2.409   3.710   0.139
  569SOL    HW1 2606   2.429   3.806   0.125
  569SOL    HW2 2607   2.494   3.657   0.138
  570SOL     OW 2608   0.529   6.297   1.115
  570SOL    HW1 2609   0.563   6.371   1.172
  570SOL    HW2 2610   0.562   6.209   1.151
  571SOL     OW 2611   4.184   5.388   2.743
  571SOL    HW1 2612   4.187   5.291   2.718
  571SOL    HW2 2613   4.126   5.437   2.678
  572SOL     OW 2614   1.997   4.140   4.694
  572SOL    HW1 2615   2.091   4.158   4.723
  572SOL    HW2 2616   1.942   4.223   4.704
  573SOL     OW 2617   3.782   2.463   6.234
  573SOL    HW1 2618   3.858   2.516   6.198
  573SOL    HW2 2619   3.761   2.494   6.327
  574SOL     OW 2620   2.775   1.269   4.350
  574SOL    HW1 2621   2.825   1.337   4.405
  574SOL    HW2 2622   2.815   1.264   4.259
  575SOL     OW 2623   5.272   2.259   6.565
  575SOL    HW1 2624   5.183   2.242   6.522
  575SOL    HW2 2625   5.263   2.334   6.631
  576SOL     OW 2626   0.694   2.113   2.516
  576SOL    HW1 2627   0.689   2.081   2.611
  576SOL    HW2 2628   0.604   2.109   2.474
  577SOL     OW 2629   3.071   2.164   4.194
  577SOL    HW1 2630   3.061   2.089   4.260
  577SOL    HW2 2631   3.088   2.250   4.243
  578SOL     OW 2632   0.017   3.381   4.691
  578SOL    HW1 2633   0.029   3.283   4.704
  578SOL    HW2 2634   0.021   3.427   4.780
  579SOL     OW 2635   3.456   3.165   0.500
  579SOL    HW1 2636   3.525   3.187   0.569
  579SOL    HW2 2637   3.376   3.223   0.514
  580SOL     OW 2638   0.413   6.035   6.790
  580SOL    HW1 2639   0.344   5.973   6.827
  580SOL    HW2 2640   0.424   6.113   6.852
  581SOL     OW 2641   3.467   3.463   2.248
  581SOL    HW1 2642   3.443   3.479   2.152
  581SOL    HW2 2643   3.438   3.371   2.274
  582SOL     OW 2644   6.248   4.433   2.102
  582SOL    HW1 2645   6.296   4.430   2.190
  582SOL    HW2 2646   6.159   4.477   2.113
  583SOL     OW 2647   2.282   5.523   6.739
  583SOL    HW1 2648   2.234   5.481   6.662
  583SOL    HW2 2649   2.221   5.586   6.787
  584SOL     OW 2650   0.694   5.127   4.863
  584SOL    HW1 2651   0.754   5.057   4.901
  584SOL    HW2 2652   0.607   5.085   4.835
  585SOL     OW 2653   6.300   1.473   5.817
  585SOL    HW1 2654   6.239   1.538   5.772
  585SOL    HW2 2655   6.395   1.494   5.792
  586SOL     OW 2656   2.572   6.059   0.693
  586SOL    HW1 2657   2.653   6.099   0.650
  586SOL    HW2 2658   2.594   5.967   0.726
  587SOL     OW 2659   1.285   3.614   6.072
  587SOL    HW1 2660   1.339   3.620   6.156
  587SOL    HW2 2661   1.342   3.640   5.994
  588SOL     OW 2662   2.244   0.156   1.563
  588SOL    HW1 2663   2.212   0.120   1.476
  588SOL    HW2 2664   2.300   0.087   1.609
  589SOL     OW 2665   4.549   5.059   2.196
  589SOL    HW1 2666   4.611   5.050   2.274
  589SOL    HW2 2667   4.554   5.153   2.161
  590SOL     OW 2668   6.426   2.388   1.631
  590SOL    HW1 2669   6.435   2.458   1.560
  590SOL    HW2 2670   6.516   2.366   1.669
  591SOL     OW 2671   3.037   6.645   2.500
  591SOL    HW1 2672   3.107   6.712   2.479
  591SOL    HW2 2673   3.079   6.568   2.548
  592SOL     OW 2674   5.130   0.709   6.747
  592SOL    HW1 2675   5.158   0.647   6.821
  592SOL    HW2 2676   5.116   0.656   6.663
  593SOL     OW 2677   5.883   1.328   4.310
  593SOL    HW1 2678   5.876   1.233   4.340
  593SOL    HW2 2679   5.835   1.387   4.374
  594SOL     OW 2680   5.226   3.031   1.870
  594SOL    HW1 2681   5.146   2.978   1.897
  594SOL    HW2 2682   5.202   3.089   1.792
  595SOL     OW 2683   4.600   7.002   3.923
  595SOL    HW1 2684   4.517   0.017   3.887
  595SOL    HW2 2685   4.583   6.906   3.945
  596SOL     OW 2686   0.725   4.197   2.500
  596SOL    HW1 2687   0.806   4.145   2.471
  596SOL    HW2 2688   0.737   4.294   2.477
  597SOL     OW 2689   4.275   2.176   5.963
  597SOL    HW1 2690   4.244   2.123   5.884
  597SOL    HW2 2691   4.197   2.220   6.007
  598SOL     OW 2692   2.777   3.976   1.239
  598SOL    HW1 2693   2.851   3.914   1.213
  598SOL    HW2 2694   2.800   4.022   1.325
  599SOL     OW 2695   0.119   6.737   3.277
  599SOL    HW1 2696   0.132   6.639   3.264
  599SOL    HW2 2697   0.032   6.753   3.324
  600SOL     OW 2698   2.349   1.039   1.520
  600SOL    HW1 2699   2.303   0.954   1.546
  600SOL    HW2 2700   2.410   1.021   1.442
  601SOL     OW 2701   2.427   4.951   3.411
  601SOL    HW1 2702   2.502   5.014   3.393
  601SOL    HW2 2703   2.397   4.910   3.325
  602SOL     OW 2704   0.319   0.545   1.569
  602SOL    HW1 2705   0.256   0.622   1.573
  602SOL    HW2 2706   0.303   0.484   1.647
  603SOL     OW 2707   4.146   2.274   3.238
  603SOL    HW1 2708   4.072   2.234   3.184
  603SOL    HW2 2709   4.166   2.366   3.205
  604SOL     OW 2710   0.858   4.138   5.607
  604SOL    HW1 2711   0.878   4.073   5.533
  604SOL    HW2 2712   0.870   4.093   5.695
  605SOL     OW 2713   6.006   6.719   4.848
  605SOL    HW1 2714   6.082   6.711   4.912
  605SOL    HW2 2715   5.923   6.681   4.889
  606SOL     OW 2716   3.738   6.920   2.956
  606SOL    HW1 2717   3.825   6.958   2.989
  606SOL    HW2 2718   3.735   6.926   2.856
  607SOL     OW 2719   4.109   0.869   3.882
  607SOL    HW1 2720   4.063   0.781   3.891
  607SOL    HW2 2721   4.095   0.923   3.965
  608SOL     OW 2722   4.784   1.903   1.903
  608SOL    HW1 2723   4.851   1.923   1.975
  608SOL    HW2 2724   4.793   1.808   1.874
  609SOL     OW 2725   2.948   3.432   4.567
  609SOL    HW1 2726   2.934   3.522   4.609
  609SOL    HW2 2727   2.927   3.361   4.633
  610SOL     OW 2728   6.224   1.566   4.583
  610SOL    HW1 2729   6.251   1.480   4.539
  610SOL    HW2 2730   6.183   1.627   4.515
  611SOL     OW 2731   6.114   6.982   0.105
  611SOL    HW1 2732   6.182   0.019   0.141
  611SOL    HW2 2733   6.159   6.899   0.075
  612SOL     OW 2734   2.868   5.164   5.682
  612SOL    HW1 2735   2.881   5.151   5.584
  612SOL    HW2 2736   2.859   5.075   5.727
  613SOL     OW 2737   3.146   1.858   6.858
  613SOL    HW1 2738   3.130   1.955   6.877
  613SOL    HW2 2739   3.202   1.819   6.930
  614SOL     OW 2740   5.551   3.474   1.071
  614SOL    HW1 2741   5.595   3.557   1.037
  614SOL    HW2 2742   5.467   3.498   1.119
  615SOL     OW 2743   5.302   6.967   0.994
  615SOL    HW1 2744   5.337   6.912   1.070
  615SOL    HW2 2745   5.322   6.921   0.908
  616SOL     OW 2746   5.494   0.525   4.836
  616SOL    HW1 2747   5.545   0.442   4.860
  616SOL    HW2 2748   5.423   0.540   4.905
  617SOL     OW 2749   6.921   5.945   5.551
  617SOL    HW1 2750   6.888   5.885   5.478
  617SOL    HW2 2751   6.847   5.964   5.615
  618SOL     OW 2752   5.966   4.955   0.098
  618SOL    HW1 2753   6.039   5.003   0.147
  618SOL    HW2 2754   5.889   4.941   0.160
  619SOL     OW 2755   2.761   6.814   5.799
  619SOL    HW1 2756   2.798   6.746   5.863
  619SOL    HW2 2757   2.667   6.836   5.824
  620SOL     OW 2758   5.104   1.772   2.704
  620SOL    HW1 2759   5.113   1.677   2.673
  620SOL    HW2 2760   5.016   1.783   2.751
  621SOL     OW 2761   2.695   0.427   6.699
  621SOL    HW1 2762   2.777   0.377   6.726
  621SOL    HW2 2763   2.618   0.398   6.756
  622SOL     OW 2764   0.562   3.001   5.636
  622SOL    HW1 2765   0.546   2.962   5.727
  622SOL    HW2 2766   0.584   2.928   5.572
  623SOL     OW 2767   6.536   0.074   3.337
  623SOL    HW1 2768   6.618   0.130   3.323
  623SOL    HW2 2769   6.455   0.131   3.326
  624SOL     OW 2770   7.003   0.905   5.861
  624SOL    HW1 2771   0.072   0.912   5.885
  624SOL    HW2 2772   6.990   0.930   5.764
  625SOL     OW 2773   3.603   1.184   1.249
  625SOL    HW1 2774   3.623   1.178   1.151
  625SOL    HW2 2775   3.639   1.103   1.295
  626SOL     OW 2776   6.877   5.948   3.467
  626SOL    HW1 2777   6.789   5.900   3.466
  626SOL    HW2 2778   6.866   6.037   3.512
  627SOL     OW 2779   6.446   5.958   0.628
  627SOL    HW1 2780   6.388   5.908   0.692
  627SOL    HW2 2781   6.507   5.895   0.581
  628SOL     OW 2782   3.739   4.828   6.064
  628SOL    HW1 2783   3.739   4.867   5.972
  628SOL    HW2 2784   3.833   4.822   6.098
  629SOL     OW 2785   1.176   6.275   6.974
  629SOL    HW1 2786   1.243   6.348   6.986
  629SOL    HW2 2787   1.180   6.214   0.026
  630SOL     OW 2788   6.517   1.401   1.135
  630SOL    HW1 2789   6.605   1.406   1.087
  630SOL    HW2 2790   6.498   1.489   1.178
  631SOL     OW 2791   1.779   2.654   3.589
  631SOL    HW1 2792   1.814   2.683   3.500
  631SOL    HW2 2793   1.796   2.557   3.602
  632SOL     OW 2794   2.968   3.992   0.665
  632SOL    HW1 2795   2.885   3.987   0.610
  632SOL    HW2 2796   2.947   3.969   0.760
  633SOL     OW 2797   1.558   5.576   0.536
  633SOL    HW1 2798   1.627   5.514   0.572
  633SOL    HW2 2799   1.514   5.535   0.456
  634SOL     OW 2800   2.970   3.201   4.712
  634SOL    HW1 2801   2.939   3.242   4.798
  634SOL    HW2 2802   2.912   3.122   4.690
  635SOL     OW 2803   5.813   0.062   6.304
  635SOL    HW1 2804   5.776   0.110   6.384
  635SOL    HW2 2805   5.905   0.095   6.285
  636SOL     OW 2806   2.775   0.592   5.321
  636SOL    HW1 2807   2.700   0.595   5.386
  636SOL    HW2 2808   2.850   0.538   5.359
  637SOL     OW 2809   0.206   1.213   3.009
  637SOL    HW1 2810   0.255   1.134   2.970
  637SOL    HW2 2811   0.171   1.270   2.935
  638SOL     OW 2812   6.560   3.049   5.319
  638SOL    HW1 2813   6.464   3.026   5.301
  638SOL    HW2 2814   6.613   2.965   5.329
  639SOL     OW 2815   5.811   4.224   1.963
  639SOL    HW1 2816   5.803   4.140   2.017
  639SOL    HW2 2817   5.843   4.202   1.871
  640SOL     OW 2818   0.043   3.280   2.639
  640SOL    HW1 2819   6.974   3.265   2.659
  640SOL    HW2 2820   0.086   3.193   2.614
  641SOL     OW 2821   2.545   5.272   4.708
  641SOL    HW1 2822   2.489   5.336   4.656
  641SOL    HW2 2823   2.573   5.196   4.649
  642SOL     OW 2824   0.127   5.111   4.802
  642SOL    HW1 2825   0.206   5.134   4.858
  642SOL    HW2 2826   0.157   5.071   4.716
  643SOL     OW 2827   4.070   4.897   0.648
  643SOL    HW1 2828   4.123   4.914   0.566
  643SOL    HW2 2829   4.128   4.908   0.729
  644SOL     OW 2830   6.879   6.319   5.488
  644SOL    HW1 2831   6.844   6.368   5.409
  644SOL    HW2 2832   6.890   6.383   5.565
  645SOL     OW 2833   3.935   5.846   2.415
  645SOL    HW1 2834   3.983   5.780   2.357
  645SOL    HW2 2835   3.879   5.906   2.357
  646SOL     OW 2836   3.645   2.111   4.609
  646SOL    HW1 2837   3.565   2.135   4.663
  646SOL    HW2 2838   3.716   2.074   4.669
  647SOL     OW 2839   3.558   2.629   6.130
  647SOL    HW1 2840   3.630   2.561   6.144
  647SOL    HW2 2841   3.590   2.718   6.163
  648SOL     OW 2842   6.266   1.437   3.545
  648SOL    HW1 2843   6.347   1.495   3.555
  648SOL    HW2 2844   6.288   1.360   3.486
  649SOL     OW 2845   2.902   5.341   0.358
  649SOL    HW1 2846   2.878   5.420   0.302
  649SOL    HW2 2847   2.996   5.313   0.338
  650SOL     OW 2848   0.220   3.515   1.013
  650SOL    HW1 2849   0.302   3.485   0.964
  650SOL    HW2 2850   0.200   3.451   1.087
  651SOL     OW 2851   0.628   0.353   3.781
  651SOL    HW1 2852   0.699   0.289   3.749
  651SOL    HW2 2853   0.641   0.370   3.878
  652SOL     OW 2854   4.094   5.523   0.721
  652SOL    HW1 2855   4.118   5.499   0.815
  652SOL    HW2 2856   4.175   5.554   0.672
  653SOL     OW 2857   1.497   6.173   2.378
  653SOL    HW1 2858   1.546   6.188   2.293
  653SOL    HW2 2859   1.549   6.211   2.454
  654SOL     OW 2860   0.849   0.205   5.924
  654SOL    HW1 2861   0.750   0.196   5.938
  654SOL    HW2 2862   0.880   0.292   5.962
  655SOL     OW 2863   0.726   3.798   1.388
  655SOL    HW1 2864   0.772   3.715   1.420
  655SOL    HW2 2865   0.680   3.779   1.301
  656SOL     OW 2866   2.721   6.240   6.615
  656SOL    HW1 2867   2.658   6.193   6.678
  656SOL    HW2 2868   2.783   6.173   6.574
  657SOL     OW 2869   3.768   3.468   3.275
  657SOL    HW1 2870   3.839   3.476   3.205
  657SOL    HW2 2871   3.805   3.494   3.364
  658SOL     OW 2872   1.052   1.358   4.068
  658SOL    HW1 2873   1.128   1.294   4.078
  658SOL    HW2 2874   1.075   1.427   3.999
  659SOL     OW 2875   1.976   5.670   6.705
  659SOL    HW1 2876   1.907   5.598   6.716
  659SOL    HW2 2877   1.993   5.684   6.607
  660SOL     OW 2878   5.291   4.617   3.053
  660SOL    HW1 2879   5.285   4.518   3.038
  660SOL    HW2 2880   5.384   4.641   3.080
  661SOL     OW 2881   4.339   5.392   4.117
  661SOL    HW1 2882   4.375   5.409   4.025
  661SOL    HW2 2883   4.399   5.436   4.184
  662SOL     OW 2884   4.808   3.568   0.059
  662SOL    HW1 2885   4.903   3.598   0.064
  662SOL    HW2 2886   4.803   3.478   0.016
  663SOL     OW 2887   0.004   4.217   0.288
  663SOL    HW1 2888   0.022   4.310   0.320
  663SOL    HW2 2889   0.090   4.168   0.278
  664SOL     OW 2890   1.665   6.878   6.212
  664SOL    HW1 2891   1.749   6.853   6.260
  664SOL    HW2 2892   1.661   6.832   6.124
  665SOL     OW 2893   3.342   4.919   2.820
  665SOL    HW1 2894   3.388   4.920   2.731
  665SOL    HW2 2895   3.243   4.922   2.807
  666SOL     OW 2896   3.337   0.888   6.709
  666SOL    HW1 2897   3.301   0.865   6.799
  666SOL    HW2 2898   3.421   0.837   6.693
  667SOL     OW 2899   1.615   3.192   2.213
  667SOL    HW1 2900   1.584   3.220   2.121
  667SOL    HW2 2901   1.681   3.118   2.204
  668SOL     OW 2902   5.162   0.343   0.783
  668SOL    HW1 2903   5.131   0.266   0.728
  668SOL    HW2 2904   5.157   0.319   0.880
  669SOL     OW 2905   0.956   5.950   2.925
  669SOL    HW1 2906   0.934   5.877   2.990
  669SOL    HW2 2907   1.035   5.923   2.870
  670SOL     OW 2908   3.557   3.535   3.087
  670SOL    HW1 2909   3.610   3.607   3.042
  670SOL    HW2 2910   3.612   3.494   3.160
  671SOL     OW 2911   1.841   0.213   6.570
  671SOL    HW1 2912   1.891   0.298   6.553
  671SOL    HW2 2913   1.761   0.232   6.628
  672SOL     OW 2914   0.879   2.205   2.879
  672SOL    HW1 2915   0.851   2.120   2.925
  672SOL    HW2 2916   0.856   2.283   2.937
  673SOL     OW 2917   4.919   0.336   0.106
  673SOL    HW1 2918   4.947   0.413   0.163
  673SOL    HW2 2919   4.832   0.300   0.139
  674SOL     OW 2920   6.989   2.193   4.700
  674SOL    HW1 2921   0.048   2.228   4.664
  674SOL    HW2 2922   6.927   2.173   4.623
  675SOL     OW 2923   6.373   6.838   3.832
  675SOL    HW1 2924   6.471   6.857   3.825
  675SOL    HW2 2925   6.346   6.837   3.928
  676SOL     OW 2926   2.611   5.329   4.346
  676SOL    HW1 2927   2.627   5.232   4.365
  676SOL    HW2 2928   2.530   5.360   4.395
  677SOL     OW 2929   5.008   6.803   0.962
  677SOL    HW1 2930   4.966   6.845   0.881
  677SOL    HW2 2931   5.082   6.861   0.996
  678SOL     OW 2932   2.573   1.103   5.772
  678SOL    HW1 2933   2.573   1.085   5.673
  678SOL    HW2 2934   2.511   1.040   5.817
  679SOL     OW 2935   6.310   0.766   2.307
  679SOL    HW1 2936   6.351   0.826   2.237
  679SOL    HW2 2937   6.373   0.758   2.384
  680SOL     OW 2938   5.815   4.312   4.486
  680SOL    HW1 2939   5.840   4.409   4.489
  680SOL    HW2 2940   5.716   4.302   4.497
  681SOL     OW 2941   1.443   6.826   2.169
  681SOL    HW1 2942   1.511   6.885   2.126
  681SOL    HW2 2943   1.488   6.744   2.204
  682SOL     OW 2944   0.226   0.095   6.247
  682SOL    HW1 2945   0.160   0.023   6.225
  682SOL    HW2 2946   0.181   0.184   6.240
  683SOL     OW 2947   5.154   1.748   0.881
  683SOL    HW1 2948   5.205   1.749   0.967
  683SOL    HW2 2949   5.063   1.708   0.896
  684SOL     OW 2950   0.467   6.011   5.934
  684SOL    HW1 2951   0.520   6.054   5.861
  684SOL    HW2 2952   0.518   5.935   5.973
  685SOL     OW 2953   6.385   0.851   6.593
  685SOL    HW1 2954   6.356   0.809   6.679
  685SOL    HW2 2955   6.405   0.947   6.608
  686SOL     OW 2956   5.733   4.739   3.288
  686SOL    HW1 2957   5.764   4.831   3.263
  686SOL    HW2 2958   5.812   4.678   3.294
  687SOL     OW 2959   6.029   2.438   5.768
  687SOL    HW1 2960   5.964   2.513   5.772
  687SOL    HW2 2961   6.122   2.474   5.764
  688SOL     OW 2962   6.801   3.199   5.038
  688SOL    HW1 2963   6.873   3.155   5.090
  688SOL    HW2 2964   6.747   3.258   5.098
  689SOL     OW 2965   6.237   4.110   4.710
  689SOL    HW1 2966   6.162   4.176   4.715
  689SOL    HW2 2967   6.248   4.066   4.799
  690SOL     OW 2968   0.238   3.429   3.782
  690SOL    HW1 2969   0.293   3.347   3.768
  690SOL    HW2 2970   0.142   3.404   3.793
  691SOL     OW 2971   0.032   3.170   6.478
  691SOL    HW1 2972   0.084   3.254   6.497
  691SOL    HW2 2973   7.018   3.176   6.388
  692SOL     OW 2974   2.500   0.140   3.066
  692SOL    HW1 2975   2.578   0.099   3.113
  692SOL    HW2 2976   2.416   0.092   3.092
  693SOL     OW 2977   6.399   1.675   2.197
  693SOL    HW1 2978   6.373   1.705   2.106
  693SOL    HW2 2979   6.356   1.735   2.265
  694SOL     OW 2980   1.521   0.140   2.249
  694SOL    HW1 2981   1.557   0.090   2.328
  694SOL    HW2 2982   1.594   0.157   2.184
  695SOL     OW 2983   4.476   5.737   6.235
  695SOL    HW1 2984   4.474   5.837   6.231
  695SOL    HW2 2985   4.571   5.706   6.240
  696SOL     OW 2986   5.248   6.538   2.945
  696SOL    HW1 2987   5.348   6.540   2.937
  696SOL    HW2 2988   5.207   6.564   2.858
  697SOL     OW 2989   1.574   3.824   3.758
  697SOL    HW1 2990   1.656   3.863   3.800
  697SOL    HW2 2991   1.501   3.892   3.756
  698SOL     OW 2992   5.103   5.937   4.053
  698SOL    HW1 2993   5.043   5.964   4.129
  698SOL    HW2 2994   5.047   5.917   3.972
  699SOL     OW 2995   0.800   4.058   6.845
  699SOL    HW1 2996   0.716   4.112   6.839
  699SOL    HW2 2997   0.879   4.120   6.842
  700SOL     OW 2998   1.957   1.382   4.350
  700SOL    HW1 2999   1.962   1.452   4.279
  700SOL    HW2 3000   2.049   1.353   4.376
  701SOL     OW 3001   1.041   4.866   5.913
  701SOL    HW1 3002   0.974   4.911   5.972
  701SOL    HW2 3003   1.108   4.818   5.969
  702SOL     OW 3004   5.344   6.079   4.906
  702SOL    HW1 3005   5.415   6.111   4.969
  702SOL    HW2 3006   5.276   6.027   4.957
  703SOL     OW 3007   4.213   3.985   6.742
  703SOL    HW1 3008   4.304   3.952   6.764
  703SOL    HW2 3009   4.220   4.063   6.679
  704SOL     OW 3010   2.588   0.579   1.618
  704SOL    HW1 3011   2.566   0.674   1.637
  704SOL    HW2 3012   2.504   0.525   1.619
  705SOL     OW 3013   6.900   2.143   3.762
  705SOL    HW1 3014   6.992   2.134   3.802
  705SOL    HW2 3015   6.892   2.079   3.685
  706SOL     OW 3016   5.088   2.670   3.851
  706SOL    HW1 3017   5.071   2.741   3.782
  706SOL    HW2 3018   5.182   2.638   3.843
  707SOL     OW 3019   4.682   1.992   2.665
  707SOL    HW1 3020   4.703   2.052   2.589
  707SOL    HW2 3021   4.700   1.897   2.639
  708SOL     OW 3022   4.343   0.524   2.237
  708SOL    HW1 3023   4.278   0.600   2.247
  708SOL    HW2 3024   4.405   0.523   2.316
  709SOL     OW 3025   0.761   5.188   0.176
  709SOL    HW1 3026   0.721   5.269   0.134
  709SOL    HW2 3027   0.757   5.196   0.276
  710SOL     OW 3028   2.865   3.421   2.624
  710SOL    HW1 3029   2.844   3.470   2.539
  710SOL    HW2 3030   2.883   3.325   2.603
  711SOL     OW 3031   1.196   1.300   4.560
  711SOL    HW1 3032   1.285   1.257   4.546
  711SOL    HW2 3033   1.174   1.299   4.658
  712SOL     OW 3034   1.088   3.695   2.274
  712SOL    HW1 3035   1.144   3.732   2.200
  712SOL    HW2 3036   1.112   3.600   2.290
  713SOL     OW 3037   3.361   3.707   3.823
  713SOL    HW1 3038   3.313   3.779   3.873
  713SOL    HW2 3039   3.457   3.704   3.853
  714SOL     OW 3040   5.034   5.135   5.448
  714SOL    HW1 3041   4.985   5.131   5.535
  714SOL    HW2 3042   5.053   5.230   5.425
  715SOL     OW 3043   4.797   0.867   6.589
  715SOL    HW1 3044   4.846   0.908   6.666
  715SOL    HW2 3045   4.706   0.908   6.582
  716SOL     OW 3046   6.739   5.204   1.834
  716SOL    HW1 3047   6.642   5.214   1.855
  716SOL    HW2 3048   6.786   5.291   1.852
  717SOL     OW 3049   5.997   3.022   0.017
  717SOL    HW1 3050   5.976   3.011   0.115
  717SOL    HW2 3051   5.981   3.117   7.018
  718SOL     OW 3052   2.184   3.188   6.854
  718SOL    HW1 3053   2.250   3.214   6.924
  718SOL    HW2 3054   2.232   3.176   6.767
  719SOL     OW 3055   5.022   5.495   0.591
  719SOL    HW1 3056   5.059   5.546   0.669
  719SOL    HW2 3057   4.973   5.415   0.625
  720SOL     OW 3058   2.665   0.814   6.238
  720SOL    HW1 3059   2.745   0.759   6.215
  720SOL    HW2 3060   2.692   0.893   6.292
  721SOL     OW 3061   1.493   6.319   5.364
  721SOL    HW1 3062   1.442   6.374   5.297
  721SOL    HW2 3063   1.434   6.245   5.397
  722SOL     OW 3064   4.483   6.655   5.440
  722SOL    HW1 3065   4.565   6.616   5.396
  722SOL    HW2 3066   4.449   6.591   5.509
  723SOL     OW 3067   1.874   3.196   1.883
  723SOL    HW1 3068   1.779   3.219   1.907
  723SOL    HW2 3069   1.936   3.251   1.938
  724SOL     OW 3070   6.576   0.492   4.465
  724SOL    HW1 3071   6.491   0.477   4.415
  724SOL    HW2 3072   6.555   0.523   4.558
  725SOL     OW 3073   2.616   4.798   1.177
  725SOL    HW1 3074   2.616   4.702   1.148
  725SOL    HW2 3075   2.640   4.803   1.274
  726SOL     OW 3076   4.476   6.846   5.818
  726SOL    HW1 3077   4.492   6.758   5.774
  726SOL    HW2 3078   4.381   6.873   5.805
  727SOL     OW 3079   2.452   4.371   3.783
  727SOL    HW1 3080   2.501   4.363   3.870
  727SOL    HW2 3081   2.477   4.457   3.738
  728SOL     OW 3082   0.001   3.140   5.200
  728SOL    HW1 3083   6.984   3.054   5.228
  728SOL    HW2 3084   6.996   3.214   5.258
  729SOL     OW 3085   3.323   0.529   0.682
  729SOL    HW1 3086   3.309   0.432   0.702
  729SOL    HW2 3087   3.357   0.540   0.589
  730SOL     OW 3088   5.583   1.343   5.129
  730SOL    HW1 3089   5.554   1.426   5.177
  730SOL    HW2 3090   5.517   1.270   5.144
  731SOL     OW 3091   6.566   3.109   4.286
  731SOL    HW1 3092   6.596   3.076   4.376
  731SOL    HW2 3093   6.519   3.036   4.237
  732SOL     OW 3094   6.835   3.084   3.204
  732SOL    HW1 3095   6.821   3.164   3.262
  732SOL    HW2 3096   6.807   3.002   3.253
  733SOL     OW 3097   4.383   4.703   4.329
  733SOL    HW1 3098   4.457   4.750   4.376
  733SOL    HW2 3099   4.367   4.745   4.240
  734SOL     OW 3100   0.959   4.887   0.207
  734SOL    HW1 3101   0.870   4.864   0.246
  734SOL    HW2 3102   0.949   4.902   0.109
  735SOL     OW 3103   2.367   4.744   6.661
  735SOL    HW1 3104   2.394   4.796   6.580
  735SOL    HW2 3105   2.416   4.780   6.741
  736SOL     OW 3106   5.883   0.752   2.779
  736SOL    HW1 3107   5.918   0.671   2.826
  736SOL    HW2 3108   5.960   0.809   2.750
  737SOL     OW 3109   5.763   4.051   0.610
  737SOL    HW1 3110   5.803   4.119   0.548
  737SOL    HW2 3111   5.710   3.985   0.556
  738SOL     OW 3112   0.789   4.684   3.106
  738SOL    HW1 3113   0.693   4.663   3.126
  738SOL    HW2 3114   0.808   4.664   3.010
  739SOL     OW 3115   4.185   6.296   6.454
  739SOL    HW1 3116   4.169   6.246   6.369
  739SOL    HW2 3117   4.252   6.247   6.510
  740SOL     OW 3118   5.409   0.245   0.725
  740SOL    HW1 3119   5.354   0.181   0.670
  740SOL    HW2 3120   5.349   0.305   0.777
  741SOL     OW 3121   2.285   0.321   4.131
  741SOL    HW1 3122   2.327   0.240   4.170
  741SOL    HW2 3123   2.237   0.297   4.047
  742SOL     OW 3124   1.671   6.917   2.380
  742SOL    HW1 3125   1.606   6.916   2.456
  742SOL    HW2 3126   1.656   6.836   2.322
  743SOL     OW 3127   1.932   3.175   4.671
  743SOL    HW1 3128   1.844   3.191   4.717
  743SOL    HW2 3129   1.998   3.245   4.699
  744SOL     OW 3130   0.154   5.649   1.009
  744SOL    HW1 3131   0.113   5.695   0.930
  744SOL    HW2 3132   0.093   5.657   1.088
  745SOL     OW 3133   1.857   5.780   3.289
  745SOL    HW1 3134   1.930   5.712   3.282
  745SOL    HW2 3135   1.867   5.847   3.216
  746SOL     OW 3136   2.742   0.654   4.133
  746SOL    HW1 3137   2.804   0.711   4.079
  746SOL    HW2 3138   2.665   0.710   4.164
  747SOL     OW 3139   6.108   4.238   1.530
  747SOL    HW1 3140   6.110   4.335   1.507
  747SOL    HW2 3141   6.200   4.199   1.517
  748SOL     OW 3142   3.805   2.903   2.156
  748SOL    HW1 3143   3.723   2.846   2.149
  748SOL    HW2 3144   3.886   2.845   2.167
  749SOL     OW 3145   6.741   1.461   5.103
  749SOL    HW1 3146   6.691   1.429   5.184
  749SOL    HW2 3147   6.828   1.501   5.131
  750SOL     OW 3148   2.988   3.811   1.252
  750SOL    HW1 3149   2.948   3.750   1.183
  750SOL    HW2 3150   2.982   3.768   1.342
  751SOL     OW 3151   4.929   1.155   0.430
  751SOL    HW1 3152   4.899   1.060   0.430
  751SOL    HW2 3153   4.930   1.189   0.524
  752SOL     OW 3154   4.858   1.104   2.036
  752SOL    HW1 3155   4.885   1.077   1.943
  752SOL    HW2 3156   4.868   1.026   2.097
  753SOL     OW 3157   2.795   1.623   2.405
  753SOL    HW1 3158   2.892   1.628   2.428
  753SOL    HW2 3159   2.743   1.594   2.485
  754SOL     OW 3160   5.048   5.865   6.771
  754SOL    HW1 3161   4.993   5.788   6.802
  754SOL    HW2 3162   5.139   5.860   6.813
  755SOL     OW 3163   6.992   6.315   2.921
  755SOL    HW1 3164   7.007   6.222   2.887
  755SOL    HW2 3165   0.052   6.355   2.949
  756SOL     OW 3166   3.576   6.549   3.731
  756SOL    HW1 3167   3.592   6.578   3.637
  756SOL    HW2 3168   3.586   6.628   3.793
  757SOL     OW 3169   6.562   0.847   5.058
  757SOL    HW1 3170   6.560   0.876   5.153
  757SOL    HW2 3171   6.602   0.920   5.002
  758SOL     OW 3172   4.232   1.887   2.060
  758SOL    HW1 3173   4.232   1.890   1.960
  758SOL    HW2 3174   4.324   1.868   2.092
  759SOL     OW 3175   1.833   0.561   0.756
  759SOL    HW1 3176   1.760   0.529   0.815
  759SOL    HW2 3177   1.838   0.661   0.760
  760SOL     OW 3178   4.539   2.235   5.954
  760SOL    HW1 3179   4.557   2.204   5.861
  760SOL    HW2 3180   4.451   2.199   5.985
  761SOL     OW 3181   5.731   1.877   6.980
  761SOL    HW1 3182   5.733   1.839   0.045
  761SOL    HW2 3183   5.690   1.810   6.918
  762SOL     OW 3184   2.027   5.232   4.080
  762SOL    HW1 3185   2.104   5.276   4.127
  762SOL    HW2 3186   2.015   5.273   3.989
  763SOL     OW 3187   5.926   5.335   6.768
  763SOL    HW1 3188   5.977   5.260   6.811
  763SOL    HW2 3189   5.829   5.311   6.763
  764SOL     OW 3190   4.728   1.055   2.838
  764SOL    HW1 3191   4.683   0.994   2.773
  764SOL    HW2 3192   4.749   1.004   2.922
  765SOL     OW 3193   6.836   6.327   3.306
  765SOL    HW1 3194   6.806   6.232   3.306
  765SOL    HW2 3195   6.781   6.379   3.372
  766SOL     OW 3196   0.388   6.310   6.917
  766SOL    HW1 3197   0.364   6.268   7.005
  766SOL    HW2 3198   0.344   6.399   6.909
  767SOL     OW 3199   5.903   6.754   1.653
  767SOL    HW1 3200   5.818   6.702   1.663
  767SOL    HW2 3201   5.901   6.804   1.566
  768SOL     OW 3202   3.086   6.525   3.565
  768SOL    HW1 3203   3.133   6.456   3.620
  768SOL    HW2 3204   3.048   6.595   3.626
  769SOL     OW 3205   3.004   0.662   6.874
  769SOL    HW1 3206   3.009   0.592   6.802
  769SOL    HW2 3207   2.913   0.662   6.915
  770SOL     OW 3208   3.145   5.142   3.395
  770SOL    HW1 3209   3.069   5.189   3.351
  770SOL    HW2 3210   3.219   5.129   3.329
  771SOL     OW 3211   0.225   5.467   4.406
  771SOL    HW1 3212   0.236   5.564   4.384
  771SOL    HW2 3213   0.195   5.417   4.324
  772SOL     OW 3214   6.707   4.406   5.205
  772SOL    HW1 3215   6.804   4.406   5.182
  772SOL    HW2 3216   6.658   4.466   5.142
  773SOL     OW 3217   0.306   3.647   1.665
  773SOL    HW1 3218   0.400   3.673   1.685
  773SOL    HW2 3219   0.255   3.638   1.751
  774SOL     OW 3220   1.666   1.237   1.224
  774SOL    HW1 3221   1.702   1.232   1.317
  774SOL    HW2 3222   1.672   1.331   1.191
  775SOL     OW 3223   1.204   2.118   4.357
  775SOL    HW1 3224   1.274   2.108   4.428
  775SOL    HW2 3225   1.249   2.137   4.269
  776SOL     OW 3226   2.217   0.332   5.955
  776SOL    HW1 3227   2.119   0.349   5.949
  776SOL    HW2 3228   2.246   0.334   6.051
  777SOL     OW 3229   4.148   0.451   0.258
  777SOL    HW1 3230   4.183   0.444   0.164
  777SOL    HW2 3231   4.181   0.535   0.300
  778SOL     OW 3232   4.238   6.228   3.890
  778SOL    HW1 3233   4.295   6.182   3.822
  778SOL    HW2 3234   4.291   6.241   3.974
  779SOL     OW 3235   1.261   0.969   2.473
  779SOL    HW1 3236   1.234   0.876   2.449
  779SOL    HW2 3237   1.267   1.024   2.389
  780SOL     OW 3238   5.203   3.475   5.013
  780SOL    HW1 3239   5.228   3.413   5.087
  780SOL    HW2 3240   5.217   3.430   4.925
  781SOL     OW 3241   0.765   2.052   6.424
  781SOL    HW1 3242   0.674   2.066   6.384
  781SOL    HW2 3243   0.766   1.966   6.476
  782SOL     OW 3244   0.225   4.117   0.718
  782SOL    HW1 3245   0.273   4.135   0.804
  782SOL    HW2 3246   0.164   4.193   0.697
  783SOL     OW 3247   2.576   4.006   0.421
  783SOL    HW1 3248   2.562   4.001   0.322
  783SOL    HW2 3249   2.546   3.921   0.463
  784SOL     OW 3250   5.072   6.197   3.743
  784SOL    HW1 3251   5.019   6.115   3.763
  784SOL    HW2 3252   5.083   6.251   3.826
  785SOL     OW 3253   6.079   2.194   4.044
  785SOL    HW1 3254   6.097   2.181   4.142
  785SOL    HW2 3255   5.986   2.227   4.031
  786SOL     OW 3256   6.187   0.028   6.878
  786SOL    HW1 3257   6.277   7.012   6.891
  786SOL    HW2 3258   6.124   7.021   6.947
  787SOL     OW 3259   4.139   1.376   6.577
  787SOL    HW1 3260   4.199   1.354   6.501
  787SOL    HW2 3261   4.077   1.450   6.551
  788SOL     OW 3262   0.768   4.478   3.913
  788SOL    HW1 3263   0.766   4.516   3.821
  788SOL    HW2 3264   0.859   4.492   3.953
  789SOL     OW 3265   5.897   3.375   0.977
  789SOL    HW1 3266   5.812   3.424   0.960
  789SOL    HW2 3267   5.882   3.303   1.045
  790SOL     OW 3268   3.380   1.081   4.212
  790SOL    HW1 3269   3.428   0.997   4.182
  790SOL    HW2 3270   3.362   1.075   4.310
  791SOL     OW 3271   3.745   2.110   4.359
  791SOL    HW1 3272   3.691   2.124   4.442
  791SOL    HW2 3273   3.689   2.064   4.290
  792SOL     OW 3274   5.579   6.922   3.565
  792SOL    HW1 3275   5.530   6.839   3.540
  792SOL    HW2 3276   5.659   6.932   3.506
  793SOL     OW 3277   6.504   0.124   6.256
  793SOL    HW1 3278   6.453   0.042   6.281
  793SOL    HW2 3279   6.451   0.178   6.191
  794SOL     OW 3280   3.571   5.194   4.818
  794SOL    HW1 3281   3.583   5.096   4.805
  794SOL    HW2 3282   3.563   5.238   4.728
  795SOL     OW 3283   4.837   4.894   6.237
  795SOL    HW1 3284   4.767   4.858   6.299
  795SOL    HW2 3285   4.921   4.912   6.289
  796SOL     OW 3286   0.766   2.139   6.116
  796SOL    HW1 3287   0.751   2.132   6.215
  796SOL    HW2 3288   0.864   2.141   6.097
  797SOL     OW 3289   5.890   2.511   4.918
  797SOL    HW1 3290   5.874   2.605   4.887
  797SOL    HW2 3291   5.985   2.502   4.950
  798SOL     OW 3292   6.329   0.801   5.340
  798SOL    HW1 3293   6.375   0.737   5.402
  798SOL    HW2 3294   6.393   0.873   5.313
  799SOL     OW 3295   6.764   3.726   3.591
  799SOL    HW1 3296   6.830   3.723   3.665
  799SOL    HW2 3297   6.799   3.783   3.517
  800SOL     OW 3298   6.738   1.464   2.050
  800SOL    HW1 3299   6.702   1.371   2.052
  800SOL    HW2 3300   6.834   1.462   2.022
  801SOL     OW 3301   0.670   2.011   4.121
  801SOL    HW1 3302   0.739   1.941   4.135
  801SOL    HW2 3303   0.589   1.970   4.078
  802SOL     OW 3304   5.478   1.338   1.197
  802SOL    HW1 3305   5.413   1.274   1.237
  802SOL    HW2 3306   5.463   1.429   1.235
  803SOL     OW 3307   1.709   0.376   4.652
  803SOL    HW1 3308   1.613   0.397   4.668
  803SOL    HW2 3309   1.716   0.292   4.598
  804SOL     OW 3310   6.264   6.764   1.220
  804SOL    HW1 3311   6.241   6.667   1.223
  804SOL    HW2 3312   6.236   6.803   1.132
  805SOL     OW 3313   1.426   3.625   5.810
  805SOL    HW1 3314   1.509   3.569   5.809
  805SOL    HW2 3315   1.445   3.713   5.766
  806SOL     OW 3316   4.745   0.783   1.212
  806SOL    HW1 3317   4.749   0.724   1.131
  806SOL    HW2 3318   4.665   0.843   1.206
  807SOL     OW 3319   1.073   0.314   2.857
  807SOL    HW1 3320   0.996   0.255   2.878
  807SOL    HW2 3321   1.092   0.311   2.759
  808SOL     OW 3322   6.288   3.224   5.382
  808SOL    HW1 3323   6.261   3.183   5.294
  808SOL    HW2 3324   6.301   3.322   5.369
  809SOL     OW 3325   0.802   5.157   6.176
  809SOL    HW1 3326   0.762   5.066   6.186
  809SOL    HW2 3327   0.804   5.202   6.265
  810SOL     OW 3328   6.655   4.909   6.749
  810SOL    HW1 3329   6.629   4.984   6.809
  810SOL    HW2 3330   6.671   4.944   6.656
  811SOL     OW 3331   4.442   5.106   3.682
  811SOL    HW1 3332   4.479   5.192   3.716
  811SOL    HW2 3333   4.496   5.030   3.716
  812SOL     OW 3334   0.661   0.261   2.433
  812SOL    HW1 3335   0.749   0.231   2.397
  812SOL    HW2 3336   0.653   0.360   2.422
  813SOL     OW 3337   5.909   5.616   2.171
  813SOL    HW1 3338   5.935   5.522   2.149
  813SOL    HW2 3339   5.883   5.664   2.086
  814SOL     OW 3340   5.636   5.563   1.514
  814SOL    HW1 3341   5.580   5.557   1.597
  814SOL    HW2 3342   5.683   5.476   1.499
  815SOL     OW 3343   0.902   1.946   0.287
  815SOL    HW1 3344   0.958   1.873   0.247
  815SOL    HW2 3345   0.962   2.012   0.333
  816SOL     OW 3346   6.162   0.314   1.233
  816SOL    HW1 3347   6.212   0.366   1.164
  816SOL    HW2 3348   6.118   0.376   1.297
  817SOL     OW 3349   0.787   1.653   1.952
  817SOL    HW1 3350   0.721   1.658   1.878
  817SOL    HW2 3351   0.800   1.744   1.992
  818SOL     OW 3352   6.316   1.657   1.893
  818SOL    HW1 3353   6.415   1.665   1.896
  818SOL    HW2 3354   6.278   1.736   1.844
  819SOL     OW 3355   0.525   4.625   3.159
  819SOL    HW1 3356   0.488   4.709   3.121
  819SOL    HW2 3357   0.451   4.570   3.198
  820SOL     OW 3358   1.457   2.922   4.882
  820SOL    HW1 3359   1.499   2.946   4.794
  820SOL    HW2 3360   1.529   2.898   4.947
  821SOL     OW 3361   1.146   3.505   0.830
  821SOL    HW1 3362   1.156   3.407   0.813
  821SOL    HW2 3363   1.071   3.541   0.773
  822SOL     OW 3364   1.524   3.811   5.020
  822SOL    HW1 3365   1.551   3.801   4.924
  822SOL    HW2 3366   1.533   3.723   5.067
  823SOL     OW 3367   3.171   3.495   0.921
  823SOL    HW1 3368   3.257   3.544   0.904
  823SOL    HW2 3369   3.169   3.411   0.866
  824SOL     OW 3370   5.921   2.095   6.120
  824SOL    HW1 3371   5.936   2.148   6.204
  824SOL    HW2 3372   5.998   2.032   6.107
  825SOL     OW 3373   1.304   4.250   1.766
  825SOL    HW1 3374   1.336   4.165   1.807
  825SOL    HW2 3375   1.381   4.298   1.723
  826SOL     OW 3376   0.929   4.616   5.796
  826SOL    HW1 3377   0.890   4.524   5.803
  826SOL    HW2 3378   1.005   4.624   5.861
  827SOL     OW 3379   3.885   5.747   0.786
  827SOL    HW1 3380   3.954   5.676   0.770
  827SOL    HW2 3381   3.930   5.834   0.804
  828SOL     OW 3382   6.312   6.794   5.647
  828SOL    HW1 3383   6.239   6.825   5.708
  828SOL    HW2 3384   6.376   6.869   5.633
  829SOL     OW 3385   3.918   3.054   5.045
  829SOL    HW1 3386   3.948   3.081   4.954
  829SOL    HW2 3387   3.829   3.009   5.040
  830SOL     OW 3388   4.713   3.751   5.863
  830SOL    HW1 3389   4.742   3.696   5.785
  830SOL    HW2 3390   4.736   3.847   5.847
  831SOL     OW 3391   6.748   0.022   4.909
  831SOL    HW1 3392   6.815   0.071   4.964
  831SOL    HW2 3393   6.691   0.088   4.859
  832SOL     OW 3394   2.289   1.235   5.878
  832SOL    HW1 3395   2.280   1.186   5.791
  832SOL    HW2 3396   2.200   1.243   5.921
  833SOL     OW 3397   1.099   6.824   5.712
  833SOL    HW1 3398   1.122   6.868   5.625
  833SOL    HW2 3399   1.052   6.889   5.771
  834SOL     OW 3400   3.234   4.418   5.811
  834SOL    HW1 3401   3.190   4.399   5.723
  834SOL    HW2 3402   3.186   4.492   5.858
  835SOL     OW 3403   4.385   0.932   3.442
  835SOL    HW1 3404   4.419   0.994   3.371
  835SOL    HW2 3405   4.363   0.984   3.524
  836SOL     OW 3406   2.327   0.470   0.128
  836SOL    HW1 3407   2.348   0.516   0.215
  836SOL    HW2 3408   2.228   0.470   0.114
  837SOL     OW 3409   3.734   0.889   5.129
  837SOL    HW1 3410   3.768   0.917   5.218
  837SOL    HW2 3411   3.645   0.844   5.139
  838SOL     OW 3412   1.550   4.631   2.538
  838SOL    HW1 3413   1.640   4.642   2.580
  838SOL    HW2 3414   1.527   4.534   2.532
  839SOL     OW 3415   3.621   0.914   1.632
  839SOL    HW1 3416   3.660   0.913   1.540
  839SOL    HW2 3417   3.546   0.981   1.636
  840SOL     OW 3418   0.518   1.901   6.191
  840SOL    HW1 3419   0.530   1.982   6.248
  840SOL    HW2 3420   0.529   1.926   6.095
  841SOL     OW 3421   0.203   3.349   0.646
  841SOL    HW1 3422   0.275   3.334   0.714
  841SOL    HW2 3423   0.189   3.448   0.634
  842SOL     OW 3424   3.474   5.520   3.450
  842SOL    HW1 3425   3.461   5.523   3.549
  842SOL    HW2 3426   3.387   5.499   3.406
  843SOL     OW 3427   6.488   4.154   2.227
  843SOL    HW1 3428   6.536   4.205   2.156
  843SOL    HW2 3429   6.422   4.092   2.184
  844SOL     OW 3430   5.306   5.715   0.232
  844SOL    HW1 3431   5.274   5.720   0.326
  844SOL    HW2 3432   5.268   5.634   0.188
  845SOL     OW 3433   1.747   5.170   4.336
  845SOL    HW1 3434   1.678   5.139   4.401
  845SOL    HW2 3435   1.773   5.095   4.276
  846SOL     OW 3436   5.075   3.052   7.009
  846SOL    HW1 3437   5.151   3.013   6.957
  846SOL    HW2 3438   5.076   3.016   0.075
  847SOL     OW 3439   5.305   4.016   2.054
  847SOL    HW1 3440   5.304   4.093   1.990
  847SOL    HW2 3441   5.394   4.011   2.099
  848SOL     OW 3442   6.383   0.032   5.570
  848SOL    HW1 3443   6.337   0.114   5.603
  848SOL    HW2 3444   6.410   0.044   5.475
  849SOL     OW 3445   0.924   5.610   4.256
  849SOL    HW1 3446   0.887   5.619   4.164
  849SOL    HW2 3447   1.014   5.567   4.252
  850SOL     OW 3448   3.551   0.719   3.420
  850SOL    HW1 3449   3.476   0.664   3.384
  850SOL    HW2 3450   3.517   0.775   3.496
  851SOL     OW 3451   0.534   0.522   5.303
  851SOL    HW1 3452   0.519   0.445   5.241
  851SOL    HW2 3453   0.452   0.535   5.359
  852SOL     OW 3454   2.785   4.722   5.745
  852SOL    HW1 3455   2.741   4.647   5.695
  852SOL    HW2 3456   2.840   4.776   5.682
  853SOL     OW 3457   1.518   3.833   1.014
  853SOL    HW1 3458   1.427   3.792   1.004
  853SOL    HW2 3459   1.525   3.913   0.955
  854SOL     OW 3460   6.463   5.086   1.973
  854SOL    HW1 3461   6.462   5.110   2.070
  854SOL    HW2 3462   6.385   5.129   1.927
  855SOL     OW 3463   5.354   0.549   1.421
  855SOL    HW1 3464   5.270   0.496   1.410
  855SOL    HW2 3465   5.433   0.488   1.414
  856SOL     OW 3466   1.149   1.277   4.824
  856SOL    HW1 3467   1.137   1.356   4.884
  856SOL    HW2 3468   1.198   1.205   4.873
  857SOL     OW 3469   6.241   3.810   1.596
  857SOL    HW1 3470   6.162   3.851   1.549
  857SOL    HW2 3471   6.290   3.881   1.646
  858SOL     OW 3472   3.428   3.513   1.082
  858SOL    HW1 3473   3.517   3.531   1.039
  858SOL    HW2 3474   3.382   3.599   1.102
  859SOL     OW 3475   0.017   4.969   0.819
  859SOL    HW1 3476   0.062   4.931   0.739
  859SOL    HW2 3477   0.085   5.003   0.884
  860SOL     OW 3478   2.170   4.931   0.744
  860SOL    HW1 3479   2.223   4.857   0.785
  860SOL    HW2 3480   2.232   5.003   0.713
  861SOL     OW 3481   3.588   4.612   6.119
  861SOL    HW1 3482   3.668   4.671   6.106
  861SOL    HW2 3483   3.564   4.568   6.032
  862SOL     OW 3484   4.768   4.152   3.755
  862SOL    HW1 3485   4.812   4.233   3.717
  862SOL    HW2 3486   4.722   4.176   3.841
  863SOL     OW 3487   5.895   1.745   0.796
  863SOL    HW1 3488   5.833   1.668   0.780
  863SOL    HW2 3489   5.984   1.711   0.826
  864SOL     OW 3490   6.771   4.434   2.419
  864SOL    HW1 3491   6.696   4.412   2.357
  864SOL    HW2 3492   6.746   4.408   2.513
  865SOL     OW 3493   1.860   0.752   3.675
  865SOL    HW1 3494   1.845   0.661   3.635
  865SOL    HW2 3495   1.892   0.742   3.769
  866SOL     OW 3496   3.834   1.038   0.857
  866SOL    HW1 3497   3.742   1.052   0.895
  866SOL    HW2 3498   3.830   1.045   0.758
  867SOL     OW 3499   2.002   1.635   6.177
  867SOL    HW1 3500   1.953   1.627   6.090
  867SOL    HW2 3501   1.955   1.701   6.236
  868SOL     OW 3502   6.041   2.980   3.374
  868SOL    HW1 3503   6.048   2.962   3.472
  868SOL    HW2 3504   6.106   3.051   3.348
  869SOL     OW 3505   6.696   4.225   1.541
  869SOL    HW1 3506   6.717   4.167   1.462
  869SOL    HW2 3507   6.659   4.168   1.615
  870SOL     OW 3508   6.539   2.435   0.408
  870SOL    HW1 3509   6.451   2.438   0.361
  870SOL    HW2 3510   6.531   2.482   0.496
  871SOL     OW 3511   6.161   4.148   0.638
  871SOL    HW1 3512   6.100   4.071   0.619
  871SOL    HW2 3513   6.207   4.176   0.553
  872SOL     OW 3514   6.057   2.289   2.102
  872SOL    HW1 3515   6.106   2.371   2.071
  872SOL    HW2 3516   5.959   2.305   2.098
  873SOL     OW 3517   3.914   7.003   4.687
  873SOL    HW1 3518   3.969   6.943   4.745
  873SOL    HW2 3519   3.973   0.046   4.647
  874SOL     OW 3520   0.124   3.716   6.057
  874SOL    HW1 3521   0.184   3.691   5.982
  874SOL    HW2 3522   0.110   3.815   6.058
  875SOL     OW 3523   5.812   5.169   6.493
  875SOL    HW1 3524   5.904   5.175   6.531
  875SOL    HW2 3525   5.768   5.259   6.499
  876SOL     OW 3526   1.072   1.941   0.832
  876SOL    HW1 3527   1.067   2.011   0.760
  876SOL    HW2 3528   0.980   1.908   0.853
  877SOL     OW 3529   5.792   6.116   0.605
  877SOL    HW1 3530   5.700   6.103   0.641
  877SOL    HW2 3531   5.789   6.119   0.505
  878SOL     OW 3532   3.551   2.160   0.324
  878SOL    HW1 3533   3.597   2.097   0.388
  878SOL    HW2 3534   3.581   2.140   0.231
  879SOL     OW 3535   4.125   1.951   2.638
  879SOL    HW1 3536   4.213   1.982   2.673
  879SOL    HW2 3537   4.134   1.929   2.541
  880SOL     OW 3538   4.310   5.664   1.859
  880SOL    HW1 3539   4.290   5.624   1.949
  880SOL    HW2 3540   4.385   5.730   1.868
  881SOL     OW 3541   4.639   5.051   4.220
  881SOL    HW1 3542   4.705   5.047   4.145
  881SOL    HW2 3543   4.649   5.138   4.269
  882SOL     OW 3544   0.996   2.141   4.560
  882SOL    HW1 3545   1.028   2.138   4.465
  882SOL    HW2 3546   0.985   2.236   4.588
  883SOL     OW 3547   3.930   4.058   0.044
  883SOL    HW1 3548   3.986   4.130   0.004
  883SOL    HW2 3549   3.860   4.030   7.006
  884SOL     OW 3550   4.075   3.941   1.797
  884SOL    HW1 3551   3.993   3.956   1.741
  884SOL    HW2 3552   4.047   3.921   1.891
  885SOL     OW 3553   4.416   6.296   6.170
  885SOL    HW1 3554   4.402   6.267   6.075
  885SOL    HW2 3555   4.387   6.391   6.179
  886SOL     OW 3556   3.772   1.814   6.889
  886SOL    HW1 3557   3.803   1.880   6.821
  886SOL    HW2 3558   3.689   1.848   6.934
  887SOL     OW 3559   5.388   7.006   5.920
  887SOL    HW1 3560   5.398   6.951   5.837
  887SOL    HW2 3561   5.369   0.074   5.894
  888SOL     OW 3562   6.603   6.499   3.174
  888SOL    HW1 3563   6.628   6.474   3.267
  888SOL    HW2 3564   6.681   6.483   3.113
  889SOL     OW 3565   0.806   0.209   4.379
  889SOL    HW1 3566   0.849   0.119   4.383
  889SOL    HW2 3567   0.867   0.278   4.417
  890SOL     OW 3568   1.837   4.433   2.356
  890SOL    HW1 3569   1.935   4.446   2.375
  890SOL    HW2 3570   1.822   4.339   2.324
  891SOL     OW 3571   5.693   3.620   6.197
  891SOL    HW1 3572   5.656   3.705   6.236
  891SOL    HW2 3573   5.720   3.558   6.271
  892SOL     OW 3574   2.183   5.325   1.306
  892SOL    HW1 3575   2.223   5.296   1.393
  892SOL    HW2 3576   2.175   5.246   1.245
  893SOL     OW 3577   1.807   6.713   1.691
  893SOL    HW1 3578   1.770   6.805   1.707
  893SOL    HW2 3579   1.829   6.703   1.594
  894SOL     OW 3580   1.049   5.304   4.110
  894SOL    HW1 3581   1.076   5.392   4.072
  894SOL    HW2 3582   1.115   5.276   4.181
  895SOL     OW 3583   2.407   1.084   4.538
  895SOL    HW1 3584   2.370   1.169   4.577
  895SOL    HW2 3585   2.340   1.011   4.549
  896SOL     OW 3586   5.238   6.894   3.557
  896SOL    HW1 3587   5.296   6.852   3.626
  896SOL    HW2 3588   5.221   6.990   3.580
  897SOL     OW 3589   5.078   1.927   6.432
  897SOL    HW1 3590   5.112   2.018   6.458
  897SOL    HW2 3591   4.998   1.938   6.373
  898SOL     OW 3592   5.574   5.863   4.069
  898SOL    HW1 3593   5.568   5.939   4.005
  898SOL    HW2 3594   5.499   5.800   4.053
  899SOL     OW 3595   0.939   4.154   0.254
  899SOL    HW1 3596   0.877   4.208   0.197
  899SOL    HW2 3597   0.886   4.094   0.314
  900SOL     OW 3598   0.664   5.982   3.462
  900SOL    HW1 3599   0.659   5.958   3.559
  900SOL    HW2 3600   0.697   6.076   3.454
  901SOL     OW 3601   5.604   1.702   3.402
  901SOL    HW1 3602   5.565   1.721   3.492
  901SOL    HW2 3603   5.534   1.716   3.332
  902SOL     OW 3604   1.201   5.928   6.919
  902SOL    HW1 3605   1.119   5.877   6.891
  902SOL    HW2 3606   1.259   5.943   6.839
  903SOL     OW 3607   0.543   4.941   6.686
  903SOL    HW1 3608   0.451   4.907   6.670
  903SOL    HW2 3609   0.587   4.886   6.757
  904SOL     OW 3610   1.582   0.837   3.685
  904SOL    HW1 3611   1.672   0.804   3.713
  904SOL    HW2 3612   1.562   0.804   3.593
  905SOL     OW 3613   6.300   2.170   5.179
  905SOL    HW1 3614   6.242   2.188   5.100
  905SOL    HW2 3615   6.385   2.126   5.149
  906SOL     OW 3616   6.460   4.076   5.527
  906SOL    HW1 3617   6.474   3.982   5.556
  906SOL    HW2 3618   6.414   4.078   5.438
  907SOL     OW 3619   0.325   3.232   2.040
  907SOL    HW1 3620   0.265   3.305   2.074
  907SOL    HW2 3621   0.269   3.161   1.997
  908SOL     OW 3622   2.501   0.798   3.434
  908SOL    HW1 3623   2.433   0.732   3.465
  908SOL    HW2 3624   2.523   0.781   3.338
  909SOL     OW 3625   4.300   6.898   0.963
  909SOL    HW1 3626   4.263   6.954   1.037
  909SOL    HW2 3627   4.269   6.935   0.875
  910SOL     OW 3628   2.020   1.649   1.750
  910SOL    HW1 3629   2.016   1.594   1.834
  910SOL    HW2 3630   2.076   1.730   1.766
  911SOL     OW 3631   0.343   3.774   0.803
  911SOL    HW1 3632   0.267   3.792   0.866
  911SOL    HW2 3633   0.421   3.738   0.853
  912SOL     OW 3634   0.913   0.640   6.367
  912SOL    HW1 3635   0.856   0.564   6.335
  912SOL    HW2 3636   0.923   0.635   6.466
  913SOL     OW 3637   1.931   1.179   1.891
  913SOL    HW1 3638   1.933   1.134   1.980
  913SOL    HW2 3639   1.871   1.259   1.895
  914SOL     OW 3640   3.051   5.854   2.207
  914SOL    HW1 3641   2.995   5.772   2.195
  914SOL    HW2 3642   3.103   5.871   2.123
  915SOL     OW 3643   1.480   2.463   0.233
  915SOL    HW1 3644   1.498   2.553   0.274
  915SOL    HW2 3645   1.448   2.475   0.139
  916SOL     OW 3646   1.452   2.892   2.206
  916SOL    HW1 3647   1.522   2.823   2.192
  916SOL    HW2 3648   1.393   2.897   2.126
  917SOL     OW 3649   3.672   1.591   6.650
  917SOL    HW1 3650   3.586   1.565   6.607
  917SOL    HW2 3651   3.697   1.683   6.620
  918SOL     OW 3652   0.646   1.285   5.030
  918SOL    HW1 3653   0.558   1.263   4.987
  918SOL    HW2 3654   0.717   1.292   4.960
  919SOL     OW 3655   1.434   6.874   1.073
  919SOL    HW1 3656   1.363   6.809   1.100
  919SOL    HW2 3657   1.392   6.960   1.045
  920SOL     OW 3658   1.609   1.073   3.352
  920SOL    HW1 3659   1.605   1.158   3.404
  920SOL    HW2 3660   1.575   0.997   3.408
  921SOL     OW 3661   3.845   4.422   0.501
  921SOL    HW1 3662   3.746   4.407   0.502
  921SOL    HW2 3663   3.890   4.349   0.449
  922SOL     OW 3664   2.113   5.031   6.264
  922SOL    HW1 3665   2.098   5.105   6.329
  922SOL    HW2 3666   2.099   4.943   6.310
  923SOL     OW 3667   3.786   1.356   6.746
  923SOL    HW1 3668   3.795   1.286   6.676
  923SOL    HW2 3669   3.710   1.417   6.723
  924SOL     OW 3670   6.773   4.723   2.500
  924SOL    HW1 3671   6.760   4.632   2.460
  924SOL    HW2 3672   6.685   4.760   2.528
  925SOL     OW 3673   6.763   2.087   3.307
  925SOL    HW1 3674   6.693   2.022   3.278
  925SOL    HW2 3675   6.844   2.076   3.248
  926SOL     OW 3676   4.867   6.374   0.538
  926SOL    HW1 3677   4.925   6.293   0.531
  926SOL    HW2 3678   4.771   6.348   0.528
  927SOL     OW 3679   4.824   5.597   4.755
  927SOL    HW1 3680   4.788   5.615   4.664
  927SOL    HW2 3681   4.878   5.676   4.786
  928SOL     OW 3682   0.466   1.150   1.228
  928SOL    HW1 3683   0.371   1.167   1.255
  928SOL    HW2 3684   0.469   1.093   1.146
  929SOL     OW 3685   6.941   2.861   2.333
  929SOL    HW1 3686   6.963   2.932   2.266
  929SOL    HW2 3687   6.959   2.895   2.426
  930SOL     OW 3688   5.559   5.479   2.458
  930SOL    HW1 3689   5.603   5.558   2.415
  930SOL    HW2 3690   5.502   5.510   2.534
  931SOL     OW 3691   1.947   2.943   1.971
  931SOL    HW1 3692   2.044   2.962   1.953
  931SOL    HW2 3693   1.891   3.015   1.930
  932SOL     OW 3694   4.396   6.371   1.480
  932SOL    HW1 3695   4.404   6.348   1.383
  932SOL    HW2 3696   4.460   6.314   1.533
  933SOL     OW 3697   1.235   6.705   4.123
  933SOL    HW1 3698   1.140   6.720   4.095
  933SOL    HW2 3699   1.240   6.626   4.184
  934SOL     OW 3700   3.473   0.751   5.550
  934SOL    HW1 3701   3.534   0.805   5.607
  934SOL    HW2 3702   3.392   0.806   5.527
  935SOL     OW 3703   1.380   3.846   5.625
  935SOL    HW1 3704   1.301   3.853   5.685
  935SOL    HW2 3705   1.373   3.916   5.553
  936SOL     OW 3706   0.492   2.022   1.497
  936SOL    HW1 3707   0.480   1.930   1.461
  936SOL    HW2 3708   0.571   2.023   1.559
  937SOL     OW 3709   5.266   2.039   3.394
  937SOL    HW1 3710   5.224   2.101   3.460
  937SOL    HW2 3711   5.357   2.072   3.371
  938SOL     OW 3712   7.012   1.015   6.866
  938SOL    HW1 3713   6.954   1.082   6.911
  938SOL    HW2 3714   6.958   0.960   6.803
  939SOL     OW 3715   6.526   0.633   5.460
  939SOL    HW1 3716   6.576   0.616   5.375
  939SOL    HW2 3717   6.506   0.545   5.505
  940SOL     OW 3718   6.915   0.526   4.184
  940SOL    HW1 3719   6.914   0.612   4.133
  940SOL    HW2 3720   6.822   0.494   4.197
  941SOL     OW 3721   5.660   2.246   5.527
  941SOL    HW1 3722   5.680   2.334   5.570
  941SOL    HW2 3723   5.564   2.223   5.540
  942SOL     OW 3724   4.482   0.756   5.139
  942SOL    HW1 3725   4.459   0.666   5.101
  942SOL    HW2 3726   4.559   0.795   5.088
  943SOL     OW 3727   5.620   1.920   0.387
  943SOL    HW1 3728   5.717   1.930   0.361
  943SOL    HW2 3729   5.613   1.862   0.467
  944SOL     OW 3730   5.180   4.388   4.856
  944SOL    HW1 3731   5.126   4.391   4.772
  944SOL    HW2 3732   5.165   4.472   4.908
  945SOL     OW 3733   5.177   3.489   6.076
  945SOL    HW1 3734   5.249   3.502   6.008
  945SOL    HW2 3735   5.137   3.578   6.100
  946SOL     OW 3736   5.671   3.581   6.635
  946SOL    HW1 3737   5.702   3.676   6.640
  946SOL    HW2 3738   5.582   3.577   6.591
  947SOL     OW 3739   0.888   2.922   5.582
  947SOL    HW1 3740   0.831   2.966   5.652
  947SOL    HW2 3741   0.869   2.963   5.493
  948SOL     OW 3742   3.915   1.556   0.449
  948SOL    HW1 3743   3.911   1.542   0.350
  948SOL    HW2 3744   3.912   1.655   0.468
  949SOL     OW 3745   5.724   6.139   6.857
  949SOL    HW1 3746   5.707   6.236   6.876
  949SOL    HW2 3747   5.710   6.086   6.941
  950SOL     OW 3748   3.888   5.340   0.631
  950SOL    HW1 3749   3.899   5.282   0.550
  950SOL    HW2 3750   3.972   5.392   0.646
  951SOL     OW 3751   0.568   3.082   4.119
  951SOL    HW1 3752   0.572   3.058   4.216
  951SOL    HW2 3753   0.555   3.181   4.110
  952SOL     OW 3754   5.463   1.907   1.487
  952SOL    HW1 3755   5.479   1.996   1.444
  952SOL    HW2 3756   5.547   1.853   1.482
  953SOL     OW 3757   3.789   6.686   5.802
  953SOL    HW1 3758   3.828   6.768   5.845
  953SOL    HW2 3759   3.701   6.708   5.761
  954SOL     OW 3760   6.638   0.256   1.583
  954SOL    HW1 3761   6.664   0.160   1.593
  954SOL    HW2 3762   6.720   0.312   1.572
  955SOL     OW 3763   0.370   6.755   2.209
  955SOL    HW1 3764   0.379   6.661   2.176
  955SOL    HW2 3765   0.458   6.801   2.206
  956SOL     OW 3766   1.356   2.733   0.664
  956SOL    HW1 3767   1.401   2.741   0.575
  956SOL    HW2 3768   1.374   2.643   0.702
  957SOL     OW 3769   1.945   6.696   5.004
  957SOL    HW1 3770   1.946   6.735   5.097
  957SOL    HW2 3771   1.931   6.597   5.010
  958SOL     OW 3772   4.869   2.656   0.315
  958SOL    HW1 3773   4.959   2.650   0.359
  958SOL    HW2 3774   4.878   2.638   0.217
  959SOL     OW 3775   1.540   3.408   1.696
  959SOL    HW1 3776   1.587   3.344   1.635
  959SOL    HW2 3777   1.537   3.499   1.654
  960SOL     OW 3778   1.888   5.392   5.266
  960SOL    HW1 3779   1.815   5.341   5.311
  960SOL    HW2 3780   1.977   5.351   5.288
  961SOL     OW 3781   3.693   0.150   0.406
  961SOL    HW1 3782   3.786   0.186   0.413
  961SOL    HW2 3783   3.694   0.053   0.428
  962SOL     OW 3784   1.276   6.669   3.687
  962SOL    HW1 3785   1.323   6.758   3.686
  962SOL    HW2 3786   1.179   6.683   3.705
  963SOL     OW 3787   6.059   0.131   2.263
  963SOL    HW1 3788   6.032   0.146   2.168
  963SOL    HW2 3789   6.125   0.202   2.290
  964SOL     OW 3790   5.420   3.368   1.374
  964SOL    HW1 3791   5.503   3.422   1.362
  964SOL    HW2 3792   5.425   3.319   1.461
  965SOL     OW 3793   1.497   1.775   7.013
  965SOL    HW1 3794   1.590   1.741   7.002
  965SOL    HW2 3795   1.454   1.731   0.065
  966SOL     OW 3796   6.639   2.998   2.141
  966SOL    HW1 3797   6.655   3.049   2.226
  966SOL    HW2 3798   6.546   2.962   2.140
  967SOL     OW 3799   0.914   5.908   2.410
  967SOL    HW1 3800   1.005   5.946   2.400
  967SOL    HW2 3801   0.868   5.950   2.489
  968SOL     OW 3802   6.870   4.336   1.145
  968SOL    HW1 3803   6.840   4.353   1.051
  968SOL    HW2 3804   6.790   4.313   1.202
  969SOL     OW 3805   3.964   6.548   6.508
  969SOL    HW1 3806   3.871   6.568   6.539
  969SOL    HW2 3807   3.961   6.488   6.428
  970SOL     OW 3808   4.686   2.763   5.551
  970SOL    HW1 3809   4.675   2.665   5.535
  970SOL    HW2 3810   4.654   2.814   5.472
  971SOL     OW 3811   6.994   2.739   0.556
  971SOL    HW1 3812   6.925   2.705   0.620
  971SOL    HW2 3813   6.952   2.755   0.467
  972SOL     OW 3814   5.953   6.620   0.510
  972SOL    HW1 3815   5.970   6.706   0.558
  972SOL    HW2 3816   5.879   6.570   0.555
  973SOL     OW 3817   5.420   3.287   5.643
  973SOL    HW1 3818   5.496   3.222   5.654
  973SOL    HW2 3819   5.438   3.369   5.697
  974SOL     OW 3820   2.885   0.918   4.792
  974SOL    HW1 3821   2.939   0.845   4.834
  974SOL    HW2 3822   2.822   0.879   4.725
  975SOL     OW 3823   3.223   6.999   5.628
  975SOL    HW1 3824   3.241   0.045   5.562
  975SOL    HW2 3825   3.289   7.005   5.703
  976SOL     OW 3826   0.257   5.457   3.394
  976SOL    HW1 3827   0.340   5.511   3.378
  976SOL    HW2 3828   0.282   5.369   3.436
  977SOL     OW 3829   0.943   2.694   1.477
  977SOL    HW1 3830   1.024   2.665   1.426
  977SOL    HW2 3831   0.970   2.731   1.565
  978SOL     OW 3832   5.596   3.549   4.862
  978SOL    HW1 3833   5.583   3.450   4.856
  978SOL    HW2 3834   5.693   3.571   4.847
  979SOL     OW 3835   5.883   1.822   3.389
  979SOL    HW1 3836   5.801   1.781   3.428
  979SOL    HW2 3837   5.949   1.750   3.368
  980SOL     OW 3838   6.690   0.290   4.775
  980SOL    HW1 3839   6.594   0.311   4.790
  980SOL    HW2 3840   6.747   0.364   4.811
  981SOL     OW 3841   6.850   3.207   5.550
  981SOL    HW1 3842   6.903   3.260   5.617
  981SOL    HW2 3843   6.895   3.120   5.534
  982SOL     OW 3844   1.361   3.433   1.436
  982SOL    HW1 3845   1.361   3.380   1.521
  982SOL    HW2 3846   1.347   3.372   1.358
  983SOL     OW 3847   5.548   1.910   3.026
  983SOL    HW1 3848   5.560   1.815   2.998
  983SOL    HW2 3849   5.627   1.939   3.079
  984SOL     OW 3850   4.998   2.248   5.404
  984SOL    HW1 3851   4.960   2.157   5.416
  984SOL    HW2 3852   5.097   2.241   5.388
  985SOL     OW 3853   2.488   4.965   0.500
  985SOL    HW1 3854   2.497   4.995   0.406
  985SOL    HW2 3855   2.537   4.879   0.513
  986SOL     OW 3856   4.438   4.669   6.997
  986SOL    HW1 3857   4.480   4.661   0.061
  986SOL    HW2 3858   4.403   4.580   6.969
  987SOL     OW 3859   3.436   6.681   2.355
  987SOL    HW1 3860   3.489   6.649   2.277
  987SOL    HW2 3861   3.433   6.609   2.424
  988SOL     OW 3862   3.515   3.053   1.376
  988SOL    HW1 3863   3.549   3.109   1.451
  988SOL    HW2 3864   3.590   3.032   1.313
  989SOL     OW 3865   0.508   0.572   4.835
  989SOL    HW1 3866   0.574   0.529   4.773
  989SOL    HW2 3867   0.424   0.519   4.836
  990SOL     OW 3868   5.053   6.298   2.648
  990SOL    HW1 3869   4.963   6.339   2.660
  990SOL    HW2 3870   5.081   6.252   2.733
  991SOL     OW 3871   6.203   1.528   5.181
  991SOL    HW1 3872   6.267   1.604   5.177
  991SOL    HW2 3873   6.157   1.518   5.092
  992SOL     OW 3874   6.866   3.056   1.602
  992SOL    HW1 3875   6.787   3.078   1.544
  992SOL    HW2 3876   6.947   3.102   1.566
  993SOL     OW 3877   3.886   5.905   4.331
  993SOL    HW1 3878   3.916   5.817   4.293
  993SOL    HW2 3879   3.900   5.904   4.430
  994SOL     OW 3880   3.076   3.540   2.057
  994SOL    HW1 3881   3.120   3.600   1.990
  994SOL    HW2 3882   2.980   3.527   2.032
  995SOL     OW 3883   0.461   1.220   4.801
  995SOL    HW1 3884   0.449   1.297   4.739
  995SOL    HW2 3885   0.376   1.168   4.806
  996SOL     OW 3886   0.943   3.433   0.635
  996SOL    HW1 3887   0.891   3.517   0.652
  996SOL    HW2 3888   0.884   3.354   0.652
  997SOL     OW 3889   0.287   1.229   0.860
  997SOL    HW1 3890   0.297   1.152   0.796
  997SOL    HW2 3891   0.190   1.247   0.876
  998SOL     OW 3892   4.887   0.020   3.899
  998SOL    HW1 3893   4.788   0.032   3.901
  998SOL    HW2 3894   4.927   0.082   3.832
  999SOL     OW 3895   6.757   5.687   1.783
  999SOL    HW1 3896   6.852   5.679   1.813
  999SOL    HW2 3897   6.741   5.627   1.704
 1000SOL     OW 3898   4.537   2.224   4.202
 1000SOL    HW1 3899   4.483   2.277   4.136
 1000SOL    HW2 3900   4.487   2.215   4.287
 1001SOL     OW 3901   4.066   1.258   5.753
 1001SOL    HW1 3902   4.080   1.241   5.851
 1001SOL    HW2 3903   3.969   1.277   5.736
 1002SOL     OW 3904   0.511   1.228   0.007
 1002SOL    HW1 3905   0.551   1.308   6.989
 1002SOL    HW2 3906   0.413   1.224   7.013
 1003SOL     OW 3907   4.761   4.653   3.690
 1003SOL    HW1 3908   4.671   4.633   3.651
 1003SOL    HW2 3909   4.821   4.692   3.620
 1004SOL     OW 3910   5.981   5.789   0.642
 1004SOL    HW1 3911   6.016   5.876   0.676
 1004SOL    HW2 3912   6.011   5.775   0.548
 1005SOL     OW 3913   6.989   5.511   3.404
 1005SOL    HW1 3914   0.060   5.492   3.409
 1005SOL    HW2 3915   6.938   5.431   3.438
 1006SOL     OW 3916   2.188   4.209   0.366
 1006SOL    HW1 3917   2.178   4.109   0.362
 1006SOL    HW2 3918   2.285   4.233   0.359
 1007SOL     OW 3919   1.259   0.712   3.210
 1007SOL    HW1 3920   1.270   0.739   3.114
 1007SOL    HW2 3921   1.331   0.753   3.265
 1008SOL     OW 3922   2.769   2.047   4.429
 1008SOL    HW1 3923   2.757   2.066   4.332
 1008SOL    HW2 3924   2.773   1.948   4.443
 1009SOL     OW 3925   2.696   5.746   5.225
 1009SOL    HW1 3926   2.778   5.771   5.277
 1009SOL    HW2 3927   2.688   5.808   5.147
 1010SOL     OW 3928   4.589   0.544   6.417
 1010SOL    HW1 3929   4.684   0.539   6.445
 1010SOL    HW2 3930   4.567   0.638   6.392
 1011SOL     OW 3931   3.483   5.776   3.803
 1011SOL    HW1 3932   3.575   5.812   3.789
 1011SOL    HW2 3933   3.470   5.693   3.750
 1012SOL     OW 3934   3.569   5.398   0.290
 1012SOL    HW1 3935   3.640   5.442   0.234
 1012SOL    HW2 3936   3.590   5.412   0.387
 1013SOL     OW 3937   0.429   0.881   0.073
 1013SOL    HW1 3938   0.473   0.796   0.104
 1013SOL    HW2 3939   0.332   0.865   0.060
 1014SOL     OW 3940   5.084   0.475   6.608
 1014SOL    HW1 3941   5.141   0.436   6.535
 1014SOL    HW2 3942   4.988   0.450   6.592
 1015SOL     OW 3943   3.331   0.018   4.688
 1015SOL    HW1 3944   3.390   0.011   4.769
 1015SOL    HW2 3945   3.285   0.106   4.688
 1016SOL     OW 3946   4.354   2.398   2.302
 1016SOL    HW1 3947   4.305   2.465   2.246
 1016SOL    HW2 3948   4.448   2.429   2.317
 1017SOL     OW 3949   5.020   1.170   6.378
 1017SOL    HW1 3950   5.033   1.249   6.438
 1017SOL    HW2 3951   5.036   1.086   6.429
 1018SOL     OW 3952   1.363   2.775   1.620
 1018SOL    HW1 3953   1.437   2.709   1.626
 1018SOL    HW2 3954   1.358   2.811   1.527
 1019SOL     OW 3955   5.762   1.149   0.557
 1019SOL    HW1 3956   5.719   1.060   0.547
 1019SOL    HW2 3957   5.718   1.200   0.631
 1020SOL     OW 3958   3.167   1.989   1.510
 1020SOL    HW1 3959   3.168   1.892   1.485
 1020SOL    HW2 3960   3.252   2.011   1.559
 1021SOL     OW 3961   6.219   0.915   0.851
 1021SOL    HW1 3962   6.198   1.013   0.848
 1021SOL    HW2 3963   6.283   0.893   0.777
 1022SOL     OW 3964   3.228   2.572   6.837
 1022SOL    HW1 3965   3.167   2.621   6.775
 1022SOL    HW2 3966   3.186   2.564   6.927
 1023SOL     OW 3967   6.088   0.695   4.434
 1023SOL    HW1 3968   6.119   0.790   4.445
 1023SOL    HW2 3969   6.160   0.642   4.389
 1024SOL     OW 3970   6.613   1.512   4.358
 1024SOL    HW1 3971   6.576   1.599   4.392
 1024SOL    HW2 3972   6.538   1.456   4.322
 1025SOL     OW 3973   3.331   4.172   1.472
 1025SOL    HW1 3974   3.282   4.201   1.391
 1025SOL    HW2 3975   3.267   4.135   1.539
 1026SOL     OW 3976   0.867   3.070   6.279
 1026SOL    HW1 3977   0.963   3.098   6.277
 1026SOL    HW2 3978   0.837   3.058   6.374
 1027SOL     OW 3979   2.476   4.573   1.744
 1027SOL    HW1 3980   2.437   4.567   1.652
 1027SOL    HW2 3981   2.573   4.597   1.737
 1028SOL     OW 3982   0.766   6.070   0.744
 1028SOL    HW1 3983   0.722   6.144   0.794
 1028SOL    HW2 3984   0.761   6.088   0.645
 1029SOL     OW 3985   3.383   1.009   5.126
 1029SOL    HW1 3986   3.446   1.000   5.203
 1029SOL    HW2 3987   3.377   1.105   5.099
 1030SOL     OW 3988   3.891   4.399   5.287
 1030SOL    HW1 3989   3.915   4.391   5.384
 1030SOL    HW2 3990   3.792   4.393   5.277
 1031SOL     OW 3991   1.995   5.223   0.806
 1031SOL    HW1 3992   2.080   5.254   0.848
 1031SOL    HW2 3993   2.014   5.188   0.714
 1032SOL     OW 3994   1.420   1.547   5.073
 1032SOL    HW1 3995   1.387   1.583   4.986
 1032SOL    HW2 3996   1.448   1.452   5.061
 1033SOL     OW 3997   2.385   6.186   3.292
 1033SOL    HW1 3998   2.360   6.274   3.254
 1033SOL    HW2 3999   2.420   6.198   3.385
 1034SOL     OW 4000   1.150   6.936   1.772
 1034SOL    HW1 4001   1.222   7.001   1.750
 1034SOL    HW2 4002   1.175   6.885   1.855
 1035SOL     OW 4003   3.042   0.475   3.838
 1035SOL    HW1 4004   2.976   0.451   3.909
 1035SOL    HW2 4005   3.006   0.450   3.748
 1036SOL     OW 4006   4.275   6.870   6.452
 1036SOL    HW1 4007   4.351   6.841   6.393
 1036SOL    HW2 4008   4.276   6.970   6.461
 1037SOL     OW 4009   2.724   2.109   6.355
 1037SOL    HW1 4010   2.671   2.076   6.278
 1037SOL    HW2 4011   2.681   2.078   6.440
 1038SOL     OW 4012   2.681   1.502   5.322
 1038SOL    HW1 4013   2.654   1.495   5.418
 1038SOL    HW2 4014   2.749   1.432   5.301
 1039SOL     OW 4015   4.142   2.215   3.497
 1039SOL    HW1 4016   4.125   2.117   3.496
 1039SOL    HW2 4017   4.164   2.246   3.404
 1040SOL     OW 4018   5.782   3.514   4.419
 1040SOL    HW1 4019   5.763   3.603   4.378
 1040SOL    HW2 4020   5.844   3.527   4.497
 1041SOL     OW 4021   1.516   0.009   4.462
 1041SOL    HW1 4022   1.553   0.088   4.414
 1041SOL    HW2 4023   1.505   6.960   4.397
 1042SOL     OW 4024   4.678   3.875   1.078
 1042SOL    HW1 4025   4.682   3.939   1.154
 1042SOL    HW2 4026   4.770   3.844   1.055
 1043SOL     OW 4027   3.491   0.068   6.665
 1043SOL    HW1 4028   3.431   7.016   6.658
 1043SOL    HW2 4029   3.512   0.084   6.762
 1044SOL     OW 4030   3.738   3.990   2.067
 1044SOL    HW1 4031   3.832   3.955   2.063
 1044SOL    HW2 4032   3.706   3.989   2.162
 1045SOL     OW 4033   3.818   1.319   3.149
 1045SOL    HW1 4034   3.817   1.219   3.150
 1045SOL    HW2 4035   3.841   1.353   3.241
 1046SOL     OW 4036   3.695   1.401   2.105
 1046SOL    HW1 4037   3.707   1.494   2.070
 1046SOL    HW2 4038   3.762   1.384   2.177
 1047SOL     OW 4039   0.739   5.312   1.969
 1047SOL    HW1 4040   0.758   5.388   1.907
 1047SOL    HW2 4041   0.653   5.330   2.017
 1048SOL     OW 4042   6.591   4.756   5.399
 1048SOL    HW1 4043   6.527   4.713   5.335
 1048SOL    HW2 4044   6.628   4.686   5.460
 1049SOL     OW 4045   0.471   3.580   4.832
 1049SOL    HW1 4046   0.415   3.497   4.835
 1049SOL    HW2 4047   0.566   3.558   4.853
 1050SOL     OW 4048   2.766   0.603   0.488
 1050SOL    HW1 4049   2.820   0.681   0.518
 1050SOL    HW2 4050   2.767   0.599   0.388
 1051SOL     OW 4051   4.829   4.507   2.618
 1051SOL    HW1 4052   4.747   4.475   2.665
 1051SOL    HW2 4053   4.825   4.479   2.522
 1052SOL     OW 4054   4.137   0.392   4.505
 1052SOL    HW1 4055   4.215   0.451   4.525
 1052SOL    HW2 4056   4.053   0.446   4.508
 1053SOL     OW 4057   3.547   5.290   3.314
 1053SOL    HW1 4058   3.556   5.379   3.359
 1053SOL    HW2 4059   3.597   5.221   3.366
 1054SOL     OW 4060   4.362   6.064   4.342
 1054SOL    HW1 4061   4.301   6.139   4.370
 1054SOL    HW2 4062   4.323   6.017   4.263
 1055SOL     OW 4063   3.962   5.538   3.933
 1055SOL    HW1 4064   4.001   5.471   3.996
 1055SOL    HW2 4065   3.917   5.491   3.857
 1056SOL     OW 4066   2.101   5.700   5.966
 1056SOL    HW1 4067   2.126   5.773   6.029
 1056SOL    HW2 4068   2.143   5.717   5.877
 1057SOL     OW 4069   3.777   4.122   1.134
 1057SOL    HW1 4070   3.777   4.183   1.213
 1057SOL    HW2 4071   3.851   4.056   1.144
 1058SOL     OW 4072   2.828   6.700   2.016
 1058SOL    HW1 4073   2.803   6.603   2.011
 1058SOL    HW2 4074   2.823   6.731   2.110
 1059SOL     OW 4075   3.486   0.559   0.464
 1059SOL    HW1 4076   3.505   0.483   0.402
 1059SOL    HW2 4077   3.464   0.641   0.412
 1060SOL     OW 4078   2.541   1.423   4.428
 1060SOL    HW1 4079   2.504   1.474   4.350
 1060SOL    HW2 4080   2.625   1.377   4.401
 1061SOL     OW 4081   3.161   5.796   1.178
 1061SOL    HW1 4082   3.182   5.788   1.275
 1061SOL    HW2 4083   3.073   5.841   1.167
 1062SOL     OW 4084   4.974   4.828   5.104
 1062SOL    HW1 4085   4.996   4.922   5.132
 1062SOL    HW2 4086   4.878   4.822   5.079
 1063SOL     OW 4087   2.713   3.032   5.972
 1063SOL    HW1 4088   2.643   3.103   5.977
 1063SOL    HW2 4089   2.669   2.943   5.954
 1064SOL     OW 4090   0.353   3.520   1.930
 1064SOL    HW1 4091   0.431   3.457   1.934
 1064SOL    HW2 4092   0.270   3.470   1.955
 1065SOL     OW 4093   4.269   4.998   5.466
 1065SOL    HW1 4094   4.363   5.029   5.483
 1065SOL    HW2 4095   4.208   5.077   5.466
 1066SOL     OW 4096   4.265   6.844   3.383
 1066SOL    HW1 4097   4.300   6.810   3.470
 1066SOL    HW2 4098   4.167   6.827   3.378
 1067SOL     OW 4099   2.599   3.060   0.845
 1067SOL    HW1 4100   2.666   2.985   0.846
 1067SOL    HW2 4101   2.639   3.141   0.887
 1068SOL     OW 4102   0.512   4.319   0.624
 1068SOL    HW1 4103   0.465   4.252   0.682
 1068SOL    HW2 4104   0.608   4.294   0.616
 1069SOL     OW 4105   3.662   3.571   1.922
 1069SOL    HW1 4106   3.725   3.565   1.845
 1069SOL    HW2 4107   3.713   3.581   2.007
 1070SOL     OW 4108   2.552   6.595   0.875
 1070SOL    HW1 4109   2.533   6.612   0.971
 1070SOL    HW2 4110   2.485   6.530   0.839
 1071SOL     OW 4111   4.758   5.871   3.562
 1071SOL    HW1 4112   4.788   5.792   3.615
 1071SOL    HW2 4113   4.744   5.844   3.467
 1072SOL     OW 4114   3.499   5.319   2.716
 1072SOL    HW1 4115   3.405   5.347   2.692
 1072SOL    HW2 4116   3.551   5.302   2.632
 1073SOL     OW 4117   2.629   5.454   3.015
 1073SOL    HW1 4118   2.653   5.411   2.927
 1073SOL    HW2 4119   2.713   5.478   3.064
 1074SOL     OW 4120   1.520   5.543   2.773
 1074SOL    HW1 4121   1.504   5.445   2.790
 1074SOL    HW2 4122   1.611   5.555   2.731
 1075SOL     OW 4123   1.056   4.191   2.941
 1075SOL    HW1 4124   1.148   4.201   2.902
 1075SOL    HW2 4125   1.062   4.141   3.027
 1076SOL     OW 4126   6.772   4.071   2.643
 1076SOL    HW1 4127   6.811   4.126   2.569
 1076SOL    HW2 4128   6.834   4.071   2.721
 1077SOL     OW 4129   5.179   1.043   1.574
 1077SOL    HW1 4130   5.197   1.040   1.672
 1077SOL    HW2 4131   5.193   0.952   1.534
 1078SOL     OW 4132   0.578   3.152   1.920
 1078SOL    HW1 4133   0.489   3.159   1.964
 1078SOL    HW2 4134   0.607   3.242   1.888
 1079SOL     OW 4135   2.369   5.542   3.023
 1079SOL    HW1 4136   2.457   5.496   3.028
 1079SOL    HW2 4137   2.365   5.613   3.093
 1080SOL     OW 4138   1.887   5.971   4.048
 1080SOL    HW1 4139   1.794   5.943   4.022
 1080SOL    HW2 4140   1.883   6.057   4.098
 1081SOL     OW 4141   1.707   1.356   0.301
 1081SOL    HW1 4142   1.627   1.374   0.358
 1081SOL    HW2 4143   1.677   1.335   0.208
 1082SOL     OW 4144   2.159   6.902   0.808
 1082SOL    HW1 4145   2.100   6.922   0.886
 1082SOL    HW2 4146   2.252   6.881   0.841
 1083SOL     OW 4147   3.465   2.309   1.675
 1083SOL    HW1 4148   3.385   2.250   1.683
 1083SOL    HW2 4149   3.532   2.284   1.744
 1084SOL     OW 4150   6.447   3.292   0.805
 1084SOL    HW1 4151   6.486   3.314   0.894
 1084SOL    HW2 4152   6.467   3.367   0.741
 1085SOL     OW 4153   1.222   4.994   3.395
 1085SOL    HW1 4154   1.218   4.990   3.494
 1085SOL    HW2 4155   1.213   4.901   3.358
 1086SOL     OW 4156   3.849   5.097   2.171
 1086SOL    HW1 4157   3.834   5.039   2.250
 1086SOL    HW2 4158   3.880   5.041   2.094
 1087SOL     OW 4159   4.031   3.729   4.443
 1087SOL    HW1 4160   4.094   3.702   4.516
 1087SOL    HW2 4161   4.082   3.746   4.359
 1088SOL     OW 4162   5.907   4.567   2.720
 1088SOL    HW1 4163   5.975   4.566   2.647
 1088SOL    HW2 4164   5.816   4.566   2.681
 1089SOL     OW 4165   6.683   6.945   3.570
 1089SOL    HW1 4166   6.708   0.007   3.532
 1089SOL    HW2 4167   6.648   6.957   3.663
 1090SOL     OW 4168   1.499   1.951   6.092
 1090SOL    HW1 4169   1.535   1.860   6.074
 1090SOL    HW2 4170   1.506   2.006   6.009
 1091SOL     OW 4171   1.169   2.933   5.537
 1091SOL    HW1 4172   1.076   2.953   5.566
 1091SOL    HW2 4173   1.221   3.019   5.533
 1092SOL     OW 4174   2.271   4.714   1.166
 1092SOL    HW1 4175   2.217   4.633   1.145
 1092SOL    HW2 4176   2.250   4.746   1.259
 1093SOL     OW 4177   0.073   2.262   1.717
 1093SOL    HW1 4178   0.118   2.185   1.670
 1093SOL    HW2 4179   7.015   2.231   1.758
 1094SOL     OW 4180   0.907   6.884   2.073
 1094SOL    HW1 4181   0.897   6.846   1.981
 1094SOL    HW2 4182   0.945   6.977   2.067
 1095SOL     OW 4183   6.657   3.617   5.575
 1095SOL    HW1 4184   6.719   3.694   5.560
 1095SOL    HW2 4185   6.708   3.532   5.568
 1096SOL     OW 4186   3.924   3.534   1.777
 1096SOL    HW1 4187   3.891   3.612   1.725
 1096SOL    HW2 4188   3.986   3.566   1.849
 1097SOL     OW 4189   2.503   3.884   5.474
 1097SOL    HW1 4190   2.438   3.944   5.521
 1097SOL    HW2 4191   2.463   3.853   5.388
 1098SOL     OW 4192   4.115   0.653   2.862
 1098SOL    HW1 4193   4.125   0.752   2.855
 1098SOL    HW2 4194   4.205   0.612   2.875
 1099SOL     OW 4195   3.513   0.624   2.686
 1099SOL    HW1 4196   3.558   0.611   2.598
 1099SOL    HW2 4197   3.580   0.654   2.754
 1100SOL     OW 4198   6.851   0.651   6.930
 1100SOL    HW1 4199   6.938   0.657   6.882
 1100SOL    HW2 4200   6.779   0.691   6.873
 1101SOL     OW 4201   5.663   3.458   1.322
 1101SOL    HW1 4202   5.714   3.373   1.334
 1101SOL    HW2 4203   5.635   3.467   1.226
 1102SOL     OW 4204   0.086   4.361   3.694
 1102SOL    HW1 4205   0.148   4.390   3.768
 1102SOL    HW2 4206   0.004   4.320   3.733
 1103SOL     OW 4207   0.216   3.106   0.516
 1103SOL    HW1 4208   0.211   3.195   0.561
 1103SOL    HW2 4209   0.226   3.119   0.418
 1104SOL     OW 4210   2.724   5.300   6.573
 1104SOL    HW1 4211   2.680   5.386   6.596
 1104SOL    HW2 4212   2.788   5.314   6.498
 1105SOL     OW 4213   4.019   5.539   1.139
 1105SOL    HW1 4214   4.092   5.579   1.084
 1105SOL    HW2 4215   3.935   5.593   1.127
 1106SOL     OW 4216   1.323   1.107   6.400
 1106SOL    HW1 4217   1.256   1.133   6.331
 1106SOL    HW2 4218   1.290   1.027   6.450
 1107SOL     OW 4219   6.818   0.034   0.892
 1107SOL    HW1 4220   6.836   0.126   0.928
 1107SOL    HW2 4221   6.837   6.994   0.963
 1108SOL     OW 4222   0.842   0.818   6.821
 1108SOL    HW1 4223   0.852   0.824   6.921
 1108SOL    HW2 4224   0.864   0.906   6.780
 1109SOL     OW 4225   5.388   0.903   3.828
 1109SOL    HW1 4226   5.444   0.849   3.765
 1109SOL    HW2 4227   5.351   0.844   3.899
 1110SOL     OW 4228   3.139   2.912   1.998
 1110SOL    HW1 4229   3.064   2.891   2.060
 1110SOL    HW2 4230   3.139   2.846   1.922
 1111SOL     OW 4231   4.509   0.198   6.704
 1111SOL    HW1 4232   4.581   0.256   6.666
 1111SOL    HW2 4233   4.531   0.174   6.799
 1112SOL     OW 4234   0.930   1.137   2.484
 1112SOL    HW1 4235   0.912   1.183   2.397
 1112SOL    HW2 4236   0.991   1.059   2.469
 1113SOL     OW 4237   5.872   4.132   1.703
 1113SOL    HW1 4238   5.954   4.180   1.673
 1113SOL    HW2 4239   5.793   4.167   1.654
 1114SOL     OW 4240   5.808   0.987   5.679
 1114SOL    HW1 4241   5.787   1.019   5.586
 1114SOL    HW2 4242   5.907   0.976   5.688
 1115SOL     OW 4243   2.838   4.203   0.852
 1115SOL    HW1 4244   2.789   4.138   0.794
 1115SOL    HW2 4245   2.785   4.287   0.861
 1116SOL     OW 4246   3.781   6.601   6.062
 1116SOL    HW1 4247   3.804   6.627   5.968
 1116SOL    HW2 4248   3.851   6.539   6.097
 1117SOL     OW 4249   2.384   2.588   1.059
 1117SOL    HW1 4250   2.324   2.576   0.979
 1117SOL    HW2 4251   2.470   2.539   1.043
 1118SOL     OW 4252   1.654   2.857   2.493
 1118SOL    HW1 4253   1.665   2.903   2.405
 1118SOL    HW2 4254   1.710   2.774   2.495
 1119SOL     OW 4255   3.056   3.841   2.720
 1119SOL    HW1 4256   3.059   3.941   2.715
 1119SOL    HW2 4257   3.124   3.802   2.657
 1120SOL     OW 4258   4.927   1.284   4.325
 1120SOL    HW1 4259   4.977   1.336   4.255
 1120SOL    HW2 4260   4.871   1.346   4.379
 1121SOL     OW 4261   5.179   3.240   2.714
 1121SOL    HW1 4262   5.174   3.197   2.803
 1121SOL    HW2 4263   5.248   3.194   2.658
 1122SOL     OW 4264   4.547   4.931   6.961
 1122SOL    HW1 4265   4.506   4.842   6.943
 1122SOL    HW2 4266   4.521   4.961   0.026
 1123SOL     OW 4267   3.974   1.065   2.044
 1123SOL    HW1 4268   3.954   1.148   1.992
 1123SOL    HW2 4269   3.996   0.990   1.982
 1124SOL     OW 4270   1.133   4.991   4.443
 1124SOL    HW1 4271   1.224   4.978   4.482
 1124SOL    HW2 4272   1.076   4.912   4.464
 1125SOL     OW 4273   2.916   3.284   4.962
 1125SOL    HW1 4274   2.945   3.373   4.996
 1125SOL    HW2 4275   2.816   3.276   4.967
 1126SOL     OW 4276   6.483   0.219   2.325
 1126SOL    HW1 4277   6.540   0.296   2.296
 1126SOL    HW2 4278   6.542   0.146   2.361
 1127SOL     OW 4279   1.990   5.558   6.172
 1127SOL    HW1 4280   1.891   5.550   6.169
 1127SOL    HW2 4281   2.023   5.603   6.089
 1128SOL     OW 4282   2.281   1.757   4.258
 1128SOL    HW1 4283   2.218   1.751   4.336
 1128SOL    HW2 4284   2.291   1.853   4.231
 1129SOL     OW 4285   4.693   0.077   6.359
 1129SOL    HW1 4286   4.648   0.092   6.271
 1129SOL    HW2 4287   4.648   0.133   6.429
 1130SOL     OW 4288   0.296   5.408   6.463
 1130SOL    HW1 4289   0.391   5.380   6.469
 1130SOL    HW2 4290   0.239   5.349   6.520
 1131SOL     OW 4291   0.700   4.708   5.414
 1131SOL    HW1 4292   0.785   4.657   5.427
 1131SOL    HW2 4293   0.637   4.652   5.360
 1132SOL     OW 4294   5.321   0.249   5.187
 1132SOL    HW1 4295   5.357   0.194   5.112
 1132SOL    HW2 4296   5.221   0.240   5.191
 1133SOL     OW 4297   6.992   2.572   6.829
 1133SOL    HW1 4298   6.985   2.565   6.929
 1133SOL    HW2 4299   0.061   2.575   6.803
 1134SOL     OW 4300   6.279   2.381   5.921
 1134SOL    HW1 4301   6.200   2.420   5.968
 1134SOL    HW2 4302   6.312   2.446   5.853
 1135SOL     OW 4303   6.362   1.408   4.220
 1135SOL    HW1 4304   6.270   1.444   4.205
 1135SOL    HW2 4305   6.355   1.310   4.244
 1136SOL     OW 4306   3.545   5.252   3.944
 1136SOL    HW1 4307   3.624   5.296   3.987
 1136SOL    HW2 4308   3.464   5.265   4.001
 1137SOL     OW 4309   1.331   0.844   5.854
 1137SOL    HW1 4310   1.306   0.830   5.758
 1137SOL    HW2 4311   1.391   0.924   5.861
 1138SOL     OW 4312   0.359   4.581   5.878
 1138SOL    HW1 4313   0.434   4.600   5.815
 1138SOL    HW2 4314   0.315   4.495   5.853
 1139SOL     OW 4315   0.811   6.625   1.452
 1139SOL    HW1 4316   0.900   6.624   1.497
 1139SOL    HW2 4317   0.817   6.574   1.366
 1140SOL     OW 4318   3.473   1.648   3.460
 1140SOL    HW1 4319   3.387   1.663   3.509
 1140SOL    HW2 4320   3.482   1.550   3.438
 1141SOL     OW 4321   0.018   6.136   5.395
 1141SOL    HW1 4322   7.023   6.066   5.462
 1141SOL    HW2 4323   6.999   6.222   5.419
 1142SOL     OW 4324   6.216   0.984   4.223
 1142SOL    HW1 4325   6.127   0.994   4.178
 1142SOL    HW2 4326   6.204   0.935   4.309
 1143SOL     OW 4327   4.483   1.798   2.125
 1143SOL    HW1 4328   4.558   1.860   2.100
 1143SOL    HW2 4329   4.501   1.707   2.086
 1144SOL     OW 4330   1.141   6.944   5.446
 1144SOL    HW1 4331   1.120   6.847   5.436
 1144SOL    HW2 4332   1.198   6.974   5.370
 1145SOL     OW 4333   1.789   4.924   4.828
 1145SOL    HW1 4334   1.826   4.896   4.916
 1145SOL    HW2 4335   1.746   4.846   4.783
 1146SOL     OW 4336   6.333   1.769   1.021
 1146SOL    HW1 4337   6.293   1.697   0.965
 1146SOL    HW2 4338   6.424   1.742   1.052
 1147SOL     OW 4339   6.751   3.389   2.297
 1147SOL    HW1 4340   6.702   3.434   2.371
 1147SOL    HW2 4341   6.819   3.451   2.259
 1148SOL     OW 4342   4.973   1.378   6.573
 1148SOL    HW1 4343   4.976   1.323   6.657
 1148SOL    HW2 4344   5.039   1.453   6.581
 1149SOL     OW 4345   6.223   2.629   3.620
 1149SOL    HW1 4346   6.175   2.553   3.577
 1149SOL    HW2 4347   6.268   2.596   3.704
 1150SOL     OW 4348   1.328   5.126   5.740
 1150SOL    HW1 4349   1.232   5.105   5.729
 1150SOL    HW2 4350   1.373   5.128   5.651
 1151SOL     OW 4351   3.542   5.246   6.883
 1151SOL    HW1 4352   3.509   5.186   6.810
 1151SOL    HW2 4353   3.470   5.310   6.909
 1152SOL     OW 4354   0.421   1.438   4.386
 1152SOL    HW1 4355   0.471   1.404   4.306
 1152SOL    HW2 4356   0.322   1.435   4.367
 1153SOL     OW 4357   2.382   4.660   2.998
 1153SOL    HW1 4358   2.285   4.660   3.023
 1153SOL    HW2 4359   2.409   4.569   2.967
 1154SOL     OW 4360   1.837   4.241   2.125
 1154SOL    HW1 4361   1.760   4.247   2.062
 1154SOL    HW2 4362   1.817   4.175   2.197
 1155SOL     OW 4363   3.922   6.676   2.694
 1155SOL    HW1 4364   3.839   6.702   2.645
 1155SOL    HW2 4365   3.957   6.590   2.658
 1156SOL     OW 4366   1.237   1.712   3.745
 1156SOL    HW1 4367   1.164   1.703   3.812
 1156SOL    HW2 4368   1.325   1.719   3.792
 1157SOL     OW 4369   0.900   3.497   4.592
 1157SOL    HW1 4370   0.891   3.595   4.572
 1157SOL    HW2 4371   0.925   3.448   4.509
 1158SOL     OW 4372   4.323   5.962   6.431
 1158SOL    HW1 4373   4.233   5.990   6.467
 1158SOL    HW2 4374   4.377   5.923   6.505
 1159SOL     OW 4375   5.656   4.853   2.687
 1159SOL    HW1 4376   5.700   4.912   2.619
 1159SOL    HW2 4377   5.679   4.757   2.668
 1160SOL     OW 4378   2.647   2.682   0.888
 1160SOL    HW1 4379   2.564   2.723   0.852
 1160SOL    HW2 4380   2.681   2.736   0.965
 1161SOL     OW 4381   4.222   0.750   4.337
 1161SOL    HW1 4382   4.297   0.794   4.286
 1161SOL    HW2 4383   4.186   0.814   4.404
 1162SOL     OW 4384   4.208   4.806   1.565
 1162SOL    HW1 4385   4.183   4.754   1.647
 1162SOL    HW2 4386   4.268   4.881   1.591
 1163SOL     OW 4387   5.246   0.995   2.377
 1163SOL    HW1 4388   5.174   0.981   2.309
 1163SOL    HW2 4389   5.329   0.948   2.348
 1164SOL     OW 4390   6.160   3.488   4.239
 1164SOL    HW1 4391   6.106   3.567   4.209
 1164SOL    HW2 4392   6.231   3.469   4.172
 1165SOL     OW 4393   1.808   4.653   2.188
 1165SOL    HW1 4394   1.715   4.677   2.215
 1165SOL    HW2 4395   1.840   4.576   2.242
 1166SOL     OW 4396   3.383   2.368   6.694
 1166SOL    HW1 4397   3.339   2.440   6.749
 1166SOL    HW2 4398   3.328   2.350   6.613
 1167SOL     OW 4399   4.042   1.908   5.018
 1167SOL    HW1 4400   3.985   1.851   4.959
 1167SOL    HW2 4401   4.055   1.998   4.976
 1168SOL     OW 4402   6.206   6.819   3.140
 1168SOL    HW1 4403   6.292   6.821   3.190
 1168SOL    HW2 4404   6.203   6.737   3.082
 1169SOL     OW 4405   0.964   3.912   1.218
 1169SOL    HW1 4406   0.933   3.897   1.311
 1169SOL    HW2 4407   1.019   3.996   1.214
 1170SOL     OW 4408   3.321   0.261   1.297
 1170SOL    HW1 4409   3.332   0.354   1.331
 1170SOL    HW2 4410   3.322   0.262   1.197
 1171SOL     OW 4411   3.085   0.622   0.315
 1171SOL    HW1 4412   3.143   0.676   0.377
 1171SOL    HW2 4413   3.061   0.536   0.360
 1172SOL     OW 4414   3.028   3.677   4.658
 1172SOL    HW1 4415   3.101   3.709   4.719
 1172SOL    HW2 4416   3.025   3.735   4.577
 1173SOL     OW 4417   4.908   0.695   6.376
 1173SOL    HW1 4418   5.004   0.722   6.366
 1173SOL    HW2 4419   4.868   0.744   6.453
 1174SOL     OW 4420   3.245   6.089   6.825
 1174SOL    HW1 4421   3.206   6.137   6.903
 1174SOL    HW2 4422   3.283   6.001   6.854
 1175SOL     OW 4423   0.250   5.007   4.569
 1175SOL    HW1 4424   0.305   4.927   4.593
 1175SOL    HW2 4425   0.308   5.088   4.569
 1176SOL     OW 4426   6.164   3.311   0.987
 1176SOL    HW1 4427   6.216   3.381   0.939
 1176SOL    HW2 4428   6.069   3.341   0.997
 1177SOL     OW 4429   5.714   3.346   7.011
 1177SOL    HW1 4430   5.725   3.265   0.042
 1177SOL    HW2 4431   5.775   3.419   0.016
 1178SOL     OW 4432   5.061   4.101   2.229
 1178SOL    HW1 4433   5.133   4.042   2.192
 1178SOL    HW2 4434   5.103   4.184   2.265
 1179SOL     OW 4435   2.612   5.725   5.763
 1179SOL    HW1 4436   2.581   5.632   5.740
 1179SOL    HW2 4437   2.696   5.745   5.714
 1180SOL     OW 4438   1.718   1.230   3.920
 1180SOL    HW1 4439   1.809   1.269   3.908
 1180SOL    HW2 4440   1.682   1.257   4.009
 1181SOL     OW 4441   2.006   4.377   2.841
 1181SOL    HW1 4442   2.034   4.467   2.874
 1181SOL    HW2 4443   2.003   4.312   2.917
 1182SOL     OW 4444   1.338   3.849   3.573
 1182SOL    HW1 4445   1.438   3.839   3.576
 1182SOL    HW2 4446   1.304   3.869   3.665
 1183SOL     OW 4447   4.451   5.821   0.463
 1183SOL    HW1 4448   4.545   5.850   0.483
 1183SOL    HW2 4449   4.449   5.776   0.374
 1184SOL     OW 4450   3.652   3.331   5.785
 1184SOL    HW1 4451   3.582   3.295   5.847
 1184SOL    HW2 4452   3.668   3.267   5.711
 1185SOL     OW 4453   2.634   1.611   6.759
 1185SOL    HW1 4454   2.561   1.623   6.691
 1185SOL    HW2 4455   2.602   1.644   6.848
 1186SOL     OW 4456   3.076   0.766   5.058
 1186SOL    HW1 4457   3.115   0.850   5.021
 1186SOL    HW2 4458   2.978   0.779   5.075
 1187SOL     OW 4459   0.698   1.637   5.165
 1187SOL    HW1 4460   0.695   1.612   5.069
 1187SOL    HW2 4461   0.771   1.586   5.211
 1188SOL     OW 4462   1.580   0.641   4.908
 1188SOL    HW1 4463   1.593   0.702   4.987
 1188SOL    HW2 4464   1.522   0.564   4.935
 1189SOL     OW 4465   0.431   0.897   1.014
 1189SOL    HW1 4466   0.528   0.907   1.038
 1189SOL    HW2 4467   0.418   0.922   0.918
 1190SOL     OW 4468   3.923   4.784   2.592
 1190SOL    HW1 4469   3.987   4.748   2.525
 1190SOL    HW2 4470   3.963   4.774   2.684
 1191SOL     OW 4471   3.166   4.681   0.727
 1191SOL    HW1 4472   3.103   4.622   0.779
 1191SOL    HW2 4473   3.226   4.623   0.671
 1192SOL     OW 4474   4.705   4.906   2.669
 1192SOL    HW1 4475   4.642   4.829   2.662
 1192SOL    HW2 4476   4.785   4.878   2.723
 1193SOL     OW 4477   4.081   6.978   3.693
 1193SOL    HW1 4478   4.007   6.916   3.719
 1193SOL    HW2 4479   4.045   0.043   3.683
 1194SOL     OW 4480   6.369   1.034   1.342
 1194SOL    HW1 4481   6.282   1.052   1.297
 1194SOL    HW2 4482   6.428   0.981   1.281
 1195SOL     OW 4483   3.544   6.441   6.856
 1195SOL    HW1 4484   3.604   6.521   6.850
 1195SOL    HW2 4485   3.509   6.433   6.949
 1196SOL     OW 4486   1.134   5.343   3.364
 1196SOL    HW1 4487   1.127   5.429   3.313
 1196SOL    HW2 4488   1.121   5.266   3.301
 1197SOL     OW 4489   3.300   5.114   6.439
 1197SOL    HW1 4490   3.228   5.057   6.399
 1197SOL    HW2 4491   3.390   5.073   6.419
 1198SOL     OW 4492   3.793   1.399   2.416
 1198SOL    HW1 4493   3.864   1.351   2.364
 1198SOL    HW2 4494   3.806   1.497   2.406
 1199SOL     OW 4495   2.935   3.745   3.970
 1199SOL    HW1 4496   2.929   3.754   4.070
 1199SOL    HW2 4497   2.848   3.773   3.930
 1200SOL     OW 4498   4.031   3.359   1.199
 1200SOL    HW1 4499   4.077   3.367   1.111
 1200SOL    HW2 4500   4.052   3.270   1.240
 1201SOL     OW 4501   1.259   0.973   4.760
 1201SOL    HW1 4502   1.216   0.947   4.846
 1201SOL    HW2 4503   1.192   0.966   4.686
 1202SOL     OW 4504   6.091   6.946   4.755
 1202SOL    HW1 4505   6.112   6.933   4.658
 1202SOL    HW2 4506   6.059   6.860   4.794
 1203SOL     OW 4507   6.243   6.328   1.880
 1203SOL    HW1 4508   6.149   6.311   1.909
 1203SOL    HW2 4509   6.243   6.398   1.807
 1204SOL     OW 4510   1.341   6.577   0.004
 1204SOL    HW1 4511   1.345   6.572   0.104
 1204SOL    HW2 4512   1.393   6.656   7.000
 1205SOL     OW 4513   0.917   3.193   5.109
 1205SOL    HW1 4514   0.944   3.290   5.104
 1205SOL    HW2 4515   0.831   3.180   5.060
 1206SOL     OW 4516   0.178   2.291   4.592
 1206SOL    HW1 4517   0.198   2.362   4.524
 1206SOL    HW2 4518   0.241   2.215   4.582
 1207SOL     OW 4519   5.773   6.440   6.781
 1207SOL    HW1 4520   5.857   6.487   6.755
 1207SOL    HW2 4521   5.746   6.377   6.707
 1208SOL     OW 4522   3.350   3.695   3.193
 1208SOL    HW1 4523   3.277   3.710   3.127
 1208SOL    HW2 4524   3.420   3.635   3.154
 1209SOL     OW 4525   6.862   4.168   4.840
 1209SOL    HW1 4526   6.876   4.255   4.793
 1209SOL    HW2 4527   6.903   4.094   4.786
 1210SOL     OW 4528   2.829   6.898   2.929
 1210SOL    HW1 4529   2.893   6.873   2.857
 1210SOL    HW2 4530   2.857   6.985   2.970
 1211SOL     OW 4531   1.322   3.218   3.383
 1211SOL    HW1 4532   1.400   3.261   3.430
 1211SOL    HW2 4533   1.322   3.246   3.288
 1212SOL     OW 4534   1.061   3.952   3.643
 1212SOL    HW1 4535   1.044   3.982   3.549
 1212SOL    HW2 4536   1.008   4.010   3.706
 1213SOL     OW 4537   5.686   3.213   5.052
 1213SOL    HW1 4538   5.607   3.158   5.025
 1213SOL    HW2 4539   5.655   3.301   5.087
 1214SOL     OW 4540   1.605   2.286   2.110
 1214SOL    HW1 4541   1.553   2.360   2.152
 1214SOL    HW2 4542   1.649   2.319   2.026
 1215SOL     OW 4543   0.199   5.565   2.340
 1215SOL    HW1 4544   0.242   5.475   2.350
 1215SOL    HW2 4545   0.265   5.630   2.303
 1216SOL     OW 4546   2.826   0.505   1.479
 1216SOL    HW1 4547   2.749   0.540   1.531
 1216SOL    HW2 4548   2.818   0.406   1.469
 1217SOL     OW 4549   1.994   1.922   2.341
 1217SOL    HW1 4550   1.908   1.885   2.376
 1217SOL    HW2 4551   1.986   2.022   2.332
 1218SOL     OW 4552   0.160   3.508   3.336
 1218SOL    HW1 4553   0.167   3.428   3.396
 1218SOL    HW2 4554   0.249   3.553   3.331
 1219SOL     OW 4555   2.567   6.139   3.956
 1219SOL    HW1 4556   2.575   6.238   3.964
 1219SOL    HW2 4557   2.645   6.102   3.907
 1220SOL     OW 4558   5.970   4.375   2.893
 1220SOL    HW1 4559   5.981   4.280   2.866
 1220SOL    HW2 4560   5.959   4.432   2.811
 1221SOL     OW 4561   5.129   4.029   6.476
 1221SOL    HW1 4562   5.108   3.962   6.404
 1221SOL    HW2 4563   5.199   4.092   6.444
 1222SOL     OW 4564   6.284   5.117   1.524
 1222SOL    HW1 4565   6.194   5.158   1.510
 1222SOL    HW2 4566   6.352   5.167   1.470
 1223SOL     OW 4567   6.758   4.992   5.288
 1223SOL    HW1 4568   6.714   4.906   5.313
 1223SOL    HW2 4569   6.852   4.992   5.321
 1224SOL     OW 4570   4.743   4.616   1.174
 1224SOL    HW1 4571   4.654   4.580   1.202
 1224SOL    HW2 4572   4.755   4.707   1.213
 1225SOL     OW 4573   3.554   1.909   6.998
 1225SOL    HW1 4574   3.485   1.949   6.938
 1225SOL    HW2 4575   3.508   1.854   0.042
 1226SOL     OW 4576   5.155   5.675   0.762
 1226SOL    HW1 4577   5.201   5.763   0.757
 1226SOL    HW2 4578   5.200   5.618   0.831
 1227SOL     OW 4579   5.067   4.724   6.935
 1227SOL    HW1 4580   5.102   4.648   6.880
 1227SOL    HW2 4581   4.967   4.722   6.935
 1228SOL     OW 4582   3.769   4.118   4.509
 1228SOL    HW1 4583   3.827   4.054   4.560
 1228SOL    HW2 4584   3.692   4.146   4.566
 1229SOL     OW 4585   2.516   5.973   3.144
 1229SOL    HW1 4586   2.484   6.037   3.214
 1229SOL    HW2 4587   2.613   5.953   3.158
 1230SOL     OW 4588   5.599   5.374   1.058
 1230SOL    HW1 4589   5.637   5.287   1.088
 1230SOL    HW2 4590   5.543   5.360   0.977
 1231SOL     OW 4591   2.281   1.592   6.844
 1231SOL    HW1 4592   2.319   1.604   6.752
 1231SOL    HW2 4593   2.195   1.641   6.851
 1232SOL     OW 4594   2.923   1.374   5.279
 1232SOL    HW1 4595   2.927   1.427   5.363
 1232SOL    HW2 4596   2.989   1.410   5.213
 1233SOL     OW 4597   6.687   5.316   4.749
 1233SOL    HW1 4598   6.678   5.236   4.690
 1233SOL    HW2 4599   6.751   5.296   4.823
 1234SOL     OW 4600   6.218   4.669   7.000
 1234SOL    HW1 4601   6.173   4.634   0.054
 1234SOL    HW2 4602   6.313   4.638   6.998
 1235SOL     OW 4603   6.173   4.871   1.009
 1235SOL    HW1 4604   6.196   4.929   0.931
 1235SOL    HW2 4605   6.256   4.835   1.050
 1236SOL     OW 4606   1.667   1.250   2.189
 1236SOL    HW1 4607   1.625   1.170   2.233
 1236SOL    HW2 4608   1.750   1.221   2.140
 1237SOL     OW 4609   1.053   0.452   4.520
 1237SOL    HW1 4610   1.042   0.481   4.425
 1237SOL    HW2 4611   1.103   0.522   4.570
 1238SOL     OW 4612   0.811   0.410   4.978
 1238SOL    HW1 4613   0.770   0.447   5.060
 1238SOL    HW2 4614   0.748   0.345   4.935
 1239SOL     OW 4615   4.795   5.017   3.989
 1239SOL    HW1 4616   4.851   5.097   3.969
 1239SOL    HW2 4617   4.839   4.935   3.951
 1240SOL     OW 4618   0.718   3.414   1.227
 1240SOL    HW1 4619   0.729   3.507   1.190
 1240SOL    HW2 4620   0.790   3.398   1.295
 1241SOL     OW 4621   4.057   4.870   6.103
 1241SOL    HW1 4622   4.071   4.794   6.166
 1241SOL    HW2 4623   4.143   4.893   6.058
 1242SOL     OW 4624   2.452   5.391   0.613
 1242SOL    HW1 4625   2.481   5.406   0.518
 1242SOL    HW2 4626   2.390   5.312   0.617
 1243SOL     OW 4627   1.160   3.607   3.720
 1243SOL    HW1 4628   1.188   3.520   3.680
 1243SOL    HW2 4629   1.149   3.675   3.648
 1244SOL     OW 4630   6.099   6.924   5.329
 1244SOL    HW1 4631   6.113   6.958   5.236
 1244SOL    HW2 4632   6.119   6.996   5.395
 1245SOL     OW 4633   4.764   6.587   1.326
 1245SOL    HW1 4634   4.774   6.640   1.243
 1245SOL    HW2 4635   4.832   6.513   1.327
 1246SOL     OW 4636   5.623   1.884   1.123
 1246SOL    HW1 4637   5.607   1.933   1.037
 1246SOL    HW2 4638   5.719   1.895   1.149
 1247SOL     OW 4639   6.221   6.789   2.539
 1247SOL    HW1 4640   6.143   6.799   2.600
 1247SOL    HW2 4641   6.205   6.711   2.477
 1248SOL     OW 4642   0.684   6.676   4.446
 1248SOL    HW1 4643   0.777   6.696   4.478
 1248SOL    HW2 4644   0.629   6.760   4.451
 1249SOL     OW 4645   5.682   5.950   6.364
 1249SOL    HW1 4646   5.725   6.040   6.353
 1249SOL    HW2 4647   5.649   5.939   6.458
 1250SOL     OW 4648   0.874   4.417   4.705
 1250SOL    HW1 4649   0.837   4.341   4.652
 1250SOL    HW2 4650   0.799   4.476   4.736
 1251SOL     OW 4651   3.020   0.258   2.755
 1251SOL    HW1 4652   3.085   0.312   2.702
 1251SOL    HW2 4653   2.980   0.187   2.697
 1252SOL     OW 4654   2.062   5.057   6.689
 1252SOL    HW1 4655   2.058   4.957   6.688
 1252SOL    HW2 4656   2.157   5.086   6.703
 1253SOL     OW 4657   2.962   6.529   6.927
 1253SOL    HW1 4658   3.024   6.540   7.004
 1253SOL    HW2 4659   2.997   6.459   6.865
 1254SOL     OW 4660   6.556   1.578   3.136
 1254SOL    HW1 4661   6.633   1.547   3.080
 1254SOL    HW2 4662   6.480   1.605   3.076
 1255SOL     OW 4663   5.795   1.764   6.150
 1255SOL    HW1 4664   5.833   1.793   6.238
 1255SOL    HW2 4665   5.837   1.817   6.077
 1256SOL     OW 4666   0.547   5.616   4.590
 1256SOL    HW1 4667   0.537   5.530   4.639
 1256SOL    HW2 4668   0.500   5.689   4.640
 1257SOL     OW 4669   6.720   6.024   3.224
 1257SOL    HW1 4670   6.792   5.962   3.256
 1257SOL    HW2 4671   6.643   6.021   3.289
 1258SOL     OW 4672   4.445   6.009   6.202
 1258SOL    HW1 4673   4.394   5.994   6.287
 1258SOL    HW2 4674   4.473   6.105   6.196
 1259SOL     OW 4675   5.401   0.144   5.435
 1259SOL    HW1 4676   5.396   0.045   5.422
 1259SOL    HW2 4677   5.380   0.190   5.349
 1260SOL     OW 4678   3.335   0.926   1.054
 1260SOL    HW1 4679   3.389   0.962   1.130
 1260SOL    HW2 4680   3.281   0.849   1.085
 1261SOL     OW 4681   0.359   4.503   5.085
 1261SOL    HW1 4682   0.338   4.598   5.060
 1261SOL    HW2 4683   0.443   4.500   5.139
 1262SOL     OW 4684   4.508   5.849   1.706
 1262SOL    HW1 4685   4.566   5.850   1.787
 1262SOL    HW2 4686   4.549   5.906   1.635
 1263SOL     OW 4687   6.887   1.812   0.609
 1263SOL    HW1 4688   6.820   1.869   0.656
 1263SOL    HW2 4689   6.863   1.716   0.621
 1264SOL     OW 4690   6.257   2.359   4.549
 1264SOL    HW1 4691   6.276   2.299   4.626
 1264SOL    HW2 4692   6.298   2.321   4.466
 1265SOL     OW 4693   6.477   5.856   4.714
 1265SOL    HW1 4694   6.384   5.890   4.731
 1265SOL    HW2 4695   6.472   5.768   4.668
 1266SOL     OW 4696   2.658   0.684   3.796
 1266SOL    HW1 4697   2.632   0.591   3.822
 1266SOL    HW2 4698   2.699   0.730   3.874
 1267SOL     OW 4699   0.149   4.664   3.156
 1267SOL    HW1 4700   0.128   4.704   3.066
 1267SOL    HW2 4701   0.094   4.710   3.226
 1268SOL     OW 4702   5.910   4.579   6.966
 1268SOL    HW1 4703   5.896   4.677   6.958
 1268SOL    HW2 4704   5.952   4.544   6.882
 1269SOL     OW 4705   6.859   5.019   6.251
 1269SOL    HW1 4706   6.883   4.947   6.186
 1269SOL    HW2 4707   6.923   5.095   6.243
 1270SOL     OW 4708   1.542   1.877   4.605
 1270SOL    HW1 4709   1.560   1.836   4.694
 1270SOL    HW2 4710   1.617   1.855   4.542
 1271SOL     OW 4711   5.150   2.688   3.299
 1271SOL    HW1 4712   5.090   2.654   3.226
 1271SOL    HW2 4713   5.103   2.681   3.387
 1272SOL     OW 4714   6.078   0.100   1.637
 1272SOL    HW1 4715   6.123   0.127   1.722
 1272SOL    HW2 4716   6.093   0.003   1.621
 1273SOL     OW 4717   2.826   6.342   6.025
 1273SOL    HW1 4718   2.844   6.271   5.956
 1273SOL    HW2 4719   2.748   6.315   6.081
 1274SOL     OW 4720   5.523   1.953   1.912
 1274SOL    HW1 4721   5.599   1.995   1.961
 1274SOL    HW2 4722   5.438   2.000   1.934
 1275SOL     OW 4723   4.049   1.592   3.858
 1275SOL    HW1 4724   3.987   1.525   3.817
 1275SOL    HW2 4725   4.114   1.545   3.918
 1276SOL     OW 4726   6.205   0.342   2.942
 1276SOL    HW1 4727   6.119   0.388   2.920
 1276SOL    HW2 4728   6.270   0.408   2.978
 1277SOL     OW 4729   0.557   1.893   5.117
 1277SOL    HW1 4730   0.612   1.809   5.123
 1277SOL    HW2 4731   0.524   1.918   5.208
 1278SOL     OW 4732   2.487   1.524   5.976
 1278SOL    HW1 4733   2.390   1.528   5.953
 1278SOL    HW2 4734   2.500   1.474   6.062
 1279SOL     OW 4735   2.298   5.158   0.581
 1279SOL    HW1 4736   2.225   5.163   0.514
 1279SOL    HW2 4737   2.371   5.098   0.547
 1280SOL     OW 4738   1.932   6.071   2.703
 1280SOL    HW1 4739   1.969   6.129   2.775
 1280SOL    HW2 4740   1.897   6.129   2.629
 1281SOL     OW 4741   0.725   6.796   4.147
 1281SOL    HW1 4742   0.673   6.722   4.189
 1281SOL    HW2 4743   0.722   6.877   4.205
 1282SOL     OW 4744   1.130   0.290   2.568
 1282SOL    HW1 4745   1.070   0.369   2.551
 1282SOL    HW2 4746   1.086   0.207   2.534
 1283SOL     OW 4747   5.036   4.719   4.861
 1283SOL    HW1 4748   4.958   4.667   4.826
 1283SOL    HW2 4749   5.005   4.784   4.930
 1284SOL     OW 4750   2.648   2.019   2.541
 1284SOL    HW1 4751   2.700   1.977   2.466
 1284SOL    HW2 4752   2.612   2.107   2.510
 1285SOL     OW 4753   5.615   2.347   6.360
 1285SOL    HW1 4754   5.706   2.308   6.345
 1285SOL    HW2 4755   5.623   2.430   6.416
 1286SOL     OW 4756   5.903   6.024   1.695
 1286SOL    HW1 4757   5.806   6.036   1.716
 1286SOL    HW2 4758   5.948   5.977   1.771
 1287SOL     OW 4759   6.080   4.925   6.331
 1287SOL    HW1 4760   6.124   4.851   6.282
 1287SOL    HW2 4761   5.995   4.892   6.372
 1288SOL     OW 4762   6.563   2.757   3.600
 1288SOL    HW1 4763   6.642   2.700   3.577
 1288SOL    HW2 4764   6.479   2.707   3.577
 1289SOL     OW 4765   6.841   5.310   2.462
 1289SOL    HW1 4766   6.886   5.340   2.378
 1289SOL    HW2 4767   6.910   5.285   2.530
 1290SOL     OW 4768   0.034   6.904   1.337
 1290SOL    HW1 4769   0.085   6.918   1.252
 1290SOL    HW2 4770   0.088   6.849   1.400
 1291SOL     OW 4771   1.211   6.844   0.776
 1291SOL    HW1 4772   1.289   6.797   0.733
 1291SOL    HW2 4773   1.241   6.933   0.809
 1292SOL     OW 4774   0.824   6.153   6.152
 1292SOL    HW1 4775   0.771   6.126   6.232
 1292SOL    HW2 4776   0.879   6.234   6.174
 1293SOL     OW 4777   6.498   2.612   5.825
 1293SOL    HW1 4778   6.512   2.644   5.919
 1293SOL    HW2 4779   6.566   2.653   5.765
 1294SOL     OW 4780   0.335   1.779   3.086
 1294SOL    HW1 4781   0.358   1.778   3.184
 1294SOL    HW2 4782   0.239   1.805   3.075
 1295SOL     OW 4783   4.626   3.449   1.668
 1295SOL    HW1 4784   4.690   3.513   1.711
 1295SOL    HW2 4785   4.540   3.496   1.648
 1296SOL     OW 4786   3.653   2.460   6.940
 1296SOL    HW1 4787   3.598   2.496   7.015
 1296SOL    HW2 4788   3.641   2.518   6.859
 1297SOL     OW 4789   6.329   1.166   6.899
 1297SOL    HW1 4790   6.287   1.124   6.980
 1297SOL    HW2 4791   6.349   1.262   6.919
 1298SOL     OW 4792   6.269   3.211   3.514
 1298SOL    HW1 4793   6.277   3.189   3.417
 1298SOL    HW2 4794   6.319   3.143   3.568
 1299SOL     OW 4795   0.984   3.433   4.343
 1299SOL    HW1 4796   0.970   3.348   4.292
 1299SOL    HW2 4797   1.082   3.448   4.357
 1300SOL     OW 4798   3.216   3.451   1.516
 1300SOL    HW1 4799   3.215   3.351   1.507
 1300SOL    HW2 4800   3.309   3.484   1.505
 1301SOL     OW 4801   0.346   0.509   2.671
 1301SOL    HW1 4802   0.263   0.536   2.720
 1301SOL    HW2 4803   0.423   0.508   2.735
 1302SOL     OW 4804   2.850   5.722   5.572
 1302SOL    HW1 4805   2.883   5.733   5.478
 1302SOL    HW2 4806   2.928   5.728   5.635
 1303SOL     OW 4807   3.602   0.207   1.151
 1303SOL    HW1 4808   3.701   0.217   1.160
 1303SOL    HW2 4809   3.568   0.147   1.223
 1304SOL     OW 4810   3.626   0.726   6.262
 1304SOL    HW1 4811   3.532   0.720   6.229
 1304SOL    HW2 4812   3.682   0.773   6.193
 1305SOL     OW 4813   6.101   6.397   4.035
 1305SOL    HW1 4814   6.146   6.334   3.972
 1305SOL    HW2 4815   6.045   6.345   4.100
 1306SOL     OW 4816   1.364   4.913   4.588
 1306SOL    HW1 4817   1.319   4.892   4.675
 1306SOL    HW2 4818   1.407   4.831   4.551
 1307SOL     OW 4819   1.761   1.865   4.458
 1307SOL    HW1 4820   1.780   1.881   4.361
 1307SOL    HW2 4821   1.809   1.783   4.489
 1308SOL     OW 4822   4.649   6.120   2.763
 1308SOL    HW1 4823   4.577   6.150   2.825
 1308SOL    HW2 4824   4.678   6.028   2.788
 1309SOL     OW 4825   6.026   3.040   4.747
 1309SOL    HW1 4826   6.037   3.026   4.845
 1309SOL    HW2 4827   6.079   3.120   4.719
 1310SOL     OW 4828   5.170   3.920   5.267
 1310SOL    HW1 4829   5.113   3.932   5.186
 1310SOL    HW2 4830   5.264   3.900   5.239
 1311SOL     OW 4831   5.443   5.388   5.306
 1311SOL    HW1 4832   5.492   5.465   5.348
 1311SOL    HW2 4833   5.472   5.303   5.350
 1312SOL     OW 4834   6.214   0.275   2.591
 1312SOL    HW1 4835   6.249   0.191   2.632
 1312SOL    HW2 4836   6.225   0.271   2.492
 1313SOL     OW 4837   3.174   4.855   5.074
 1313SOL    HW1 4838   3.110   4.838   4.998
 1313SOL    HW2 4839   3.194   4.769   5.121
 1314SOL     OW 4840   5.536   1.577   5.261
 1314SOL    HW1 4841   5.626   1.581   5.305
 1314SOL    HW2 4842   5.467   1.614   5.323
 1315SOL     OW 4843   2.284   0.609   3.433
 1315SOL    HW1 4844   2.247   0.632   3.342
 1315SOL    HW2 4845   2.211   0.619   3.501
 1316SOL     OW 4846   3.111   6.446   2.674
 1316SOL    HW1 4847   3.057   6.394   2.607
 1316SOL    HW2 4848   3.073   6.432   2.765
 1317SOL     OW 4849   6.985   4.675   4.072
 1317SOL    HW1 4850   6.887   4.691   4.057
 1317SOL    HW2 4851   6.999   4.580   4.101
 1318SOL     OW 4852   0.608   6.116   1.459
 1318SOL    HW1 4853   0.595   6.084   1.366
 1318SOL    HW2 4854   0.695   6.166   1.465
 1319SOL     OW 4855   6.219   0.720   0.172
 1319SOL    HW1 4856   6.204   0.639   0.115
 1319SOL    HW2 4857   6.156   0.719   0.249
 1320SOL     OW 4858   5.606   5.966   5.437
 1320SOL    HW1 4859   5.685   5.975   5.498
 1320SOL    HW2 4860   5.634   5.921   5.352
 1321SOL     OW 4861   2.989   1.678   6.975
 1321SOL    HW1 4862   3.058   1.606   6.971
 1321SOL    HW2 4863   3.019   1.755   6.919
 1322SOL     OW 4864   5.547   1.321   5.860
 1322SOL    HW1 4865   5.462   1.369   5.883
 1322SOL    HW2 4866   5.587   1.362   5.779
 1323SOL     OW 4867   6.047   0.801   3.917
 1323SOL    HW1 4868   5.961   0.846   3.893
 1323SOL    HW2 4869   6.089   0.849   3.994
 1324SOL     OW 4870   0.861   3.618   0.078
 1324SOL    HW1 4871   0.883   3.528   0.114
 1324SOL    HW2 4872   0.837   3.611   7.008
 1325SOL     OW 4873   3.227   5.425   3.258
 1325SOL    HW1 4874   3.199   5.368   3.335
 1325SOL    HW2 4875   3.238   5.369   3.177
 1326SOL     OW 4876   4.919   4.133   4.697
 1326SOL    HW1 4877   4.874   4.215   4.660
 1326SOL    HW2 4878   4.927   4.142   4.796
 1327SOL     OW 4879   2.990   5.906   3.443
 1327SOL    HW1 4880   2.910   5.965   3.431
 1327SOL    HW2 4881   3.073   5.962   3.434
 1328SOL     OW 4882   1.758   1.714   0.000
 1328SOL    HW1 4883   1.750   1.706   0.100
 1328SOL    HW2 4884   1.825   1.647   6.994
 1329SOL     OW 4885   0.765   0.376   1.593
 1329SOL    HW1 4886   0.667   0.359   1.602
 1329SOL    HW2 4887   0.781   0.474   1.582
 1330SOL     OW 4888   5.064   6.531   0.880
 1330SOL    HW1 4889   5.143   6.483   0.841
 1330SOL    HW2 4890   5.095   6.594   0.951
 1331SOL     OW 4891   0.142   1.385   2.812
 1331SOL    HW1 4892   0.081   1.370   2.734
 1331SOL    HW2 4893   0.178   1.478   2.809
 1332SOL     OW 4894   3.900   1.567   0.949
 1332SOL    HW1 4895   3.955   1.611   0.878
 1332SOL    HW2 4896   3.910   1.467   0.942
 1333SOL     OW 4897   3.994   3.342   4.562
 1333SOL    HW1 4898   3.998   3.258   4.508
 1333SOL    HW2 4899   4.011   3.321   4.658
 1334SOL     OW 4900   0.497   4.619   3.453
 1334SOL    HW1 4901   0.433   4.593   3.380
 1334SOL    HW2 4902   0.590   4.594   3.426
 1335SOL     OW 4903   2.639   5.503   1.785
 1335SOL    HW1 4904   2.589   5.423   1.752
 1335SOL    HW2 4905   2.574   5.568   1.825
 1336SOL     OW 4906   0.123   0.619   4.689
 1336SOL    HW1 4907   0.026   0.599   4.685
 1336SOL    HW2 4908   0.137   0.718   4.690
 1337SOL     OW 4909   2.710   0.665   6.853
 1337SOL    HW1 4910   2.711   0.586   6.791
 1337SOL    HW2 4911   2.632   0.657   6.915
 1338SOL     OW 4912   3.736   5.573   0.948
 1338SOL    HW1 4913   3.754   5.645   1.015
 1338SOL    HW2 4914   3.767   5.603   0.858
 1339SOL     OW 4915   0.366   4.960   5.737
 1339SOL    HW1 4916   0.429   5.036   5.722
 1339SOL    HW2 4917   0.410   4.874   5.710
 1340SOL     OW 4918   2.052   1.191   6.298
 1340SOL    HW1 4919   2.099   1.206   6.386
 1340SOL    HW2 4920   2.014   1.099   6.296
 1341SOL     OW 4921   6.112   1.895   4.081
 1341SOL    HW1 4922   6.022   1.884   4.125
 1341SOL    HW2 4923   6.121   1.988   4.046
 1342SOL     OW 4924   0.475   6.167   1.817
 1342SOL    HW1 4925   0.408   6.159   1.892
 1342SOL    HW2 4926   0.427   6.176   1.730
 1343SOL     OW 4927   3.408   4.903   3.140
 1343SOL    HW1 4928   3.410   4.874   3.044
 1343SOL    HW2 4929   3.476   4.852   3.191
 1344SOL     OW 4930   5.625   1.413   3.007
 1344SOL    HW1 4931   5.542   1.427   3.061
 1344SOL    HW2 4932   5.601   1.413   2.910
 1345SOL     OW 4933   1.021   6.758   3.442
 1345SOL    HW1 4934   0.991   6.714   3.527
 1345SOL    HW2 4935   1.116   6.788   3.452
 1346SOL     OW 4936   0.101   0.866   4.027
 1346SOL    HW1 4937   0.125   0.939   4.092
 1346SOL    HW2 4938   0.165   0.790   4.038
 1347SOL     OW 4939   5.259   0.594   3.808
 1347SOL    HW1 4940   5.354   0.623   3.797
 1347SOL    HW2 4941   5.202   0.643   3.742
 1348SOL     OW 4942   4.665   5.910   4.696
 1348SOL    HW1 4943   4.750   5.860   4.676
 1348SOL    HW2 4944   4.613   5.923   4.611
 1349SOL     OW 4945   4.998   2.174   0.178
 1349SOL    HW1 4946   4.942   2.151   0.258
 1349SOL    HW2 4947   5.089   2.203   0.209
 1350SOL     OW 4948   3.615   0.493   5.000
 1350SOL    HW1 4949   3.574   0.582   5.020
 1350SOL    HW2 4950   3.709   0.492   5.034
 1351SOL     OW 4951   0.887   1.594   4.445
 1351SOL    HW1 4952   0.973   1.580   4.493
 1351SOL    HW2 4953   0.828   1.655   4.499
 1352SOL     OW 4954   0.620   6.515   3.978
 1352SOL    HW1 4955   0.558   6.534   3.902
 1352SOL    HW2 4956   0.586   6.557   4.062
 1353SOL     OW 4957   1.901   2.648   4.759
 1353SOL    HW1 4958   1.949   2.715   4.814
 1353SOL    HW2 4959   1.967   2.591   4.710
 1354SOL     OW 4960   0.395   6.633   0.290
 1354SOL    HW1 4961   0.426   6.628   0.195
 1354SOL    HW2 4962   0.326   6.706   0.299
 1355SOL     OW 4963   4.049   3.386   0.053
 1355SOL    HW1 4964   4.101   3.333   7.013
 1355SOL    HW2 4965   4.001   3.323   0.114
 1356SOL     OW 4966   3.400   3.073   1.728
 1356SOL    HW1 4967   3.389   3.114   1.818
 1356SOL    HW2 4968   3.337   3.116   1.663
 1357SOL     OW 4969   2.997   2.982   5.978
 1357SOL    HW1 4970   2.995   2.925   5.896
 1357SOL    HW2 4971   2.905   3.016   5.998
 1358SOL     OW 4972   2.121   3.533   5.850
 1358SOL    HW1 4973   2.218   3.559   5.842
 1358SOL    HW2 4974   2.075   3.552   5.763
 1359SOL     OW 4975   0.150   0.833   0.040
 1359SOL    HW1 4976   0.134   0.889   0.122
 1359SOL    HW2 4977   0.089   0.863   6.994
 1360SOL     OW 4978   3.420   2.898   4.305
 1360SOL    HW1 4979   3.328   2.937   4.304
 1360SOL    HW2 4980   3.465   2.915   4.217
 1361SOL     OW 4981   1.047   6.370   1.349
 1361SOL    HW1 4982   0.967   6.410   1.305
 1361SOL    HW2 4983   1.128   6.388   1.293
 1362SOL     OW 4984   2.766   2.216   6.046
 1362SOL    HW1 4985   2.822   2.209   5.963
 1362SOL    HW2 4986   2.816   2.175   6.123
 1363SOL     OW 4987   6.810   6.744   1.387
 1363SOL    HW1 4988   6.858   6.817   1.338
 1363SOL    HW2 4989   6.862   6.659   1.380
 1364SOL     OW 4990   1.288   3.988   0.908
 1364SOL    HW1 4991   1.378   4.021   0.879
 1364SOL    HW2 4992   1.265   3.905   0.857
 1365SOL     OW 4993   0.532   3.823   5.494
 1365SOL    HW1 4994   0.466   3.826   5.418
 1365SOL    HW2 4995   0.625   3.834   5.458
 1366SOL     OW 4996   4.172   0.391   0.840
 1366SOL    HW1 4997   4.175   0.453   0.761
 1366SOL    HW2 4998   4.158   0.444   0.923
 1367SOL     OW 4999   1.245   6.855   4.507
 1367SOL    HW1 5000   1.330   6.899   4.536
 1367SOL    HW2 5001   1.240   6.763   4.547
 1368SOL     OW 5002   1.078   6.919   4.756
 1368SOL    HW1 5003   0.984   6.942   4.730
 1368SOL    HW2 5004   1.129   6.893   4.674
 1369SOL     OW 5005   2.862   5.824   3.715
 1369SOL    HW1 5006   2.918   5.766   3.774
 1369SOL    HW2 5007   2.908   5.836   3.627
 1370SOL     OW 5008   0.090   2.638   3.097
 1370SOL    HW1 5009   0.096   2.615   3.194
 1370SOL    HW2 5010   0.163   2.701   3.073
 1371SOL     OW 5011   6.200   2.267   5.604
 1371SOL    HW1 5012   6.145   2.323   5.666
 1371SOL    HW2 5013   6.180   2.171   5.620
 1372SOL     OW 5014   5.789   2.858   1.134
 1372SOL    HW1 5015   5.835   2.770   1.150
 1372SOL    HW2 5016   5.757   2.862   1.039
 1373SOL     OW 5017   5.785   2.897   1.833
 1373SOL    HW1 5018   5.708   2.961   1.836
 1373SOL    HW2 5019   5.792   2.858   1.741
 1374SOL     OW 5020   4.199   3.702   1.841
 1374SOL    HW1 5021   4.171   3.678   1.934
 1374SOL    HW2 5022   4.189   3.800   1.828
 1375SOL     OW 5023   5.516   4.923   4.288
 1375SOL    HW1 5024   5.520   4.823   4.282
 1375SOL    HW2 5025   5.551   4.953   4.377
 1376SOL     OW 5026   3.174   4.641   6.053
 1376SOL    HW1 5027   3.094   4.580   6.059
 1376SOL    HW2 5028   3.217   4.647   6.143
 1377SOL     OW 5029   2.385   1.866   2.971
 1377SOL    HW1 5030   2.314   1.864   2.900
 1377SOL    HW2 5031   2.460   1.925   2.940
 1378SOL     OW 5032   5.193   2.728   4.124
 1378SOL    HW1 5033   5.240   2.815   4.106
 1378SOL    HW2 5034   5.095   2.740   4.112
 1379SOL     OW 5035   4.572   5.446   0.510
 1379SOL    HW1 5036   4.557   5.456   0.411
 1379SOL    HW2 5037   4.501   5.387   0.548
 1380SOL     OW 5038   0.308   6.162   2.680
 1380SOL    HW1 5039   0.403   6.177   2.709
 1380SOL    HW2 5040   0.282   6.234   2.615
 1381SOL     OW 5041   6.108   2.093   6.445
 1381SOL    HW1 5042   6.110   2.037   6.528
 1381SOL    HW2 5043   6.161   2.177   6.461
 1382SOL     OW 5044   4.607   2.311   0.049
 1382SOL    HW1 5045   4.707   2.305   0.041
 1382SOL    HW2 5046   4.582   2.393   0.101
 1383SOL     OW 5047   6.761   0.612   0.926
 1383SOL    HW1 5048   6.835   0.564   0.974
 1383SOL    HW2 5049   6.764   0.709   0.949
 1384SOL     OW 5050   6.035   1.985   2.021
 1384SOL    HW1 5051   6.052   2.084   2.022
 1384SOL    HW2 5052   6.106   1.939   1.968
 1385SOL     OW 5053   0.378   5.845   1.242
 1385SOL    HW1 5054   0.278   5.842   1.246
 1385SOL    HW2 5055   0.416   5.798   1.322
 1386SOL     OW 5056   2.307   5.738   4.072
 1386SOL    HW1 5057   2.279   5.738   3.976
 1386SOL    HW2 5058   2.364   5.818   4.090
 1387SOL     OW 5059   2.736   6.056   1.273
 1387SOL    HW1 5060   2.738   5.978   1.335
 1387SOL    HW2 5061   2.738   6.141   1.325
 1388SOL     OW 5062   6.965   0.770   2.035
 1388SOL    HW1 5063   0.004   0.733   1.969
 1388SOL    HW2 5064   6.996   0.749   2.128
 1389SOL     OW 5065   6.314   1.078   2.347
 1389SOL    HW1 5066   6.333   1.174   2.327
 1389SOL    HW2 5067   6.215   1.064   2.352
 1390SOL     OW 5068   1.603   1.767   4.868
 1390SOL    HW1 5069   1.563   1.677   4.854
 1390SOL    HW2 5070   1.564   1.808   4.951
 1391SOL     OW 5071   0.326   3.238   3.388
 1391SOL    HW1 5072   0.310   3.207   3.481
 1391SOL    HW2 5073   0.250   3.209   3.330
 1392SOL     OW 5074   5.001   4.415   4.611
 1392SOL    HW1 5075   4.920   4.390   4.664
 1392SOL    HW2 5076   4.978   4.418   4.514
 1393SOL     OW 5077   3.139   6.162   6.007
 1393SOL    HW1 5078   3.107   6.202   5.921
 1393SOL    HW2 5079   3.236   6.138   5.998
 1394SOL     OW 5080   1.485   5.799   6.162
 1394SOL    HW1 5081   1.493   5.892   6.125
 1394SOL    HW2 5082   1.391   5.785   6.195
 1395SOL     OW 5083   3.524   4.423   5.918
 1395SOL    HW1 5084   3.430   4.450   5.896
 1395SOL    HW2 5085   3.526   4.326   5.942
 1396SOL     OW 5086   6.212   6.262   3.787
 1396SOL    HW1 5087   6.309   6.239   3.801
 1396SOL    HW2 5088   6.161   6.179   3.766
 1397SOL     OW 5089   4.578   6.158   5.616
 1397SOL    HW1 5090   4.646   6.148   5.688
 1397SOL    HW2 5091   4.502   6.095   5.631
 1398SOL     OW 5092   2.072   1.190   4.617
 1398SOL    HW1 5093   2.125   1.196   4.532
 1398SOL    HW2 5094   2.020   1.104   4.618
 1399SOL     OW 5095   3.450   5.864   1.502
 1399SOL    HW1 5096   3.414   5.953   1.531
 1399SOL    HW2 5097   3.398   5.791   1.546
 1400SOL     OW 5098   2.276   6.674   2.413
 1400SOL    HW1 5099   2.260   6.680   2.511
 1400SOL    HW2 5100   2.267   6.579   2.383
 1401SOL     OW 5101   6.624   1.039   4.860
 1401SOL    HW1 5102   6.666   1.129   4.877
 1401SOL    HW2 5103   6.677   0.992   4.789
 1402SOL     OW 5104   6.832   3.035   0.178
 1402SOL    HW1 5105   6.876   3.089   0.250
 1402SOL    HW2 5106   6.735   3.024   0.200
 1403SOL     OW 5107   3.523   0.296   2.521
 1403SOL    HW1 5108   3.515   0.393   2.495
 1403SOL    HW2 5109   3.492   0.285   2.615
 1404SOL     OW 5110   5.194   1.933   0.487
 1404SOL    HW1 5111   5.131   1.948   0.411
 1404SOL    HW2 5112   5.148   1.955   0.573
 1405SOL     OW 5113   3.109   3.114   1.130
 1405SOL    HW1 5114   3.208   3.125   1.117
 1405SOL    HW2 5115   3.090   3.080   1.222
 1406SOL     OW 5116   1.546   4.098   1.551
 1406SOL    HW1 5117   1.627   4.109   1.609
 1406SOL    HW2 5118   1.551   4.011   1.503
 1407SOL     OW 5119   6.268   2.599   3.141
 1407SOL    HW1 5120   6.177   2.639   3.153
 1407SOL    HW2 5121   6.332   2.671   3.114
 1408SOL     OW 5122   6.290   6.947   6.330
 1408SOL    HW1 5123   6.285   6.953   6.429
 1408SOL    HW2 5124   6.197   6.952   6.292
 1409SOL     OW 5125   0.421   1.711   4.607
 1409SOL    HW1 5126   0.342   1.651   4.596
 1409SOL    HW2 5127   0.440   1.757   4.520
 1410SOL     OW 5128   0.217   2.850   6.726
 1410SOL    HW1 5129   0.198   2.781   6.656
 1410SOL    HW2 5130   0.201   2.810   6.816
 1411SOL     OW 5131   1.724   6.911   1.483
 1411SOL    HW1 5132   1.729   6.885   1.387
 1411SOL    HW2 5133   1.631   6.940   1.504
 1412SOL     OW 5134   1.064   3.432   0.242
 1412SOL    HW1 5135   1.076   3.358   0.308
 1412SOL    HW2 5136   1.118   3.412   0.160
 1413SOL     OW 5137   2.705   0.198   4.118
 1413SOL    HW1 5138   2.698   0.232   4.212
 1413SOL    HW2 5139   2.799   0.171   4.099
 1414SOL     OW 5140   2.895   0.889   1.582
 1414SOL    HW1 5141   2.897   0.896   1.482
 1414SOL    HW2 5142   2.988   0.903   1.618
 1415SOL     OW 5143   4.172   6.112   6.161
 1415SOL    HW1 5144   4.142   6.146   6.072
 1415SOL    HW2 5145   4.270   6.090   6.157
 1416SOL     OW 5146   4.413   5.755   2.867
 1416SOL    HW1 5147   4.416   5.664   2.824
 1416SOL    HW2 5148   4.385   5.746   2.962
 1417SOL     OW 5149   3.089   2.353   5.968
 1417SOL    HW1 5150   3.094   2.452   5.954
 1417SOL    HW2 5151   3.157   2.324   6.035
 1418SOL     OW 5152   3.193   4.077   2.744
 1418SOL    HW1 5153   3.262   4.112   2.681
 1418SOL    HW2 5154   3.105   4.119   2.723
 1419SOL     OW 5155   4.765   6.253   5.010
 1419SOL    HW1 5156   4.717   6.208   5.085
 1419SOL    HW2 5157   4.701   6.309   4.958
 1420SOL     OW 5158   0.497   5.579   2.256
 1420SOL    HW1 5159   0.540   5.519   2.324
 1420SOL    HW2 5160   0.464   5.661   2.301
 1421SOL     OW 5161   3.666   1.149   2.836
 1421SOL    HW1 5162   3.572   1.126   2.811
 1421SOL    HW2 5163   3.690   1.239   2.800
 1422SOL     OW 5164   2.808   6.254   0.038
 1422SOL    HW1 5165   2.732   6.189   0.035
 1422SOL    HW2 5166   2.781   6.338   7.018
 1423SOL     OW 5167   4.632   0.824   2.712
 1423SOL    HW1 5168   4.560   0.792   2.650
 1423SOL    HW2 5169   4.641   0.760   2.788
 1424SOL     OW 5170   6.398   4.912   2.890
 1424SOL    HW1 5171   6.306   4.879   2.868
 1424SOL    HW2 5172   6.411   4.910   2.989
 1425SOL     OW 5173   1.896   0.170   5.006
 1425SOL    HW1 5174   1.947   0.251   5.033
 1425SOL    HW2 5175   1.801   0.178   5.038
 1426SOL     OW 5176   1.120   1.754   5.664
 1426SOL    HW1 5177   1.200   1.776   5.609
 1426SOL    HW2 5178   1.148   1.702   5.744
 1427SOL     OW 5179   6.110   0.742   4.810
 1427SOL    HW1 5180   6.188   0.749   4.872
 1427SOL    HW2 5181   6.142   0.736   4.716
 1428SOL     OW 5182   5.326   0.969   0.263
 1428SOL    HW1 5183   5.263   1.003   0.332
 1428SOL    HW2 5184   5.403   0.923   0.308
 1429SOL     OW 5185   5.571   0.461   0.517
 1429SOL    HW1 5186   5.543   0.420   0.604
 1429SOL    HW2 5187   5.544   0.400   0.442
 1430SOL     OW 5188   2.004   4.739   4.055
 1430SOL    HW1 5189   2.019   4.645   4.025
 1430SOL    HW2 5190   1.999   4.741   4.155
 1431SOL     OW 5191   1.471   0.508   1.018
 1431SOL    HW1 5192   1.448   0.549   1.106
 1431SOL    HW2 5193   1.570   0.500   1.009
 1432SOL     OW 5194   2.468   0.611   2.047
 1432SOL    HW1 5195   2.388   0.605   1.988
 1432SOL    HW2 5196   2.532   0.678   2.010
 1433SOL     OW 5197   4.848   0.862   4.113
 1433SOL    HW1 5198   4.941   0.865   4.149
 1433SOL    HW2 5199   4.793   0.935   4.153
 1434SOL     OW 5200   1.389   0.603   5.330
 1434SOL    HW1 5201   1.358   0.557   5.246
 1434SOL    HW2 5202   1.336   0.569   5.408
 1435SOL     OW 5203   6.916   1.758   3.426
 1435SOL    HW1 5204   6.865   1.773   3.342
 1435SOL    HW2 5205   7.011   1.734   3.404
 1436SOL     OW 5206   4.353   3.772   0.569
 1436SOL    HW1 5207   4.315   3.684   0.598
 1436SOL    HW2 5208   4.319   3.844   0.629
 1437SOL     OW 5209   3.959   1.274   2.214
 1437SOL    HW1 5210   3.929   1.188   2.172
 1437SOL    HW2 5211   4.040   1.308   2.166
 1438SOL     OW 5212   2.128   0.398   0.966
 1438SOL    HW1 5213   2.045   0.343   0.975
 1438SOL    HW2 5214   2.172   0.407   1.055
 1439SOL     OW 5215   0.720   5.694   2.626
 1439SOL    HW1 5216   0.724   5.767   2.694
 1439SOL    HW2 5217   0.811   5.680   2.588
 1440SOL     OW 5218   2.580   3.163   1.588
 1440SOL    HW1 5219   2.505   3.099   1.609
 1440SOL    HW2 5220   2.627   3.133   1.506
 1441SOL     OW 5221   5.155   6.223   0.770
 1441SOL    HW1 5222   5.161   6.140   0.827
 1441SOL    HW2 5223   5.096   6.205   0.692
 1442SOL     OW 5224   5.029   5.834   0.424
 1442SOL    HW1 5225   4.996   5.788   0.341
 1442SOL    HW2 5226   5.071   5.766   0.485
 1443SOL     OW 5227   0.342   3.012   3.149
 1443SOL    HW1 5228   0.418   3.062   3.108
 1443SOL    HW2 5229   0.274   3.076   3.185
 1444SOL     OW 5230   6.392   5.010   0.096
 1444SOL    HW1 5231   6.440   4.952   0.161
 1444SOL    HW2 5232   6.455   5.078   0.059
 1445SOL     OW 5233   1.036   3.544   1.503
 1445SOL    HW1 5234   1.022   3.528   1.405
 1445SOL    HW2 5235   1.066   3.638   1.518
 1446SOL     OW 5236   6.180   6.819   0.977
 1446SOL    HW1 5237   6.218   6.905   0.944
 1446SOL    HW2 5238   6.112   6.785   0.912
 1447SOL     OW 5239   5.901   5.302   4.321
 1447SOL    HW1 5240   5.854   5.291   4.409
 1447SOL    HW2 5241   5.836   5.338   4.253
 1448SOL     OW 5242   1.315   3.140   5.652
 1448SOL    HW1 5243   1.376   3.190   5.590
 1448SOL    HW2 5244   1.262   3.205   5.706
 1449SOL     OW 5245   2.168   3.207   3.587
 1449SOL    HW1 5246   2.106   3.162   3.651
 1449SOL    HW2 5247   2.189   3.145   3.512
 1450SOL     OW 5248   2.488   2.601   3.834
 1450SOL    HW1 5249   2.549   2.670   3.871
 1450SOL    HW2 5250   2.540   2.538   3.776
 1451SOL     OW 5251   2.764   1.177   2.600
 1451SOL    HW1 5252   2.783   1.218   2.511
 1451SOL    HW2 5253   2.837   1.200   2.664
 1452SOL     OW 5254   5.346   3.006   6.651
 1452SOL    HW1 5255   5.346   2.967   6.743
 1452SOL    HW2 5256   5.355   3.106   6.658
 1453SOL     OW 5257   6.654   4.641   5.769
 1453SOL    HW1 5258   6.672   4.738   5.781
 1453SOL    HW2 5259   6.702   4.607   5.689
 1454SOL     OW 5260   3.413   2.130   3.573
 1454SOL    HW1 5261   3.333   2.169   3.528
 1454SOL    HW2 5262   3.492   2.138   3.512
 1455SOL     OW 5263   0.529   5.704   1.729
 1455SOL    HW1 5264   0.468   5.652   1.789
 1455SOL    HW2 5265   0.517   5.802   1.745
 1456SOL     OW 5266   6.548   4.902   4.299
 1456SOL    HW1 5267   6.471   4.947   4.346
 1456SOL    HW2 5268   6.634   4.936   4.336
 1457SOL     OW 5269   1.007   5.725   6.106
 1457SOL    HW1 5270   1.087   5.671   6.082
 1457SOL    HW2 5271   0.926   5.667   6.104
 1458SOL     OW 5272   5.009   5.087   5.128
 1458SOL    HW1 5273   4.966   5.120   5.212
 1458SOL    HW2 5274   5.089   5.143   5.107
 1459SOL     OW 5275   5.818   6.618   5.495
 1459SOL    HW1 5276   5.741   6.600   5.434
 1459SOL    HW2 5277   5.821   6.549   5.567
 1460SOL     OW 5278   1.060   6.534   4.772
 1460SOL    HW1 5279   1.052   6.437   4.796
 1460SOL    HW2 5280   1.110   6.582   4.845
 1461SOL     OW 5281   6.682   3.170   3.709
 1461SOL    HW1 5282   6.687   3.267   3.686
 1461SOL    HW2 5283   6.729   3.154   3.796
 1462SOL     OW 5284   0.219   0.884   1.794
 1462SOL    HW1 5285   0.317   0.869   1.776
 1462SOL    HW2 5286   0.207   0.974   1.836
 1463SOL     OW 5287   2.269   5.313   6.975
 1463SOL    HW1 5288   2.224   5.230   7.007
 1463SOL    HW2 5289   2.267   5.315   6.875
 1464SOL     OW 5290   1.128   4.080   3.953
 1464SOL    HW1 5291   1.188   4.110   4.028
 1464SOL    HW2 5292   1.166   3.998   3.911
 1465SOL     OW 5293   0.850   3.202   3.816
 1465SOL    HW1 5294   0.896   3.154   3.891
 1465SOL    HW2 5295   0.788   3.270   3.854
 1466SOL     OW 5296   5.378   2.455   2.577
 1466SOL    HW1 5297   5.318   2.376   2.566
 1466SOL    HW2 5298   5.457   2.429   2.632
 1467SOL     OW 5299   0.854   0.749   4.203
 1467SOL    HW1 5300   0.848   0.722   4.300
 1467SOL    HW2 5301   0.791   0.824   4.186
 1468SOL     OW 5302   2.916   5.201   2.613
 1468SOL    HW1 5303   2.892   5.141   2.537
 1468SOL    HW2 5304   2.971   5.151   2.679
 1469SOL     OW 5305   6.029   3.866   3.015
 1469SOL    HW1 5306   6.066   3.775   2.998
 1469SOL    HW2 5307   5.978   3.897   2.934
 1470SOL     OW 5308   5.986   1.593   1.909
 1470SOL    HW1 5309   6.023   1.586   1.816
 1470SOL    HW2 5310   5.983   1.503   1.951
 1471SOL     OW 5311   4.377   6.847   1.300
 1471SOL    HW1 5312   4.429   6.766   1.329
 1471SOL    HW2 5313   4.288   6.847   1.346
 1472SOL     OW 5314   1.992   0.001   6.049
 1472SOL    HW1 5315   1.966   0.086   6.095
 1472SOL    HW2 5316   2.055   0.022   5.975
 1473SOL     OW 5317   1.647   5.945   3.919
 1473SOL    HW1 5318   1.568   5.883   3.928
 1473SOL    HW2 5319   1.620   6.024   3.864
 1474SOL     OW 5320   2.681   5.053   0.733
 1474SOL    HW1 5321   2.594   5.062   0.685
 1474SOL    HW2 5322   2.714   4.959   0.723
 1475SOL     OW 5323   5.495   0.350   6.082
 1475SOL    HW1 5324   5.511   0.328   6.178
 1475SOL    HW2 5325   5.569   0.314   6.026
 1476SOL     OW 5326   4.904   0.896   0.506
 1476SOL    HW1 5327   4.985   0.898   0.565
 1476SOL    HW2 5328   4.821   0.892   0.562
 1477SOL     OW 5329   3.550   4.780   1.550
 1477SOL    HW1 5330   3.573   4.819   1.461
 1477SOL    HW2 5331   3.465   4.728   1.542
 1478SOL     OW 5332   4.762   5.502   6.969
 1478SOL    HW1 5333   4.725   5.587   7.007
 1478SOL    HW2 5334   4.744   5.427   0.005
 1479SOL     OW 5335   4.129   3.570   1.394
 1479SOL    HW1 5336   4.167   3.521   1.472
 1479SOL    HW2 5337   4.092   3.505   1.328
 1480SOL     OW 5338   2.856   0.477   4.354
 1480SOL    HW1 5339   2.784   0.532   4.395
 1480SOL    HW2 5340   2.884   0.518   4.267
 1481SOL     OW 5341   5.371   2.857   6.353
 1481SOL    HW1 5342   5.308   2.782   6.373
 1481SOL    HW2 5343   5.441   2.862   6.425
 1482SOL     OW 5344   5.254   1.241   1.395
 1482SOL    HW1 5345   5.238   1.186   1.477
 1482SOL    HW2 5346   5.232   1.187   1.314
 1483SOL     OW 5347   5.835   0.895   0.083
 1483SOL    HW1 5348   5.768   0.951   0.035
 1483SOL    HW2 5349   5.841   0.805   0.040
 1484SOL     OW 5350   3.572   5.649   5.094
 1484SOL    HW1 5351   3.553   5.624   5.189
 1484SOL    HW2 5352   3.491   5.690   5.053
 1485SOL     OW 5353   5.412   2.679   3.211
 1485SOL    HW1 5354   5.314   2.681   3.227
 1485SOL    HW2 5355   5.460   2.704   3.294
 1486SOL     OW 5356   4.717   6.403   3.501
 1486SOL    HW1 5357   4.653   6.470   3.540
 1486SOL    HW2 5358   4.810   6.427   3.526
 1487SOL     OW 5359   6.389   0.768   0.388
 1487SOL    HW1 5360   6.461   0.719   0.339
 1487SOL    HW2 5361   6.303   0.759   0.339
 1488SOL     OW 5362   6.619   1.948   2.804
 1488SOL    HW1 5363   6.678   2.016   2.847
 1488SOL    HW2 5364   6.672   1.866   2.782
 1489SOL     OW 5365   3.111   4.009   0.433
 1489SOL    HW1 5366   3.037   4.017   0.500
 1489SOL    HW2 5367   3.126   4.097   0.388
 1490SOL     OW 5368   6.584   2.469   2.235
 1490SOL    HW1 5369   6.590   2.533   2.311
 1490SOL    HW2 5370   6.608   2.516   2.150
 1491SOL     OW 5371   5.957   2.540   4.114
 1491SOL    HW1 5372   6.032   2.524   4.178
 1491SOL    HW2 5373   5.915   2.629   4.133
 1492SOL     OW 5374   6.102   1.643   3.412
 1492SOL    HW1 5375   6.150   1.714   3.360
 1492SOL    HW2 5376   6.169   1.589   3.463
 1493SOL     OW 5377   5.140   1.751   6.055
 1493SOL    HW1 5378   5.111   1.656   6.043
 1493SOL    HW2 5379   5.162   1.768   6.151
 1494SOL     OW 5380   6.454   4.766   6.134
 1494SOL    HW1 5381   6.431   4.672   6.109
 1494SOL    HW2 5382   6.472   4.770   6.232
 1495SOL     OW 5383   6.763   4.028   4.521
 1495SOL    HW1 5384   6.799   3.935   4.524
 1495SOL    HW2 5385   6.738   4.050   4.426
 1496SOL     OW 5386   6.391   6.419   6.272
 1496SOL    HW1 5387   6.409   6.345   6.337
 1496SOL    HW2 5388   6.415   6.389   6.180
 1497SOL     OW 5389   6.365   2.459   2.561
 1497SOL    HW1 5390   6.458   2.494   2.566
 1497SOL    HW2 5391   6.329   2.443   2.653
 1498SOL     OW 5392   3.321   3.640   0.652
 1498SOL    HW1 5393   3.347   3.543   0.658
 1498SOL    HW2 5394   3.227   3.648   0.621
 1499SOL     OW 5395   0.194   4.359   4.612
 1499SOL    HW1 5396   0.122   4.316   4.667
 1499SOL    HW2 5397   0.236   4.291   4.552
 1500SOL     OW 5398   0.545   6.070   2.133
 1500SOL    HW1 5399   0.494   6.104   2.053
 1500SOL    HW2 5400   0.539   5.970   2.135
 1501SOL     OW 5401   5.705   1.490   0.661
 1501SOL    HW1 5402   5.622   1.442   0.690
 1501SOL    HW2 5403   5.746   1.441   0.583
 1502SOL     OW 5404   6.424   0.445   6.158
 1502SOL    HW1 5405   6.478   0.441   6.241
 1502SOL    HW2 5406   6.440   0.362   6.104
 1503SOL     OW 5407   0.407   4.819   1.328
 1503SOL    HW1 5408   0.365   4.898   1.373
 1503SOL    HW2 5409   0.458   4.849   1.247
 1504SOL     OW 5410   2.085   6.940   2.522
 1504SOL    HW1 5411   2.133   7.021   2.556
 1504SOL    HW2 5412   2.121   6.858   2.567
 1505SOL     OW 5413   6.429   5.098   4.918
 1505SOL    HW1 5414   6.505   5.048   4.959
 1505SOL    HW2 5415   6.445   5.196   4.929
 1506SOL     OW 5416   0.567   1.514   0.990
 1506SOL    HW1 5417   0.663   1.506   1.019
 1506SOL    HW2 5418   0.534   1.425   0.959
 1507SOL     OW 5419   1.648   2.794   4.059
 1507SOL    HW1 5420   1.712   2.799   4.135
 1507SOL    HW2 5421   1.559   2.827   4.088
 1508SOL     OW 5422   1.836   0.894   1.361
 1508SOL    HW1 5423   1.859   0.977   1.310
 1508SOL    HW2 5424   1.801   0.825   1.298
 1509SOL     OW 5425   5.048   1.145   4.655
 1509SOL    HW1 5426   5.026   1.052   4.684
 1509SOL    HW2 5427   5.071   1.146   4.558
 1510SOL     OW 5428   3.650   6.479   4.251
 1510SOL    HW1 5429   3.657   6.514   4.157
 1510SOL    HW2 5430   3.727   6.514   4.305
 1511SOL     OW 5431   2.890   3.541   5.034
 1511SOL    HW1 5432   2.829   3.515   5.109
 1511SOL    HW2 5433   2.930   3.631   5.051
 1512SOL     OW 5434   5.567   6.612   1.137
 1512SOL    HW1 5435   5.497   6.611   1.208
 1512SOL    HW2 5436   5.603   6.704   1.127
 1513SOL     OW 5437   2.457   0.235   6.161
 1513SOL    HW1 5438   2.467   0.240   6.261
 1513SOL    HW2 5439   2.455   0.139   6.133
 1514SOL     OW 5440   3.181   2.596   6.490
 1514SOL    HW1 5441   3.144   2.515   6.535
 1514SOL    HW2 5442   3.111   2.638   6.432
 1515SOL     OW 5443   4.587   0.663   2.317
 1515SOL    HW1 5444   4.669   0.625   2.275
 1515SOL    HW2 5445   4.596   0.762   2.326
 1516SOL     OW 5446   5.941   0.240   5.332
 1516SOL    HW1 5447   5.920   0.150   5.369
 1516SOL    HW2 5448   5.987   0.295   5.402
 1517SOL     OW 5449   3.430   6.192   3.933
 1517SOL    HW1 5450   3.330   6.198   3.944
 1517SOL    HW2 5451   3.474   6.208   4.021
 1518SOL     OW 5452   0.852   2.766   6.634
 1518SOL    HW1 5453   0.762   2.721   6.635
 1518SOL    HW2 5454   0.886   2.774   6.727
 1519SOL     OW 5455   6.609   5.398   6.746
 1519SOL    HW1 5456   6.666   5.393   6.665
 1519SOL    HW2 5457   6.530   5.457   6.729
 1520SOL     OW 5458   0.405   6.165   3.028
 1520SOL    HW1 5459   0.481   6.103   3.009
 1520SOL    HW2 5460   0.356   6.185   2.943
 1521SOL     OW 5461   2.300   5.189   6.133
 1521SOL    HW1 5462   2.264   5.115   6.191
 1521SOL    HW2 5463   2.229   5.218   6.068
 1522SOL     OW 5464   5.948   6.213   4.163
 1522SOL    HW1 5465   5.938   6.183   4.069
 1522SOL    HW2 5466   5.875   6.172   4.219
 1523SOL     OW 5467   3.594   6.438   0.903
 1523SOL    HW1 5468   3.502   6.438   0.865
 1523SOL    HW2 5469   3.635   6.347   0.892
 1524SOL     OW 5470   2.545   1.764   2.691
 1524SOL    HW1 5471   2.574   1.857   2.666
 1524SOL    HW2 5472   2.623   1.713   2.727
 1525SOL     OW 5473   5.516   3.901   6.897
 1525SOL    HW1 5474   5.438   3.907   6.834
 1525SOL    HW2 5475   5.507   3.970   6.969
 1526SOL     OW 5476   1.220   1.466   0.577
 1526SOL    HW1 5477   1.212   1.374   0.538
 1526SOL    HW2 5478   1.138   1.486   0.631
 1527SOL     OW 5479   4.382   2.007   3.629
 1527SOL    HW1 5480   4.413   2.098   3.601
 1527SOL    HW2 5481   4.298   2.015   3.682
 1528SOL     OW 5482   3.587   3.952   2.489
 1528SOL    HW1 5483   3.572   3.994   2.399
 1528SOL    HW2 5484   3.576   4.021   2.560
 1529SOL     OW 5485   4.017   1.621   5.869
 1529SOL    HW1 5486   3.954   1.584   5.937
 1529SOL    HW2 5487   4.069   1.546   5.827
 1530SOL     OW 5488   3.137   6.715   1.153
 1530SOL    HW1 5489   3.079   6.645   1.194
 1530SOL    HW2 5490   3.111   6.805   1.189
 1531SOL     OW 5491   4.680   6.685   4.217
 1531SOL    HW1 5492   4.610   6.616   4.237
 1531SOL    HW2 5493   4.692   6.745   4.296
 1532SOL     OW 5494   3.438   5.594   6.784
 1532SOL    HW1 5495   3.411   5.548   6.869
 1532SOL    HW2 5496   3.395   5.547   6.707
 1533SOL     OW 5497   5.728   5.551   1.221
 1533SOL    HW1 5498   5.688   5.514   1.138
 1533SOL    HW2 5499   5.731   5.480   1.292
 1534SOL     OW 5500   3.424   4.628   6.532
 1534SOL    HW1 5501   3.436   4.529   6.535
 1534SOL    HW2 5502   3.335   4.652   6.571
 1535SOL     OW 5503   5.677   5.083   4.113
 1535SOL    HW1 5504   5.611   5.021   4.154
 1535SOL    HW2 5505   5.769   5.064   4.149
 1536SOL     OW 5506   4.839   3.483   6.728
 1536SOL    HW1 5507   4.870   3.389   6.719
 1536SOL    HW2 5508   4.814   3.519   6.638
 1537SOL     OW 5509   2.647   4.961   2.909
 1537SOL    HW1 5510   2.637   4.976   2.810
 1537SOL    HW2 5511   2.600   5.035   2.958
 1538SOL     OW 5512   2.678   1.228   0.556
 1538SOL    HW1 5513   2.690   1.325   0.535
 1538SOL    HW2 5514   2.653   1.217   0.652
 1539SOL     OW 5515   6.013   3.025   0.731
 1539SOL    HW1 5516   6.045   2.998   0.822
 1539SOL    HW2 5517   6.086   3.074   0.684
 1540SOL     OW 5518   3.468   0.009   3.988
 1540SOL    HW1 5519   3.527   0.064   4.047
 1540SOL    HW2 5520   3.485   0.032   3.893
 1541SOL     OW 5521   3.916   3.376   5.764
 1541SOL    HW1 5522   3.970   3.295   5.746
 1541SOL    HW2 5523   3.825   3.349   5.798
 1542SOL     OW 5524   0.428   6.493   2.213
 1542SOL    HW1 5525   0.404   6.396   2.213
 1542SOL    HW2 5526   0.525   6.504   2.236
 1543SOL     OW 5527   2.997   4.586   0.262
 1543SOL    HW1 5528   3.095   4.584   0.284
 1543SOL    HW2 5529   2.958   4.674   0.290
 1544SOL     OW 5530   3.715   3.476   3.819
 1544SOL    HW1 5531   3.657   3.394   3.828
 1544SOL    HW2 5532   3.677   3.535   3.748
 1545SOL     OW 5533   5.654   5.904   1.803
 1545SOL    HW1 5534   5.577   5.878   1.744
 1545SOL    HW2 5535   5.620   5.959   1.879
 1546SOL     OW 5536   5.553   6.593   5.847
 1546SOL    HW1 5537   5.467   6.542   5.851
 1546SOL    HW2 5538   5.551   6.669   5.911
 1547SOL     OW 5539   2.018   3.349   6.528
 1547SOL    HW1 5540   2.077   3.360   6.448
 1547SOL    HW2 5541   2.036   3.422   6.594
 1548SOL     OW 5542   6.359   1.924   0.139
 1548SOL    HW1 5543   6.370   1.836   0.093
 1548SOL    HW2 5544   6.372   1.912   0.238
 1549SOL     OW 5545   4.926   0.887   4.731
 1549SOL    HW1 5546   4.873   0.912   4.650
 1549SOL    HW2 5547   4.897   0.797   4.763
 1550SOL     OW 5548   3.838   2.970   4.273
 1550SOL    HW1 5549   3.899   2.926   4.207
 1550SOL    HW2 5550   3.758   3.008   4.226
 1551SOL     OW 5551   6.179   4.940   6.028
 1551SOL    HW1 5552   6.257   4.885   5.999
 1551SOL    HW2 5553   6.205   4.999   6.104
 1552SOL     OW 5554   2.014   4.565   1.467
 1552SOL    HW1 5555   2.064   4.484   1.498
 1552SOL    HW2 5556   1.917   4.556   1.490
 1553SOL     OW 5557   1.836   1.623   5.958
 1553SOL    HW1 5558   1.861   1.719   5.945
 1553SOL    HW2 5559   1.777   1.593   5.883
 1554SOL     OW 5560   3.147   1.496   3.861
 1554SOL    HW1 5561   3.159   1.506   3.763
 1554SOL    HW2 5562   3.199   1.416   3.893
 1555SOL     OW 5563   6.551   4.256   6.095
 1555SOL    HW1 5564   6.642   4.229   6.126
 1555SOL    HW2 5565   6.557   4.291   6.001
 1556SOL     OW 5566   2.113   0.929   5.965
 1556SOL    HW1 5567   2.060   0.960   5.887
 1556SOL    HW2 5568   2.209   0.923   5.940
 1557SOL     OW 5569   0.272   2.681   6.322
 1557SOL    HW1 5570   0.293   2.620   6.246
 1557SOL    HW2 5571   0.212   2.635   6.387
 1558SOL     OW 5572   0.327   6.929   4.794
 1558SOL    HW1 5573   0.278   6.859   4.742
 1558SOL    HW2 5574   0.372   6.887   4.873
 1559SOL     OW 5575   1.409   1.878   6.354
 1559SOL    HW1 5576   1.457   1.911   6.273
 1559SOL    HW2 5577   1.310   1.890   6.342
 1560SOL     OW 5578   0.012   0.166   6.648
 1560SOL    HW1 5579   0.076   0.231   6.607
 1560SOL    HW2 5580   0.053   0.074   6.647
 1561SOL     OW 5581   5.411   6.129   2.203
 1561SOL    HW1 5582   5.431   6.142   2.300
 1561SOL    HW2 5583   5.406   6.031   2.183
 1562SOL     OW 5584   6.182   0.706   3.695
 1562SOL    HW1 5585   6.131   0.646   3.633
 1562SOL    HW2 5586   6.121   0.741   3.766
 1563SOL     OW 5587   3.854   6.930   5.031
 1563SOL    HW1 5588   3.933   6.892   4.983
 1563SOL    HW2 5589   3.771   6.912   4.978
 1564SOL     OW 5590   0.876   2.208   2.322
 1564SOL    HW1 5591   0.809   2.244   2.257
 1564SOL    HW2 5592   0.829   2.150   2.389
 1565SOL     OW 5593   5.780   4.580   1.670
 1565SOL    HW1 5594   5.835   4.646   1.619
 1565SOL    HW2 5595   5.709   4.628   1.721
 1566SOL     OW 5596   6.062   4.207   3.275
 1566SOL    HW1 5597   5.996   4.279   3.255
 1566SOL    HW2 5598   6.040   4.166   3.364
 1567SOL     OW 5599   6.339   5.979   5.207
 1567SOL    HW1 5600   6.259   5.986   5.268
 1567SOL    HW2 5601   6.418   6.021   5.252
 1568SOL     OW 5602   0.733   6.947   7.012
 1568SOL    HW1 5603   0.700   0.003   0.031
 1568SOL    HW2 5604   0.706   6.950   6.916
 1569SOL     OW 5605   3.508   6.672   4.668
 1569SOL    HW1 5606   3.526   6.592   4.611
 1569SOL    HW2 5607   3.424   6.716   4.637
 1570SOL     OW 5608   3.253   2.153   1.768
 1570SOL    HW1 5609   3.178   2.111   1.818
 1570SOL    HW2 5610   3.339   2.131   1.813
 1571SOL     OW 5611   6.660   4.194   0.666
 1571SOL    HW1 5612   6.637   4.114   0.722
 1571SOL    HW2 5613   6.579   4.251   0.653
 1572SOL     OW 5614   1.360   5.723   2.492
 1572SOL    HW1 5615   1.415   5.770   2.560
 1572SOL    HW2 5616   1.393   5.745   2.401
 1573SOL     OW 5617   3.731   0.246   0.777
 1573SOL    HW1 5618   3.757   0.307   0.852
 1573SOL    HW2 5619   3.741   0.293   0.690
 1574SOL     OW 5620   6.060   3.147   2.248
 1574SOL    HW1 5621   6.045   3.075   2.181
 1574SOL    HW2 5622   6.156   3.147   2.277
 1575SOL     OW 5623   3.270   2.198   0.281
 1575SOL    HW1 5624   3.361   2.178   0.316
 1575SOL    HW2 5625   3.234   2.279   0.327
 1576SOL     OW 5626   6.555   5.664   3.574
 1576SOL    HW1 5627   6.494   5.640   3.499
 1576SOL    HW2 5628   6.580   5.581   3.625
 1577SOL     OW 5629   1.452   0.711   0.110
 1577SOL    HW1 5630   1.538   0.705   0.058
 1577SOL    HW2 5631   1.451   0.797   0.162
 1578SOL     OW 5632   5.620   5.705   4.354
 1578SOL    HW1 5633   5.661   5.704   4.263
 1578SOL    HW2 5634   5.687   5.673   4.421
 1579SOL     OW 5635   0.480   0.066   3.286
 1579SOL    HW1 5636   0.493   0.042   3.190
 1579SOL    HW2 5637   0.426   7.021   3.331
 1580SOL     OW 5638   3.463   3.893   5.703
 1580SOL    HW1 5639   3.374   3.890   5.747
 1580SOL    HW2 5640   3.517   3.813   5.731
 1581SOL     OW 5641   6.380   4.154   3.879
 1581SOL    HW1 5642   6.332   4.080   3.929
 1581SOL    HW2 5643   6.376   4.238   3.933
 1582SOL     OW 5644   6.166   5.413   4.424
 1582SOL    HW1 5645   6.204   5.385   4.512
 1582SOL    HW2 5646   6.072   5.379   4.416
 1583SOL     OW 5647   2.271   2.370   2.695
 1583SOL    HW1 5648   2.211   2.377   2.774
 1583SOL    HW2 5649   2.311   2.278   2.692
 1584SOL     OW 5650   1.947   0.379   5.923
 1584SOL    HW1 5651   1.873   0.312   5.911
 1584SOL    HW2 5652   1.925   0.462   5.872
 1585SOL     OW 5653   6.284   1.419   5.443
 1585SOL    HW1 5654   6.324   1.491   5.500
 1585SOL    HW2 5655   6.253   1.459   5.357
 1586SOL     OW 5656   3.818   4.050   3.005
 1586SOL    HW1 5657   3.850   4.091   3.091
 1586SOL    HW2 5658   3.719   4.057   3.000
 1587SOL     OW 5659   2.177   6.525   6.368
 1587SOL    HW1 5660   2.128   6.608   6.395
 1587SOL    HW2 5661   2.271   6.529   6.404
 1588SOL     OW 5662   5.875   4.038   1.121
 1588SOL    HW1 5663   5.842   3.956   1.169
 1588SOL    HW2 5664   5.899   4.108   1.188
 1589SOL     OW 5665   5.181   3.882   3.623
 1589SOL    HW1 5666   5.099   3.930   3.656
 1589SOL    HW2 5667   5.215   3.928   3.541
 1590SOL     OW 5668   2.328   0.497   5.657
 1590SOL    HW1 5669   2.418   0.452   5.652
 1590SOL    HW2 5670   2.288   0.482   5.747
 1591SOL     OW 5671   0.450   3.883   1.396
 1591SOL    HW1 5672   0.438   3.981   1.411
 1591SOL    HW2 5673   0.548   3.860   1.396
 1592SOL     OW 5674   2.911   3.499   3.533
 1592SOL    HW1 5675   2.929   3.489   3.631
 1592SOL    HW2 5676   2.963   3.432   3.482
 1593SOL     OW 5677   1.108   5.126   4.890
 1593SOL    HW1 5678   1.132   5.214   4.929
 1593SOL    HW2 5679   1.123   5.128   4.791
 1594SOL     OW 5680   0.649   5.104   3.035
 1594SOL    HW1 5681   0.681   5.177   2.975
 1594SOL    HW2 5682   0.720   5.084   3.103
 1595SOL     OW 5683   0.159   5.198   5.637
 1595SOL    HW1 5684   0.145   5.120   5.697
 1595SOL    HW2 5685   0.233   5.256   5.673
 1596SOL     OW 5686   2.969   4.904   6.796
 1596SOL    HW1 5687   2.944   4.909   6.699
 1596SOL    HW2 5688   2.915   4.971   6.847
 1597SOL     OW 5689   2.553   6.785   0.660
 1597SOL    HW1 5690   2.591   6.745   0.744
 1597SOL    HW2 5691   2.594   6.875   0.644
 1598SOL     OW 5692   7.002   5.653   1.880
 1598SOL    HW1 5693   0.008   5.582   1.941
 1598SOL    HW2 5694   0.049   5.681   1.819
 1599SOL     OW 5695   3.421   4.693   0.108
 1599SOL    HW1 5696   3.495   4.639   0.067
 1599SOL    HW2 5697   3.411   4.778   0.058
 1600SOL     OW 5698   3.226   1.265   5.396
 1600SOL    HW1 5699   3.151   1.307   5.346
 1600SOL    HW2 5700   3.304   1.251   5.335
 1601SOL     OW 5701   1.106   4.539   4.598
 1601SOL    HW1 5702   1.156   4.461   4.561
 1601SOL    HW2 5703   1.013   4.510   4.623
 1602SOL     OW 5704   0.328   4.763   2.602
 1602SOL    HW1 5705   0.231   4.744   2.621
 1602SOL    HW2 5706   0.385   4.697   2.651
 1603SOL     OW 5707   5.886   6.644   1.268
 1603SOL    HW1 5708   5.878   6.635   1.168
 1603SOL    HW2 5709   5.970   6.599   1.299
 1604SOL     OW 5710   0.172   5.526   5.170
 1604SOL    HW1 5711   0.268   5.510   5.146
 1604SOL    HW2 5712   0.154   5.624   5.170
 1605SOL     OW 5713   4.794   6.647   2.930
 1605SOL    HW1 5714   4.849   6.727   2.911
 1605SOL    HW2 5715   4.715   6.645   2.869
 1606SOL     OW 5716   4.982   7.027   5.646
 1606SOL    HW1 5717   5.035   6.951   5.683
 1606SOL    HW2 5718   4.939   6.998   5.560
 1607SOL     OW 5719   4.956   2.766   0.726
 1607SOL    HW1 5720   4.904   2.851   0.728
 1607SOL    HW2 5721   4.893   2.688   0.731
 1608SOL     OW 5722   2.271   0.054   0.318
 1608SOL    HW1 5723   2.186   0.039   0.267
 1608SOL    HW2 5724   2.259   0.024   0.413
 1609SOL     OW 5725   5.421   1.269   5.506
 1609SOL    HW1 5726   5.430   1.172   5.532
 1609SOL    HW2 5727   5.326   1.289   5.485
 1610SOL     OW 5728   5.656   6.309   4.106
 1610SOL    HW1 5729   5.624   6.399   4.073
 1610SOL    HW2 5730   5.753   6.315   4.128
 1611SOL     OW 5731   3.787   3.481   1.251
 1611SOL    HW1 5732   3.706   3.433   1.219
 1611SOL    HW2 5733   3.861   3.416   1.264
 1612SOL     OW 5734   3.120   1.411   4.283
 1612SOL    HW1 5735   3.172   1.383   4.202
 1612SOL    HW2 5736   3.144   1.351   4.360
 1613SOL     OW 5737   1.735   6.572   0.908
 1613SOL    HW1 5738   1.829   6.599   0.931
 1613SOL    HW2 5739   1.713   6.486   0.953
 1614SOL     OW 5740   0.440   2.887   6.606
 1614SOL    HW1 5741   0.361   2.871   6.666
 1614SOL    HW2 5742   0.493   2.964   6.642
 1615SOL     OW 5743   6.236   5.119   6.237
 1615SOL    HW1 5744   6.160   5.060   6.263
 1615SOL    HW2 5745   6.294   5.135   6.317
 1616SOL     OW 5746   2.231   1.943   5.849
 1616SOL    HW1 5747   2.217   2.042   5.846
 1616SOL    HW2 5748   2.284   1.915   5.769
 1617SOL     OW 5749   4.800   0.946   4.455
 1617SOL    HW1 5750   4.890   0.991   4.448
 1617SOL    HW2 5751   4.728   1.011   4.431
 1618SOL     OW 5752   5.709   2.307   1.167
 1618SOL    HW1 5753   5.752   2.262   1.089
 1618SOL    HW2 5754   5.622   2.262   1.188
 1619SOL     OW 5755   1.976   2.897   4.475
 1619SOL    HW1 5756   1.977   2.996   4.485
 1619SOL    HW2 5757   1.885   2.862   4.496
 1620SOL     OW 5758   3.753   5.564   1.787
 1620SOL    HW1 5759   3.801   5.645   1.754
 1620SOL    HW2 5760   3.818   5.502   1.831
 1621SOL     OW 5761   2.162   1.458   1.601
 1621SOL    HW1 5762   2.086   1.520   1.621
 1621SOL    HW2 5763   2.230   1.464   1.675
 1622SOL     OW 5764   2.158   2.289   4.865
 1622SOL    HW1 5765   2.166   2.338   4.778
 1622SOL    HW2 5766   2.193   2.347   4.939
 1623SOL     OW 5767   2.737   2.243   4.986
 1623SOL    HW1 5768   2.767   2.236   5.082
 1623SOL    HW2 5769   2.716   2.152   4.951
 1624SOL     OW 5770   2.394   0.377   0.650
 1624SOL    HW1 5771   2.481   0.419   0.676
 1624SOL    HW2 5772   2.319   0.435   0.683
 1625SOL     OW 5773   6.965   5.495   2.261
 1625SOL    HW1 5774   6.930   5.588   2.250
 1625SOL    HW2 5775   0.038   5.495   2.256
 1626SOL     OW 5776   1.932   3.431   6.018
 1626SOL    HW1 5777   2.002   3.485   5.971
 1626SOL    HW2 5778   1.950   3.333   6.003
 1627SOL     OW 5779   5.243   3.315   3.856
 1627SOL    HW1 5780   5.237   3.414   3.872
 1627SOL    HW2 5781   5.154   3.281   3.826
 1628SOL     OW 5782   2.845   3.176   0.502
 1628SOL    HW1 5783   2.849   3.270   0.537
 1628SOL    HW2 5784   2.861   3.177   0.403
 1629SOL     OW 5785   4.353   1.862   3.264
 1629SOL    HW1 5786   4.257   1.888   3.256
 1629SOL    HW2 5787   4.412   1.939   3.240
 1630SOL     OW 5788   0.363   4.749   4.666
 1630SOL    HW1 5789   0.304   4.697   4.604
 1630SOL    HW2 5790   0.435   4.689   4.702
 1631SOL     OW 5791   0.523   6.796   5.756
 1631SOL    HW1 5792   0.614   6.794   5.796
 1631SOL    HW2 5793   0.457   6.758   5.822
 1632SOL     OW 5794   5.661   0.035   1.503
 1632SOL    HW1 5795   5.577   0.052   1.451
 1632SOL    HW2 5796   5.689   6.967   1.489
 1633SOL     OW 5797   5.628   2.739   3.420
 1633SOL    HW1 5798   5.674   2.783   3.498
 1633SOL    HW2 5799   5.630   2.801   3.342
 1634SOL     OW 5800   3.622   1.043   6.972
 1634SOL    HW1 5801   3.524   1.035   6.955
 1634SOL    HW2 5802   3.670   1.061   6.886
 1635SOL     OW 5803   0.916   5.168   4.411
 1635SOL    HW1 5804   0.957   5.203   4.327
 1635SOL    HW2 5805   0.946   5.073   4.425
 1636SOL     OW 5806   2.857   6.515   1.401
 1636SOL    HW1 5807   2.942   6.463   1.401
 1636SOL    HW2 5808   2.849   6.567   1.316
 1637SOL     OW 5809   0.160   3.286   2.950
 1637SOL    HW1 5810   0.137   3.266   2.855
 1637SOL    HW2 5811   0.259   3.286   2.962
 1638SOL     OW 5812   1.738   3.244   5.238
 1638SOL    HW1 5813   1.768   3.327   5.285
 1638SOL    HW2 5814   1.641   3.227   5.258
 1639SOL     OW 5815   4.912   4.747   2.760
 1639SOL    HW1 5816   4.913   4.666   2.701
 1639SOL    HW2 5817   5.006   4.770   2.786
 1640SOL     OW 5818   5.875   0.070   1.198
 1640SOL    HW1 5819   5.925   0.155   1.216
 1640SOL    HW2 5820   5.859   0.061   1.099
 1641SOL     OW 5821   7.007   3.001   5.470
 1641SOL    HW1 5822   0.072   3.038   5.476
 1641SOL    HW2 5823   7.009   2.904   5.496
 1642SOL     OW 5824   6.817   2.255   1.564
 1642SOL    HW1 5825   6.740   2.235   1.503
 1642SOL    HW2 5826   6.851   2.170   1.603
 1643SOL     OW 5827   3.953   0.461   6.179
 1643SOL    HW1 5828   3.934   0.522   6.102
 1643SOL    HW2 5829   3.870   0.450   6.233
 1644SOL     OW 5830   3.004   0.457   1.083
 1644SOL    HW1 5831   2.988   0.358   1.078
 1644SOL    HW2 5832   2.988   0.497   0.993
 1645SOL     OW 5833   2.103   6.504   5.687
 1645SOL    HW1 5834   2.072   6.415   5.651
 1645SOL    HW2 5835   2.118   6.567   5.612
 1646SOL     OW 5836   1.181   3.499   0.499
 1646SOL    HW1 5837   1.118   3.467   0.570
 1646SOL    HW2 5838   1.131   3.514   0.414
 1647SOL     OW 5839   6.043   2.854   3.615
 1647SOL    HW1 5840   6.045   2.907   3.700
 1647SOL    HW2 5841   6.108   2.779   3.621
 1648SOL     OW 5842   4.313   0.150   2.540
 1648SOL    HW1 5843   4.216   0.165   2.557
 1648SOL    HW2 5844   4.357   0.235   2.513
 1649SOL     OW 5845   3.015   6.857   2.736
 1649SOL    HW1 5846   2.989   6.778   2.681
 1649SOL    HW2 5847   3.016   6.939   2.678
 1650SOL     OW 5848   3.315   6.846   3.819
 1650SOL    HW1 5849   3.336   6.902   3.900
 1650SOL    HW2 5850   3.341   6.751   3.837
 1651SOL     OW 5851   1.443   6.602   1.323
 1651SOL    HW1 5852   1.360   6.618   1.270
 1651SOL    HW2 5853   1.444   6.662   1.403
 1652SOL     OW 5854   2.788   2.851   1.414
 1652SOL    HW1 5855   2.711   2.789   1.403
 1652SOL    HW2 5856   2.760   2.944   1.390
 1653SOL     OW 5857   1.138   5.129   0.408
 1653SOL    HW1 5858   1.232   5.159   0.426
 1653SOL    HW2 5859   1.134   5.029   0.411
 1654SOL     OW 5860   0.651   2.399   3.565
 1654SOL    HW1 5861   0.552   2.405   3.560
 1654SOL    HW2 5862   0.692   2.458   3.496
 1655SOL     OW 5863   5.011   4.827   5.552
 1655SOL    HW1 5864   5.070   4.819   5.472
 1655SOL    HW2 5865   5.032   4.913   5.600
 1656SOL     OW 5866   0.575   4.308   3.158
 1656SOL    HW1 5867   0.506   4.253   3.207
 1656SOL    HW2 5868   0.546   4.404   3.157
 1657SOL     OW 5869   0.509   0.006   5.349
 1657SOL    HW1 5870   0.534   6.960   5.412
 1657SOL    HW2 5871   0.574   0.082   5.357
 1658SOL     OW 5872   5.999   6.108   2.414
 1658SOL    HW1 5873   6.032   6.019   2.445
 1658SOL    HW2 5874   6.066   6.149   2.352
 1659SOL     OW 5875   4.805   2.315   6.016
 1659SOL    HW1 5876   4.707   2.296   6.019
 1659SOL    HW2 5877   4.820   2.412   6.000
 1660SOL     OW 5878   1.957   6.018   3.179
 1660SOL    HW1 5879   2.048   5.992   3.210
 1660SOL    HW2 5880   1.965   6.088   3.108
 1661SOL     OW 5881   2.879   0.063   2.617
 1661SOL    HW1 5882   2.790   0.071   2.661
 1661SOL    HW2 5883   2.870   0.089   2.520
 1662SOL     OW 5884   0.276   0.538   3.036
 1662SOL    HW1 5885   0.254   0.445   3.065
 1662SOL    HW2 5886   0.375   0.551   3.036
 1663SOL     OW 5887   2.590   0.171   3.395
 1663SOL    HW1 5888   2.517   0.110   3.424
 1663SOL    HW2 5889   2.550   0.257   3.361
 1664SOL     OW 5890   2.410   5.447   4.527
 1664SOL    HW1 5891   2.314   5.443   4.499
 1664SOL    HW2 5892   2.451   5.530   4.488
 1665SOL     OW 5893   1.225   0.632   5.050
 1665SOL    HW1 5894   1.133   0.599   5.026
 1665SOL    HW2 5895   1.245   0.715   4.997
 1666SOL     OW 5896   5.487   3.557   6.883
 1666SOL    HW1 5897   5.579   3.545   6.848
 1666SOL    HW2 5898   5.421   3.524   6.816
 1667SOL     OW 5899   6.572   0.832   6.166
 1667SOL    HW1 5900   6.641   0.842   6.094
 1667SOL    HW2 5901   6.523   0.919   6.177
 1668SOL     OW 5902   2.717   0.502   4.953
 1668SOL    HW1 5903   2.642   0.464   5.008
 1668SOL    HW2 5904   2.764   0.573   5.006
 1669SOL     OW 5905   5.999   6.358   6.456
 1669SOL    HW1 5906   5.998   6.349   6.356
 1669SOL    HW2 5907   5.912   6.395   6.486
 1670SOL     OW 5908   5.986   3.856   6.186
 1670SOL    HW1 5909   5.959   3.938   6.237
 1670SOL    HW2 5910   5.912   3.830   6.124
 1671SOL     OW 5911   6.140   4.865   0.368
 1671SOL    HW1 5912   6.138   4.958   0.405
 1671SOL    HW2 5913   6.075   4.808   0.417
 1672SOL     OW 5914   2.399   5.294   2.304
 1672SOL    HW1 5915   2.496   5.275   2.288
 1672SOL    HW2 5916   2.344   5.216   2.273
 1673SOL     OW 5917   6.859   1.999   3.549
 1673SOL    HW1 5918   6.810   2.059   3.486
 1673SOL    HW2 5919   6.867   1.908   3.509
 1674SOL     OW 5920   1.805   5.262   6.093
 1674SOL    HW1 5921   1.797   5.298   6.186
 1674SOL    HW2 5922   1.715   5.232   6.061
 1675SOL     OW 5923   4.771   2.415   0.538
 1675SOL    HW1 5924   4.690   2.429   0.481
 1675SOL    HW2 5925   4.854   2.427   0.484
 1676SOL     OW 5926   2.289   1.373   4.102
 1676SOL    HW1 5927   2.258   1.290   4.055
 1676SOL    HW2 5928   2.385   1.390   4.080
 1677SOL     OW 5929   6.610   0.354   5.565
 1677SOL    HW1 5930   6.707   0.373   5.559
 1677SOL    HW2 5931   6.582   0.297   5.488
 1678SOL     OW 5932   4.667   0.094   1.226
 1678SOL    HW1 5933   4.689   0.188   1.202
 1678SOL    HW2 5934   4.706   0.073   1.316
 1679SOL     OW 5935   6.066   4.016   0.249
 1679SOL    HW1 5936   6.019   4.022   0.161
 1679SOL    HW2 5937   6.050   3.926   0.289
 1680SOL     OW 5938   1.398   2.532   5.154
 1680SOL    HW1 5939   1.441   2.475   5.224
 1680SOL    HW2 5940   1.337   2.598   5.198
 1681SOL     OW 5941   5.146   5.435   1.222
 1681SOL    HW1 5942   5.239   5.464   1.246
 1681SOL    HW2 5943   5.086   5.514   1.221
 1682SOL     OW 5944   6.402   3.580   5.490
 1682SOL    HW1 5945   6.500   3.587   5.506
 1682SOL    HW2 5946   6.371   3.660   5.438
 1683SOL     OW 5947   5.719   6.258   6.578
 1683SOL    HW1 5948   5.722   6.166   6.618
 1683SOL    HW2 5949   5.705   6.250   6.479
 1684SOL     OW 5950   0.473   5.881   4.667
 1684SOL    HW1 5951   0.497   5.917   4.577
 1684SOL    HW2 5952   0.386   5.922   4.697
 1685SOL     OW 5953   1.410   1.909   0.545
 1685SOL    HW1 5954   1.378   1.958   0.463
 1685SOL    HW2 5955   1.404   1.810   0.529
 1686SOL     OW 5956   1.998   5.930   6.830
 1686SOL    HW1 5957   1.976   5.836   6.802
 1686SOL    HW2 5958   2.071   5.965   6.771
 1687SOL     OW 5959   2.042   6.735   2.051
 1687SOL    HW1 5960   1.996   6.824   2.047
 1687SOL    HW2 5961   2.125   6.743   2.105
 1688SOL     OW 5962   0.391   2.041   3.927
 1688SOL    HW1 5963   0.314   2.025   3.865
 1688SOL    HW2 5964   0.383   2.132   3.967
 1689SOL     OW 5965   3.482   1.120   2.519
 1689SOL    HW1 5966   3.430   1.179   2.582
 1689SOL    HW2 5967   3.545   1.176   2.465
 1690SOL     OW 5968   0.650   1.893   0.897
 1690SOL    HW1 5969   0.621   1.968   0.838
 1690SOL    HW2 5970   0.569   1.845   0.932
 1691SOL     OW 5971   4.556   4.428   2.706
 1691SOL    HW1 5972   4.476   4.445   2.764
 1691SOL    HW2 5973   4.588   4.334   2.723
 1692SOL     OW 5974   1.564   0.181   3.478
 1692SOL    HW1 5975   1.494   0.153   3.412
 1692SOL    HW2 5976   1.637   0.230   3.429
 1693SOL     OW 5977   2.260   2.146   3.884
 1693SOL    HW1 5978   2.189   2.146   3.954
 1693SOL    HW2 5979   2.249   2.065   3.826
 1694SOL     OW 5980   4.561   6.538   5.805
 1694SOL    HW1 5981   4.569   6.585   5.893
 1694SOL    HW2 5982   4.651   6.504   5.778
 1695SOL     OW 5983   2.824   1.182   6.080
 1695SOL    HW1 5984   2.744   1.230   6.045
 1695SOL    HW2 5985   2.854   1.114   6.013
 1696SOL     OW 5986   3.113   5.419   1.420
 1696SOL    HW1 5987   3.121   5.340   1.480
 1696SOL    HW2 5988   3.182   5.413   1.348
 1697SOL     OW 5989   1.311   1.171   2.280
 1697SOL    HW1 5990   1.363   1.114   2.216
 1697SOL    HW2 5991   1.372   1.209   2.349
 1698SOL     OW 5992   5.087   1.969   0.732
 1698SOL    HW1 5993   5.117   1.904   0.802
 1698SOL    HW2 5994   4.990   1.989   0.745
 1699SOL     OW 5995   2.416   3.878   0.737
 1699SOL    HW1 5996   2.394   3.858   0.641
 1699SOL    HW2 5997   2.365   3.816   0.797
 1700SOL     OW 5998   6.684   2.658   4.914
 1700SOL    HW1 5999   6.758   2.591   4.920
 1700SOL    HW2 6000   6.719   2.743   4.875
 1701SOL     OW 6001   5.914   3.349   4.970
 1701SOL    HW1 6002   5.868   3.434   4.945
 1701SOL    HW2 6003   5.846   3.283   5.001
 1702SOL     OW 6004   4.958   2.902   1.904
 1702SOL    HW1 6005   4.965   2.982   1.844
 1702SOL    HW2 6006   4.881   2.914   1.967
 1703SOL     OW 6007   1.726   3.863   0.085
 1703SOL    HW1 6008   1.697   3.840   0.178
 1703SOL    HW2 6009   1.694   3.792   0.021
 1704SOL     OW 6010   0.487   0.967   1.709
 1704SOL    HW1 6011   0.519   1.052   1.749
 1704SOL    HW2 6012   0.481   0.977   1.610
 1705SOL     OW 6013   3.905   3.452   2.472
 1705SOL    HW1 6014   3.807   3.464   2.492
 1705SOL    HW2 6015   3.919   3.366   2.424
 1706SOL     OW 6016   2.534   0.359   6.920
 1706SOL    HW1 6017   2.491   0.430   6.975
 1706SOL    HW2 6018   2.590   0.300   6.979
 1707SOL     OW 6019   6.031   1.429   3.230
 1707SOL    HW1 6020   6.063   1.503   3.290
 1707SOL    HW2 6021   5.932   1.419   3.240
 1708SOL     OW 6022   0.288   4.890   2.369
 1708SOL    HW1 6023   0.301   4.833   2.450
 1708SOL    HW2 6024   0.332   4.848   2.290
 1709SOL     OW 6025   3.579   6.222   4.188
 1709SOL    HW1 6026   3.604   6.155   4.258
 1709SOL    HW2 6027   3.617   6.311   4.212
 1710SOL     OW 6028   0.215   6.001   4.073
 1710SOL    HW1 6029   0.176   6.093   4.075
 1710SOL    HW2 6030   0.163   5.944   4.010
 1711SOL     OW 6031   2.055   4.318   5.600
 1711SOL    HW1 6032   2.024   4.290   5.691
 1711SOL    HW2 6033   2.135   4.376   5.608
 1712SOL     OW 6034   1.725   4.704   1.050
 1712SOL    HW1 6035   1.819   4.735   1.066
 1712SOL    HW2 6036   1.662   4.761   1.102
 1713SOL     OW 6037   1.855   3.316   0.333
 1713SOL    HW1 6038   1.938   3.261   0.342
 1713SOL    HW2 6039   1.803   3.283   0.254
 1714SOL     OW 6040   3.559   1.778   1.092
 1714SOL    HW1 6041   3.594   1.818   1.008
 1714SOL    HW2 6042   3.581   1.680   1.094
 1715SOL     OW 6043   0.134   3.068   3.774
 1715SOL    HW1 6044   0.086   3.080   3.688
 1715SOL    HW2 6045   0.227   3.104   3.765
 1716SOL     OW 6046   0.016   6.825   0.148
 1716SOL    HW1 6047   0.102   6.833   0.098
 1716SOL    HW2 6048   6.968   6.858   0.090
 1717SOL     OW 6049   3.185   0.296   0.217
 1717SOL    HW1 6050   3.106   0.242   0.188
 1717SOL    HW2 6051   3.199   0.372   0.153
 1718SOL     OW 6052   1.358   4.868   5.347
 1718SOL    HW1 6053   1.267   4.828   5.347
 1718SOL    HW2 6054   1.368   4.928   5.267
 1719SOL     OW 6055   2.382   3.363   1.517
 1719SOL    HW1 6056   2.387   3.368   1.417
 1719SOL    HW2 6057   2.396   3.269   1.546
 1720SOL     OW 6058   6.191   1.360   2.090
 1720SOL    HW1 6059   6.219   1.453   2.068
 1720SOL    HW2 6060   6.105   1.362   2.141
 1721SOL     OW 6061   1.958   6.084   3.451
 1721SOL    HW1 6062   1.959   6.072   3.351
 1721SOL    HW2 6063   1.890   6.023   3.491
 1722SOL     OW 6064   5.575   6.713   1.771
 1722SOL    HW1 6065   5.528   6.682   1.854
 1722SOL    HW2 6066   5.553   6.651   1.696
 1723SOL     OW 6067   6.039   1.039   2.384
 1723SOL    HW1 6068   5.964   1.059   2.322
 1723SOL    HW2 6069   6.033   1.098   2.464
 1724SOL     OW 6070   5.065   0.538   0.296
 1724SOL    HW1 6071   5.124   0.599   0.242
 1724SOL    HW2 6072   5.102   0.529   0.388
 1725SOL     OW 6073   4.190   5.250   2.089
 1725SOL    HW1 6074   4.186   5.200   2.002
 1725SOL    HW2 6075   4.216   5.186   2.162
 1726SOL     OW 6076   0.075   4.620   4.804
 1726SOL    HW1 6077   0.097   4.619   4.706
 1726SOL    HW2 6078   0.102   4.533   4.845
 1727SOL     OW 6079   3.373   3.157   5.239
 1727SOL    HW1 6080   3.440   3.122   5.305
 1727SOL    HW2 6081   3.282   3.120   5.261
 1728SOL     OW 6082   4.544   4.606   3.534
 1728SOL    HW1 6083   4.501   4.549   3.464
 1728SOL    HW2 6084   4.477   4.672   3.568
 1729SOL     OW 6085   2.111   3.342   2.550
 1729SOL    HW1 6086   2.137   3.399   2.627
 1729SOL    HW2 6087   2.089   3.250   2.583
 1730SOL     OW 6088   5.687   2.550   4.356
 1730SOL    HW1 6089   5.772   2.520   4.401
 1730SOL    HW2 6090   5.621   2.474   4.356
 1731SOL     OW 6091   0.965   5.806   0.371
 1731SOL    HW1 6092   0.998   5.817   0.277
 1731SOL    HW2 6093   0.917   5.718   0.379
 1732SOL     OW 6094   0.608   4.706   6.822
 1732SOL    HW1 6095   0.693   4.656   6.809
 1732SOL    HW2 6096   0.579   4.698   6.917
 1733SOL     OW 6097   1.286   4.102   0.573
 1733SOL    HW1 6098   1.266   4.174   0.506
 1733SOL    HW2 6099   1.334   4.142   0.651
 1734SOL     OW 6100   4.806   2.863   1.540
 1734SOL    HW1 6101   4.850   2.937   1.591
 1734SOL    HW2 6102   4.708   2.882   1.532
 1735SOL     OW 6103   5.692   6.039   1.194
 1735SOL    HW1 6104   5.595   6.061   1.185
 1735SOL    HW2 6105   5.704   5.940   1.198
 1736SOL     OW 6106   3.034   3.636   0.548
 1736SOL    HW1 6107   3.094   3.662   0.472
 1736SOL    HW2 6108   2.966   3.707   0.562
 1737SOL     OW 6109   1.219   5.991   3.659
 1737SOL    HW1 6110   1.296   6.012   3.600
 1737SOL    HW2 6111   1.134   6.024   3.617
 1738SOL     OW 6112   0.964   1.734   1.292
 1738SOL    HW1 6113   0.916   1.804   1.240
 1738SOL    HW2 6114   1.059   1.762   1.306
 1739SOL     OW 6115   4.170   2.091   5.729
 1739SOL    HW1 6116   4.133   2.165   5.673
 1739SOL    HW2 6117   4.229   2.033   5.674
 1740SOL     OW 6118   0.571   1.108   5.719
 1740SOL    HW1 6119   0.557   1.049   5.639
 1740SOL    HW2 6120   0.660   1.089   5.760
 1741SOL     OW 6121   2.403   0.659   2.305
 1741SOL    HW1 6122   2.306   0.642   2.319
 1741SOL    HW2 6123   2.425   0.651   2.208
 1742SOL     OW 6124   6.158   6.085   4.244
 1742SOL    HW1 6125   6.129   5.992   4.265
 1742SOL    HW2 6126   6.080   6.138   4.212
 1743SOL     OW 6127   4.445   1.120   0.360
 1743SOL    HW1 6128   4.525   1.148   0.413
 1743SOL    HW2 6129   4.454   1.151   0.265
 1744SOL     OW 6130   3.101   0.097   1.654
 1744SOL    HW1 6131   3.079   0.019   1.595
 1744SOL    HW2 6132   3.099   0.068   1.750
 1745SOL     OW 6133   6.356   3.013   5.152
 1745SOL    HW1 6134   6.319   3.091   5.102
 1745SOL    HW2 6135   6.421   2.964   5.094
 1746SOL     OW 6136   2.719   0.813   5.942
 1746SOL    HW1 6137   2.784   0.737   5.947
 1746SOL    HW2 6138   2.706   0.852   6.033
 1747SOL     OW 6139   4.867   0.437   6.436
 1747SOL    HW1 6140   4.886   0.531   6.407
 1747SOL    HW2 6141   4.877   0.376   6.358
 1748SOL     OW 6142   5.979   1.928   1.622
 1748SOL    HW1 6143   5.917   1.854   1.649
 1748SOL    HW2 6144   5.948   2.014   1.661
 1749SOL     OW 6145   4.673   6.891   6.017
 1749SOL    HW1 6146   4.734   6.948   5.962
 1749SOL    HW2 6147   4.591   6.869   5.964
 1750SOL     OW 6148   4.882   0.520   3.649
 1750SOL    HW1 6149   4.872   0.470   3.563
 1750SOL    HW2 6150   4.974   0.558   3.655
 1751SOL     OW 6151   2.064   5.915   3.776
 1751SOL    HW1 6152   1.989   5.926   3.841
 1751SOL    HW2 6153   2.098   6.005   3.748
 1752SOL     OW 6154   6.466   2.345   0.039
 1752SOL    HW1 6155   6.516   2.264   0.069
 1752SOL    HW2 6156   6.434   2.396   0.118
 1753SOL     OW 6157   2.672   0.129   2.404
 1753SOL    HW1 6158   2.696   0.046   2.353
 1753SOL    HW2 6159   2.605   0.182   2.351
 1754SOL     OW 6160   3.610   2.446   1.493
 1754SOL    HW1 6161   3.539   2.400   1.547
 1754SOL    HW2 6162   3.649   2.381   1.428
 1755SOL     OW 6163   5.309   3.441   0.476
 1755SOL    HW1 6164   5.277   3.363   0.422
 1755SOL    HW2 6165   5.293   3.526   0.426
 1756SOL     OW 6166   5.766   5.667   4.602
 1756SOL    HW1 6167   5.787   5.570   4.614
 1756SOL    HW2 6168   5.817   5.721   4.669
 1757SOL     OW 6169   3.424   0.724   4.860
 1757SOL    HW1 6170   3.412   0.765   4.770
 1757SOL    HW2 6171   3.342   0.671   4.883
 1758SOL     OW 6172   2.516   1.481   3.276
 1758SOL    HW1 6173   2.418   1.486   3.260
 1758SOL    HW2 6174   2.562   1.556   3.229
 1759SOL     OW 6175   0.798   5.550   6.152
 1759SOL    HW1 6176   0.861   5.488   6.106
 1759SOL    HW2 6177   0.797   5.528   6.250
 1760SOL     OW 6178   5.336   0.678   2.234
 1760SOL    HW1 6179   5.281   0.663   2.315
 1760SOL    HW2 6180   5.431   0.656   2.253
 1761SOL     OW 6181   5.701   2.948   1.397
 1761SOL    HW1 6182   5.718   2.939   1.299
 1761SOL    HW2 6183   5.749   2.876   1.447
 1762SOL     OW 6184   5.825   2.590   0.555
 1762SOL    HW1 6185   5.725   2.583   0.558
 1762SOL    HW2 6186   5.852   2.684   0.576
 1763SOL     OW 6187   2.136   3.732   3.681
 1763SOL    HW1 6188   2.210   3.780   3.728
 1763SOL    HW2 6189   2.048   3.765   3.717
 1764SOL     OW 6190   6.148   2.620   4.740
 1764SOL    HW1 6191   6.164   2.528   4.704
 1764SOL    HW2 6192   6.124   2.681   4.664
 1765SOL     OW 6193   2.262   2.733   6.197
 1765SOL    HW1 6194   2.263   2.832   6.216
 1765SOL    HW2 6195   2.353   2.705   6.166
 1766SOL     OW 6196   5.768   2.920   5.344
 1766SOL    HW1 6197   5.752   2.977   5.424
 1766SOL    HW2 6198   5.824   2.841   5.369
 1767SOL     OW 6199   6.435   3.672   1.896
 1767SOL    HW1 6200   6.397   3.764   1.907
 1767SOL    HW2 6201   6.511   3.675   1.832
 1768SOL     OW 6202   5.883   6.561   3.990
 1768SOL    HW1 6203   5.805   6.524   3.939
 1768SOL    HW2 6204   5.964   6.506   3.973
 1769SOL     OW 6205   5.839   1.020   3.862
 1769SOL    HW1 6206   5.915   1.085   3.866
 1769SOL    HW2 6207   5.754   1.066   3.890
 1770SOL     OW 6208   3.285   5.249   4.797
 1770SOL    HW1 6209   3.224   5.227   4.873
 1770SOL    HW2 6210   3.373   5.204   4.811
 1771SOL     OW 6211   4.684   6.277   6.731
 1771SOL    HW1 6212   4.775   6.265   6.692
 1771SOL    HW2 6213   4.665   6.374   6.744
 1772SOL     OW 6214   3.344   6.216   2.638
 1772SOL    HW1 6215   3.353   6.275   2.718
 1772SOL    HW2 6216   3.346   6.273   2.555
 1773SOL     OW 6217   0.930   5.517   6.951
 1773SOL    HW1 6218   0.928   5.564   6.863
 1773SOL    HW2 6219   0.897   5.578   7.022
 1774SOL     OW 6220   3.562   4.977   2.069
 1774SOL    HW1 6221   3.641   4.918   2.057
 1774SOL    HW2 6222   3.499   4.964   1.993
 1775SOL     OW 6223   0.951   4.664   1.446
 1775SOL    HW1 6224   0.989   4.577   1.479
 1775SOL    HW2 6225   1.013   4.704   1.379
 1776SOL     OW 6226   3.352   5.760   4.957
 1776SOL    HW1 6227   3.322   5.705   4.879
 1776SOL    HW2 6228   3.298   5.844   4.962
 1777SOL     OW 6229   3.358   5.420   6.972
 1777SOL    HW1 6230   3.372   5.450   0.039
 1777SOL    HW2 6231   3.279   5.359   6.968
 1778SOL     OW 6232   6.359   3.753   5.724
 1778SOL    HW1 6233   6.291   3.821   5.697
 1778SOL    HW2 6234   6.354   3.675   5.662
 1779SOL     OW 6235   3.423   0.278   5.193
 1779SOL    HW1 6236   3.364   0.207   5.154
 1779SOL    HW2 6237   3.474   0.240   5.270
 1780SOL     OW 6238   3.268   3.152   6.701
 1780SOL    HW1 6239   3.313   3.073   6.743
 1780SOL    HW2 6240   3.189   3.120   6.648
 1781SOL     OW 6241   3.870   5.436   3.480
 1781SOL    HW1 6242   3.872   5.357   3.418
 1781SOL    HW2 6243   3.827   5.514   3.435
 1782SOL     OW 6244   3.440   2.007   4.402
 1782SOL    HW1 6245   3.364   1.980   4.342
 1782SOL    HW2 6246   3.404   2.062   4.477
 1783SOL     OW 6247   1.862   5.853   0.050
 1783SOL    HW1 6248   1.817   5.767   0.024
 1783SOL    HW2 6249   1.890   5.902   6.994
 1784SOL     OW 6250   3.686   6.515   5.236
 1784SOL    HW1 6251   3.719   6.539   5.327
 1784SOL    HW2 6252   3.707   6.419   5.218
 1785SOL     OW 6253   6.405   4.442   1.865
 1785SOL    HW1 6254   6.346   4.458   1.944
 1785SOL    HW2 6255   6.349   4.429   1.784
 1786SOL     OW 6256   3.864   2.337   1.107
 1786SOL    HW1 6257   3.792   2.405   1.090
 1786SOL    HW2 6258   3.927   2.335   1.030
 1787SOL     OW 6259   3.808   0.548   5.958
 1787SOL    HW1 6260   3.790   0.639   5.921
 1787SOL    HW2 6261   3.722   0.497   5.963
 1788SOL     OW 6262   2.004   4.299   5.863
 1788SOL    HW1 6263   2.024   4.393   5.891
 1788SOL    HW2 6264   1.913   4.273   5.895
 1789SOL     OW 6265   5.564   0.810   0.391
 1789SOL    HW1 6266   5.513   0.731   0.425
 1789SOL    HW2 6267   5.645   0.780   0.341
 1790SOL     OW 6268   3.429   6.970   3.007
 1790SOL    HW1 6269   3.503   6.969   2.940
 1790SOL    HW2 6270   3.454   6.914   3.086
 1791SOL     OW 6271   0.040   6.576   2.681
 1791SOL    HW1 6272   0.074   6.570   2.775
 1791SOL    HW2 6273   0.113   6.612   2.622
 1792SOL     OW 6274   1.143   3.996   5.432
 1792SOL    HW1 6275   1.164   4.068   5.497
 1792SOL    HW2 6276   1.045   3.974   5.437
 1793SOL     OW 6277   0.442   0.593   3.901
 1793SOL    HW1 6278   0.524   0.650   3.907
 1793SOL    HW2 6279   0.397   0.608   3.813
 1794SOL     OW 6280   4.598   6.280   6.381
 1794SOL    HW1 6281   4.685   6.269   6.334
 1794SOL    HW2 6282   4.524   6.278   6.314
 1795SOL     OW 6283   0.252   3.023   0.126
 1795SOL    HW1 6284   0.230   3.114   0.163
 1795SOL    HW2 6285   0.349   3.003   0.141
 1796SOL     OW 6286   3.478   0.349   6.605
 1796SOL    HW1 6287   3.482   0.251   6.584
 1796SOL    HW2 6288   3.570   0.382   6.627
 1797SOL     OW 6289   0.548   0.406   0.532
 1797SOL    HW1 6290   0.584   0.471   0.600
 1797SOL    HW2 6291   0.596   0.319   0.540
 1798SOL     OW 6292   6.071   2.734   3.300
 1798SOL    HW1 6293   6.047   2.821   3.343
 1798SOL    HW2 6294   6.010   2.662   3.335
 1799SOL     OW 6295   1.802   1.553   6.575
 1799SOL    HW1 6296   1.710   1.555   6.615
 1799SOL    HW2 6297   1.837   1.646   6.568
 1800SOL     OW 6298   4.276   5.054   2.260
 1800SOL    HW1 6299   4.369   5.021   2.240
 1800SOL    HW2 6300   4.211   4.979   2.247
 1801SOL     OW 6301   5.583   6.849   0.901
 1801SOL    HW1 6302   5.513   6.778   0.886
 1801SOL    HW2 6303   5.569   6.923   0.835
 1802SOL     OW 6304   5.333   5.129   3.923
 1802SOL    HW1 6305   5.426   5.136   3.959
 1802SOL    HW2 6306   5.289   5.219   3.927
 1803SOL     OW 6307   5.927   5.696   1.041
 1803SOL    HW1 6308   5.965   5.788   1.052
 1803SOL    HW2 6309   5.864   5.677   1.116
 1804SOL     OW 6310   3.407   3.272   5.952
 1804SOL    HW1 6311   3.361   3.350   5.908
 1804SOL    HW2 6312   3.338   3.215   5.997
 1805SOL     OW 6313   5.008   2.784   6.799
 1805SOL    HW1 6314   5.045   2.826   6.716
 1805SOL    HW2 6315   4.948   2.849   6.845
 1806SOL     OW 6316   0.686   0.188   1.076
 1806SOL    HW1 6317   0.776   0.159   1.108
 1806SOL    HW2 6318   0.636   0.109   1.039
 1807SOL     OW 6319   5.390   1.707   5.458
 1807SOL    HW1 6320   5.317   1.656   5.504
 1807SOL    HW2 6321   5.461   1.733   5.523
 1808SOL     OW 6322   2.162   4.501   4.032
 1808SOL    HW1 6323   2.130   4.431   4.096
 1808SOL    HW2 6324   2.181   4.458   3.943
 1809SOL     OW 6325   3.118   0.121   6.320
 1809SOL    HW1 6326   3.095   0.216   6.343
 1809SOL    HW2 6327   3.208   0.119   6.276
 1810SOL     OW 6328   3.290   5.953   2.707
 1810SOL    HW1 6329   3.311   6.040   2.663
 1810SOL    HW2 6330   3.373   5.915   2.748
 1811SOL     OW 6331   6.008   5.375   2.510
 1811SOL    HW1 6332   5.927   5.346   2.458
 1811SOL    HW2 6333   6.073   5.419   2.449
 1812SOL     OW 6334   4.222   5.129   6.502
 1812SOL    HW1 6335   4.154   5.122   6.429
 1812SOL    HW2 6336   4.273   5.215   6.491
 1813SOL     OW 6337   6.075   4.964   5.729
 1813SOL    HW1 6338   6.151   4.932   5.672
 1813SOL    HW2 6339   6.104   4.966   5.825
 1814SOL     OW 6340   4.933   6.563   2.241
 1814SOL    HW1 6341   4.904   6.467   2.249
 1814SOL    HW2 6342   5.031   6.569   2.257
 1815SOL     OW 6343   0.057   0.950   2.625
 1815SOL    HW1 6344   6.995   0.993   2.612
 1815SOL    HW2 6345   0.087   0.962   2.720
 1816SOL     OW 6346   0.714   4.211   0.080
 1816SOL    HW1 6347   0.757   4.139   0.026
 1816SOL    HW2 6348   0.636   4.248   0.029
 1817SOL     OW 6349   1.650   5.359   1.885
 1817SOL    HW1 6350   1.714   5.417   1.834
 1817SOL    HW2 6351   1.558   5.398   1.879
 1818SOL     OW 6352   2.472   1.071   3.104
 1818SOL    HW1 6353   2.539   1.009   3.063
 1818SOL    HW2 6354   2.512   1.119   3.182
 1819SOL     OW 6355   1.598   4.237   1.961
 1819SOL    HW1 6356   1.521   4.256   2.023
 1819SOL    HW2 6357   1.568   4.172   1.891
 1820SOL     OW 6358   5.488   0.342   2.655
 1820SOL    HW1 6359   5.423   0.324   2.582
 1820SOL    HW2 6360   5.580   0.347   2.617
 1821SOL     OW 6361   2.234   1.514   3.210
 1821SOL    HW1 6362   2.236   1.609   3.240
 1821SOL    HW2 6363   2.236   1.511   3.110
 1822SOL     OW 6364   3.482   3.476   1.431
 1822SOL    HW1 6365   3.563   3.447   1.482
 1822SOL    HW2 6366   3.507   3.488   1.334
 1823SOL     OW 6367   3.999   0.089   2.394
 1823SOL    HW1 6368   4.050   0.173   2.411
 1823SOL    HW2 6369   3.902   0.110   2.381
 1824SOL     OW 6370   5.210   2.654   1.693
 1824SOL    HW1 6371   5.294   2.702   1.722
 1824SOL    HW2 6372   5.144   2.654   1.768
 1825SOL     OW 6373   1.379   0.886   1.393
 1825SOL    HW1 6374   1.287   0.892   1.433
 1825SOL    HW2 6375   1.377   0.823   1.315
 1826SOL     OW 6376   3.269   6.354   6.375
 1826SOL    HW1 6377   3.187   6.357   6.319
 1826SOL    HW2 6378   3.288   6.259   6.402
 1827SOL     OW 6379   6.169   6.866   1.694
 1827SOL    HW1 6380   6.167   6.854   1.793
 1827SOL    HW2 6381   6.103   6.804   1.652
 1828SOL     OW 6382   1.752   2.122   0.370
 1828SOL    HW1 6383   1.665   2.170   0.388
 1828SOL    HW2 6384   1.764   2.049   0.438
 1829SOL     OW 6385   6.178   5.596   1.141
 1829SOL    HW1 6386   6.164   5.518   1.203
 1829SOL    HW2 6387   6.090   5.628   1.107
 1830SOL     OW 6388   5.389   6.216   3.745
 1830SOL    HW1 6389   5.306   6.191   3.795
 1830SOL    HW2 6390   5.385   6.313   3.722
 1831SOL     OW 6391   5.116   0.904   3.388
 1831SOL    HW1 6392   5.174   0.848   3.329
 1831SOL    HW2 6393   5.157   0.994   3.400
 1832SOL     OW 6394   5.553   2.475   0.592
 1832SOL    HW1 6395   5.537   2.518   0.681
 1832SOL    HW2 6396   5.571   2.378   0.605
 1833SOL     OW 6397   5.964   1.916   5.792
 1833SOL    HW1 6398   6.005   1.997   5.833
 1833SOL    HW2 6399   5.938   1.937   5.697
 1834SOL     OW 6400   2.893   3.511   0.852
 1834SOL    HW1 6401   2.862   3.605   0.838
 1834SOL    HW2 6402   2.993   3.511   0.859
 1835SOL     OW 6403   1.244   4.506   0.249
 1835SOL    HW1 6404   1.187   4.535   0.172
 1835SOL    HW2 6405   1.213   4.417   0.281
 1836SOL     OW 6406   0.515   6.204   0.643
 1836SOL    HW1 6407   0.474   6.123   0.685
 1836SOL    HW2 6408   0.564   6.256   0.713
 1837SOL     OW 6409   1.053   2.625   4.747
 1837SOL    HW1 6410   1.050   2.610   4.846
 1837SOL    HW2 6411   1.104   2.551   4.704
 1838SOL     OW 6412   0.269   2.744   3.810
 1838SOL    HW1 6413   0.366   2.723   3.795
 1838SOL    HW2 6414   0.261   2.826   3.866
 1839SOL     OW 6415   6.893   2.197   6.043
 1839SOL    HW1 6416   6.879   2.207   6.142
 1839SOL    HW2 6417   6.970   2.254   6.014
 1840SOL     OW 6418   1.379   5.231   0.486
 1840SOL    HW1 6419   1.362   5.251   0.582
 1840SOL    HW2 6420   1.413   5.313   0.440
 1841SOL     OW 6421   1.738   3.080   3.256
 1841SOL    HW1 6422   1.766   3.133   3.336
 1841SOL    HW2 6423   1.682   3.002   3.285
 1842SOL     OW 6424   1.232   4.615   6.735
 1842SOL    HW1 6425   1.213   4.551   6.809
 1842SOL    HW2 6426   1.322   4.658   6.750
 1843SOL     OW 6427   3.403   1.960   4.802
 1843SOL    HW1 6428   3.317   1.977   4.753
 1843SOL    HW2 6429   3.415   2.031   4.872
 1844SOL     OW 6430   5.237   3.624   3.663
 1844SOL    HW1 6431   5.229   3.608   3.761
 1844SOL    HW2 6432   5.212   3.719   3.643
 1845SOL     OW 6433   4.041   0.173   6.905
 1845SOL    HW1 6434   3.979   0.131   6.839
 1845SOL    HW2 6435   4.026   0.133   6.995
 1846SOL     OW 6436   3.268   1.341   5.653
 1846SOL    HW1 6437   3.265   1.337   5.553
 1846SOL    HW2 6438   3.179   1.372   5.687
 1847SOL     OW 6439   1.606   6.972   0.335
 1847SOL    HW1 6440   1.610   0.033   0.381
 1847SOL    HW2 6441   1.515   6.932   0.347
 1848SOL     OW 6442   3.234   6.852   2.427
 1848SOL    HW1 6443   3.304   6.787   2.399
 1848SOL    HW2 6444   3.275   6.941   2.445
 1849SOL     OW 6445   2.770   1.059   6.329
 1849SOL    HW1 6446   2.713   1.117   6.388
 1849SOL    HW2 6447   2.766   1.092   6.235
 1850SOL     OW 6448   5.542   1.470   1.730
 1850SOL    HW1 6449   5.521   1.448   1.825
 1850SOL    HW2 6450   5.563   1.568   1.722
 1851SOL     OW 6451   6.746   3.617   3.158
 1851SOL    HW1 6452   6.687   3.565   3.220
 1851SOL    HW2 6453   6.839   3.579   3.161
 1852SOL     OW 6454   5.374   3.302   0.013
 1852SOL    HW1 6455   5.321   3.380   7.006
 1852SOL    HW2 6456   5.470   3.314   7.016
 1853SOL     OW 6457   1.782   4.752   0.624
 1853SOL    HW1 6458   1.816   4.691   0.696
 1853SOL    HW2 6459   1.779   4.702   0.538
 1854SOL     OW 6460   3.063   5.637   3.876
 1854SOL    HW1 6461   3.022   5.554   3.838
 1854SOL    HW2 6462   3.016   5.661   3.961
 1855SOL     OW 6463   5.336   4.452   2.025
 1855SOL    HW1 6464   5.422   4.401   2.031
 1855SOL    HW2 6465   5.356   4.549   2.010
 1856SOL     OW 6466   4.749   2.544   5.813
 1856SOL    HW1 6467   4.804   2.473   5.770
 1856SOL    HW2 6468   4.655   2.512   5.824
 1857SOL     OW 6469   4.483   1.508   3.733
 1857SOL    HW1 6470   4.473   1.576   3.661
 1857SOL    HW2 6471   4.455   1.418   3.697
 1858SOL     OW 6472   5.062   4.156   3.401
 1858SOL    HW1 6473   4.966   4.163   3.374
 1858SOL    HW2 6474   5.118   4.214   3.343
 1859SOL     OW 6475   5.399   1.379   3.499
 1859SOL    HW1 6476   5.419   1.292   3.454
 1859SOL    HW2 6477   5.318   1.420   3.458
 1860SOL     OW 6478   4.500   1.645   5.105
 1860SOL    HW1 6479   4.474   1.644   5.202
 1860SOL    HW2 6480   4.433   1.699   5.054
 1861SOL     OW 6481   5.721   6.274   2.200
 1861SOL    HW1 6482   5.722   6.371   2.177
 1861SOL    HW2 6483   5.717   6.220   2.116
 1862SOL     OW 6484   1.866   1.913   0.509
 1862SOL    HW1 6485   1.885   1.874   0.599
 1862SOL    HW2 6486   1.938   1.887   0.445
 1863SOL     OW 6487   2.583   2.838   1.688
 1863SOL    HW1 6488   2.613   2.744   1.708
 1863SOL    HW2 6489   2.663   2.896   1.673
 1864SOL     OW 6490   0.955   6.634   4.168
 1864SOL    HW1 6491   0.935   6.540   4.195
 1864SOL    HW2 6492   0.870   6.683   4.150
 1865SOL     OW 6493   5.012   1.825   6.679
 1865SOL    HW1 6494   4.953   1.892   6.723
 1865SOL    HW2 6495   5.045   1.861   6.592
 1866SOL     OW 6496   5.221   5.291   2.646
 1866SOL    HW1 6497   5.197   5.384   2.672
 1866SOL    HW2 6498   5.293   5.256   2.707
 1867SOL     OW 6499   0.886   4.719   6.494
 1867SOL    HW1 6500   0.815   4.785   6.469
 1867SOL    HW2 6501   0.887   4.644   6.428
 1868SOL     OW 6502   6.005   4.387   5.427
 1868SOL    HW1 6503   6.024   4.452   5.501
 1868SOL    HW2 6504   5.967   4.303   5.466
 1869SOL     OW 6505   6.418   1.556   4.783
 1869SOL    HW1 6506   6.389   1.603   4.866
 1869SOL    HW2 6507   6.349   1.570   4.712
 1870SOL     OW 6508   2.144   4.314   4.458
 1870SOL    HW1 6509   2.175   4.261   4.537
 1870SOL    HW2 6510   2.060   4.363   4.481
 1871SOL     OW 6511   1.348   0.030   0.877
 1871SOL    HW1 6512   1.428   0.090   0.876
 1871SOL    HW2 6513   1.266   0.085   0.891
 1872SOL     OW 6514   2.357   4.906   0.181
 1872SOL    HW1 6515   2.398   4.867   0.099
 1872SOL    HW2 6516   2.400   4.994   0.201
 1873SOL     OW 6517   4.657   1.213   0.493
 1873SOL    HW1 6518   4.751   1.200   0.463
 1873SOL    HW2 6519   4.639   1.311   0.504
 1874SOL     OW 6520   1.072   3.395   2.667
 1874SOL    HW1 6521   1.069   3.483   2.621
 1874SOL    HW2 6522   1.059   3.322   2.600
 1875SOL     OW 6523   0.910   6.838   0.663
 1875SOL    HW1 6524   0.999   6.876   0.638
 1875SOL    HW2 6525   0.889   6.760   0.604
 1876SOL     OW 6526   2.097   6.949   5.001
 1876SOL    HW1 6527   2.062   6.863   4.965
 1876SOL    HW2 6528   2.043   7.025   4.963
 1877SOL     OW 6529   0.312   6.895   3.702
 1877SOL    HW1 6530   0.349   6.893   3.609
 1877SOL    HW2 6531   0.387   6.908   3.767
 1878SOL     OW 6532   5.609   2.403   5.854
 1878SOL    HW1 6533   5.650   2.313   5.867
 1878SOL    HW2 6534   5.528   2.395   5.796
 1879SOL     OW 6535   1.528   4.739   5.528
 1879SOL    HW1 6536   1.447   4.786   5.492
 1879SOL    HW2 6537   1.577   4.695   5.453
 1880SOL     OW 6538   6.290   0.440   5.368
 1880SOL    HW1 6539   6.355   0.370   5.338
 1880SOL    HW2 6540   6.323   0.482   5.453
 1881SOL     OW 6541   6.893   2.225   6.946
 1881SOL    HW1 6542   6.845   2.305   6.981
 1881SOL    HW2 6543   6.939   2.249   6.860
 1882SOL     OW 6544   1.084   6.152   6.405
 1882SOL    HW1 6545   1.018   6.080   6.387
 1882SOL    HW2 6546   1.079   6.180   6.501
 1883SOL     OW 6547   0.020   2.193   4.111
 1883SOL    HW1 6548   0.061   2.195   4.203
 1883SOL    HW2 6549   7.013   2.284   4.088
 1884SOL     OW 6550   0.143   2.864   1.238
 1884SOL    HW1 6551   0.124   2.899   1.147
 1884SOL    HW2 6552   0.058   2.839   1.283
 1885SOL     OW 6553   1.901   1.320   4.789
 1885SOL    HW1 6554   1.951   1.397   4.828
 1885SOL    HW2 6555   1.952   1.283   4.711
 1886SOL     OW 6556   1.030   6.847   3.189
 1886SOL    HW1 6557   1.122   6.837   3.149
 1886SOL    HW2 6558   1.030   6.811   3.282
 1887SOL     OW 6559   2.391   6.544   5.750
 1887SOL    HW1 6560   2.452   6.465   5.744
 1887SOL    HW2 6561   2.296   6.514   5.755
 1888SOL     OW 6562   2.721   1.052   2.946
 1888SOL    HW1 6563   2.660   1.126   2.919
 1888SOL    HW2 6564   2.815   1.087   2.953
 1889SOL     OW 6565   0.289   3.566   2.796
 1889SOL    HW1 6566   0.275   3.550   2.894
 1889SOL    HW2 6567   0.319   3.661   2.782
 1890SOL     OW 6568   0.851   5.853   4.584
 1890SOL    HW1 6569   0.802   5.837   4.669
 1890SOL    HW2 6570   0.877   5.766   4.543
 1891SOL     OW 6571   3.561   3.148   3.477
 1891SOL    HW1 6572   3.609   3.200   3.406
 1891SOL    HW2 6573   3.515   3.069   3.435
 1892SOL     OW 6574   0.865   0.809   2.482
 1892SOL    HW1 6575   0.872   0.862   2.567
 1892SOL    HW2 6576   0.790   0.845   2.427
 1893SOL     OW 6577   3.726   3.397   4.439
 1893SOL    HW1 6578   3.657   3.359   4.500
 1893SOL    HW2 6579   3.815   3.357   4.460
 1894SOL     OW 6580   3.167   3.012   4.289
 1894SOL    HW1 6581   3.103   2.944   4.324
 1894SOL    HW2 6582   3.143   3.102   4.326
 1895SOL     OW 6583   1.738   6.279   0.124
 1895SOL    HW1 6584   1.788   6.296   0.209
 1895SOL    HW2 6585   1.641   6.300   0.138
 1896SOL     OW 6586   5.516   3.070   1.033
 1896SOL    HW1 6587   5.528   3.143   0.966
 1896SOL    HW2 6588   5.530   2.981   0.989
 1897SOL     OW 6589   1.424   4.208   4.689
 1897SOL    HW1 6590   1.351   4.236   4.627
 1897SOL    HW2 6591   1.385   4.150   4.761
 1898SOL     OW 6592   1.861   6.441   3.278
 1898SOL    HW1 6593   1.949   6.397   3.259
 1898SOL    HW2 6594   1.876   6.532   3.317
 1899SOL     OW 6595   0.111   0.668   2.284
 1899SOL    HW1 6596   0.157   0.757   2.284
 1899SOL    HW2 6597   0.086   0.643   2.377
 1900SOL     OW 6598   2.476   6.464   0.051
 1900SOL    HW1 6599   2.567   6.482   0.013
 1900SOL    HW2 6600   2.409   6.525   0.008
 1901SOL     OW 6601   2.831   3.637   1.765
 1901SOL    HW1 6602   2.865   3.575   1.694
 1901SOL    HW2 6603   2.839   3.594   1.854
 1902SOL     OW 6604   1.068   0.038   4.231
 1902SOL    HW1 6605   1.126   0.117   4.210
 1902SOL    HW2 6606   1.105   7.018   4.311
 1903SOL     OW 6607   1.114   2.574   4.022
 1903SOL    HW1 6608   1.180   2.610   4.089
 1903SOL    HW2 6609   1.147   2.593   3.930
 1904SOL     OW 6610   5.896   5.649   1.525
 1904SOL    HW1 6611   5.799   5.625   1.520
 1904SOL    HW2 6612   5.908   5.746   1.503
 1905SOL     OW 6613   0.833   1.831   4.227
 1905SOL    HW1 6614   0.927   1.864   4.219
 1905SOL    HW2 6615   0.833   1.742   4.273
 1906SOL     OW 6616   1.426   0.054   4.954
 1906SOL    HW1 6617   1.398   0.135   4.903
 1906SOL    HW2 6618   1.348   7.020   4.965
 1907SOL     OW 6619   5.206   2.637   0.279
 1907SOL    HW1 6620   5.163   2.647   0.368
 1907SOL    HW2 6621   5.281   2.571   0.284
 1908SOL     OW 6622   3.225   1.166   0.967
 1908SOL    HW1 6623   3.258   1.073   0.983
 1908SOL    HW2 6624   3.301   1.230   0.972
 1909SOL     OW 6625   6.550   4.927   4.671
 1909SOL    HW1 6626   6.483   4.900   4.602
 1909SOL    HW2 6627   6.591   5.015   4.646
 1910SOL     OW 6628   0.628   5.821   5.617
 1910SOL    HW1 6629   0.688   5.803   5.539
 1910SOL    HW2 6630   0.680   5.817   5.702
 1911SOL     OW 6631   6.631   5.227   4.022
 1911SOL    HW1 6632   6.562   5.286   4.064
 1911SOL    HW2 6633   6.701   5.204   4.090
 1912SOL     OW 6634   3.390   4.907   1.887
 1912SOL    HW1 6635   3.426   4.828   1.837
 1912SOL    HW2 6636   3.291   4.911   1.875
 1913SOL     OW 6637   4.018   4.244   6.681
 1913SOL    HW1 6638   4.017   4.227   6.780
 1913SOL    HW2 6639   4.068   4.328   6.662
 1914SOL     OW 6640   2.922   4.640   6.560
 1914SOL    HW1 6641   2.919   4.628   6.460
 1914SOL    HW2 6642   2.842   4.693   6.588
 1915SOL     OW 6643   3.792   2.717   5.934
 1915SOL    HW1 6644   3.693   2.711   5.947
 1915SOL    HW2 6645   3.832   2.625   5.936
 1916SOL     OW 6646   3.841   0.954   2.850
 1916SOL    HW1 6647   3.931   0.987   2.880
 1916SOL    HW2 6648   3.781   1.032   2.835
 1917SOL     OW 6649   1.923   4.064   1.386
 1917SOL    HW1 6650   2.023   4.057   1.381
 1917SOL    HW2 6651   1.894   4.064   1.481
 1918SOL     OW 6652   5.649   2.342   3.769
 1918SOL    HW1 6653   5.693   2.429   3.747
 1918SOL    HW2 6654   5.553   2.345   3.739
 1919SOL     OW 6655   6.766   2.659   6.698
 1919SOL    HW1 6656   6.840   2.631   6.759
 1919SOL    HW2 6657   6.707   2.724   6.745
 1920SOL     OW 6658   4.602   3.138   1.230
 1920SOL    HW1 6659   4.621   3.225   1.274
 1920SOL    HW2 6660   4.686   3.101   1.191
 1921SOL     OW 6661   2.375   2.667   0.134
 1921SOL    HW1 6662   2.284   2.646   0.168
 1921SOL    HW2 6663   2.380   2.764   0.111
 1922SOL     OW 6664   3.159   2.968   2.677
 1922SOL    HW1 6665   3.167   2.954   2.776
 1922SOL    HW2 6666   3.111   2.891   2.636
 1923SOL     OW 6667   3.421   1.343   4.484
 1923SOL    HW1 6668   3.521   1.340   4.483
 1923SOL    HW2 6669   3.385   1.251   4.501
 1924SOL     OW 6670   4.607   1.343   0.157
 1924SOL    HW1 6671   4.623   1.245   0.160
 1924SOL    HW2 6672   4.692   1.390   0.132
 1925SOL     OW 6673   1.383   3.295   1.175
 1925SOL    HW1 6674   1.457   3.327   1.116
 1925SOL    HW2 6675   1.295   3.324   1.138
 1926SOL     OW 6676   3.945   0.277   1.973
 1926SOL    HW1 6677   4.036   0.320   1.979
 1926SOL    HW2 6678   3.875   0.348   1.970
 1927SOL     OW 6679   2.164   5.112   1.150
 1927SOL    HW1 6680   2.064   5.112   1.141
 1927SOL    HW2 6681   2.205   5.143   1.065
 1928SOL     OW 6682   5.580   4.337   2.949
 1928SOL    HW1 6683   5.527   4.256   2.972
 1928SOL    HW2 6684   5.656   4.347   3.014
 1929SOL     OW 6685   3.206   6.764   2.977
 1929SOL    HW1 6686   3.135   6.797   2.914
 1929SOL    HW2 6687   3.266   6.700   2.929
 1930SOL     OW 6688   3.930   3.196   0.276
 1930SOL    HW1 6689   3.858   3.129   0.258
 1930SOL    HW2 6690   3.936   3.213   0.375
 1931SOL     OW 6691   6.846   2.161   4.422
 1931SOL    HW1 6692   6.797   2.149   4.336
 1931SOL    HW2 6693   6.919   2.228   4.409
 1932SOL     OW 6694   4.879   2.177   2.443
 1932SOL    HW1 6695   4.957   2.171   2.380
 1932SOL    HW2 6696   4.799   2.136   2.400
 1933SOL     OW 6697   1.125   0.690   1.386
 1933SOL    HW1 6698   1.210   0.647   1.415
 1933SOL    HW2 6699   1.062   0.694   1.463
 1934SOL     OW 6700   6.889   0.748   6.317
 1934SOL    HW1 6701   6.881   0.845   6.337
 1934SOL    HW2 6702   6.864   0.695   6.398
 1935SOL     OW 6703   6.405   4.878   3.463
 1935SOL    HW1 6704   6.317   4.845   3.498
 1935SOL    HW2 6705   6.476   4.861   3.532
 1936SOL     OW 6706   4.736   2.778   6.212
 1936SOL    HW1 6707   4.653   2.762   6.159
 1936SOL    HW2 6708   4.797   2.700   6.201
 1937SOL     OW 6709   6.049   5.131   6.911
 1937SOL    HW1 6710   6.129   5.085   6.873
 1937SOL    HW2 6711   5.999   5.067   6.970
 1938SOL     OW 6712   6.562   2.974   6.851
 1938SOL    HW1 6713   6.486   2.934   6.902
 1938SOL    HW2 6714   6.553   2.952   6.754
 1939SOL     OW 6715   1.010   0.603   4.884
 1939SOL    HW1 6716   0.945   0.529   4.900
 1939SOL    HW2 6717   0.961   0.687   4.861
 1940SOL     OW 6718   0.312   5.228   0.762
 1940SOL    HW1 6719   0.289   5.172   0.841
 1940SOL    HW2 6720   0.317   5.324   0.790
 1941SOL     OW 6721   5.557   1.792   4.904
 1941SOL    HW1 6722   5.479   1.736   4.933
 1941SOL    HW2 6723   5.536   1.836   4.817
 1942SOL     OW 6724   6.576   4.467   1.608
 1942SOL    HW1 6725   6.520   4.467   1.691
 1942SOL    HW2 6726   6.550   4.390   1.550
 1943SOL     OW 6727   1.108   2.740   3.417
 1943SOL    HW1 6728   1.111   2.836   3.445
 1943SOL    HW2 6729   1.062   2.686   3.487
 1944SOL     OW 6730   0.541   3.414   3.623
 1944SOL    HW1 6731   0.637   3.433   3.647
 1944SOL    HW2 6732   0.534   3.400   3.524
 1945SOL     OW 6733   5.110   1.245   2.022
 1945SOL    HW1 6734   5.013   1.222   2.020
 1945SOL    HW2 6735   5.150   1.233   1.931
 1946SOL     OW 6736   6.620   6.343   0.788
 1946SOL    HW1 6737   6.532   6.360   0.742
 1946SOL    HW2 6738   6.657   6.256   0.757
 1947SOL     OW 6739   6.101   5.249   3.050
 1947SOL    HW1 6740   6.058   5.317   3.109
 1947SOL    HW2 6741   6.063   5.256   2.958
 1948SOL     OW 6742   5.446   3.288   3.682
 1948SOL    HW1 6743   5.357   3.299   3.726
 1948SOL    HW2 6744   5.441   3.213   3.616
 1949SOL     OW 6745   3.555   4.344   6.527
 1949SOL    HW1 6746   3.623   4.345   6.601
 1949SOL    HW2 6747   3.470   4.302   6.560
 1950SOL     OW 6748   3.904   3.941   3.316
 1950SOL    HW1 6749   3.968   3.961   3.390
 1950SOL    HW2 6750   3.836   4.014   3.311
 1951SOL     OW 6751   6.015   5.324   6.144
 1951SOL    HW1 6752   6.091   5.273   6.184
 1951SOL    HW2 6753   5.933   5.310   6.200
 1952SOL     OW 6754   5.960   5.686   0.167
 1952SOL    HW1 6755   5.927   5.608   0.114
 1952SOL    HW2 6756   5.992   5.757   0.104
 1953SOL     OW 6757   1.271   1.323   6.637
 1953SOL    HW1 6758   1.360   1.278   6.633
 1953SOL    HW2 6759   1.249   1.363   6.548
 1954SOL     OW 6760   4.534   6.925   1.749
 1954SOL    HW1 6761   4.500   6.983   1.822
 1954SOL    HW2 6762   4.630   6.947   1.731
 1955SOL     OW 6763   0.209   2.575   4.068
 1955SOL    HW1 6764   0.231   2.604   3.975
 1955SOL    HW2 6765   0.282   2.605   4.130
 1956SOL     OW 6766   5.427   0.682   1.781
 1956SOL    HW1 6767   5.517   0.713   1.751
 1956SOL    HW2 6768   5.395   0.739   1.857
 1957SOL     OW 6769   6.600   2.475   4.191
 1957SOL    HW1 6770   6.530   2.436   4.250
 1957SOL    HW2 6771   6.594   2.434   4.100
 1958SOL     OW 6772   3.849   1.364   0.632
 1958SOL    HW1 6773   3.902   1.392   0.712
 1958SOL    HW2 6774   3.862   1.430   0.558
 1959SOL     OW 6775   1.118   2.458   5.318
 1959SOL    HW1 6776   1.172   2.426   5.396
 1959SOL    HW2 6777   1.056   2.531   5.348
 1960SOL     OW 6778   5.987   4.090   3.878
 1960SOL    HW1 6779   5.965   4.031   3.801
 1960SOL    HW2 6780   5.998   4.035   3.961
 1961SOL     OW 6781   0.532   3.738   3.836
 1961SOL    HW1 6782   0.578   3.655   3.866
 1961SOL    HW2 6783   0.460   3.715   3.770
 1962SOL     OW 6784   0.717   0.646   2.175
 1962SOL    HW1 6785   0.679   0.692   2.094
 1962SOL    HW2 6786   0.742   0.715   2.243
 1963SOL     OW 6787   0.535   2.542   6.874
 1963SOL    HW1 6788   0.588   2.460   6.853
 1963SOL    HW2 6789   0.586   2.601   6.936
 1964SOL     OW 6790   5.604   3.715   0.662
 1964SOL    HW1 6791   5.695   3.722   0.704
 1964SOL    HW2 6792   5.605   3.760   0.573
 1965SOL     OW 6793   6.245   4.023   3.665
 1965SOL    HW1 6794   6.182   4.073   3.606
 1965SOL    HW2 6795   6.259   4.074   3.750
 1966SOL     OW 6796   1.229   4.413   6.918
 1966SOL    HW1 6797   1.211   4.476   6.994
 1966SOL    HW2 6798   1.317   4.367   6.932
 1967SOL     OW 6799   6.146   3.227   4.943
 1967SOL    HW1 6800   6.218   3.288   4.909
 1967SOL    HW2 6801   6.064   3.280   4.962
 1968SOL     OW 6802   3.016   1.363   5.744
 1968SOL    HW1 6803   3.012   1.382   5.842
 1968SOL    HW2 6804   2.938   1.306   5.718
 1969SOL     OW 6805   1.950   5.892   0.871
 1969SOL    HW1 6806   1.961   5.982   0.829
 1969SOL    HW2 6807   1.906   5.902   0.961
 1970SOL     OW 6808   5.522   5.315   4.185
 1970SOL    HW1 6809   5.610   5.268   4.173
 1970SOL    HW2 6810   5.526   5.403   4.139
 1971SOL     OW 6811   1.678   4.694   4.710
 1971SOL    HW1 6812   1.654   4.727   4.619
 1971SOL    HW2 6813   1.664   4.595   4.715
 1972SOL     OW 6814   6.313   2.413   2.823
 1972SOL    HW1 6815   6.216   2.437   2.831
 1972SOL    HW2 6816   6.358   2.425   2.912
 1973SOL     OW 6817   3.226   2.348   0.989
 1973SOL    HW1 6818   3.134   2.378   0.963
 1973SOL    HW2 6819   3.250   2.267   0.937
 1974SOL     OW 6820   2.384   6.830   5.025
 1974SOL    HW1 6821   2.315   6.765   5.057
 1974SOL    HW2 6822   2.352   6.924   5.039
 1975SOL     OW 6823   1.867   3.078   3.005
 1975SOL    HW1 6824   1.903   3.167   2.979
 1975SOL    HW2 6825   1.802   3.089   3.080
 1976SOL     OW 6826   1.067   0.852   5.402
 1976SOL    HW1 6827   0.982   0.862   5.453
 1976SOL    HW2 6828   1.054   0.885   5.308
 1977SOL     OW 6829   1.915   4.172   6.343
 1977SOL    HW1 6830   1.893   4.198   6.437
 1977SOL    HW2 6831   1.832   4.169   6.288
 1978SOL     OW 6832   3.099   0.479   2.608
 1978SOL    HW1 6833   3.102   0.501   2.705
 1978SOL    HW2 6834   3.016   0.517   2.568
 1979SOL     OW 6835   6.068   4.500   6.425
 1979SOL    HW1 6836   5.972   4.501   6.453
 1979SOL    HW2 6837   6.105   4.408   6.433
 1980SOL     OW 6838   3.648   0.713   0.878
 1980SOL    HW1 6839   3.706   0.715   0.797
 1980SOL    HW2 6840   3.556   0.744   0.854
 1981SOL     OW 6841   3.647   1.721   2.357
 1981SOL    HW1 6842   3.620   1.785   2.429
 1981SOL    HW2 6843   3.744   1.699   2.366
 1982SOL     OW 6844   1.398   2.973   6.230
 1982SOL    HW1 6845   1.345   3.049   6.269
 1982SOL    HW2 6846   1.475   2.951   6.290
 1983SOL     OW 6847   0.245   0.931   2.129
 1983SOL    HW1 6848   0.151   0.946   2.159
 1983SOL    HW2 6849   0.252   0.844   2.081
 1984SOL     OW 6850   4.426   3.256   5.891
 1984SOL    HW1 6851   4.337   3.235   5.930
 1984SOL    HW2 6852   4.491   3.185   5.916
 1985SOL     OW 6853   6.630   3.813   3.973
 1985SOL    HW1 6854   6.584   3.854   3.895
 1985SOL    HW2 6855   6.721   3.780   3.946
 1986SOL     OW 6856   3.209   3.669   2.311
 1986SOL    HW1 6857   3.306   3.659   2.329
 1986SOL    HW2 6858   3.182   3.606   2.237
 1987SOL     OW 6859   2.381   0.942   1.931
 1987SOL    HW1 6860   2.441   0.945   2.010
 1987SOL    HW2 6861   2.418   1.000   1.859
 1988SOL     OW 6862   0.435   1.405   2.123
 1988SOL    HW1 6863   0.426   1.358   2.211
 1988SOL    HW2 6864   0.499   1.481   2.131
 1989SOL     OW 6865   3.016   5.366   4.990
 1989SOL    HW1 6866   2.928   5.402   5.021
 1989SOL    HW2 6867   3.090   5.424   5.023
 1990SOL     OW 6868   4.145   0.562   6.923
 1990SOL    HW1 6869   4.163   0.527   6.831
 1990SOL    HW2 6870   4.161   0.490   6.990
 1991SOL     OW 6871   2.742   5.190   1.278
 1991SOL    HW1 6872   2.761   5.287   1.292
 1991SOL    HW2 6873   2.643   5.175   1.277
 1992SOL     OW 6874   1.292   6.558   2.818
 1992SOL    HW1 6875   1.355   6.629   2.786
 1992SOL    HW2 6876   1.292   6.482   2.753
 1993SOL     OW 6877   2.073   1.961   2.731
 1993SOL    HW1 6878   2.105   2.023   2.802
 1993SOL    HW2 6879   2.141   1.889   2.716
 1994SOL     OW 6880   3.736   2.734   0.637
 1994SOL    HW1 6881   3.756   2.758   0.732
 1994SOL    HW2 6882   3.821   2.708   0.591
 1995SOL     OW 6883   5.699   1.653   4.202
 1995SOL    HW1 6884   5.709   1.749   4.175
 1995SOL    HW2 6885   5.767   1.630   4.272
 1996SOL     OW 6886   4.539   1.083   0.758
 1996SOL    HW1 6887   4.543   1.123   0.850
 1996SOL    HW2 6888   4.576   1.148   0.692
 1997SOL     OW 6889   3.290   1.246   3.861
 1997SOL    HW1 6890   3.297   1.262   3.763
 1997SOL    HW2 6891   3.375   1.272   3.906
 1998SOL     OW 6892   2.245   3.927   1.667
 1998SOL    HW1 6893   2.214   3.899   1.576
 1998SOL    HW2 6894   2.335   3.970   1.659
 1999SOL     OW 6895   0.923   0.290   0.039
 1999SOL    HW1 6896   0.965   0.270   0.127
 1999SOL    HW2 6897   0.966   0.234   6.995
 2000SOL     OW 6898   4.308   4.282   5.831
 2000SOL    HW1 6899   4.315   4.239   5.920
 2000SOL    HW2 6900   4.338   4.218   5.760
 2001SOL     OW 6901   1.486   2.480   1.348
 2001SOL    HW1 6902   1.497   2.501   1.251
 2001SOL    HW2 6903   1.437   2.393   1.358
 2002SOL     OW 6904   6.992   5.367   1.258
 2002SOL    HW1 6905   6.928   5.377   1.182
 2002SOL    HW2 6906   6.972   5.282   1.308
 2003SOL     OW 6907   5.461   4.984   1.995
 2003SOL    HW1 6908   5.390   5.014   1.933
 2003SOL    HW2 6909   5.471   4.885   1.989
 2004SOL     OW 6910   3.484   6.475   3.056
 2004SOL    HW1 6911   3.556   6.538   3.028
 2004SOL    HW2 6912   3.415   6.468   2.983
 2005SOL     OW 6913   1.301   6.179   0.449
 2005SOL    HW1 6914   1.342   6.201   0.538
 2005SOL    HW2 6915   1.264   6.086   0.451
 2006SOL     OW 6916   5.763   6.680   2.378
 2006SOL    HW1 6917   5.687   6.619   2.396
 2006SOL    HW2 6918   5.743   6.735   2.297
 2007SOL     OW 6919   5.183   4.943   6.204
 2007SOL    HW1 6920   5.177   4.848   6.236
 2007SOL    HW2 6921   5.269   4.983   6.236
 2008SOL     OW 6922   2.167   3.486   2.758
 2008SOL    HW1 6923   2.169   3.578   2.719
 2008SOL    HW2 6924   2.158   3.493   2.857
 2009SOL     OW 6925   6.356   7.017   2.598
 2009SOL    HW1 6926   6.448   0.012   2.565
 2009SOL    HW2 6927   6.315   6.948   2.538
 2010SOL     OW 6928   6.684   1.965   2.030
 2010SOL    HW1 6929   6.677   1.924   2.121
 2010SOL    HW2 6930   6.606   2.026   2.016
 2011SOL     OW 6931   0.619   0.262   4.760
 2011SOL    HW1 6932   0.555   0.192   4.730
 2011SOL    HW2 6933   0.689   0.275   4.690
 2012SOL     OW 6934   0.439   3.015   1.152
 2012SOL    HW1 6935   0.527   3.060   1.170
 2012SOL    HW2 6936   0.370   3.049   1.217
 2013SOL     OW 6937   0.216   2.717   2.125
 2013SOL    HW1 6938   0.213   2.726   2.025
 2013SOL    HW2 6939   0.140   2.659   2.155
 2014SOL     OW 6940   3.885   1.212   4.269
 2014SOL    HW1 6941   3.974   1.231   4.312
 2014SOL    HW2 6942   3.836   1.143   4.322
 2015SOL     OW 6943   4.243   6.710   1.819
 2015SOL    HW1 6944   4.233   6.633   1.883
 2015SOL    HW2 6945   4.326   6.761   1.842
 2016SOL     OW 6946   2.159   0.778   4.399
 2016SOL    HW1 6947   2.250   0.799   4.435
 2016SOL    HW2 6948   2.094   0.776   4.475
 2017SOL     OW 6949   3.567   6.298   3.655
 2017SOL    HW1 6950   3.584   6.394   3.678
 2017SOL    HW2 6951   3.492   6.264   3.710
 2018SOL     OW 6952   0.993   0.504   4.254
 2018SOL    HW1 6953   1.017   0.432   4.190
 2018SOL    HW2 6954   0.940   0.575   4.207
 2019SOL     OW 6955   5.414   5.430   6.444
 2019SOL    HW1 6956   5.383   5.496   6.512
 2019SOL    HW2 6957   5.361   5.440   6.360
 2020SOL     OW 6958   2.064   6.898   0.204
 2020SOL    HW1 6959   2.086   6.883   0.108
 2020SOL    HW2 6960   2.112   6.832   0.261
 2021SOL     OW 6961   0.095   5.934   4.395
 2021SOL    HW1 6962   0.047   5.898   4.475
 2021SOL    HW2 6963   0.147   6.015   4.421
 2022SOL     OW 6964   1.935   3.189   4.358
 2022SOL    HW1 6965   2.024   3.213   4.321
 2022SOL    HW2 6966   1.924   3.230   4.449
 2023SOL     OW 6967   6.456   6.219   6.450
 2023SOL    HW1 6968   6.483   6.144   6.391
 2023SOL    HW2 6969   6.438   6.184   6.542
 2024SOL     OW 6970   0.442   5.485   3.876
 2024SOL    HW1 6971   0.353   5.528   3.861
 2024SOL    HW2 6972   0.434   5.415   3.947
 2025SOL     OW 6973   1.748   6.079   4.690
 2025SOL    HW1 6974   1.797   5.993   4.697
 2025SOL    HW2 6975   1.712   6.090   4.597
 2026SOL     OW 6976   6.752   0.590   6.087
 2026SOL    HW1 6977   6.757   0.653   6.165
 2026SOL    HW2 6978   6.739   0.497   6.120
 2027SOL     OW 6979   6.989   6.205   2.012
 2027SOL    HW1 6980   6.902   6.254   2.006
 2027SOL    HW2 6981   6.982   6.132   2.080
 2028SOL     OW 6982   3.171   5.270   4.567
 2028SOL    HW1 6983   3.220   5.266   4.654
 2028SOL    HW2 6984   3.229   5.233   4.494
 2029SOL     OW 6985   6.017   2.581   6.582
 2029SOL    HW1 6986   6.064   2.605   6.497
 2029SOL    HW2 6987   5.958   2.657   6.610
 2030SOL     OW 6988   2.510   6.778   2.566
 2030SOL    HW1 6989   2.596   6.726   2.567
 2030SOL    HW2 6990   2.459   6.756   2.483
 2031SOL     OW 6991   0.885   5.947   4.847
 2031SOL    HW1 6992   0.981   5.933   4.824
 2031SOL    HW2 6993   0.850   6.028   4.800
 2032SOL     OW 6994   2.511   2.818   5.949
 2032SOL    HW1 6995   2.413   2.824   5.928
 2032SOL    HW2 6996   2.557   2.769   5.875
 2033SOL     OW 6997   2.245   1.420   0.712
 2033SOL    HW1 6998   2.304   1.452   0.786
 2033SOL    HW2 6999   2.189   1.497   0.679
 2034SOL     OW 7000   0.642   4.347   5.450
 2034SOL    HW1 7001   0.618   4.258   5.489
 2034SOL    HW2 7002   0.740   4.352   5.434
 2035SOL     OW 7003   5.282   6.134   3.184
 2035SOL    HW1 7004   5.271   6.121   3.283
 2035SOL    HW2 7005   5.218   6.205   3.153
 2036SOL     OW 7006   0.322   4.842   6.586
 2036SOL    HW1 7007   0.301   4.821   6.491
 2036SOL    HW2 7008   0.238   4.842   6.640
 2037SOL     OW 7009   1.083   2.184   0.110
 2037SOL    HW1 7010   1.165   2.156   0.060
 2037SOL    HW2 7011   1.005   2.188   0.047
 2038SOL     OW 7012   0.771   1.057   5.915
 2038SOL    HW1 7013   0.856   1.096   5.952
 2038SOL    HW2 7014   0.703   1.049   5.988
 2039SOL     OW 7015   4.851   6.061   3.141
 2039SOL    HW1 7016   4.860   6.042   3.043
 2039SOL    HW2 7017   4.816   6.154   3.153
 2040SOL     OW 7018   2.419   1.964   0.158
 2040SOL    HW1 7019   2.322   1.961   0.180
 2040SOL    HW2 7020   2.473   1.950   0.240
 2041SOL     OW 7021   2.523   6.513   6.741
 2041SOL    HW1 7022   2.618   6.540   6.724
 2041SOL    HW2 7023   2.487   6.564   6.818
 2042SOL     OW 7024   6.041   0.789   6.049
 2042SOL    HW1 7025   5.944   0.769   6.067
 2042SOL    HW2 7026   6.089   0.704   6.028
 2043SOL     OW 7027   0.877   4.111   0.830
 2043SOL    HW1 7028   0.828   4.158   0.904
 2043SOL    HW2 7029   0.855   4.154   0.743
 2044SOL     OW 7030   4.306   0.631   1.501
 2044SOL    HW1 7031   4.393   0.668   1.535
 2044SOL    HW2 7032   4.304   0.532   1.516
 2045SOL     OW 7033   2.256   6.052   4.321
 2045SOL    HW1 7034   2.169   6.100   4.332
 2045SOL    HW2 7035   2.303   6.086   4.240
 2046SOL     OW 7036   0.501   3.390   5.677
 2046SOL    HW1 7037   0.515   3.439   5.592
 2046SOL    HW2 7038   0.588   3.356   5.711
 2047SOL     OW 7039   6.858   0.289   0.939
 2047SOL    HW1 7040   6.891   0.335   1.022
 2047SOL    HW2 7041   6.921   0.309   0.864
 2048SOL     OW 7042   2.096   1.588   4.119
 2048SOL    HW1 7043   2.124   1.665   4.177
 2048SOL    HW2 7044   2.171   1.522   4.113
 2049SOL     OW 7045   4.805   2.994   4.821
 2049SOL    HW1 7046   4.719   3.044   4.824
 2049SOL    HW2 7047   4.857   3.012   4.904
 2050SOL     OW 7048   0.455   0.949   3.620
 2050SOL    HW1 7049   0.552   0.936   3.637
 2050SOL    HW2 7050   0.419   1.018   3.683
 2051SOL     OW 7051   3.101   5.804   0.577
 2051SOL    HW1 7052   3.144   5.723   0.536
 2051SOL    HW2 7053   3.146   5.826   0.663
 2052SOL     OW 7054   0.979   3.917   0.657
 2052SOL    HW1 7055   0.942   3.973   0.730
 2052SOL    HW2 7056   1.078   3.914   0.664
 2053SOL     OW 7057   6.175   4.781   2.617
 2053SOL    HW1 7058   6.135   4.860   2.665
 2053SOL    HW2 7059   6.176   4.798   2.519
 2054SOL     OW 7060   3.101   4.014   3.219
 2054SOL    HW1 7061   3.143   4.014   3.310
 2054SOL    HW2 7062   3.027   3.947   3.216
 2055SOL     OW 7063   4.047   2.804   5.679
 2055SOL    HW1 7064   3.947   2.802   5.676
 2055SOL    HW2 7065   4.083   2.725   5.630
 2056SOL     OW 7066   3.200   5.048   1.312
 2056SOL    HW1 7067   3.236   5.141   1.306
 2056SOL    HW2 7068   3.210   5.015   1.406
 2057SOL     OW 7069   5.892   3.071   4.445
 2057SOL    HW1 7070   5.811   3.116   4.407
 2057SOL    HW2 7071   5.965   3.138   4.459
 2058SOL     OW 7072   6.231   6.714   3.614
 2058SOL    HW1 7073   6.310   6.662   3.582
 2058SOL    HW2 7074   6.261   6.785   3.677
 2059SOL     OW 7075   2.088   1.899   5.313
 2059SOL    HW1 7076   2.168   1.855   5.352
 2059SOL    HW2 7077   2.057   1.972   5.375
 2060SOL     OW 7078   1.901   2.693   6.405
 2060SOL    HW1 7079   1.867   2.654   6.319
 2060SOL    HW2 7080   1.873   2.635   6.481
 2061SOL     OW 7081   2.024   2.686   2.894
 2061SOL    HW1 7082   1.988   2.754   2.958
 2061SOL    HW2 7083   2.102   2.725   2.844
 2062SOL     OW 7084   6.243   5.021   4.141
 2062SOL    HW1 7085   6.193   5.105   4.121
 2062SOL    HW2 7086   6.311   5.005   4.069
 2063SOL     OW 7087   0.902   2.543   4.332
 2063SOL    HW1 7088   0.912   2.641   4.314
 2063SOL    HW2 7089   0.928   2.491   4.250
 2064SOL     OW 7090   0.456   3.324   4.060
 2064SOL    HW1 7091   0.377   3.308   4.000
 2064SOL    HW2 7092   0.427   3.375   4.141
 2065SOL     OW 7093   4.038   3.589   5.901
 2065SOL    HW1 7094   4.016   3.497   5.866
 2065SOL    HW2 7095   3.976   3.656   5.861
 2066SOL     OW 7096   1.138   3.004   5.030
 2066SOL    HW1 7097   1.216   3.040   5.081
 2066SOL    HW2 7098   1.057   3.060   5.048
 2067SOL     OW 7099   6.575   4.795   1.814
 2067SOL    HW1 7100   6.666   4.833   1.799
 2067SOL    HW2 7101   6.555   4.794   1.912
 2068SOL     OW 7102   4.493   0.346   4.140
 2068SOL    HW1 7103   4.406   0.311   4.176
 2068SOL    HW2 7104   4.568   0.289   4.173
 2069SOL     OW 7105   6.924   1.181   3.713
 2069SOL    HW1 7106   7.001   1.116   3.715
 2069SOL    HW2 7107   6.944   1.253   3.646
 2070SOL     OW 7108   1.540   5.144   1.199
 2070SOL    HW1 7109   1.442   5.133   1.180
 2070SOL    HW2 7110   1.567   5.239   1.182
 2071SOL     OW 7111   0.244   2.427   5.226
 2071SOL    HW1 7112   0.292   2.390   5.146
 2071SOL    HW2 7113   0.262   2.370   5.306
 2072SOL     OW 7114   5.571   4.387   5.344
 2072SOL    HW1 7115   5.614   4.354   5.428
 2072SOL    HW2 7116   5.495   4.326   5.321
 2073SOL     OW 7117   3.428   5.479   6.479
 2073SOL    HW1 7118   3.424   5.466   6.380
 2073SOL    HW2 7119   3.523   5.474   6.510
 2074SOL     OW 7120   2.416   4.645   5.741
 2074SOL    HW1 7121   2.399   4.562   5.796
 2074SOL    HW2 7122   2.414   4.725   5.801
 2075SOL     OW 7123   5.930   2.518   1.709
 2075SOL    HW1 7124   5.916   2.431   1.661
 2075SOL    HW2 7125   6.005   2.568   1.665
 2076SOL     OW 7126   6.670   6.406   4.642
 2076SOL    HW1 7127   6.590   6.347   4.638
 2076SOL    HW2 7128   6.707   6.418   4.550
 2077SOL     OW 7129   6.355   4.683   0.337
 2077SOL    HW1 7130   6.330   4.631   0.419
 2077SOL    HW2 7131   6.277   4.736   0.306
 2078SOL     OW 7132   0.778   3.206   5.902
 2078SOL    HW1 7133   0.861   3.152   5.890
 2078SOL    HW2 7134   0.706   3.148   5.939
 2079SOL     OW 7135   5.711   1.144   3.049
 2079SOL    HW1 7136   5.714   1.237   3.012
 2079SOL    HW2 7137   5.616   1.122   3.074
 2080SOL     OW 7138   2.543   3.385   6.821
 2080SOL    HW1 7139   2.605   3.460   6.846
 2080SOL    HW2 7140   2.463   3.422   6.775
 2081SOL     OW 7141   6.623   6.093   2.061
 2081SOL    HW1 7142   6.662   6.127   2.146
 2081SOL    HW2 7143   6.695   6.051   2.006
 2082SOL     OW 7144   6.875   5.406   4.284
 2082SOL    HW1 7145   6.950   5.444   4.231
 2082SOL    HW2 7146   6.874   5.448   4.375
 2083SOL     OW 7147   0.130   6.268   4.103
 2083SOL    HW1 7148   0.053   6.220   4.144
 2083SOL    HW2 7149   0.106   6.364   4.087
 2084SOL     OW 7150   6.873   1.762   1.288
 2084SOL    HW1 7151   6.799   1.809   1.336
 2084SOL    HW2 7152   6.874   1.790   1.192
 2085SOL     OW 7153   6.688   6.080   0.744
 2085SOL    HW1 7154   6.763   6.073   0.678
 2085SOL    HW2 7155   6.612   6.022   0.715
 2086SOL     OW 7156   4.870   0.429   6.835
 2086SOL    HW1 7157   4.946   0.481   6.796
 2086SOL    HW2 7158   4.903   0.341   6.869
 2087SOL     OW 7159   3.941   1.610   6.821
 2087SOL    HW1 7160   3.879   1.687   6.839
 2087SOL    HW2 7161   3.888   1.526   6.814
 2088SOL     OW 7162   0.397   4.821   6.026
 2088SOL    HW1 7163   0.381   4.876   5.944
 2088SOL    HW2 7164   0.350   4.733   6.016
 2089SOL     OW 7165   2.842   4.159   6.181
 2089SOL    HW1 7166   2.807   4.172   6.273
 2089SOL    HW2 7167   2.942   4.156   6.183
 2090SOL     OW 7168   5.317   2.931   6.911
 2090SOL    HW1 7169   5.321   2.831   6.910
 2090SOL    HW2 7170   5.380   2.965   6.981
 2091SOL     OW 7171   5.291   6.550   0.552
 2091SOL    HW1 7172   5.382   6.592   0.553
 2091SOL    HW2 7173   5.272   6.508   0.641
 2092SOL     OW 7174   3.401   3.558   2.002
 2092SOL    HW1 7175   3.324   3.556   1.938
 2092SOL    HW2 7176   3.487   3.565   1.951
 2093SOL     OW 7177   4.306   0.718   1.214
 2093SOL    HW1 7178   4.394   0.671   1.222
 2093SOL    HW2 7179   4.269   0.735   1.306
 2094SOL     OW 7180   5.374   1.935   0.274
 2094SOL    HW1 7181   5.316   1.941   0.355
 2094SOL    HW2 7182   5.468   1.918   0.302
 2095SOL     OW 7183   5.347   5.141   4.291
 2095SOL    HW1 7184   5.393   5.209   4.234
 2095SOL    HW2 7185   5.405   5.060   4.298
 2096SOL     OW 7186   3.972   6.864   2.352
 2096SOL    HW1 7187   4.003   6.959   2.361
 2096SOL    HW2 7188   3.912   6.857   2.272
 2097SOL     OW 7189   0.808   5.564   5.783
 2097SOL    HW1 7190   0.748   5.544   5.705
 2097SOL    HW2 7191   0.836   5.478   5.826
 2098SOL     OW 7192   2.682   6.941   3.796
 2098SOL    HW1 7193   2.656   0.011   3.797
 2098SOL    HW2 7194   2.672   6.903   3.888
 2099SOL     OW 7195   4.069   1.972   6.895
 2099SOL    HW1 7196   4.078   1.898   6.961
 2099SOL    HW2 7197   4.102   2.057   6.936
 2100SOL     OW 7198   4.496   0.429   0.351
 2100SOL    HW1 7199   4.402   0.445   0.320
 2100SOL    HW2 7200   4.545   0.516   0.353
 2101SOL     OW 7201   1.431   0.187   2.658
 2101SOL    HW1 7202   1.514   0.234   2.690
 2101SOL    HW2 7203   1.352   0.246   2.671
 2102SOL     OW 7204   4.072   2.354   1.594
 2102SOL    HW1 7205   4.033   2.441   1.564
 2102SOL    HW2 7206   4.013   2.314   1.665
 2103SOL     OW 7207   1.251   6.542   0.738
 2103SOL    HW1 7208   1.226   6.526   0.643
 2103SOL    HW2 7209   1.228   6.636   0.762
 2104SOL     OW 7210   1.865   3.827   2.939
 2104SOL    HW1 7211   1.855   3.752   2.874
 2104SOL    HW2 7212   1.957   3.823   2.979
 2105SOL     OW 7213   5.612   0.274   4.915
 2105SOL    HW1 7214   5.677   0.262   4.840
 2105SOL    HW2 7215   5.643   0.220   4.994
 2106SOL     OW 7216   3.713   2.733   1.420
 2106SOL    HW1 7217   3.767   2.670   1.364
 2106SOL    HW2 7218   3.667   2.682   1.492
 2107SOL     OW 7219   5.117   4.855   4.659
 2107SOL    HW1 7220   5.101   4.802   4.742
 2107SOL    HW2 7221   5.159   4.943   4.683
 2108SOL     OW 7222   5.102   6.755   5.322
 2108SOL    HW1 7223   5.160   6.749   5.241
 2108SOL    HW2 7224   5.153   6.796   5.397
 2109SOL     OW 7225   2.813   6.062   1.945
 2109SOL    HW1 7226   2.837   6.105   2.032
 2109SOL    HW2 7227   2.731   6.007   1.958
 2110SOL     OW 7228   3.618   5.870   0.008
 2110SOL    HW1 7229   3.668   5.825   6.962
 2110SOL    HW2 7230   3.522   5.841   0.005
 2111SOL     OW 7231   1.512   2.550   6.078
 2111SOL    HW1 7232   1.478   2.578   5.988
 2111SOL    HW2 7233   1.459   2.596   6.150
 2112SOL     OW 7234   0.985   0.084   6.902
 2112SOL    HW1 7235   1.075   0.071   6.859
 2112SOL    HW2 7236   0.961   0.002   6.954
 2113SOL     OW 7237   6.604   1.735   5.335
 2113SOL    HW1 7238   6.694   1.770   5.312
 2113SOL    HW2 7239   6.610   1.676   5.415
 2114SOL     OW 7240   2.220   0.768   5.637
 2114SOL    HW1 7241   2.253   0.677   5.661
 2114SOL    HW2 7242   2.183   0.767   5.544
 2115SOL     OW 7243   6.779   6.173   3.623
 2115SOL    HW1 7244   6.777   6.271   3.605
 2115SOL    HW2 7245   6.834   6.155   3.705
 2116SOL     OW 7246   1.924   1.502   6.979
 2116SOL    HW1 7247   1.857   1.430   6.965
 2116SOL    HW2 7248   2.014   1.471   6.947
 2117SOL     OW 7249   6.685   2.559   2.731
 2117SOL    HW1 7250   6.679   2.600   2.640
 2117SOL    HW2 7251   6.724   2.467   2.723
 2118SOL     OW 7252   0.016   2.577   2.834
 2118SOL    HW1 7253   0.007   2.613   2.927
 2118SOL    HW2 7254   0.113   2.571   2.810
 2119SOL     OW 7255   0.251   2.726   0.588
 2119SOL    HW1 7256   0.273   2.764   0.678
 2119SOL    HW2 7257   0.156   2.748   0.565
 2120SOL     OW 7258   5.398   2.046   0.610
 2120SOL    HW1 7259   5.365   2.133   0.647
 2120SOL    HW2 7260   5.322   1.996   0.569
 2121SOL     OW 7261   2.031   6.594   1.279
 2121SOL    HW1 7262   2.024   6.567   1.182
 2121SOL    HW2 7263   1.950   6.561   1.328
 2122SOL     OW 7264   6.427   0.808   4.661
 2122SOL    HW1 7265   6.398   0.872   4.732
 2122SOL    HW2 7266   6.504   0.847   4.610
 2123SOL     OW 7267   1.188   5.399   2.885
 2123SOL    HW1 7268   1.147   5.366   2.800
 2123SOL    HW2 7269   1.286   5.383   2.883
 2124SOL     OW 7270   4.612   3.373   6.396
 2124SOL    HW1 7271   4.685   3.305   6.406
 2124SOL    HW2 7272   4.528   3.329   6.366
 2125SOL     OW 7273   1.192   5.538   4.029
 2125SOL    HW1 7274   1.269   5.529   4.091
 2125SOL    HW2 7275   1.202   5.623   3.976
 2126SOL     OW 7276   2.618   3.436   0.388
 2126SOL    HW1 7277   2.557   3.493   0.443
 2126SOL    HW2 7278   2.703   3.420   0.438
 2127SOL     OW 7279   1.409   3.286   3.809
 2127SOL    HW1 7280   1.486   3.340   3.842
 2127SOL    HW2 7281   1.350   3.261   3.886
 2128SOL     OW 7282   5.496   3.124   2.473
 2128SOL    HW1 7283   5.577   3.099   2.420
 2128SOL    HW2 7284   5.448   3.042   2.502
 2129SOL     OW 7285   4.886   4.636   4.349
 2129SOL    HW1 7286   4.889   4.536   4.350
 2129SOL    HW2 7287   4.919   4.669   4.261
 2130SOL     OW 7288   1.981   0.643   1.785
 2130SOL    HW1 7289   1.914   0.571   1.769
 2130SOL    HW2 7290   1.988   0.701   1.704
 2131SOL     OW 7291   5.773   0.717   6.467
 2131SOL    HW1 7292   5.679   0.737   6.441
 2131SOL    HW2 7293   5.833   0.791   6.435
 2132SOL     OW 7294   2.595   2.953   0.279
 2132SOL    HW1 7295   2.649   2.869   0.287
 2132SOL    HW2 7296   2.541   2.950   0.195
 2133SOL     OW 7297   3.578   1.963   1.281
 2133SOL    HW1 7298   3.576   1.904   1.200
 2133SOL    HW2 7299   3.495   2.017   1.285
 2134SOL     OW 7300   1.708   6.427   5.163
 2134SOL    HW1 7301   1.713   6.506   5.225
 2134SOL    HW2 7302   1.794   6.420   5.112
 2135SOL     OW 7303   1.110   6.283   3.967
 2135SOL    HW1 7304   1.052   6.207   3.937
 2135SOL    HW2 7305   1.164   6.317   3.890
 2136SOL     OW 7306   1.439   4.459   3.866
 2136SOL    HW1 7307   1.497   4.484   3.789
 2136SOL    HW2 7308   1.377   4.385   3.838
 2137SOL     OW 7309   0.290   0.699   4.104
 2137SOL    HW1 7310   0.259   0.614   4.149
 2137SOL    HW2 7311   0.343   0.676   4.023
 2138SOL     OW 7312   0.946   2.440   5.870
 2138SOL    HW1 7313   1.003   2.376   5.921
 2138SOL    HW2 7314   0.951   2.530   5.912
 2139SOL     OW 7315   3.003   6.945   4.242
 2139SOL    HW1 7316   3.070   6.884   4.285
 2139SOL    HW2 7317   2.937   6.975   4.311
 2140SOL     OW 7318   1.463   6.134   3.830
 2140SOL    HW1 7319   1.368   6.104   3.825
 2140SOL    HW2 7320   1.488   6.179   3.744
 2141SOL     OW 7321   6.478   1.882   6.755
 2141SOL    HW1 7322   6.482   1.824   6.837
 2141SOL    HW2 7323   6.555   1.859   6.695
 2142SOL     OW 7324   3.359   0.958   3.416
 2142SOL    HW1 7325   3.392   0.935   3.508
 2142SOL    HW2 7326   3.259   0.969   3.419
 2143SOL     OW 7327   3.834   6.258   0.104
 2143SOL    HW1 7328   3.909   6.249   0.169
 2143SOL    HW2 7329   3.802   6.352   0.103
 2144SOL     OW 7330   1.010   0.898   1.785
 2144SOL    HW1 7331   0.947   0.967   1.820
 2144SOL    HW2 7332   1.066   0.938   1.713
 2145SOL     OW 7333   2.806   5.657   2.689
 2145SOL    HW1 7334   2.850   5.677   2.601
 2145SOL    HW2 7335   2.769   5.741   2.728
 2146SOL     OW 7336   2.699   1.641   0.924
 2146SOL    HW1 7337   2.731   1.662   1.016
 2146SOL    HW2 7338   2.691   1.726   0.871
 2147SOL     OW 7339   0.235   1.071   4.830
 2147SOL    HW1 7340   0.250   1.020   4.914
 2147SOL    HW2 7341   0.142   1.107   4.829
 2148SOL     OW 7342   5.676   3.694   4.036
 2148SOL    HW1 7343   5.768   3.705   3.998
 2148SOL    HW2 7344   5.615   3.657   3.965
 2149SOL     OW 7345   3.130   0.425   3.179
 2149SOL    HW1 7346   3.072   0.357   3.224
 2149SOL    HW2 7347   3.164   0.388   3.093
 2150SOL     OW 7348   4.222   0.132   3.432
 2150SOL    HW1 7349   4.128   0.162   3.414
 2150SOL    HW2 7350   4.228   0.033   3.418
 2151SOL     OW 7351   3.900   4.366   5.553
 2151SOL    HW1 7352   3.841   4.387   5.631
 2151SOL    HW2 7353   3.990   4.336   5.587
 2152SOL     OW 7354   6.739   6.631   2.352
 2152SOL    HW1 7355   6.825   6.648   2.400
 2152SOL    HW2 7356   6.662   6.656   2.412
 2153SOL     OW 7357   4.750   1.728   3.467
 2153SOL    HW1 7358   4.832   1.721   3.522
 2153SOL    HW2 7359   4.688   1.796   3.507
 2154SOL     OW 7360   4.182   6.577   5.279
 2154SOL    HW1 7361   4.141   6.500   5.328
 2154SOL    HW2 7362   4.268   6.548   5.236
 2155SOL     OW 7363   6.432   3.949   6.926
 2155SOL    HW1 7364   6.383   3.923   7.009
 2155SOL    HW2 7365   6.525   3.913   6.931
 2156SOL     OW 7366   6.980   0.625   1.470
 2156SOL    HW1 7367   0.031   0.682   1.496
 2156SOL    HW2 7368   6.909   0.633   1.540
 2157SOL     OW 7369   6.275   0.956   3.961
 2157SOL    HW1 7370   6.276   0.983   4.058
 2157SOL    HW2 7371   6.369   0.943   3.930
 2158SOL     OW 7372   4.936   0.201   3.650
 2158SOL    HW1 7373   4.886   0.249   3.721
 2158SOL    HW2 7374   4.924   0.249   3.563
 2159SOL     OW 7375   2.435   0.709   5.290
 2159SOL    HW1 7376   2.466   0.691   5.383
 2159SOL    HW2 7377   2.360   0.647   5.267
 2160SOL     OW 7378   2.980   2.717   0.570
 2160SOL    HW1 7379   3.052   2.667   0.523
 2160SOL    HW2 7380   2.997   2.815   0.564
 2161SOL     OW 7381   5.166   2.372   3.840
 2161SOL    HW1 7382   5.184   2.287   3.889
 2161SOL    HW2 7383   5.074   2.405   3.862
 2162SOL     OW 7384   1.828   1.088   0.917
 2162SOL    HW1 7385   1.833   1.109   1.015
 2162SOL    HW2 7386   1.905   1.132   0.871
 2163SOL     OW 7387   2.166   1.509   1.023
 2163SOL    HW1 7388   2.196   1.414   1.008
 2163SOL    HW2 7389   2.231   1.555   1.083
 2164SOL     OW 7390   6.444   6.988   1.176
 2164SOL    HW1 7391   6.478   0.042   1.224
 2164SOL    HW2 7392   6.408   6.923   1.243
 2165SOL     OW 7393   3.042   0.055   2.027
 2165SOL    HW1 7394   3.037   7.014   1.953
 2165SOL    HW2 7395   3.042   0.147   1.987
 2166SOL     OW 7396   5.591   2.560   6.071
 2166SOL    HW1 7397   5.673   2.616   6.086
 2166SOL    HW2 7398   5.606   2.499   5.993
 2167SOL     OW 7399   3.072   1.104   1.206
 2167SOL    HW1 7400   3.102   1.158   1.127
 2167SOL    HW2 7401   3.123   1.133   1.287
 2168SOL     OW 7402   6.161   6.434   4.773
 2168SOL    HW1 7403   6.147   6.360   4.838
 2168SOL    HW2 7404   6.118   6.518   4.807
 2169SOL     OW 7405   5.901   1.534   5.996
 2169SOL    HW1 7406   5.874   1.611   6.053
 2169SOL    HW2 7407   5.881   1.556   5.900
 2170SOL     OW 7408   5.221   4.584   4.635
 2170SOL    HW1 7409   5.142   4.530   4.608
 2170SOL    HW2 7410   5.205   4.680   4.612
 2171SOL     OW 7411   0.012   3.328   0.155
 2171SOL    HW1 7412   0.013   3.428   0.160
 2171SOL    HW2 7413   0.016   3.300   0.059
 2172SOL     OW 7414   2.275   0.234   1.923
 2172SOL    HW1 7415   2.373   0.218   1.913
 2172SOL    HW2 7416   2.259   0.331   1.942
 2173SOL     OW 7417   4.631   2.312   4.617
 2173SOL    HW1 7418   4.694   2.235   4.627
 2173SOL    HW2 7419   4.645   2.377   4.692
 2174SOL     OW 7420   1.480   5.316   4.718
 2174SOL    HW1 7421   1.580   5.319   4.726
 2174SOL    HW2 7422   1.438   5.344   4.804
 2175SOL     OW 7423   2.039   6.233   5.652
 2175SOL    HW1 7424   2.028   6.149   5.598
 2175SOL    HW2 7425   1.967   6.237   5.722
 2176SOL     OW 7426   1.527   2.507   2.618
 2176SOL    HW1 7427   1.575   2.419   2.608
 2176SOL    HW2 7428   1.588   2.572   2.663
 2177SOL     OW 7429   0.561   2.312   1.524
 2177SOL    HW1 7430   0.631   2.307   1.595
 2177SOL    HW2 7431   0.538   2.219   1.494
 2178SOL     OW 7432   6.546   6.737   1.120
 2178SOL    HW1 7433   6.531   6.677   1.199
 2178SOL    HW2 7434   6.481   6.813   1.123
 2179SOL     OW 7435   1.425   3.751   4.103
 2179SOL    HW1 7436   1.429   3.651   4.115
 2179SOL    HW2 7437   1.512   3.791   4.131
 2180SOL     OW 7438   3.230   2.743   1.485
 2180SOL    HW1 7439   3.315   2.776   1.525
 2180SOL    HW2 7440   3.214   2.649   1.514
 2181SOL     OW 7441   3.308   6.597   1.577
 2181SOL    HW1 7442   3.386   6.658   1.594
 2181SOL    HW2 7443   3.295   6.586   1.479
 2182SOL     OW 7444   5.022   2.362   1.121
 2182SOL    HW1 7445   5.121   2.376   1.116
 2182SOL    HW2 7446   4.975   2.450   1.109
 2183SOL     OW 7447   3.089   2.356   0.605
 2183SOL    HW1 7448   3.057   2.379   0.513
 2183SOL    HW2 7449   3.082   2.257   0.619
 2184SOL     OW 7450   4.404   3.142   6.391
 2184SOL    HW1 7451   4.393   3.188   6.479
 2184SOL    HW2 7452   4.436   3.048   6.406
 2185SOL     OW 7453   6.884   6.732   1.863
 2185SOL    HW1 7454   6.921   6.643   1.836
 2185SOL    HW2 7455   6.958   6.800   1.866
 2186SOL     OW 7456   0.327   4.476   3.235
 2186SOL    HW1 7457   0.278   4.412   3.295
 2186SOL    HW2 7458   0.264   4.542   3.196
 2187SOL     OW 7459   6.270   1.446   0.314
 2187SOL    HW1 7460   6.197   1.389   0.353
 2187SOL    HW2 7461   6.235   1.491   0.232
 2188SOL     OW 7462   4.746   1.124   4.156
 2188SOL    HW1 7463   4.756   1.140   4.058
 2188SOL    HW2 7464   4.794   1.196   4.207
 2189SOL     OW 7465   3.023   0.069   6.874
 2189SOL    HW1 7466   3.076   0.026   6.801
 2189SOL    HW2 7467   2.948   0.008   6.901
 2190SOL     OW 7468   4.927   2.612   1.060
 2190SOL    HW1 7469   4.882   2.695   1.094
 2190SOL    HW2 7470   4.864   2.562   1.000
 2191SOL     OW 7471   2.387   1.599   0.374
 2191SOL    HW1 7472   2.394   1.602   0.274
 2191SOL    HW2 7473   2.315   1.535   0.401
 2192SOL     OW 7474   3.737   5.661   2.494
 2192SOL    HW1 7475   3.786   5.736   2.451
 2192SOL    HW2 7476   3.695   5.603   2.423
 2193SOL     OW 7477   6.767   6.040   4.672
 2193SOL    HW1 7478   6.701   6.051   4.597
 2193SOL    HW2 7479   6.842   6.106   4.661
 2194SOL     OW 7480   2.729   0.440   1.855
 2194SOL    HW1 7481   2.730   0.503   1.933
 2194SOL    HW2 7482   2.692   0.487   1.775
 2195SOL     OW 7483   0.727   4.513   2.092
 2195SOL    HW1 7484   0.663   4.457   2.039
 2195SOL    HW2 7485   0.788   4.562   2.029
 2196SOL     OW 7486   4.509   3.192   0.581
 2196SOL    HW1 7487   4.435   3.141   0.537
 2196SOL    HW2 7488   4.507   3.287   0.549
 2197SOL     OW 7489   4.356   4.346   6.564
 2197SOL    HW1 7490   4.278   4.398   6.598
 2197SOL    HW2 7491   4.326   4.283   6.493
 2198SOL     OW 7492   6.335   4.584   0.619
 2198SOL    HW1 7493   6.342   4.683   0.636
 2198SOL    HW2 7494   6.277   4.543   0.690
 2199SOL     OW 7495   4.478   1.070   3.232
 2199SOL    HW1 7496   4.469   1.015   3.149
 2199SOL    HW2 7497   4.475   1.167   3.209
 2200SOL     OW 7498   2.758   6.881   4.475
 2200SOL    HW1 7499   2.684   6.878   4.542
 2200SOL    HW2 7500   2.772   6.790   4.436
 2201SOL     OW 7501   4.748   4.101   4.281
 2201SOL    HW1 7502   4.715   4.042   4.355
 2201SOL    HW2 7503   4.701   4.189   4.286
 2202SOL     OW 7504   4.535   5.632   3.897
 2202SOL    HW1 7505   4.614   5.572   3.907
 2202SOL    HW2 7506   4.534   5.700   3.971
 2203SOL     OW 7507   3.101   2.208   2.593
 2203SOL    HW1 7508   3.022   2.269   2.590
 2203SOL    HW2 7509   3.135   2.202   2.687
 2204SOL     OW 7510   2.721   2.240   0.267
 2204SOL    HW1 7511   2.720   2.315   0.202
 2204SOL    HW2 7512   2.660   2.261   0.344
 2205SOL     OW 7513   3.144   0.887   1.706
 2205SOL    HW1 7514   3.153   0.986   1.713
 2205SOL    HW2 7515   3.203   0.844   1.775
 2206SOL     OW 7516   1.600   2.915   0.230
 2206SOL    HW1 7517   1.528   2.982   0.210
 2206SOL    HW2 7518   1.664   2.955   0.296
 2207SOL     OW 7519   6.887   4.744   5.043
 2207SOL    HW1 7520   6.891   4.844   5.044
 2207SOL    HW2 7521   6.947   4.710   4.971
 2208SOL     OW 7522   6.709   4.882   2.273
 2208SOL    HW1 7523   6.752   4.826   2.343
 2208SOL    HW2 7524   6.697   4.975   2.307
 2209SOL     OW 7525   0.739   0.105   1.889
 2209SOL    HW1 7526   0.789   0.052   1.820
 2209SOL    HW2 7527   0.655   0.057   1.914
 2210SOL     OW 7528   2.031   5.098   3.704
 2210SOL    HW1 7529   2.011   5.078   3.608
 2210SOL    HW2 7530   1.966   5.166   3.738
 2211SOL     OW 7531   7.001   1.852   4.958
 2211SOL    HW1 7532   0.039   1.777   4.974
 2211SOL    HW2 7533   0.024   1.939   4.952
 2212SOL     OW 7534   1.725   6.506   6.467
 2212SOL    HW1 7535   1.708   6.518   6.564
 2212SOL    HW2 7536   1.639   6.484   6.420
 2213SOL     OW 7537   3.785   0.845   3.331
 2213SOL    HW1 7538   3.690   0.817   3.337
 2213SOL    HW2 7539   3.799   0.897   3.246
 2214SOL     OW 7540   4.417   0.526   5.016
 2214SOL    HW1 7541   4.412   0.427   5.004
 2214SOL    HW2 7542   4.412   0.570   4.926
 2215SOL     OW 7543   5.881   2.185   5.350
 2215SOL    HW1 7544   5.884   2.217   5.256
 2215SOL    HW2 7545   5.794   2.212   5.392
 2216SOL     OW 7546   3.004   0.922   2.396
 2216SOL    HW1 7547   3.056   0.919   2.311
 2216SOL    HW2 7548   2.997   1.016   2.428
 2217SOL     OW 7549   4.636   1.236   2.091
 2217SOL    HW1 7550   4.559   1.196   2.040
 2217SOL    HW2 7551   4.721   1.196   2.058
 2218SOL     OW 7552   0.923   0.524   2.558
 2218SOL    HW1 7553   0.925   0.598   2.491
 2218SOL    HW2 7554   0.849   0.541   2.623
 2219SOL     OW 7555   1.399   2.235   2.719
 2219SOL    HW1 7556   1.379   2.187   2.805
 2219SOL    HW2 7557   1.352   2.324   2.719
 2220SOL     OW 7558   0.775   0.581   1.855
 2220SOL    HW1 7559   0.765   0.483   1.872
 2220SOL    HW2 7560   0.869   0.608   1.877
 2221SOL     OW 7561   0.551   0.596   6.279
 2221SOL    HW1 7562   0.606   0.544   6.215
 2221SOL    HW2 7563   0.493   0.661   6.229
 2222SOL     OW 7564   6.432   5.591   3.353
 2222SOL    HW1 7565   6.341   5.605   3.314
 2222SOL    HW2 7566   6.500   5.632   3.293
 2223SOL     OW 7567   6.597   6.446   1.658
 2223SOL    HW1 7568   6.575   6.371   1.721
 2223SOL    HW2 7569   6.597   6.533   1.708
 2224SOL     OW 7570   0.897   4.937   1.220
 2224SOL    HW1 7571   0.823   4.951   1.155
 2224SOL    HW2 7572   0.959   5.016   1.218
 2225SOL     OW 7573   0.622   3.686   0.889
 2225SOL    HW1 7574   0.679   3.645   0.818
 2225SOL    HW2 7575   0.657   3.776   0.913
 2226SOL     OW 7576   4.080   3.802   2.340
 2226SOL    HW1 7577   4.032   3.811   2.427
 2226SOL    HW2 7578   4.162   3.859   2.341
 2227SOL     OW 7579   1.145   2.912   4.207
 2227SOL    HW1 7580   1.209   2.837   4.192
 2227SOL    HW2 7581   1.077   2.885   4.275
 2228SOL     OW 7582   2.727   4.770   4.088
 2228SOL    HW1 7583   2.738   4.721   4.001
 2228SOL    HW2 7584   2.684   4.710   4.155
 2229SOL     OW 7585   5.884   6.456   3.037
 2229SOL    HW1 7586   5.794   6.471   2.997
 2229SOL    HW2 7587   5.950   6.517   2.993
 2230SOL     OW 7588   2.777   5.017   1.572
 2230SOL    HW1 7589   2.826   5.062   1.648
 2230SOL    HW2 7590   2.802   5.061   1.486
 2231SOL     OW 7591   2.443   5.981   1.431
 2231SOL    HW1 7592   2.402   5.899   1.392
 2231SOL    HW2 7593   2.542   5.980   1.414
 2232SOL     OW 7594   5.529   2.613   3.652
 2232SOL    HW1 7595   5.566   2.634   3.562
 2232SOL    HW2 7596   5.477   2.528   3.647
 2233SOL     OW 7597   3.174   1.162   6.187
 2233SOL    HW1 7598   3.170   1.114   6.275
 2233SOL    HW2 7599   3.118   1.113   6.121
 2234SOL     OW 7600   3.651   2.507   1.055
 2234SOL    HW1 7601   3.558   2.506   1.093
 2234SOL    HW2 7602   3.647   2.503   0.955
 2235SOL     OW 7603   1.870   2.023   1.640
 2235SOL    HW1 7604   1.808   2.044   1.564
 2235SOL    HW2 7605   1.818   2.014   1.724
 2236SOL     OW 7606   1.551   5.210   5.885
 2236SOL    HW1 7607   1.529   5.197   5.981
 2236SOL    HW2 7608   1.470   5.192   5.829
 2237SOL     OW 7609   6.301   3.153   4.502
 2237SOL    HW1 7610   6.328   3.124   4.594
 2237SOL    HW2 7611   6.381   3.151   4.442
 2238SOL     OW 7612   5.988   6.362   0.743
 2238SOL    HW1 7613   5.999   6.352   0.644
 2238SOL    HW2 7614   5.945   6.280   0.781
 2239SOL     OW 7615   6.029   5.854   1.886
 2239SOL    HW1 7616   6.041   5.923   1.958
 2239SOL    HW2 7617   5.949   5.797   1.907
 2240SOL     OW 7618   6.176   3.668   1.833
 2240SOL    HW1 7619   6.267   3.657   1.874
 2240SOL    HW2 7620   6.181   3.735   1.758
 2241SOL     OW 7621   1.209   0.460   3.334
 2241SOL    HW1 7622   1.221   0.529   3.263
 2241SOL    HW2 7623   1.182   0.373   3.291
 2242SOL     OW 7624   3.443   1.591   2.261
 2242SOL    HW1 7625   3.513   1.661   2.275
 2242SOL    HW2 7626   3.446   1.559   2.166
 2243SOL     OW 7627   2.805   0.056   5.147
 2243SOL    HW1 7628   2.764   0.073   5.057
 2243SOL    HW2 7629   2.743   0.087   5.218
 2244SOL     OW 7630   3.133   1.250   4.946
 2244SOL    HW1 7631   3.161   1.289   4.858
 2244SOL    HW2 7632   3.033   1.238   4.946
 2245SOL     OW 7633   0.343   2.117   2.103
 2245SOL    HW1 7634   0.380   2.097   2.194
 2245SOL    HW2 7635   0.268   2.183   2.112
 2246SOL     OW 7636   1.687   4.988   5.208
 2246SOL    HW1 7637   1.588   4.993   5.205
 2246SOL    HW2 7638   1.715   4.924   5.279
 2247SOL     OW 7639   1.640   1.207   4.828
 2247SOL    HW1 7640   1.725   1.251   4.798
 2247SOL    HW2 7641   1.652   1.108   4.831
 2248SOL     OW 7642   4.540   3.876   5.417
 2248SOL    HW1 7643   4.453   3.914   5.448
 2248SOL    HW2 7644   4.523   3.816   5.339
 2249SOL     OW 7645   3.867   5.423   5.191
 2249SOL    HW1 7646   3.779   5.380   5.169
 2249SOL    HW2 7647   3.936   5.352   5.205
 2250SOL     OW 7648   4.322   5.036   1.318
 2250SOL    HW1 7649   4.301   5.005   1.411
 2250SOL    HW2 7650   4.399   5.100   1.321
 2251SOL     OW 7651   0.197   0.350   6.523
 2251SOL    HW1 7652   0.172   0.433   6.474
 2251SOL    HW2 7653   0.292   0.325   6.500
 2252SOL     OW 7654   3.366   0.527   6.146
 2252SOL    HW1 7655   3.395   0.548   6.239
 2252SOL    HW2 7656   3.266   0.522   6.143
 2253SOL     OW 7657   0.924   3.664   6.363
 2253SOL    HW1 7658   0.960   3.584   6.315
 2253SOL    HW2 7659   0.891   3.730   6.296
 2254SOL     OW 7660   1.667   4.644   6.362
 2254SOL    HW1 7661   1.596   4.669   6.428
 2254SOL    HW2 7662   1.677   4.717   6.295
 2255SOL     OW 7663   6.379   3.581   6.735
 2255SOL    HW1 7664   6.425   3.573   6.823
 2255SOL    HW2 7665   6.300   3.641   6.744
 2256SOL     OW 7666   2.662   4.606   2.236
 2256SOL    HW1 7667   2.704   4.649   2.317
 2256SOL    HW2 7668   2.721   4.621   2.157
 2257SOL     OW 7669   1.530   3.767   4.746
 2257SOL    HW1 7670   1.592   3.746   4.670
 2257SOL    HW2 7671   1.453   3.703   4.746
 2258SOL     OW 7672   2.241   5.161   5.028
 2258SOL    HW1 7673   2.163   5.147   5.089
 2258SOL    HW2 7674   2.285   5.073   5.011
 2259SOL     OW 7675   6.366   3.044   6.487
 2259SOL    HW1 7676   6.422   2.969   6.521
 2259SOL    HW2 7677   6.295   3.065   6.554
 2260SOL     OW 7678   4.227   2.886   1.028
 2260SOL    HW1 7679   4.284   2.923   1.102
 2260SOL    HW2 7680   4.175   2.808   1.062
 2261SOL     OW 7681   3.053   6.614   4.938
 2261SOL    HW1 7682   3.009   6.639   4.852
 2261SOL    HW2 7683   3.137   6.563   4.919
 2262SOL     OW 7684   3.812   1.689   3.117
 2262SOL    HW1 7685   3.907   1.669   3.143
 2262SOL    HW2 7686   3.751   1.669   3.193
 2263SOL     OW 7687   0.612   4.307   5.933
 2263SOL    HW1 7688   0.639   4.254   5.852
 2263SOL    HW2 7689   0.516   4.334   5.924
 2264SOL     OW 7690   2.928   3.764   3.455
 2264SOL    HW1 7691   2.905   3.688   3.516
 2264SOL    HW2 7692   2.962   3.841   3.509
 2265SOL     OW 7693   0.379   6.848   3.385
 2265SOL    HW1 7694   0.296   6.813   3.341
 2265SOL    HW2 7695   0.459   6.799   3.349
 2266SOL     OW 7696   6.257   0.603   6.021
 2266SOL    HW1 7697   6.304   0.527   6.068
 2266SOL    HW2 7698   6.321   0.648   5.959
 2267SOL     OW 7699   5.251   2.080   4.940
 2267SOL    HW1 7700   5.219   2.018   5.012
 2267SOL    HW2 7701   5.312   2.148   4.980
 2268SOL     OW 7702   6.680   5.759   6.826
 2268SOL    HW1 7703   6.741   5.806   6.762
 2268SOL    HW2 7704   6.599   5.727   6.778
 2269SOL     OW 7705   0.144   0.007   3.118
 2269SOL    HW1 7706   0.045   0.018   3.105
 2269SOL    HW2 7707   0.164   6.940   3.146
 2270SOL     OW 7708   3.531   3.126   3.016
 2270SOL    HW1 7709   3.581   3.159   3.096
 2270SOL    HW2 7710   3.518   3.027   3.022
 2271SOL     OW 7711   0.922   5.117   3.248
 2271SOL    HW1 7712   1.010   5.129   3.204
 2271SOL    HW2 7713   0.928   5.045   3.317
 2272SOL     OW 7714   5.096   1.964   5.535
 2272SOL    HW1 7715   5.071   1.877   5.576
 2272SOL    HW2 7716   5.157   2.014   5.596
 2273SOL     OW 7717   0.402   1.040   2.599
 2273SOL    HW1 7718   0.424   0.998   2.511
 2273SOL    HW2 7719   0.322   1.100   2.589
 2274SOL     OW 7720   1.085   4.716   3.401
 2274SOL    HW1 7721   1.068   4.656   3.322
 2274SOL    HW2 7722   1.106   4.660   3.480
 2275SOL     OW 7723   4.537   6.509   3.681
 2275SOL    HW1 7724   4.578   6.437   3.737
 2275SOL    HW2 7725   4.565   6.599   3.717
 2276SOL     OW 7726   3.249   5.912   2.402
 2276SOL    HW1 7727   3.246   5.870   2.493
 2276SOL    HW2 7728   3.163   5.894   2.355
 2277SOL     OW 7729   3.358   3.255   1.084
 2277SOL    HW1 7730   3.358   3.355   1.085
 2277SOL    HW2 7731   3.379   3.221   0.993
 2278SOL     OW 7732   4.282   6.075   1.402
 2278SOL    HW1 7733   4.376   6.051   1.378
 2278SOL    HW2 7734   4.262   6.168   1.370
 2279SOL     OW 7735   5.789   4.037   6.028
 2279SOL    HW1 7736   5.775   3.966   5.958
 2279SOL    HW2 7737   5.722   4.110   6.015
 2280SOL     OW 7738   5.324   0.236   5.887
 2280SOL    HW1 7739   5.335   0.275   5.796
 2280SOL    HW2 7740   5.381   0.286   5.952
 2281SOL     OW 7741   2.077   1.732   0.068
 2281SOL    HW1 7742   2.030   1.645   0.057
 2281SOL    HW2 7743   2.162   1.718   0.119
 2282SOL     OW 7744   3.610   5.923   2.076
 2282SOL    HW1 7745   3.564   5.880   2.153
 2282SOL    HW2 7746   3.547   5.931   1.999
 2283SOL     OW 7747   0.572   3.680   1.803
 2283SOL    HW1 7748   0.533   3.606   1.858
 2283SOL    HW2 7749   0.584   3.762   1.860
 2284SOL     OW 7750   2.103   1.912   1.861
 2284SOL    HW1 7751   2.134   1.976   1.931
 2284SOL    HW2 7752   2.009   1.933   1.834
 2285SOL     OW 7753   1.718   3.505   6.731
 2285SOL    HW1 7754   1.741   3.559   6.650
 2285SOL    HW2 7755   1.624   3.473   6.725
 2286SOL     OW 7756   6.729   6.396   4.351
 2286SOL    HW1 7757   6.761   6.406   4.256
 2286SOL    HW2 7758   6.699   6.302   4.366
 2287SOL     OW 7759   2.216   2.080   0.776
 2287SOL    HW1 7760   2.195   2.001   0.834
 2287SOL    HW2 7761   2.249   2.048   0.688
 2288SOL     OW 7762   2.686   5.506   4.704
 2288SOL    HW1 7763   2.622   5.552   4.765
 2288SOL    HW2 7764   2.652   5.414   4.683
 2289SOL     OW 7765   3.931   0.813   6.759
 2289SOL    HW1 7766   3.910   0.875   6.684
 2289SOL    HW2 7767   4.026   0.826   6.788
 2290SOL     OW 7768   3.256   3.699   4.254
 2290SOL    HW1 7769   3.283   3.786   4.214
 2290SOL    HW2 7770   3.330   3.663   4.310
 2291SOL     OW 7771   2.124   2.553   0.195
 2291SOL    HW1 7772   2.049   2.619   0.185
 2291SOL    HW2 7773   2.096   2.465   0.154
 2292SOL     OW 7774   4.632   1.688   2.966
 2292SOL    HW1 7775   4.580   1.772   2.980
 2292SOL    HW2 7776   4.695   1.673   3.042
 2293SOL     OW 7777   0.587   0.989   6.676
 2293SOL    HW1 7778   0.596   0.937   6.591
 2293SOL    HW2 7779   0.506   0.958   6.726
 2294SOL     OW 7780   6.893   1.164   5.363
 2294SOL    HW1 7781   6.801   1.199   5.350
 2294SOL    HW2 7782   6.890   1.066   5.383
 2295SOL     OW 7783   5.309   5.893   0.799
 2295SOL    HW1 7784   5.325   5.930   0.707
 2295SOL    HW2 7785   5.375   5.821   0.818
 2296SOL     OW 7786   3.842   5.465   4.515
 2296SOL    HW1 7787   3.838   5.536   4.444
 2296SOL    HW2 7788   3.867   5.506   4.602
 2297SOL     OW 7789   5.993   3.614   5.711
 2297SOL    HW1 7790   6.088   3.642   5.713
 2297SOL    HW2 7791   5.935   3.692   5.687
 2298SOL     OW 7792   2.739   3.356   5.506
 2298SOL    HW1 7793   2.718   3.259   5.492
 2298SOL    HW2 7794   2.814   3.365   5.571
 2299SOL     OW 7795   6.027   3.493   4.612
 2299SOL    HW1 7796   6.116   3.531   4.636
 2299SOL    HW2 7797   6.039   3.411   4.557
 2300SOL     OW 7798   5.307   0.280   2.456
 2300SOL    HW1 7799   5.231   0.312   2.399
 2300SOL    HW2 7800   5.290   0.185   2.483
 2301SOL     OW 7801   3.945   3.434   5.011
 2301SOL    HW1 7802   3.900   3.397   5.092
 2301SOL    HW2 7803   3.881   3.433   4.934
 2302SOL     OW 7804   6.208   2.908   6.271
 2302SOL    HW1 7805   6.110   2.902   6.287
 2302SOL    HW2 7806   6.251   2.961   6.344
 2303SOL     OW 7807   2.784   2.004   6.682
 2303SOL    HW1 7808   2.850   2.069   6.642
 2303SOL    HW2 7809   2.820   1.911   6.672
 2304SOL     OW 7810   6.611   6.996   2.399
 2304SOL    HW1 7811   6.599   6.897   2.404
 2304SOL    HW2 7812   6.706   7.018   2.377
 2305SOL     OW 7813   2.799   6.777   5.419
 2305SOL    HW1 7814   2.864   6.822   5.358
 2305SOL    HW2 7815   2.810   6.813   5.512
 2306SOL     OW 7816   2.110   4.523   4.862
 2306SOL    HW1 7817   2.201   4.535   4.901
 2306SOL    HW2 7818   2.098   4.587   4.786
 2307SOL     OW 7819   6.708   3.864   4.938
 2307SOL    HW1 7820   6.712   3.806   4.857
 2307SOL    HW2 7821   6.781   3.932   4.934
 2308SOL     OW 7822   0.557   5.367   2.452
 2308SOL    HW1 7823   0.591   5.398   2.541
 2308SOL    HW2 7824   0.619   5.298   2.415
 2309SOL     OW 7825   2.164   0.565   4.925
 2309SOL    HW1 7826   2.207   0.655   4.930
 2309SOL    HW2 7827   2.124   0.551   4.835
 2310SOL     OW 7828   4.452   6.969   0.634
 2310SOL    HW1 7829   4.460   0.039   0.613
 2310SOL    HW2 7830   4.456   6.956   0.733
 2311SOL     OW 7831   2.141   5.617   0.539
 2311SOL    HW1 7832   2.235   5.652   0.549
 2311SOL    HW2 7833   2.083   5.657   0.609
 2312SOL     OW 7834   3.467   4.960   2.581
 2312SOL    HW1 7835   3.462   4.938   2.484
 2312SOL    HW2 7836   3.561   4.985   2.605
 2313SOL     OW 7837   5.005   4.525   1.539
 2313SOL    HW1 7838   4.937   4.527   1.612
 2313SOL    HW2 7839   4.965   4.482   1.458
 2314SOL     OW 7840   2.639   4.670   3.822
 2314SOL    HW1 7841   2.586   4.614   3.885
 2314SOL    HW2 7842   2.609   4.765   3.829
 2315SOL     OW 7843   4.867   1.925   7.014
 2315SOL    HW1 7844   4.799   1.887   0.049
 2315SOL    HW2 7845   4.820   1.968   6.936
 2316SOL     OW 7846   4.962   3.361   2.118
 2316SOL    HW1 7847   4.956   3.440   2.179
 2316SOL    HW2 7848   4.937   3.278   2.167
 2317SOL     OW 7849   1.070   6.178   3.338
 2317SOL    HW1 7850   1.080   6.272   3.370
 2317SOL    HW2 7851   1.156   6.128   3.353
 2318SOL     OW 7852   0.399   1.626   4.089
 2318SOL    HW1 7853   0.485   1.582   4.114
 2318SOL    HW2 7854   0.334   1.557   4.057
 2319SOL     OW 7855   1.229   4.665   1.703
 2319SOL    HW1 7856   1.247   4.704   1.793
 2319SOL    HW2 7857   1.165   4.589   1.711
 2320SOL     OW 7858   6.687   4.605   4.592
 2320SOL    HW1 7859   6.593   4.633   4.571
 2320SOL    HW2 7860   6.686   4.539   4.667
 2321SOL     OW 7861   3.964   5.243   4.457
 2321SOL    HW1 7862   4.060   5.249   4.431
 2321SOL    HW2 7863   3.926   5.335   4.465
 2322SOL     OW 7864   2.672   0.640   4.480
 2322SOL    HW1 7865   2.582   0.599   4.485
 2322SOL    HW2 7866   2.698   0.677   4.569
 2323SOL     OW 7867   4.917   3.759   2.062
 2323SOL    HW1 7868   4.898   3.716   2.150
 2323SOL    HW2 7869   5.015   3.758   2.044
 2324SOL     OW 7870   0.938   5.106   3.701
 2324SOL    HW1 7871   0.873   5.030   3.697
 2324SOL    HW2 7872   0.973   5.125   3.609
 2325SOL     OW 7873   0.181   2.469   0.115
 2325SOL    HW1 7874   0.101   2.529   0.117
 2325SOL    HW2 7875   0.256   2.511   0.165
 2326SOL     OW 7876   0.631   4.160   0.341
 2326SOL    HW1 7877   0.636   4.162   0.241
 2326SOL    HW2 7878   0.687   4.085   0.375
 2327SOL     OW 7879   5.194   1.103   3.849
 2327SOL    HW1 7880   5.244   1.017   3.838
 2327SOL    HW2 7881   5.254   1.172   3.889
 2328SOL     OW 7882   6.525   5.163   3.721
 2328SOL    HW1 7883   6.489   5.137   3.631
 2328SOL    HW2 7884   6.469   5.119   3.792
 2329SOL     OW 7885   1.270   5.990   3.344
 2329SOL    HW1 7886   1.350   6.017   3.399
 2329SOL    HW2 7887   1.271   5.891   3.330
 2330SOL     OW 7888   0.515   4.057   1.076
 2330SOL    HW1 7889   0.549   3.963   1.085
 2330SOL    HW2 7890   0.589   4.115   1.040
 2331SOL     OW 7891   1.289   4.525   5.556
 2331SOL    HW1 7892   1.277   4.620   5.587
 2331SOL    HW2 7893   1.300   4.524   5.457
 2332SOL     OW 7894   5.095   2.897   5.810
 2332SOL    HW1 7895   5.155   2.817   5.816
 2332SOL    HW2 7896   5.083   2.922   5.714
 2333SOL     OW 7897   2.856   5.123   3.693
 2333SOL    HW1 7898   2.893   5.109   3.784
 2333SOL    HW2 7899   2.924   5.169   3.636
 2334SOL     OW 7900   2.626   0.409   6.433
 2334SOL    HW1 7901   2.642   0.436   6.528
 2334SOL    HW2 7902   2.645   0.311   6.423
 2335SOL     OW 7903   4.510   4.534   4.507
 2335SOL    HW1 7904   4.447   4.580   4.444
 2335SOL    HW2 7905   4.484   4.557   4.601
 2336SOL     OW 7906   4.275   2.955   5.679
 2336SOL    HW1 7907   4.232   3.045   5.680
 2336SOL    HW2 7908   4.205   2.884   5.684
 2337SOL     OW 7909   6.189   0.411   4.651
 2337SOL    HW1 7910   6.137   0.364   4.723
 2337SOL    HW2 7911   6.286   0.406   4.672
 2338SOL     OW 7912   1.435   6.815   6.932
 2338SOL    HW1 7913   1.472   6.895   6.980
 2338SOL    HW2 7914   1.421   6.839   6.836
 2339SOL     OW 7915   4.213   4.997   0.155
 2339SOL    HW1 7916   4.154   5.072   0.123
 2339SOL    HW2 7917   4.160   4.914   0.165
 2340SOL     OW 7918   3.620   5.077   4.272
 2340SOL    HW1 7919   3.571   5.036   4.195
 2340SOL    HW2 7920   3.711   5.035   4.280
 2341SOL     OW 7921   5.419   4.975   6.342
 2341SOL    HW1 7922   5.454   4.915   6.271
 2341SOL    HW2 7923   5.475   4.965   6.425
 2342SOL     OW 7924   6.886   0.187   5.070
 2342SOL    HW1 7925   6.903   0.131   5.151
 2342SOL    HW2 7926   6.958   0.257   5.061
 2343SOL     OW 7927   1.027   0.204   0.271
 2343SOL    HW1 7928   1.097   0.135   0.253
 2343SOL    HW2 7929   0.988   0.189   0.362
 2344SOL     OW 7930   2.455   0.992   2.715
 2344SOL    HW1 7931   2.548   0.970   2.686
 2344SOL    HW2 7932   2.394   0.991   2.636
 2345SOL     OW 7933   0.774   1.890   2.087
 2345SOL    HW1 7934   0.851   1.912   2.147
 2345SOL    HW2 7935   0.760   1.965   2.022
 2346SOL     OW 7936   4.704   3.130   5.238
 2346SOL    HW1 7937   4.616   3.177   5.239
 2346SOL    HW2 7938   4.773   3.186   5.284
 2347SOL     OW 7939   1.797   3.651   0.956
 2347SOL    HW1 7940   1.834   3.723   0.898
 2347SOL    HW2 7941   1.793   3.683   1.051
 2348SOL     OW 7942   2.566   6.980   1.864
 2348SOL    HW1 7943   2.548   6.929   1.947
 2348SOL    HW2 7944   2.664   6.974   1.841
 2349SOL     OW 7945   4.944   4.114   6.790
 2349SOL    HW1 7946   4.874   4.185   6.794
 2349SOL    HW2 7947   4.914   4.042   6.727
 2350SOL     OW 7948   2.759   6.411   5.050
 2350SOL    HW1 7949   2.763   6.420   5.150
 2350SOL    HW2 7950   2.678   6.459   5.016
 2351SOL     OW 7951   1.822   5.223   3.140
 2351SOL    HW1 7952   1.811   5.267   3.230
 2351SOL    HW2 7953   1.798   5.289   3.068
 2352SOL     OW 7954   5.916   5.023   0.691
 2352SOL    HW1 7955   5.829   4.986   0.725
 2352SOL    HW2 7956   5.897   5.097   0.626
 2353SOL     OW 7957   2.502   3.676   6.208
 2353SOL    HW1 7958   2.435   3.724   6.264
 2353SOL    HW2 7959   2.514   3.724   6.122
 2354SOL     OW 7960   4.453   1.828   2.440
 2354SOL    HW1 7961   4.431   1.844   2.344
 2354SOL    HW2 7962   4.406   1.897   2.496
 2355SOL     OW 7963   6.996   1.520   1.944
 2355SOL    HW1 7964   6.942   1.603   1.937
 2355SOL    HW2 7965   0.062   1.542   1.975
 2356SOL     OW 7966   2.923   5.430   3.756
 2356SOL    HW1 7967   2.891   5.378   3.835
 2356SOL    HW2 7968   2.847   5.447   3.693
 2357SOL     OW 7969   0.801   4.551   0.525
 2357SOL    HW1 7970   0.864   4.550   0.603
 2357SOL    HW2 7971   0.786   4.646   0.496
 2358SOL     OW 7972   3.179   0.993   4.933
 2358SOL    HW1 7973   3.161   1.091   4.923
 2358SOL    HW2 7974   3.276   0.978   4.950
 2359SOL     OW 7975   1.931   2.197   5.637
 2359SOL    HW1 7976   1.964   2.252   5.560
 2359SOL    HW2 7977   1.877   2.120   5.602
 2360SOL     OW 7978   3.522   5.149   0.645
 2360SOL    HW1 7979   3.423   5.143   0.661
 2360SOL    HW2 7980   3.562   5.058   0.653
 2361SOL     OW 7981   3.631   6.133   1.292
 2361SOL    HW1 7982   3.555   6.146   1.355
 2361SOL    HW2 7983   3.595   6.115   1.200
 2362SOL     OW 7984   3.307   4.999   3.855
 2362SOL    HW1 7985   3.261   5.059   3.790
 2362SOL    HW2 7986   3.247   4.980   3.932
 2363SOL     OW 7987   1.766   3.873   1.161
 2363SOL    HW1 7988   1.792   3.968   1.174
 2363SOL    HW2 7989   1.666   3.866   1.150
 2364SOL     OW 7990   3.897   1.641   2.421
 2364SOL    HW1 7991   3.954   1.655   2.340
 2364SOL    HW2 7992   3.948   1.667   2.503
 2365SOL     OW 7993   5.040   4.331   2.899
 2365SOL    HW1 7994   5.091   4.322   2.984
 2365SOL    HW2 7995   4.947   4.365   2.920
 2366SOL     OW 7996   2.982   4.999   5.266
 2366SOL    HW1 7997   2.930   4.940   5.205
 2366SOL    HW2 7998   3.080   4.978   5.257
 2367SOL     OW 7999   5.594   5.103   5.738
 2367SOL    HW1 8000   5.520   5.051   5.781
 2367SOL    HW2 8001   5.556   5.164   5.669
 2368SOL     OW 8002   4.912   0.728   5.701
 2368SOL    HW1 8003   5.011   0.722   5.693
 2368SOL    HW2 8004   4.876   0.787   5.628
 2369SOL     OW 8005   3.797   2.026   3.987
 2369SOL    HW1 8006   3.714   2.019   4.042
 2369SOL    HW2 8007   3.873   1.983   4.037
 2370SOL     OW 8008   5.304   1.755   1.797
 2370SOL    HW1 8009   5.391   1.722   1.761
 2370SOL    HW2 8010   5.260   1.813   1.728
 2371SOL     OW 8011   1.310   6.440   1.894
 2371SOL    HW1 8012   1.353   6.357   1.858
 2371SOL    HW2 8013   1.382   6.503   1.925
 2372SOL     OW 8014   6.777   0.303   6.155
 2372SOL    HW1 8015   6.743   0.228   6.099
 2372SOL    HW2 8016   6.712   0.323   6.227
 2373SOL     OW 8017   5.777   4.722   6.088
 2373SOL    HW1 8018   5.873   4.748   6.089
 2373SOL    HW2 8019   5.763   4.641   6.145
 2374SOL     OW 8020   6.594   6.490   2.163
 2374SOL    HW1 8021   6.664   6.527   2.224
 2374SOL    HW2 8022   6.636   6.424   2.101
 2375SOL     OW 8023   1.836   0.408   4.402
 2375SOL    HW1 8024   1.822   0.504   4.423
 2375SOL    HW2 8025   1.933   0.392   4.380
 2376SOL     OW 8026   4.998   2.350   3.225
 2376SOL    HW1 8027   5.012   2.446   3.249
 2376SOL    HW2 8028   5.004   2.340   3.125
 2377SOL     OW 8029   4.286   3.708   5.905
 2377SOL    HW1 8030   4.336   3.712   5.819
 2377SOL    HW2 8031   4.214   3.638   5.899
 2378SOL     OW 8032   0.619   1.379   0.234
 2378SOL    HW1 8033   0.604   1.343   0.326
 2378SOL    HW2 8034   0.576   1.319   0.167
 2379SOL     OW 8035   0.458   5.269   2.738
 2379SOL    HW1 8036   0.532   5.213   2.700
 2379SOL    HW2 8037   0.486   5.365   2.738
 2380SOL     OW 8038   4.537   6.124   6.933
 2380SOL    HW1 8039   4.437   6.130   6.925
 2380SOL    HW2 8040   4.580   6.153   6.848
 2381SOL     OW 8041   2.079   3.376   3.992
 2381SOL    HW1 8042   2.085   3.406   3.896
 2381SOL    HW2 8043   2.137   3.296   4.006
 2382SOL     OW 8044   0.123   5.341   3.138
 2382SOL    HW1 8045   0.095   5.437   3.137
 2382SOL    HW2 8046   0.164   5.319   3.226
 2383SOL     OW 8047   4.807   4.008   5.793
 2383SOL    HW1 8048   4.812   3.974   5.699
 2383SOL    HW2 8049   4.774   4.103   5.792
 2384SOL     OW 8050   0.267   2.312   2.481
 2384SOL    HW1 8051   0.234   2.265   2.563
 2384SOL    HW2 8052   0.235   2.407   2.483
 2385SOL     OW 8053   0.207   1.276   0.193
 2385SOL    HW1 8054   0.278   1.207   0.207
 2385SOL    HW2 8055   0.200   1.297   0.096
 2386SOL     OW 8056   5.822   6.070   4.554
 2386SOL    HW1 8057   5.776   6.052   4.467
 2386SOL    HW2 8058   5.882   5.993   4.577
 2387SOL     OW 8059   0.730   1.008   4.158
 2387SOL    HW1 8060   0.671   1.017   4.238
 2387SOL    HW2 8061   0.697   1.068   4.085
 2388SOL     OW 8062   0.449   3.641   5.732
 2388SOL    HW1 8063   0.479   3.675   5.643
 2388SOL    HW2 8064   0.458   3.542   5.735
 2389SOL     OW 8065   4.351   5.314   3.021
 2389SOL    HW1 8066   4.429   5.377   3.031
 2389SOL    HW2 8067   4.385   5.221   3.006
 2390SOL     OW 8068   4.693   2.658   6.851
 2390SOL    HW1 8069   4.702   2.743   6.902
 2390SOL    HW2 8070   4.775   2.602   6.863
 2391SOL     OW 8071   3.462   4.167   6.767
 2391SOL    HW1 8072   3.428   4.261   6.771
 2391SOL    HW2 8073   3.560   4.166   6.788
 2392SOL     OW 8074   4.196   4.880   5.712
 2392SOL    HW1 8075   4.231   4.921   5.627
 2392SOL    HW2 8076   4.098   4.896   5.718
 2393SOL     OW 8077   4.248   4.679   0.483
 2393SOL    HW1 8078   4.160   4.708   0.518
 2393SOL    HW2 8079   4.235   4.626   0.399
 2394SOL     OW 8080   6.482   1.620   3.543
 2394SOL    HW1 8081   6.556   1.561   3.509
 2394SOL    HW2 8082   6.516   1.673   3.621
 2395SOL     OW 8083   1.439   2.717   3.647
 2395SOL    HW1 8084   1.432   2.765   3.560
 2395SOL    HW2 8085   1.530   2.676   3.656
 2396SOL     OW 8086   6.818   0.169   6.801
 2396SOL    HW1 8087   6.851   0.160   6.896
 2396SOL    HW2 8088   6.895   0.156   6.738
 2397SOL     OW 8089   2.008   4.447   5.265
 2397SOL    HW1 8090   2.020   4.352   5.234
 2397SOL    HW2 8091   2.097   4.493   5.266
 2398SOL     OW 8092   4.154   6.721   4.229
 2398SOL    HW1 8093   4.161   6.764   4.139
 2398SOL    HW2 8094   4.209   6.773   4.294
 2399SOL     OW 8095   3.337   1.858   2.638
 2399SOL    HW1 8096   3.394   1.872   2.719
 2399SOL    HW2 8097   3.372   1.782   2.585
 2400SOL     OW 8098   1.881   3.580   0.285
 2400SOL    HW1 8099   1.948   3.642   0.325
 2400SOL    HW2 8100   1.902   3.486   0.312
 2401SOL     OW 8101   1.919   6.420   6.741
 2401SOL    HW1 8102   1.839   6.361   6.729
 2401SOL    HW2 8103   1.975   6.417   6.658
 2402SOL     OW 8104   1.157   3.883   2.446
 2402SOL    HW1 8105   1.252   3.910   2.431
 2402SOL    HW2 8106   1.143   3.790   2.412
 2403SOL     OW 8107   3.075   3.563   5.454
 2403SOL    HW1 8108   3.005   3.552   5.384
 2403SOL    HW2 8109   3.165   3.564   5.411
 2404SOL     OW 8110   6.230   1.389   1.018
 2404SOL    HW1 8111   6.195   1.306   0.974
 2404SOL    HW2 8112   6.312   1.366   1.071
 2405SOL     OW 8113   1.792   3.053   0.947
 2405SOL    HW1 8114   1.731   3.039   0.870
 2405SOL    HW2 8115   1.738   3.067   1.030
 2406SOL     OW 8116   3.882   5.556   4.757
 2406SOL    HW1 8117   3.840   5.471   4.790
 2406SOL    HW2 8118   3.874   5.627   4.827
 2407SOL     OW 8119   2.733   1.884   3.227
 2407SOL    HW1 8120   2.823   1.883   3.185
 2407SOL    HW2 8121   2.693   1.792   3.223
 2408SOL     OW 8122   2.863   0.522   5.649
 2408SOL    HW1 8123   2.866   0.423   5.654
 2408SOL    HW2 8124   2.956   0.559   5.660
 2409SOL     OW 8125   0.522   3.024   0.198
 2409SOL    HW1 8126   0.537   3.044   0.295
 2409SOL    HW2 8127   0.610   3.018   0.151
 2410SOL     OW 8128   0.082   3.284   4.254
 2410SOL    HW1 8129   7.018   3.322   4.242
 2410SOL    HW2 8130   0.115   3.248   4.166
 2411SOL     OW 8131   2.728   1.838   0.335
 2411SOL    HW1 8132   2.653   1.865   0.396
 2411SOL    HW2 8133   2.746   1.740   0.344
 2412SOL     OW 8134   3.411   2.502   5.784
 2412SOL    HW1 8135   3.334   2.555   5.820
 2412SOL    HW2 8136   3.388   2.466   5.694
 2413SOL     OW 8137   0.362   3.285   7.017
 2413SOL    HW1 8138   0.312   3.247   6.940
 2413SOL    HW2 8139   0.458   3.258   7.011
 2414SOL     OW 8140   6.710   0.929   5.361
 2414SOL    HW1 8141   6.714   0.943   5.460
 2414SOL    HW2 8142   6.791   0.877   5.332
 2415SOL     OW 8143   3.120   4.897   6.417
 2415SOL    HW1 8144   3.109   4.844   6.333
 2415SOL    HW2 8145   3.163   4.841   6.487
 2416SOL     OW 8146   6.884   2.425   3.163
 2416SOL    HW1 8147   6.918   2.511   3.200
 2416SOL    HW2 8148   6.788   2.435   3.139
 2417SOL     OW 8149   3.478   2.170   1.086
 2417SOL    HW1 8150   3.459   2.265   1.062
 2417SOL    HW2 8151   3.407   2.136   1.147
 2418SOL     OW 8152   5.069   3.940   6.949
 2418SOL    HW1 8153   5.024   4.018   6.905
 2418SOL    HW2 8154   5.045   3.856   6.900
 2419SOL     OW 8155   2.850   0.988   3.405
 2419SOL    HW1 8156   2.824   0.904   3.358
 2419SOL    HW2 8157   2.774   1.053   3.401
 2420SOL     OW 8158   1.211   3.731   2.720
 2420SOL    HW1 8159   1.144   3.751   2.649
 2420SOL    HW2 8160   1.270   3.656   2.689
 2421SOL     OW 8161   3.131   6.646   3.198
 2421SOL    HW1 8162   3.156   6.693   3.114
 2421SOL    HW2 8163   3.185   6.682   3.274
 2422SOL     OW 8164   4.263   5.063   0.464
 2422SOL    HW1 8165   4.335   5.027   0.523
 2422SOL    HW2 8166   4.293   5.062   0.369
 2423SOL     OW 8167   2.402   5.292   3.628
 2423SOL    HW1 8168   2.389   5.288   3.727
 2423SOL    HW2 8169   2.455   5.213   3.597
 2424SOL     OW 8170   4.904   6.966   6.472
 2424SOL    HW1 8171   4.994   6.942   6.436
 2424SOL    HW2 8172   4.851   7.012   6.400
 2425SOL     OW 8173   4.130   5.578   5.176
 2425SOL    HW1 8174   4.146   5.508   5.107
 2425SOL    HW2 8175   4.043   5.560   5.222
 2426SOL     OW 8176   2.908   2.240   5.208
 2426SOL    HW1 8177   2.978   2.253   5.138
 2426SOL    HW2 8178   2.866   2.327   5.231
 2427SOL     OW 8179   4.400   1.510   0.547
 2427SOL    HW1 8180   4.496   1.484   0.558
 2427SOL    HW2 8181   4.349   1.432   0.512
 2428SOL     OW 8182   1.789   1.619   2.459
 2428SOL    HW1 8183   1.698   1.581   2.440
 2428SOL    HW2 8184   1.808   1.614   2.557
 2429SOL     OW 8185   6.433   5.677   1.041
 2429SOL    HW1 8186   6.340   5.649   1.062
 2429SOL    HW2 8187   6.476   5.716   1.123
 2430SOL     OW 8188   6.211   0.798   6.270
 2430SOL    HW1 8189   6.287   0.735   6.257
 2430SOL    HW2 8190   6.148   0.792   6.192
 2431SOL     OW 8191   0.893   3.433   2.040
 2431SOL    HW1 8192   0.921   3.340   2.016
 2431SOL    HW2 8193   0.894   3.443   2.140
 2432SOL     OW 8194   2.529   5.240   1.782
 2432SOL    HW1 8195   2.522   5.216   1.685
 2432SOL    HW2 8196   2.579   5.169   1.830
 2433SOL     OW 8197   0.380   4.174   5.403
 2433SOL    HW1 8198   0.415   4.137   5.317
 2433SOL    HW2 8199   0.450   4.164   5.474
 2434SOL     OW 8200   4.738   1.275   3.445
 2434SOL    HW1 8201   4.715   1.343   3.376
 2434SOL    HW2 8202   4.741   1.184   3.403
 2435SOL     OW 8203   6.038   6.766   6.494
 2435SOL    HW1 8204   6.066   6.783   6.588
 2435SOL    HW2 8205   6.115   6.729   6.442
 2436SOL     OW 8206   0.073   2.955   0.691
 2436SOL    HW1 8207   0.129   3.003   0.623
 2436SOL    HW2 8208   0.030   2.875   0.648
 2437SOL     OW 8209   0.092   3.683   1.219
 2437SOL    HW1 8210   0.007   3.723   1.255
 2437SOL    HW2 8211   0.137   3.749   1.158
 2438SOL     OW 8212   3.597   1.810   4.513
 2438SOL    HW1 8213   3.557   1.895   4.480
 2438SOL    HW2 8214   3.541   1.733   4.483
 2439SOL     OW 8215   1.141   5.494   1.564
 2439SOL    HW1 8216   1.227   5.471   1.518
 2439SOL    HW2 8217   1.161   5.535   1.653
 2440SOL     OW 8218   6.837   0.492   5.386
 2440SOL    HW1 8219   6.917   0.435   5.404
 2440SOL    HW2 8220   6.836   0.569   5.450
 2441SOL     OW 8221   5.825   0.644   1.026
 2441SOL    HW1 8222   5.780   0.562   0.989
 2441SOL    HW2 8223   5.889   0.680   0.959
 2442SOL     OW 8224   5.590   3.157   1.883
 2442SOL    HW1 8225   5.545   3.215   1.950
 2442SOL    HW2 8226   5.688   3.153   1.903
 2443SOL     OW 8227   0.623   3.301   1.549
 2443SOL    HW1 8228   0.575   3.276   1.633
 2443SOL    HW2 8229   0.559   3.343   1.485
 2444SOL     OW 8230   3.335   5.202   1.957
 2444SOL    HW1 8231   3.365   5.222   2.050
 2444SOL    HW2 8232   3.349   5.104   1.938
 2445SOL     OW 8233   0.428   1.761   1.008
 2445SOL    HW1 8234   0.467   1.669   1.000
 2445SOL    HW2 8235   0.329   1.755   1.007
 2446SOL     OW 8236   0.495   5.351   2.076
 2446SOL    HW1 8237   0.457   5.280   2.135
 2446SOL    HW2 8238   0.490   5.439   2.124
 2447SOL     OW 8239   1.656   0.033   0.671
 2447SOL    HW1 8240   1.639   0.116   0.724
 2447SOL    HW2 8241   1.633   6.980   0.726
 2448SOL     OW 8242   5.724   0.983   4.737
 2448SOL    HW1 8243   5.644   0.960   4.792
 2448SOL    HW2 8244   5.771   0.899   4.709
 2449SOL     OW 8245   1.611   4.434   1.152
 2449SOL    HW1 8246   1.683   4.373   1.184
 2449SOL    HW2 8247   1.651   4.505   1.095
 2450SOL     OW 8248   0.805   6.191   4.765
 2450SOL    HW1 8249   0.830   6.229   4.676
 2450SOL    HW2 8250   0.750   6.257   4.816
 2451SOL     OW 8251   1.845   6.802   5.559
 2451SOL    HW1 8252   1.815   6.895   5.539
 2451SOL    HW2 8253   1.834   6.784   5.657
 2452SOL     OW 8254   2.546   1.887   3.977
 2452SOL    HW1 8255   2.547   1.954   3.903
 2452SOL    HW2 8256   2.539   1.795   3.939
 2453SOL     OW 8257   1.512   1.790   5.789
 2453SOL    HW1 8258   1.511   1.874   5.843
 2453SOL    HW2 8259   1.583   1.728   5.823
 2454SOL     OW 8260   3.186   6.214   1.007
 2454SOL    HW1 8261   3.088   6.214   0.985
 2454SOL    HW2 8262   3.224   6.124   0.990
 2455SOL     OW 8263   4.080   2.343   0.895
 2455SOL    HW1 8264   4.147   2.416   0.908
 2455SOL    HW2 8265   4.127   2.259   0.866
 2456SOL     OW 8266   0.299   3.831   5.846
 2456SOL    HW1 8267   0.326   3.743   5.807
 2456SOL    HW2 8268   0.222   3.868   5.794
 2457SOL     OW 8269   4.104   1.999   5.303
 2457SOL    HW1 8270   4.099   1.975   5.206
 2457SOL    HW2 8271   4.135   2.094   5.312
 2458SOL     OW 8272   0.493   0.010   3.021
 2458SOL    HW1 8273   0.407   0.003   2.971
 2458SOL    HW2 8274   0.568   7.008   2.961
 2459SOL     OW 8275   1.617   6.829   0.854
 2459SOL    HW1 8276   1.553   6.857   0.925
 2459SOL    HW2 8277   1.656   6.740   0.877
 2460SOL     OW 8278   0.501   0.825   4.712
 2460SOL    HW1 8279   0.543   0.902   4.760
 2460SOL    HW2 8280   0.511   0.742   4.767
 2461SOL     OW 8281   4.474   1.311   3.542
 2461SOL    HW1 8282   4.454   1.221   3.581
 2461SOL    HW2 8283   4.565   1.310   3.501
 2462SOL     OW 8284   0.492   5.626   0.516
 2462SOL    HW1 8285   0.580   5.588   0.486
 2462SOL    HW2 8286   0.509   5.694   0.588
 2463SOL     OW 8287   6.324   0.101   0.182
 2463SOL    HW1 8288   6.409   0.152   0.192
 2463SOL    HW2 8289   6.343   0.012   0.141
 2464SOL     OW 8290   0.475   2.235   4.730
 2464SOL    HW1 8291   0.571   2.213   4.745
 2464SOL    HW2 8292   0.468   2.318   4.675
 2465SOL     OW 8293   6.786   6.844   6.087
 2465SOL    HW1 8294   6.867   6.800   6.047
 2465SOL    HW2 8295   6.709   6.781   6.085
 2466SOL     OW 8296   0.895   1.513   1.722
 2466SOL    HW1 8297   0.865   1.560   1.805
 2466SOL    HW2 8298   0.824   1.522   1.651
 2467SOL     OW 8299   5.550   2.810   5.209
 2467SOL    HW1 8300   5.619   2.843   5.274
 2467SOL    HW2 8301   5.588   2.736   5.154
 2468SOL     OW 8302   3.462   6.911   5.268
 2468SOL    HW1 8303   3.467   6.967   5.351
 2468SOL    HW2 8304   3.552   6.872   5.250
 2469SOL     OW 8305   3.715   1.785   5.779
 2469SOL    HW1 8306   3.660   1.861   5.814
 2469SOL    HW2 8307   3.800   1.821   5.741
 2470SOL     OW 8308   2.299   5.230   6.487
 2470SOL    HW1 8309   2.372   5.167   6.464
 2470SOL    HW2 8310   2.289   5.298   6.414
 2471SOL     OW 8311   2.923   5.139   1.775
 2471SOL    HW1 8312   2.991   5.212   1.782
 2471SOL    HW2 8313   2.859   5.146   1.852
 2472SOL     OW 8314   4.755   1.158   3.846
 2472SOL    HW1 8315   4.820   1.097   3.800
 2472SOL    HW2 8316   4.803   1.241   3.876
 2473SOL     OW 8317   0.374   4.202   3.835
 2473SOL    HW1 8318   0.431   4.166   3.908
 2473SOL    HW2 8319   0.428   4.261   3.775
 2474SOL     OW 8320   0.820   6.048   2.030
 2474SOL    HW1 8321   0.734   6.037   2.081
 2474SOL    HW2 8322   0.809   6.010   1.938
 2475SOL     OW 8323   4.655   1.065   0.140
 2475SOL    HW1 8324   4.708   0.989   0.178
 2475SOL    HW2 8325   4.624   1.040   0.048
 2476SOL     OW 8326   4.830   0.742   0.945
 2476SOL    HW1 8327   4.780   0.822   0.912
 2476SOL    HW2 8328   4.908   0.724   0.885
 2477SOL     OW 8329   3.491   0.102   3.493
 2477SOL    HW1 8330   3.532   0.166   3.428
 2477SOL    HW2 8331   3.392   0.113   3.493
 2478SOL     OW 8332   4.666   0.414   4.870
 2478SOL    HW1 8333   4.713   0.388   4.785
 2478SOL    HW2 8334   4.642   0.331   4.920
 2479SOL     OW 8335   5.867   3.136   1.156
 2479SOL    HW1 8336   5.869   3.179   1.246
 2479SOL    HW2 8337   5.865   3.036   1.167
 2480SOL     OW 8338   3.705   2.239   1.351
 2480SOL    HW1 8339   3.680   2.142   1.347
 2480SOL    HW2 8340   3.772   2.259   1.279
 2481SOL     OW 8341   3.123   6.897   1.838
 2481SOL    HW1 8342   3.098   6.852   1.752
 2481SOL    HW2 8343   3.216   6.870   1.863
 2482SOL     OW 8344   6.255   3.344   6.860
 2482SOL    HW1 8345   6.290   3.417   6.801
 2482SOL    HW2 8346   6.331   3.303   6.911
 2483SOL     OW 8347   1.267   2.730   0.988
 2483SOL    HW1 8348   1.214   2.651   0.957
 2483SOL    HW2 8349   1.352   2.735   0.936
 2484SOL     OW 8350   4.188   1.021   0.091
 2484SOL    HW1 8351   4.249   1.087   0.046
 2484SOL    HW2 8352   4.115   1.071   0.138
 2485SOL     OW 8353   0.340   1.983   6.650
 2485SOL    HW1 8354   0.352   1.976   6.551
 2485SOL    HW2 8355   0.269   2.051   6.670
 2486SOL     OW 8356   6.980   5.736   4.155
 2486SOL    HW1 8357   0.052   5.719   4.155
 2486SOL    HW2 8358   6.954   5.778   4.068
 2487SOL     OW 8359   4.933   6.217   6.633
 2487SOL    HW1 8360   4.974   6.305   6.610
 2487SOL    HW2 8361   4.969   6.185   6.720
 2488SOL     OW 8362   6.271   4.057   0.869
 2488SOL    HW1 8363   6.212   4.047   0.949
 2488SOL    HW2 8364   6.219   4.100   0.795
 2489SOL     OW 8365   6.428   5.307   4.398
 2489SOL    HW1 8366   6.332   5.335   4.395
 2489SOL    HW2 8367   6.483   5.369   4.343
 2490SOL     OW 8368   2.733   5.629   3.406
 2490SOL    HW1 8369   2.832   5.618   3.395
 2490SOL    HW2 8370   2.687   5.581   3.331
 2491SOL     OW 8371   3.845   4.539   1.697
 2491SOL    HW1 8372   3.755   4.495   1.692
 2491SOL    HW2 8373   3.905   4.500   1.627
 2492SOL     OW 8374   6.713   5.240   1.478
 2492SOL    HW1 8375   6.660   5.193   1.549
 2492SOL    HW2 8376   6.809   5.214   1.486
 2493SOL     OW 8377   5.335   6.743   0.819
 2493SOL    HW1 8378   5.279   6.659   0.815
 2493SOL    HW2 8379   5.333   6.788   0.730
 2494SOL     OW 8380   6.614   4.084   1.761
 2494SOL    HW1 8381   6.685   4.018   1.786
 2494SOL    HW2 8382   6.524   4.046   1.783
 2495SOL     OW 8383   0.465   4.606   2.771
 2495SOL    HW1 8384   0.523   4.535   2.810
 2495SOL    HW2 8385   0.441   4.672   2.843
 2496SOL     OW 8386   5.815   4.911   6.435
 2496SOL    HW1 8387   5.847   4.880   6.524
 2496SOL    HW2 8388   5.827   5.010   6.428
 2497SOL     OW 8389   0.195   6.911   2.342
 2497SOL    HW1 8390   0.223   7.004   2.368
 2497SOL    HW2 8391   0.270   6.865   2.295
 2498SOL     OW 8392   2.010   3.545   5.608
 2498SOL    HW1 8393   1.930   3.580   5.657
 2498SOL    HW2 8394   1.982   3.512   5.518
 2499SOL     OW 8395   6.716   3.762   1.832
 2499SOL    HW1 8396   6.708   3.692   1.902
 2499SOL    HW2 8397   6.778   3.730   1.760
 2500SOL     OW 8398   3.627   3.251   1.134
 2500SOL    HW1 8399   3.530   3.242   1.113
 2500SOL    HW2 8400   3.670   3.160   1.133
 2501SOL     OW 8401   5.680   5.403   6.496
 2501SOL    HW1 8402   5.582   5.420   6.483
 2501SOL    HW2 8403   5.732   5.465   6.438
 2502SOL     OW 8404   2.515   6.136   4.585
 2502SOL    HW1 8405   2.491   6.048   4.543
 2502SOL    HW2 8406   2.432   6.188   4.602
 2503SOL     OW 8407   3.081   6.735   5.525
 2503SOL    HW1 8408   3.135   6.793   5.586
 2503SOL    HW2 8409   3.066   6.782   5.439
 2504SOL     OW 8410   3.482   6.869   3.572
 2504SOL    HW1 8411   3.421   6.869   3.651
 2504SOL    HW2 8412   3.486   6.961   3.533
 2505SOL     OW 8413   0.193   4.835   4.000
 2505SOL    HW1 8414   0.130   4.763   4.027
 2505SOL    HW2 8415   0.276   4.794   3.961
 2506SOL     OW 8416   5.122   5.473   5.708
 2506SOL    HW1 8417   5.211   5.449   5.745
 2506SOL    HW2 8418   5.051   5.422   5.757
 2507SOL     OW 8419   6.656   3.132   1.460
 2507SOL    HW1 8420   6.702   3.165   1.378
 2507SOL    HW2 8421   6.569   3.089   1.435
 2508SOL     OW 8422   5.185   1.958   4.539
 2508SOL    HW1 8423   5.218   1.951   4.445
 2508SOL    HW2 8424   5.110   1.893   4.552
 2509SOL     OW 8425   6.994   4.228   5.704
 2509SOL    HW1 8426   6.983   4.254   5.608
 2509SOL    HW2 8427   6.995   4.310   5.761
 2510SOL     OW 8428   3.284   3.916   1.877
 2510SOL    HW1 8429   3.365   3.873   1.917
 2510SOL    HW2 8430   3.308   3.960   1.791
 2511SOL     OW 8431   2.114   0.557   4.634
 2511SOL    HW1 8432   2.123   0.502   4.550
 2511SOL    HW2 8433   2.030   0.610   4.630
 2512SOL     OW 8434   3.450   4.959   4.088
 2512SOL    HW1 8435   3.419   4.991   3.999
 2512SOL    HW2 8436   3.380   4.901   4.129
 2513SOL     OW 8437   2.501   5.373   6.040
 2513SOL    HW1 8438   2.534   5.420   6.121
 2513SOL    HW2 8439   2.433   5.304   6.066
 2514SOL     OW 8440   1.306   2.081   2.495
 2514SOL    HW1 8441   1.349   2.152   2.551
 2514SOL    HW2 8442   1.255   2.124   2.420
 2515SOL     OW 8443   1.384   1.288   1.255
 2515SOL    HW1 8444   1.360   1.354   1.184
 2515SOL    HW2 8445   1.475   1.251   1.237
 2516SOL     OW 8446   6.316   1.929   4.541
 2516SOL    HW1 8447   6.354   1.969   4.625
 2516SOL    HW2 8448   6.217   1.924   4.549
 2517SOL     OW 8449   1.464   1.546   4.200
 2517SOL    HW1 8450   1.368   1.520   4.193
 2517SOL    HW2 8451   1.497   1.526   4.292
 2518SOL     OW 8452   2.843   4.851   1.030
 2518SOL    HW1 8453   2.752   4.820   1.057
 2518SOL    HW2 8454   2.872   4.925   1.090
 2519SOL     OW 8455   1.163   1.228   1.083
 2519SOL    HW1 8456   1.224   1.201   1.158
 2519SOL    HW2 8457   1.103   1.302   1.115
 2520SOL     OW 8458   2.496   2.165   0.666
 2520SOL    HW1 8459   2.493   2.230   0.590
 2520SOL    HW2 8460   2.453   2.205   0.747
 2521SOL     OW 8461   4.846   1.301   5.315
 2521SOL    HW1 8462   4.861   1.214   5.268
 2521SOL    HW2 8463   4.881   1.294   5.409
 2522SOL     OW 8464   0.826   2.635   6.268
 2522SOL    HW1 8465   0.749   2.684   6.227
 2522SOL    HW2 8466   0.795   2.547   6.304
 2523SOL     OW 8467   1.794   5.059   6.701
 2523SOL    HW1 8468   1.768   5.005   6.621
 2523SOL    HW2 8469   1.893   5.055   6.714
 2524SOL     OW 8470   1.278   0.329   4.425
 2524SOL    HW1 8471   1.314   0.362   4.338
 2524SOL    HW2 8472   1.187   0.369   4.440
 2525SOL     OW 8473   6.636   2.773   5.338
 2525SOL    HW1 8474   6.727   2.745   5.310
 2525SOL    HW2 8475   6.572   2.697   5.326
 2526SOL     OW 8476   1.231   6.688   1.130
 2526SOL    HW1 8477   1.144   6.701   1.081
 2526SOL    HW2 8478   1.272   6.602   1.103
 2527SOL     OW 8479   4.895   4.937   5.946
 2527SOL    HW1 8480   4.812   4.920   5.893
 2527SOL    HW2 8481   4.870   4.972   6.037
 2528SOL     OW 8482   4.448   5.825   6.652
 2528SOL    HW1 8483   4.539   5.850   6.620
 2528SOL    HW2 8484   4.451   5.805   6.750
 2529SOL     OW 8485   0.614   6.958   6.752
 2529SOL    HW1 8486   0.672   6.929   6.676
 2529SOL    HW2 8487   0.523   6.918   6.742
 2530SOL     OW 8488   2.128   5.893   6.166
 2530SOL    HW1 8489   2.195   5.962   6.139
 2530SOL    HW2 8490   2.172   5.826   6.225
 2531SOL     OW 8491   6.762   5.407   5.914
 2531SOL    HW1 8492   6.736   5.412   5.817
 2531SOL    HW2 8493   6.846   5.460   5.928
 2532SOL     OW 8494   5.585   6.386   0.854
 2532SOL    HW1 8495   5.605   6.396   0.952
 2532SOL    HW2 8496   5.605   6.292   0.827
 2533SOL     OW 8497   4.953   0.965   3.800
 2533SOL    HW1 8498   5.028   1.031   3.811
 2533SOL    HW2 8499   4.937   0.920   3.888
 2534SOL     OW 8500   3.802   1.403   2.859
 2534SOL    HW1 8501   3.820   1.383   2.956
 2534SOL    HW2 8502   3.871   1.358   2.802
 2535SOL     OW 8503   3.875   2.894   6.370
 2535SOL    HW1 8504   3.884   2.821   6.438
 2535SOL    HW2 8505   3.921   2.976   6.403
 2536SOL     OW 8506   1.309   0.755   0.402
 2536SOL    HW1 8507   1.374   0.826   0.430
 2536SOL    HW2 8508   1.265   0.783   0.317
 2537SOL     OW 8509   3.776   6.865   6.489
 2537SOL    HW1 8510   3.868   6.832   6.510
 2537SOL    HW2 8511   3.770   6.963   6.506
 2538SOL     OW 8512   6.688   3.439   3.804
 2538SOL    HW1 8513   6.660   3.457   3.898
 2538SOL    HW2 8514   6.629   3.490   3.742
 2539SOL     OW 8515   5.268   2.388   5.520
 2539SOL    HW1 8516   5.273   2.343   5.431
 2539SOL    HW2 8517   5.250   2.486   5.507
 2540SOL     OW 8518   3.073   1.641   2.080
 2540SOL    HW1 8519   3.099   1.680   1.992
 2540SOL    HW2 8520   3.112   1.696   2.154
 2541SOL     OW 8521   3.488   6.474   4.479
 2541SOL    HW1 8522   3.503   6.386   4.524
 2541SOL    HW2 8523   3.536   6.476   4.392
 2542SOL     OW 8524   1.744   4.883   6.238
 2542SOL    HW1 8525   1.672   4.882   6.170
 2542SOL    HW2 8526   1.812   4.953   6.215
 2543SOL     OW 8527   1.590   1.123   3.683
 2543SOL    HW1 8528   1.637   1.138   3.770
 2543SOL    HW2 8529   1.561   1.028   3.677
 2544SOL     OW 8530   1.216   5.047   0.058
 2544SOL    HW1 8531   1.157   5.125   0.079
 2544SOL    HW2 8532   1.233   4.995   0.141
 2545SOL     OW 8533   2.820   5.929   2.774
 2545SOL    HW1 8534   2.866   5.989   2.839
 2545SOL    HW2 8535   2.805   5.978   2.688
 2546SOL     OW 8536   6.799   1.393   1.050
 2546SOL    HW1 8537   6.865   1.455   1.093
 2546SOL    HW2 8538   6.811   1.397   0.951
 2547SOL     OW 8539   0.730   3.533   4.939
 2547SOL    HW1 8540   0.731   3.549   5.038
 2547SOL    HW2 8541   0.820   3.552   4.901
 2548SOL     OW 8542   0.619   0.049   4.218
 2548SOL    HW1 8543   0.571   0.075   4.134
 2548SOL    HW2 8544   0.666   0.129   4.256
 2549SOL     OW 8545   6.578   2.564   1.160
 2549SOL    HW1 8546   6.542   2.499   1.226
 2549SOL    HW2 8547   6.678   2.568   1.167
 2550SOL     OW 8548   6.198   6.103   0.222
 2550SOL    HW1 8549   6.204   6.079   0.319
 2550SOL    HW2 8550   6.290   6.103   0.182
 2551SOL     OW 8551   1.209   4.053   6.671
 2551SOL    HW1 8552   1.284   4.114   6.645
 2551SOL    HW2 8553   1.244   3.979   6.728
 2552SOL     OW 8554   1.786   5.934   3.572
 2552SOL    HW1 8555   1.755   5.859   3.514
 2552SOL    HW2 8556   1.851   5.898   3.640
 2553SOL     OW 8557   3.909   3.551   6.851
 2553SOL    HW1 8558   3.938   3.517   6.940
 2553SOL    HW2 8559   3.983   3.606   6.811
 2554SOL     OW 8560   1.485   1.384   6.866
 2554SOL    HW1 8561   1.504   1.321   6.791
 2554SOL    HW2 8562   1.391   1.417   6.860
 2555SOL     OW 8563   6.370   0.951   0.124
 2555SOL    HW1 8564   6.324   0.869   0.155
 2555SOL    HW2 8565   6.306   1.028   0.124
 2556SOL     OW 8566   2.657   5.831   0.805
 2556SOL    HW1 8567   2.638   5.742   0.763
 2556SOL    HW2 8568   2.756   5.841   0.817
 2557SOL     OW 8569   2.192   4.027   0.069
 2557SOL    HW1 8570   2.116   4.017   0.006
 2557SOL    HW2 8571   2.194   4.121   0.105
 2558SOL     OW 8572   4.148   0.359   5.592
 2558SOL    HW1 8573   4.178   0.448   5.561
 2558SOL    HW2 8574   4.104   0.368   5.682
 2559SOL     OW 8575   6.986   4.982   5.032
 2559SOL    HW1 8576   6.916   5.051   5.013
 2559SOL    HW2 8577   0.049   5.017   5.005
 2560SOL     OW 8578   6.159   1.587   0.102
 2560SOL    HW1 8579   6.167   1.656   0.031
 2560SOL    HW2 8580   6.069   1.594   0.145
 2561SOL     OW 8581   3.611   5.315   4.582
 2561SOL    HW1 8582   3.567   5.271   4.504
 2561SOL    HW2 8583   3.697   5.358   4.552
 2562SOL     OW 8584   2.004   4.122   6.722
 2562SOL    HW1 8585   1.981   4.045   6.783
 2562SOL    HW2 8586   1.922   4.150   6.672
 2563SOL     OW 8587   2.298   1.292   0.209
 2563SOL    HW1 8588   2.315   1.194   0.216
 2563SOL    HW2 8589   2.375   1.343   0.248
 2564SOL     OW 8590   1.525   5.866   1.151
 2564SOL    HW1 8591   1.486   5.893   1.239
 2564SOL    HW2 8592   1.494   5.774   1.127
 2565SOL     OW 8593   1.974   0.513   1.385
 2565SOL    HW1 8594   1.957   0.415   1.374
 2565SOL    HW2 8595   1.927   0.546   1.467
 2566SOL     OW 8596   1.465   6.477   6.324
 2566SOL    HW1 8597   1.373   6.508   6.300
 2566SOL    HW2 8598   1.521   6.471   6.242
 2567SOL     OW 8599   1.203   6.143   0.170
 2567SOL    HW1 8600   1.290   6.115   0.129
 2567SOL    HW2 8601   1.214   6.151   0.269
 2568SOL     OW 8602   4.536   2.868   0.144
 2568SOL    HW1 8603   4.475   2.917   0.207
 2568SOL    HW2 8604   4.613   2.927   0.120
 2569SOL     OW 8605   2.542   0.549   3.093
 2569SOL    HW1 8606   2.482   0.607   3.038
 2569SOL    HW2 8607   2.569   0.469   3.040
 2570SOL     OW 8608   5.251   2.266   6.138
 2570SOL    HW1 8609   5.305   2.341   6.177
 2570SOL    HW2 8610   5.312   2.194   6.107
 2571SOL     OW 8611   1.166   4.058   4.484
 2571SOL    HW1 8612   1.169   3.978   4.544
 2571SOL    HW2 8613   1.073   4.069   4.448
 2572SOL     OW 8614   1.695   4.755   3.477
 2572SOL    HW1 8615   1.771   4.696   3.449
 2572SOL    HW2 8616   1.678   4.742   3.575
 2573SOL     OW 8617   1.265   0.399   0.913
 2573SOL    HW1 8618   1.289   0.423   0.818
 2573SOL    HW2 8619   1.345   0.414   0.972
 2574SOL     OW 8620   6.120   3.046   0.350
 2574SOL    HW1 8621   6.165   3.087   0.429
 2574SOL    HW2 8622   6.173   3.064   0.267
 2575SOL     OW 8623   0.793   5.364   6.412
 2575SOL    HW1 8624   0.887   5.368   6.447
 2575SOL    HW2 8625   0.733   5.419   6.470
 2576SOL     OW 8626   4.406   6.064   3.746
 2576SOL    HW1 8627   4.394   5.966   3.766
 2576SOL    HW2 8628   4.494   6.078   3.702
 2577SOL     OW 8629   2.117   4.183   2.306
 2577SOL    HW1 8630   2.086   4.218   2.217
 2577SOL    HW2 8631   2.153   4.259   2.360
 2578SOL     OW 8632   4.089   1.963   3.533
 2578SOL    HW1 8633   4.141   1.878   3.534
 2578SOL    HW2 8634   4.019   1.961   3.604
 2579SOL     OW 8635   0.999   6.666   3.713
 2579SOL    HW1 8636   0.958   6.615   3.789
 2579SOL    HW2 8637   0.981   6.764   3.725
 2580SOL     OW 8638   1.555   2.096   6.629
 2580SOL    HW1 8639   1.566   1.997   6.621
 2580SOL    HW2 8640   1.525   2.134   6.541
 2581SOL     OW 8641   3.506   0.719   5.112
 2581SOL    HW1 8642   3.426   0.730   5.171
 2581SOL    HW2 8643   3.483   0.746   5.019
 2582SOL     OW 8644   0.112   3.139   1.798
 2582SOL    HW1 8645   0.141   3.060   1.742
 2582SOL    HW2 8646   0.031   3.113   1.851
 2583SOL     OW 8647   5.806   0.191   0.685
 2583SOL    HW1 8648   5.800   0.291   0.682
 2583SOL    HW2 8649   5.873   0.160   0.618
 2584SOL     OW 8650   4.567   4.520   6.131
 2584SOL    HW1 8651   4.493   4.576   6.170
 2584SOL    HW2 8652   4.552   4.508   6.033
 2585SOL     OW 8653   3.363   4.681   6.270
 2585SOL    HW1 8654   3.401   4.655   6.359
 2585SOL    HW2 8655   3.437   4.697   6.205
 2586SOL     OW 8656   2.501   0.927   3.787
 2586SOL    HW1 8657   2.541   0.838   3.764
 2586SOL    HW2 8658   2.449   0.962   3.709
 2587SOL     OW 8659   6.843   1.373   3.945
 2587SOL    HW1 8660   6.755   1.341   3.908
 2587SOL    HW2 8661   6.898   1.411   3.870
 2588SOL     OW 8662   4.676   0.705   6.185
 2588SOL    HW1 8663   4.646   0.800   6.187
 2588SOL    HW2 8664   4.759   0.695   6.239
 2589SOL     OW 8665   2.109   6.464   0.176
 2589SOL    HW1 8666   2.055   6.451   0.258
 2589SOL    HW2 8667   2.118   6.377   0.127
 2590SOL     OW 8668   2.529   5.136   0.247
 2590SOL    HW1 8669   2.621   5.133   0.286
 2590SOL    HW2 8670   2.493   5.229   0.254
 2591SOL     OW 8671   6.136   5.642   3.739
 2591SOL    HW1 8672   6.201   5.623   3.813
 2591SOL    HW2 8673   6.179   5.702   3.671
 2592SOL     OW 8674   2.427   3.902   1.098
 2592SOL    HW1 8675   2.364   3.979   1.085
 2592SOL    HW2 8676   2.520   3.931   1.075
 2593SOL     OW 8677   3.296   4.084   0.660
 2593SOL    HW1 8678   3.252   4.041   0.581
 2593SOL    HW2 8679   3.370   4.025   0.693
 2594SOL     OW 8680   1.678   3.437   4.493
 2594SOL    HW1 8681   1.703   3.383   4.573
 2594SOL    HW2 8682   1.617   3.384   4.434
 2595SOL     OW 8683   1.946   1.561   2.709
 2595SOL    HW1 8684   1.939   1.483   2.771
 2595SOL    HW2 8685   2.036   1.563   2.667
 2596SOL     OW 8686   1.314   2.111   0.011
 2596SOL    HW1 8687   1.345   2.138   6.947
 2596SOL    HW2 8688   1.392   2.080   0.065
 2597SOL     OW 8689   6.797   6.210   6.584
 2597SOL    HW1 8690   6.762   6.215   6.490
 2597SOL    HW2 8691   6.753   6.281   6.639
 2598SOL     OW 8692   5.712   2.478   2.652
 2598SOL    HW1 8693   5.630   2.535   2.649
 2598SOL    HW2 8694   5.788   2.527   2.610
 2599SOL     OW 8695   2.997   5.666   1.442
 2599SOL    HW1 8696   2.924   5.645   1.507
 2599SOL    HW2 8697   3.044   5.581   1.418
 2600SOL     OW 8698   6.006   4.163   4.432
 2600SOL    HW1 8699   5.937   4.234   4.444
 2600SOL    HW2 8700   6.095   4.206   4.418
 2601SOL     OW 8701   6.857   1.704   3.900
 2601SOL    HW1 8702   6.890   1.794   3.928
 2601SOL    HW2 8703   6.829   1.652   3.981
 2602SOL     OW 8704   1.293   4.306   3.405
 2602SOL    HW1 8705   1.382   4.261   3.394
 2602SOL    HW2 8706   1.222   4.250   3.363
 2603SOL     OW 8707   2.938   6.321   2.860
 2603SOL    HW1 8708   2.869   6.249   2.868
 2603SOL    HW2 8709   2.968   6.350   2.951
 2604SOL     OW 8710   4.764   2.677   3.560
 2604SOL    HW1 8711   4.779   2.608   3.631
 2604SOL    HW2 8712   4.686   2.734   3.585
 2605SOL     OW 8713   1.751   3.903   1.878
 2605SOL    HW1 8714   1.829   3.848   1.848
 2605SOL    HW2 8715   1.755   3.916   1.977
 2606SOL     OW 8716   4.498   3.548   1.159
 2606SOL    HW1 8717   4.465   3.456   1.180
 2606SOL    HW2 8718   4.570   3.573   1.224
 2607SOL     OW 8719   2.762   2.282   1.594
 2607SOL    HW1 8720   2.839   2.282   1.659
 2607SOL    HW2 8721   2.785   2.340   1.516
 2608SOL     OW 8722   2.782   5.007   5.918
 2608SOL    HW1 8723   2.742   4.921   5.886
 2608SOL    HW2 8724   2.738   5.034   6.004
 2609SOL     OW 8725   0.103   2.489   0.965
 2609SOL    HW1 8726   0.134   2.398   0.992
 2609SOL    HW2 8727   0.104   2.496   0.865
 2610SOL     OW 8728   1.663   4.107   5.021
 2610SOL    HW1 8729   1.616   4.102   5.109
 2610SOL    HW2 8730   1.606   4.065   4.950
 2611SOL     OW 8731   5.064   0.226   6.911
 2611SOL    HW1 8732   5.047   0.131   6.887
 2611SOL    HW2 8733   5.053   0.238   7.010
 2612SOL     OW 8734   6.445   0.213   6.008
 2612SOL    HW1 8735   6.532   0.165   6.001
 2612SOL    HW2 8736   6.411   0.232   5.916
 2613SOL     OW 8737   0.890   6.695   6.991
 2613SOL    HW1 8738   0.825   6.680   6.917
 2613SOL    HW2 8739   0.856   6.766   0.026
 2614SOL     OW 8740   6.363   1.474   6.653
 2614SOL    HW1 8741   6.283   1.465   6.593
 2614SOL    HW2 8742   6.335   1.510   6.741
 2615SOL     OW 8743   0.537   3.024   6.915
 2615SOL    HW1 8744   0.462   3.033   6.980
 2615SOL    HW2 8745   0.619   2.992   6.964
 2616SOL     OW 8746   1.159   1.151   5.113
 2616SOL    HW1 8747   1.079   1.123   5.166
 2616SOL    HW2 8748   1.212   1.218   5.167
 2617SOL     OW 8749   4.908   0.146   1.484
 2617SOL    HW1 8750   4.881   0.093   1.564
 2617SOL    HW2 8751   4.862   0.235   1.486
 2618SOL     OW 8752   0.980   6.407   5.952
 2618SOL    HW1 8753   0.958   6.331   5.890
 2618SOL    HW2 8754   1.023   6.481   5.900
 2619SOL     OW 8755   5.383   1.212   2.719
 2619SOL    HW1 8756   5.329   1.256   2.791
 2619SOL    HW2 8757   5.449   1.149   2.760
 2620SOL     OW 8758   6.014   1.446   1.375
 2620SOL    HW1 8759   5.975   1.380   1.439
 2620SOL    HW2 8760   6.100   1.411   1.339
 2621SOL     OW 8761   1.691   6.118   1.510
 2621SOL    HW1 8762   1.709   6.021   1.526
 2621SOL    HW2 8763   1.685   6.165   1.598
 2622SOL     OW 8764   3.176   3.408   6.615
 2622SOL    HW1 8765   3.078   3.396   6.597
 2622SOL    HW2 8766   3.209   3.332   6.670
 2623SOL     OW 8767   0.180   6.196   3.182
 2623SOL    HW1 8768   0.244   6.159   3.114
 2623SOL    HW2 8769   0.116   6.124   3.210
 2624SOL     OW 8770   0.170   1.602   4.956
 2624SOL    HW1 8771   0.180   1.585   4.858
 2624SOL    HW2 8772   0.176   1.516   5.006
 2625SOL     OW 8773   2.398   4.923   6.451
 2625SOL    HW1 8774   2.450   5.001   6.488
 2625SOL    HW2 8775   2.431   4.901   6.360
 2626SOL     OW 8776   6.859   5.932   6.597
 2626SOL    HW1 8777   6.874   6.030   6.609
 2626SOL    HW2 8778   6.918   5.881   6.659
 2627SOL     OW 8779   1.932   0.192   6.268
 2627SOL    HW1 8780   1.886   0.134   6.335
 2627SOL    HW2 8781   1.873   0.269   6.244
 2628SOL     OW 8782   0.053   4.575   1.394
 2628SOL    HW1 8783   0.129   4.541   1.339
 2628SOL    HW2 8784   0.082   4.580   1.490
 2629SOL     OW 8785   3.341   4.135   2.506
 2629SOL    HW1 8786   3.304   4.074   2.436
 2629SOL    HW2 8787   3.403   4.084   2.565
 2630SOL     OW 8788   3.528   0.852   4.273
 2630SOL    HW1 8789   3.607   0.822   4.220
 2630SOL    HW2 8790   3.484   0.772   4.315
 2631SOL     OW 8791   5.296   0.234   0.061
 2631SOL    HW1 8792   5.307   0.228   6.989
 2631SOL    HW2 8793   5.378   0.275   0.102
 2632SOL     OW 8794   5.855   5.013   2.082
 2632SOL    HW1 8795   5.858   4.965   1.994
 2632SOL    HW2 8796   5.863   4.946   2.156
 2633SOL     OW 8797   0.118   3.228   5.986
 2633SOL    HW1 8798   0.105   3.129   5.986
 2633SOL    HW2 8799   0.209   3.250   5.949
 2634SOL     OW 8800   0.537   0.803   5.853
 2634SOL    HW1 8801   0.540   0.854   5.939
 2634SOL    HW2 8802   0.609   0.836   5.792
 2635SOL     OW 8803   4.490   5.431   3.380
 2635SOL    HW1 8804   4.450   5.345   3.412
 2635SOL    HW2 8805   4.436   5.508   3.413
 2636SOL     OW 8806   3.753   6.160   5.713
 2636SOL    HW1 8807   3.796   6.250   5.720
 2636SOL    HW2 8808   3.657   6.171   5.686
 2637SOL     OW 8809   0.832   0.819   3.266
 2637SOL    HW1 8810   0.908   0.832   3.330
 2637SOL    HW2 8811   0.761   0.887   3.284
 2638SOL     OW 8812   0.899   6.299   4.542
 2638SOL    HW1 8813   0.972   6.366   4.527
 2638SOL    HW2 8814   0.916   6.218   4.485
 2639SOL     OW 8815   4.242   4.795   4.954
 2639SOL    HW1 8816   4.267   4.699   4.968
 2639SOL    HW2 8817   4.183   4.803   4.874
 2640SOL     OW 8818   2.153   0.677   3.736
 2640SOL    HW1 8819   2.138   0.761   3.683
 2640SOL    HW2 8820   2.077   0.662   3.798
 2641SOL     OW 8821   6.073   2.179   6.794
 2641SOL    HW1 8822   6.007   2.216   6.728
 2641SOL    HW2 8823   6.104   2.251   6.855
 2642SOL     OW 8824   6.189   0.443   3.520
 2642SOL    HW1 8825   6.272   0.388   3.515
 2642SOL    HW2 8826   6.132   0.411   3.596
 2643SOL     OW 8827   2.326   4.713   4.062
 2643SOL    HW1 8828   2.255   4.644   4.050
 2643SOL    HW2 8829   2.299   4.797   4.015
 2644SOL     OW 8830   5.372   5.469   4.681
 2644SOL    HW1 8831   5.360   5.374   4.711
 2644SOL    HW2 8832   5.398   5.470   4.585
 2645SOL     OW 8833   4.676   5.795   3.301
 2645SOL    HW1 8834   4.641   5.707   3.271
 2645SOL    HW2 8835   4.710   5.847   3.223
 2646SOL     OW 8836   1.089   2.855   6.265
 2646SOL    HW1 8837   1.172   2.906   6.244
 2646SOL    HW2 8838   1.009   2.914   6.255
 2647SOL     OW 8839   4.866   0.144   2.563
 2647SOL    HW1 8840   4.860   0.240   2.535
 2647SOL    HW2 8841   4.777   0.113   2.596
 2648SOL     OW 8842   0.772   6.601   6.401
 2648SOL    HW1 8843   0.808   6.537   6.469
 2648SOL    HW2 8844   0.762   6.692   6.442
 2649SOL     OW 8845   5.190   1.515   3.341
 2649SOL    HW1 8846   5.108   1.472   3.379
 2649SOL    HW2 8847   5.195   1.610   3.370
 2650SOL     OW 8848   3.101   6.668   4.015
 2650SOL    HW1 8849   3.178   6.623   3.970
 2650SOL    HW2 8850   3.130   6.703   4.104
 2651SOL     OW 8851   4.499   2.510   4.025
 2651SOL    HW1 8852   4.514   2.540   4.119
 2651SOL    HW2 8853   4.427   2.441   4.023
 2652SOL     OW 8854   4.846   4.294   5.292
 2652SOL    HW1 8855   4.921   4.253   5.344
 2652SOL    HW2 8856   4.853   4.394   5.298
 2653SOL     OW 8857   2.199   5.980   6.585
 2653SOL    HW1 8858   2.285   6.023   6.556
 2653SOL    HW2 8859   2.123   6.021   6.536
 2654SOL     OW 8860   0.102   0.978   0.290
 2654SOL    HW1 8861   0.121   0.903   0.354
 2654SOL    HW2 8862   0.009   1.011   0.304
 2655SOL     OW 8863   5.680   6.539   2.866
 2655SOL    HW1 8864   5.713   6.523   2.772
 2655SOL    HW2 8865   5.717   6.625   2.900
 2656SOL     OW 8866   4.273   6.138   3.284
 2656SOL    HW1 8867   4.369   6.164   3.296
 2656SOL    HW2 8868   4.237   6.104   3.371
 2657SOL     OW 8869   0.791   3.404   6.801
 2657SOL    HW1 8870   0.787   3.502   6.822
 2657SOL    HW2 8871   0.763   3.390   6.706
 2658SOL     OW 8872   3.735   5.045   0.918
 2658SOL    HW1 8873   3.748   5.144   0.912
 2658SOL    HW2 8874   3.748   5.005   0.827
 2659SOL     OW 8875   6.975   2.277   5.140
 2659SOL    HW1 8876   0.005   2.343   5.092
 2659SOL    HW2 8877   6.923   2.223   5.074
 2660SOL     OW 8878   0.187   1.506   1.735
 2660SOL    HW1 8879   0.107   1.450   1.714
 2660SOL    HW2 8880   0.202   1.509   1.833
 2661SOL     OW 8881   1.541   0.998   0.918
 2661SOL    HW1 8882   1.636   1.032   0.918
 2661SOL    HW2 8883   1.479   1.073   0.896
 2662SOL     OW 8884   2.684   1.803   2.256
 2662SOL    HW1 8885   2.740   1.730   2.296
 2662SOL    HW2 8886   2.595   1.804   2.300
 2663SOL     OW 8887   3.880   6.913   0.196
 2663SOL    HW1 8888   3.793   6.894   0.151
 2663SOL    HW2 8889   3.918   6.828   0.232
 2664SOL     OW 8890   5.164   3.604   5.316
 2664SOL    HW1 8891   5.116   3.685   5.349
 2664SOL    HW2 8892   5.239   3.582   5.378
 2665SOL     OW 8893   1.830   2.971   4.203
 2665SOL    HW1 8894   1.871   2.895   4.254
 2665SOL    HW2 8895   1.859   3.058   4.244
 2666SOL     OW 8896   1.798   4.105   1.654
 2666SOL    HW1 8897   1.845   4.190   1.678
 2666SOL    HW2 8898   1.820   4.035   1.722
 2667SOL     OW 8899   6.914   2.640   5.303
 2667SOL    HW1 8900   6.930   2.542   5.292
 2667SOL    HW2 8901   6.980   2.678   5.367
 2668SOL     OW 8902   6.311   0.837   3.111
 2668SOL    HW1 8903   6.263   0.782   3.179
 2668SOL    HW2 8904   6.263   0.924   3.098
 2669SOL     OW 8905   2.428   0.527   0.386
 2669SOL    HW1 8906   2.403   0.622   0.404
 2669SOL    HW2 8907   2.444   0.479   0.472
 2670SOL     OW 8908   0.421   0.092   6.470
 2670SOL    HW1 8909   0.463   0.182   6.473
 2670SOL    HW2 8910   0.331   0.098   6.428
 2671SOL     OW 8911   5.177   4.466   6.251
 2671SOL    HW1 8912   5.257   4.516   6.284
 2671SOL    HW2 8913   5.116   4.528   6.202
 2672SOL     OW 8914   3.444   1.017   2.013
 2672SOL    HW1 8915   3.461   1.079   2.090
 2672SOL    HW2 8916   3.528   1.006   1.960
 2673SOL     OW 8917   3.828   0.584   2.736
 2673SOL    HW1 8918   3.810   0.661   2.675
 2673SOL    HW2 8919   3.908   0.604   2.792
 2674SOL     OW 8920   0.266   5.859   2.981
 2674SOL    HW1 8921   0.360   5.890   2.996
 2674SOL    HW2 8922   0.260   5.810   2.895
 2675SOL     OW 8923   4.331   1.196   4.394
 2675SOL    HW1 8924   4.390   1.195   4.314
 2675SOL    HW2 8925   4.265   1.121   4.388
 2676SOL     OW 8926   3.440   4.053   3.803
 2676SOL    HW1 8927   3.520   3.994   3.815
 2676SOL    HW2 8928   3.361   4.010   3.848
 2677SOL     OW 8929   2.008   5.913   1.437
 2677SOL    HW1 8930   2.000   5.863   1.350
 2677SOL    HW2 8931   1.923   5.905   1.488
 2678SOL     OW 8932   3.758   1.755   2.843
 2678SOL    HW1 8933   3.764   1.710   2.932
 2678SOL    HW2 8934   3.664   1.781   2.825
 2679SOL     OW 8935   2.045   2.942   2.380
 2679SOL    HW1 8936   2.067   2.844   2.381
 2679SOL    HW2 8937   2.042   2.976   2.473
 2680SOL     OW 8938   5.615   2.297   0.175
 2680SOL    HW1 8939   5.690   2.255   0.226
 2680SOL    HW2 8940   5.618   2.265   0.080
 2681SOL     OW 8941   2.114   2.644   3.485
 2681SOL    HW1 8942   2.073   2.674   3.571
 2681SOL    HW2 8943   2.111   2.545   3.479
 2682SOL     OW 8944   3.738   4.051   1.414
 2682SOL    HW1 8945   3.754   4.142   1.375
 2682SOL    HW2 8946   3.646   4.021   1.392
 2683SOL     OW 8947   2.071   4.002   1.885
 2683SOL    HW1 8948   2.124   3.957   1.813
 2683SOL    HW2 8949   2.102   3.968   1.974
 2684SOL     OW 8950   6.603   0.079   4.081
 2684SOL    HW1 8951   6.694   0.084   4.124
 2684SOL    HW2 8952   6.575   0.171   4.053
 2685SOL     OW 8953   0.956   5.964   5.230
 2685SOL    HW1 8954   0.913   5.924   5.311
 2685SOL    HW2 8955   0.893   6.027   5.186
 2686SOL     OW 8956   1.484   0.853   5.417
 2686SOL    HW1 8957   1.427   0.800   5.354
 2686SOL    HW2 8958   1.577   0.858   5.381
 2687SOL     OW 8959   4.189   1.984   1.547
 2687SOL    HW1 8960   4.211   1.994   1.450
 2687SOL    HW2 8961   4.093   2.009   1.562
 2688SOL     OW 8962   3.933   2.620   6.840
 2688SOL    HW1 8963   3.958   2.600   6.745
 2688SOL    HW2 8964   3.836   2.601   6.854
 2689SOL     OW 8965   0.820   3.800   3.493
 2689SOL    HW1 8966   0.729   3.838   3.476
 2689SOL    HW2 8967   0.874   3.804   3.409
 2690SOL     OW 8968   4.753   0.983   5.705
 2690SOL    HW1 8969   4.686   0.928   5.756
 2690SOL    HW2 8970   4.726   0.988   5.609
 2691SOL     OW 8971   0.091   4.113   5.438
 2691SOL    HW1 8972   0.190   4.127   5.432
 2691SOL    HW2 8973   0.069   4.019   5.413
 2692SOL     OW 8974   2.509   5.977   2.087
 2692SOL    HW1 8975   2.429   5.986   2.147
 2692SOL    HW2 8976   2.541   5.882   2.088
 2693SOL     OW 8977   1.120   6.390   3.484
 2693SOL    HW1 8978   1.024   6.402   3.508
 2693SOL    HW2 8979   1.177   6.408   3.564
 2694SOL     OW 8980   2.623   0.268   2.649
 2694SOL    HW1 8981   2.640   0.217   2.565
 2694SOL    HW2 8982   2.549   0.333   2.634
 2695SOL     OW 8983   0.278   5.260   3.713
 2695SOL    HW1 8984   0.250   5.340   3.764
 2695SOL    HW2 8985   0.199   5.200   3.698
 2696SOL     OW 8986   4.839   5.202   6.664
 2696SOL    HW1 8987   4.832   5.300   6.682
 2696SOL    HW2 8988   4.756   5.170   6.619
 2697SOL     OW 8989   4.165   1.806   0.084
 2697SOL    HW1 8990   4.079   1.755   0.084
 2697SOL    HW2 8991   4.213   1.791   0.170
 2698SOL     OW 8992   1.819   5.690   5.906
 2698SOL    HW1 8993   1.912   5.725   5.917
 2698SOL    HW2 8994   1.769   5.749   5.843
 2699SOL     OW 8995   2.663   6.411   2.379
 2699SOL    HW1 8996   2.679   6.317   2.347
 2699SOL    HW2 8997   2.659   6.411   2.479
 2700SOL     OW 8998   4.456   1.925   1.334
 2700SOL    HW1 8999   4.369   1.945   1.291
 2700SOL    HW2 9000   4.528   1.923   1.265
 2701SOL     OW 9001   5.073   3.507   4.406
 2701SOL    HW1 9002   5.153   3.452   4.383
 2701SOL    HW2 9003   5.009   3.507   4.328
 2702SOL     OW 9004   2.624   1.335   5.021
 2702SOL    HW1 9005   2.629   1.400   5.096
 2702SOL    HW2 9006   2.541   1.351   4.968
 2703SOL     OW 9007   2.688   6.406   2.670
 2703SOL    HW1 9008   2.643   6.485   2.711
 2703SOL    HW2 9009   2.780   6.396   2.707
 2704SOL     OW 9010   5.106   0.722   3.618
 2704SOL    HW1 9011   5.127   0.745   3.523
 2704SOL    HW2 9012   5.059   0.799   3.661
 2705SOL     OW 9013   0.281   0.280   5.643
 2705SOL    HW1 9014   0.298   0.342   5.566
 2705SOL    HW2 9015   0.348   0.205   5.640
 2706SOL     OW 9016   6.522   4.005   3.407
 2706SOL    HW1 9017   6.423   3.986   3.407
 2706SOL    HW2 9018   6.571   3.921   3.431
 2707SOL     OW 9019   4.141   0.821   3.582
 2707SOL    HW1 9020   4.207   0.853   3.514
 2707SOL    HW2 9021   4.188   0.805   3.669
 2708SOL     OW 9022   5.359   3.779   5.926
 2708SOL    HW1 9023   5.347   3.769   6.025
 2708SOL    HW2 9024   5.276   3.819   5.887
 2709SOL     OW 9025   4.548   1.280   5.401
 2709SOL    HW1 9026   4.537   1.203   5.464
 2709SOL    HW2 9027   4.614   1.255   5.330
 2710SOL     OW 9028   0.764   3.103   4.370
 2710SOL    HW1 9029   0.817   3.138   4.292
 2710SOL    HW2 9030   0.816   3.114   4.454
 2711SOL     OW 9031   4.400   1.157   1.958
 2711SOL    HW1 9032   4.351   1.153   1.871
 2711SOL    HW2 9033   4.408   1.253   1.987
 2712SOL     OW 9034   4.843   6.292   2.296
 2712SOL    HW1 9035   4.799   6.290   2.386
 2712SOL    HW2 9036   4.776   6.318   2.227
 2713SOL     OW 9037   3.585   5.053   5.235
 2713SOL    HW1 9038   3.655   4.990   5.268
 2713SOL    HW2 9039   3.628   5.126   5.182
 2714SOL     OW 9040   3.423   4.344   6.223
 2714SOL    HW1 9041   3.389   4.307   6.310
 2714SOL    HW2 9042   3.369   4.424   6.198
 2715SOL     OW 9043   4.320   0.038   6.145
 2715SOL    HW1 9044   4.238   0.094   6.142
 2715SOL    HW2 9045   4.396   0.087   6.102
 2716SOL     OW 9046   4.075   1.028   2.933
 2716SOL    HW1 9047   4.128   1.023   2.849
 2716SOL    HW2 9048   4.128   1.076   3.003
 2717SOL     OW 9049   1.071   2.001   1.659
 2717SOL    HW1 9050   1.090   2.090   1.616
 2717SOL    HW2 9051   0.985   1.964   1.624
 2718SOL     OW 9052   6.660   1.507   5.533
 2718SOL    HW1 9053   6.603   1.425   5.536
 2718SOL    HW2 9054   6.754   1.483   5.555
 2719SOL     OW 9055   1.635   5.131   3.579
 2719SOL    HW1 9056   1.637   5.055   3.645
 2719SOL    HW2 9057   1.540   5.149   3.553
 2720SOL     OW 9058   1.490   6.070   6.110
 2720SOL    HW1 9059   1.421   6.105   6.173
 2720SOL    HW2 9060   1.495   6.129   6.030
 2721SOL     OW 9061   2.813   6.877   1.805
 2721SOL    HW1 9062   2.846   6.833   1.722
 2721SOL    HW2 9063   2.859   6.838   1.885
 2722SOL     OW 9064   3.801   5.128   6.328
 2722SOL    HW1 9065   3.873   5.133   6.259
 2722SOL    HW2 9066   3.712   5.123   6.282
 2723SOL     OW 9067   3.633   6.009   6.615
 2723SOL    HW1 9068   3.674   6.038   6.701
 2723SOL    HW2 9069   3.550   6.062   6.598
 2724SOL     OW 9070   0.364   6.023   0.822
 2724SOL    HW1 9071   0.308   6.100   0.852
 2724SOL    HW2 9072   0.314   5.970   0.754
 2725SOL     OW 9073   5.932   4.476   4.021
 2725SOL    HW1 9074   5.907   4.379   4.013
 2725SOL    HW2 9075   5.970   4.507   3.934
 2726SOL     OW 9076   6.646   1.874   2.278
 2726SOL    HW1 9077   6.670   1.934   2.355
 2726SOL    HW2 9078   6.630   1.781   2.312
 2727SOL     OW 9079   1.480   5.605   3.784
 2727SOL    HW1 9080   1.448   5.511   3.789
 2727SOL    HW2 9081   1.578   5.608   3.806
 2728SOL     OW 9082   4.550   5.468   6.089
 2728SOL    HW1 9083   4.511   5.393   6.143
 2728SOL    HW2 9084   4.544   5.553   6.142
 2729SOL     OW 9085   5.809   0.474   6.555
 2729SOL    HW1 9086   5.891   0.464   6.612
 2729SOL    HW2 9087   5.794   0.571   6.536
 2730SOL     OW 9088   1.377   6.163   2.940
 2730SOL    HW1 9089   1.336   6.082   2.982
 2730SOL    HW2 9090   1.327   6.188   2.858
 2731SOL     OW 9091   3.258   4.149   4.407
 2731SOL    HW1 9092   3.340   4.146   4.351
 2731SOL    HW2 9093   3.262   4.078   4.477
 2732SOL     OW 9094   5.223   0.297   1.795
 2732SOL    HW1 9095   5.284   0.274   1.871
 2732SOL    HW2 9096   5.218   0.220   1.732
 2733SOL     OW 9097   0.824   5.966   0.033
 2733SOL    HW1 9098   0.903   5.915   0.065
 2733SOL    HW2 9099   0.746   5.950   0.094
 2734SOL     OW 9100   3.666   6.267   2.390
 2734SOL    HW1 9101   3.680   6.360   2.355
 2734SOL    HW2 9102   3.699   6.262   2.484
 2735SOL     OW 9103   0.682   1.530   1.558
 2735SOL    HW1 9104   0.693   1.461   1.487
 2735SOL    HW2 9105   0.606   1.506   1.618
 2736SOL     OW 9106   5.740   4.299   3.276
 2736SOL    HW1 9107   5.738   4.325   3.372
 2736SOL    HW2 9108   5.823   4.336   3.233
 2737SOL     OW 9109   3.265   0.714   5.280
 2737SOL    HW1 9110   3.253   0.789   5.346
 2737SOL    HW2 9111   3.207   0.730   5.200
 2738SOL     OW 9112   4.775   5.673   1.431
 2738SOL    HW1 9113   4.675   5.666   1.430
 2738SOL    HW2 9114   4.812   5.609   1.498
 2739SOL     OW 9115   6.967   5.130   1.496
 2739SOL    HW1 9116   7.003   5.197   1.562
 2739SOL    HW2 9117   6.976   5.038   1.534
 2740SOL     OW 9118   0.717   5.600   3.265
 2740SOL    HW1 9119   0.759   5.573   3.352
 2740SOL    HW2 9120   0.749   5.540   3.192
 2741SOL     OW 9121   0.623   0.254   5.429
 2741SOL    HW1 9122   0.615   0.310   5.512
 2741SOL    HW2 9123   0.686   0.297   5.365
 2742SOL     OW 9124   3.302   5.609   2.028
 2742SOL    HW1 9125   3.225   5.651   1.980
 2742SOL    HW2 9126   3.373   5.585   1.962
 2743SOL     OW 9127   5.416   1.472   2.227
 2743SOL    HW1 9128   5.461   1.426   2.304
 2743SOL    HW2 9129   5.317   1.469   2.241
 2744SOL     OW 9130   3.649   4.127   2.682
 2744SOL    HW1 9131   3.626   4.160   2.773
 2744SOL    HW2 9132   3.722   4.058   2.689
 2745SOL     OW 9133   0.691   5.976   0.428
 2745SOL    HW1 9134   0.729   5.884   0.432
 2745SOL    HW2 9135   0.627   5.982   0.351
 2746SOL     OW 9136   1.615   1.524   3.486
 2746SOL    HW1 9137   1.615   1.573   3.399
 2746SOL    HW2 9138   1.678   1.446   3.481
 2747SOL     OW 9139   3.795   4.477   1.098
 2747SOL    HW1 9140   3.851   4.556   1.123
 2747SOL    HW2 9141   3.833   4.435   1.015
 2748SOL     OW 9142   4.193   0.243   0.425
 2748SOL    HW1 9143   4.174   0.326   0.373
 2748SOL    HW2 9144   4.117   0.179   0.414
 2749SOL     OW 9145   3.173   1.498   0.850
 2749SOL    HW1 9146   3.075   1.484   0.838
 2749SOL    HW2 9147   3.196   1.488   0.947
 2750SOL     OW 9148   3.263   5.495   2.261
 2750SOL    HW1 9149   3.225   5.548   2.337
 2750SOL    HW2 9150   3.297   5.557   2.190
 2751SOL     OW 9151   6.060   5.146   1.107
 2751SOL    HW1 9152   6.064   5.059   1.057
 2751SOL    HW2 9153   6.037   5.219   1.043
 2752SOL     OW 9154   4.105   5.642   6.720
 2752SOL    HW1 9155   4.115   5.735   6.685
 2752SOL    HW2 9156   4.035   5.594   6.667
 2753SOL     OW 9157   5.487   5.886   5.188
 2753SOL    HW1 9158   5.506   5.982   5.167
 2753SOL    HW2 9159   5.407   5.856   5.137
 2754SOL     OW 9160   1.376   6.720   5.936
 2754SOL    HW1 9161   1.377   6.734   6.035
 2754SOL    HW2 9162   1.377   6.809   5.890
 2755SOL     OW 9163   3.850   0.872   2.213
 2755SOL    HW1 9164   3.854   0.870   2.313
 2755SOL    HW2 9165   3.915   0.940   2.179
 2756SOL     OW 9166   4.728   5.949   6.909
 2756SOL    HW1 9167   4.661   6.016   6.940
 2756SOL    HW2 9168   4.817   5.971   6.950
 2757SOL     OW 9169   0.289   4.799   1.035
 2757SOL    HW1 9170   0.296   4.705   1.003
 2757SOL    HW2 9171   0.379   4.830   1.068
 2758SOL     OW 9172   3.860   0.938   5.588
 2758SOL    HW1 9173   3.931   0.871   5.609
 2758SOL    HW2 9174   3.870   0.968   5.493
 2759SOL     OW 9175   5.046   5.391   4.796
 2759SOL    HW1 9176   5.114   5.457   4.828
 2759SOL    HW2 9177   4.968   5.439   4.758
 2760SOL     OW 9178   1.851   6.453   3.830
 2760SOL    HW1 9179   1.820   6.429   3.738
 2760SOL    HW2 9180   1.784   6.420   3.897
 2761SOL     OW 9181   2.257   5.200   3.850
 2761SOL    HW1 9182   2.201   5.185   3.768
 2761SOL    HW2 9183   2.247   5.295   3.880
 2762SOL     OW 9184   1.407   0.429   5.043
 2762SOL    HW1 9185   1.342   0.506   5.049
 2762SOL    HW2 9186   1.376   0.365   4.973
 2763SOL     OW 9187   5.423   1.833   2.627
 2763SOL    HW1 9188   5.414   1.916   2.681
 2763SOL    HW2 9189   5.338   1.781   2.632
 2764SOL     OW 9190   6.440   0.730   1.989
 2764SOL    HW1 9191   6.357   0.675   1.994
 2764SOL    HW2 9192   6.460   0.752   1.893
 2765SOL     OW 9193   5.801   2.213   2.396
 2765SOL    HW1 9194   5.885   2.259   2.425
 2765SOL    HW2 9195   5.728   2.281   2.389
 2766SOL     OW 9196   6.117   0.528   2.618
 2766SOL    HW1 9197   6.047   0.542   2.549
 2766SOL    HW2 9198   6.153   0.435   2.610
 2767SOL     OW 9199   6.285   4.583   5.991
 2767SOL    HW1 9200   6.309   4.580   5.894
 2767SOL    HW2 9201   6.247   4.495   6.018
 2768SOL     OW 9202   5.961   1.374   6.457
 2768SOL    HW1 9203   5.937   1.459   6.506
 2768SOL    HW2 9204   6.029   1.324   6.510
 2769SOL     OW 9205   1.160   4.542   1.270
 2769SOL    HW1 9206   1.099   4.504   1.200
 2769SOL    HW2 9207   1.151   4.489   1.354
 2770SOL     OW 9208   6.425   5.931   1.623
 2770SOL    HW1 9209   6.402   5.933   1.720
 2770SOL    HW2 9210   6.365   5.994   1.574
 2771SOL     OW 9211   4.869   1.136   1.348
 2771SOL    HW1 9212   4.805   1.073   1.392
 2771SOL    HW2 9213   4.922   1.184   1.418
 2772SOL     OW 9214   3.737   2.560   6.473
 2772SOL    HW1 9215   3.683   2.601   6.546
 2772SOL    HW2 9216   3.829   2.540   6.506
 2773SOL     OW 9217   3.351   4.478   0.672
 2773SOL    HW1 9218   3.436   4.441   0.635
 2773SOL    HW2 9219   3.281   4.407   0.671
 2774SOL     OW 9220   5.517   3.357   2.611
 2774SOL    HW1 9221   5.482   3.273   2.569
 2774SOL    HW2 9222   5.613   3.369   2.586
 2775SOL     OW 9223   6.858   0.012   2.344
 2775SOL    HW1 9224   6.908   7.026   2.258
 2775SOL    HW2 9225   6.907   6.992   2.417
 2776SOL     OW 9226   3.511   5.849   5.764
 2776SOL    HW1 9227   3.531   5.941   5.730
 2776SOL    HW2 9228   3.452   5.801   5.698
 2777SOL     OW 9229   2.715   1.236   3.554
 2777SOL    HW1 9230   2.782   1.309   3.571
 2777SOL    HW2 9231   2.669   1.212   3.639
 2778SOL     OW 9232   2.337   1.807   4.927
 2778SOL    HW1 9233   2.343   1.886   4.865
 2778SOL    HW2 9234   2.403   1.738   4.898
 2779SOL     OW 9235   6.003   1.115   0.676
 2779SOL    HW1 9236   5.910   1.135   0.648
 2779SOL    HW2 9237   6.064   1.123   0.597
 2780SOL     OW 9238   4.528   5.957   0.134
 2780SOL    HW1 9239   4.485   5.974   0.046
 2780SOL    HW2 9240   4.526   6.041   0.188
 2781SOL     OW 9241   4.924   4.494   0.480
 2781SOL    HW1 9242   4.993   4.423   0.465
 2781SOL    HW2 9243   4.873   4.474   0.564
 2782SOL     OW 9244   2.497   1.403   6.233
 2782SOL    HW1 9245   2.538   1.345   6.304
 2782SOL    HW2 9246   2.465   1.488   6.274
 2783SOL     OW 9247   0.364   4.597   6.283
 2783SOL    HW1 9248   0.441   4.614   6.222
 2783SOL    HW2 9249   0.390   4.622   6.376
 2784SOL     OW 9250   2.300   2.076   2.010
 2784SOL    HW1 9251   2.315   2.156   1.953
 2784SOL    HW2 9252   2.383   2.057   2.063
 2785SOL     OW 9253   6.061   1.045   1.273
 2785SOL    HW1 9254   6.054   0.946   1.280
 2785SOL    HW2 9255   6.007   1.077   1.195
 2786SOL     OW 9256   2.974   0.147   0.100
 2786SOL    HW1 9257   2.957   0.060   0.146
 2786SOL    HW2 9258   2.972   0.133   0.001
 2787SOL     OW 9259   2.157   2.818   5.375
 2787SOL    HW1 9260   2.214   2.839   5.454
 2787SOL    HW2 9261   2.066   2.791   5.405
 2788SOL     OW 9262   0.774   3.660   6.846
 2788SOL    HW1 9263   0.702   3.716   6.888
 2788SOL    HW2 9264   0.847   3.720   6.813
 2789SOL     OW 9265   0.001   2.364   4.363
 2789SOL    HW1 9266   0.084   2.419   4.366
 2789SOL    HW2 9267   6.955   2.417   4.320
 2790SOL     OW 9268   3.764   6.150   3.772
 2790SOL    HW1 9269   3.683   6.199   3.742
 2790SOL    HW2 9270   3.754   6.053   3.753
 2791SOL     OW 9271   2.167   2.739   2.528
 2791SOL    HW1 9272   2.194   2.644   2.514
 2791SOL    HW2 9273   2.194   2.768   2.620
 2792SOL     OW 9274   1.033   2.556   5.051
 2792SOL    HW1 9275   1.063   2.487   5.117
 2792SOL    HW2 9276   0.978   2.513   4.980
 2793SOL     OW 9277   5.428   0.806   4.103
 2793SOL    HW1 9278   5.446   0.709   4.121
 2793SOL    HW2 9279   5.515   0.853   4.085
 2794SOL     OW 9280   0.686   0.801   1.115
 2794SOL    HW1 9281   0.660   0.705   1.123
 2794SOL    HW2 9282   0.772   0.816   1.164
 2795SOL     OW 9283   1.857   4.362   1.744
 2795SOL    HW1 9284   1.882   4.413   1.826
 2795SOL    HW2 9285   1.808   4.422   1.681
 2796SOL     OW 9286   5.104   4.463   2.420
 2796SOL    HW1 9287   5.173   4.412   2.368
 2796SOL    HW2 9288   5.148   4.540   2.467
 2797SOL     OW 9289   4.502   4.619   4.812
 2797SOL    HW1 9290   4.469   4.700   4.764
 2797SOL    HW2 9291   4.440   4.598   4.887
 2798SOL     OW 9292   1.593   3.307   4.035
 2798SOL    HW1 9293   1.672   3.356   4.074
 2798SOL    HW2 9294   1.510   3.337   4.081
 2799SOL     OW 9295   6.498   5.557   5.755
 2799SOL    HW1 9296   6.462   5.582   5.845
 2799SOL    HW2 9297   6.496   5.458   5.744
 2800SOL     OW 9298   2.827   2.114   6.955
 2800SOL    HW1 9299   2.783   2.076   6.874
 2800SOL    HW2 9300   2.764   2.111   0.005
 2801SOL     OW 9301   4.446   5.495   2.775
 2801SOL    HW1 9302   4.352   5.467   2.755
 2801SOL    HW2 9303   4.487   5.431   2.840
 2802SOL     OW 9304   5.766   0.771   6.010
 2802SOL    HW1 9305   5.708   0.849   5.987
 2802SOL    HW2 9306   5.709   0.696   6.043
 2803SOL     OW 9307   2.174   5.771   5.712
 2803SOL    HW1 9308   2.257   5.804   5.756
 2803SOL    HW2 9309   2.101   5.838   5.725
 2804SOL     OW 9310   0.057   4.723   2.602
 2804SOL    HW1 9311   0.040   4.698   2.507
 2804SOL    HW2 9312   0.004   4.805   2.625
 2805SOL     OW 9313   4.955   3.764   6.013
 2805SOL    HW1 9314   4.863   3.784   5.981
 2805SOL    HW2 9315   5.022   3.808   5.953
 2806SOL     OW 9316   6.909   5.811   2.799
 2806SOL    HW1 9317   6.934   5.755   2.721
 2806SOL    HW2 9318   6.822   5.781   2.836
 2807SOL     OW 9319   3.732   4.888   4.018
 2807SOL    HW1 9320   3.652   4.911   4.073
 2807SOL    HW2 9321   3.729   4.937   3.931
 2808SOL     OW 9322   4.693   6.128   3.654
 2808SOL    HW1 9323   4.689   6.044   3.599
 2808SOL    HW2 9324   4.745   6.197   3.604
 2809SOL     OW 9325   5.276   3.302   0.979
 2809SOL    HW1 9326   5.367   3.271   0.952
 2809SOL    HW2 9327   5.220   3.316   0.897
 2810SOL     OW 9328   1.589   0.175   5.533
 2810SOL    HW1 9329   1.525   0.184   5.457
 2810SOL    HW2 9330   1.599   0.264   5.579
 2811SOL     OW 9331   0.158   1.070   4.227
 2811SOL    HW1 9332   0.161   1.155   4.280
 2811SOL    HW2 9333   0.243   1.019   4.240
 2812SOL     OW 9334   5.547   3.894   2.159
 2812SOL    HW1 9335   5.570   3.826   2.090
 2812SOL    HW2 9336   5.621   3.898   2.227
 2813SOL     OW 9337   5.969   1.638   6.488
 2813SOL    HW1 9338   5.928   1.722   6.451
 2813SOL    HW2 9339   5.947   1.631   6.586
 2814SOL     OW 9340   5.124   4.478   5.139
 2814SOL    HW1 9341   5.162   4.466   5.231
 2814SOL    HW2 9342   5.025   4.484   5.144
 2815SOL     OW 9343   6.985   1.547   5.146
 2815SOL    HW1 9344   0.044   1.499   5.165
 2815SOL    HW2 9345   6.997   1.645   5.163
 2816SOL     OW 9346   5.979   6.261   3.218
 2816SOL    HW1 9347   5.966   6.331   3.148
 2816SOL    HW2 9348   5.939   6.175   3.186
 2817SOL     OW 9349   1.251   2.052   1.030
 2817SOL    HW1 9350   1.316   1.997   1.083
 2817SOL    HW2 9351   1.198   1.992   0.971
 2818SOL     OW 9352   0.342   4.125   5.803
 2818SOL    HW1 9353   0.378   4.101   5.893
 2818SOL    HW2 9354   0.264   4.066   5.781
 2819SOL     OW 9355   5.830   2.842   0.616
 2819SOL    HW1 9356   5.742   2.888   0.624
 2819SOL    HW2 9357   5.903   2.904   0.646
 2820SOL     OW 9358   6.196   2.547   4.336
 2820SOL    HW1 9359   6.255   2.625   4.315
 2820SOL    HW2 9360   6.239   2.490   4.406
 2821SOL     OW 9361   1.311   2.878   3.860
 2821SOL    HW1 9362   1.358   2.957   3.900
 2821SOL    HW2 9363   1.368   2.837   3.789
 2822SOL     OW 9364   3.215   1.831   0.485
 2822SOL    HW1 9365   3.169   1.811   0.398
 2822SOL    HW2 9366   3.313   1.843   0.469
 2823SOL     OW 9367   2.017   6.685   3.324
 2823SOL    HW1 9368   2.036   6.657   3.418
 2823SOL    HW2 9369   2.087   6.649   3.263
 2824SOL     OW 9370   2.975   1.573   4.716
 2824SOL    HW1 9371   3.062   1.614   4.743
 2824SOL    HW2 9372   2.924   1.547   4.799
 2825SOL     OW 9373   6.563   6.232   1.067
 2825SOL    HW1 9374   6.466   6.237   1.042
 2825SOL    HW2 9375   6.618   6.245   0.985
 2826SOL     OW 9376   4.547   2.558   4.291
 2826SOL    HW1 9377   4.517   2.482   4.349
 2826SOL    HW2 9378   4.536   2.644   4.341
 2827SOL     OW 9379   5.647   1.007   6.396
 2827SOL    HW1 9380   5.705   1.087   6.410
 2827SOL    HW2 9381   5.590   1.021   6.315
 2828SOL     OW 9382   2.970   2.116   6.222
 2828SOL    HW1 9383   3.034   2.184   6.258
 2828SOL    HW2 9384   2.900   2.097   6.290
 2829SOL     OW 9385   1.473   6.943   6.608
 2829SOL    HW1 9386   1.565   6.906   6.623
 2829SOL    HW2 9387   1.417   6.874   6.561
 2830SOL     OW 9388   3.565   3.233   6.727
 2830SOL    HW1 9389   3.645   3.252   6.670
 2830SOL    HW2 9390   3.482   3.244   6.672
 2831SOL     OW 9391   5.958   5.655   3.936
 2831SOL    HW1 9392   5.991   5.655   3.842
 2831SOL    HW2 9393   6.027   5.616   3.996
 2832SOL     OW 9394   0.084   0.644   1.849
 2832SOL    HW1 9395   0.140   0.716   1.808
 2832SOL    HW2 9396   0.017   0.612   1.782
 2833SOL     OW 9397   6.045   2.951   2.075
 2833SOL    HW1 9398   5.980   2.898   2.021
 2833SOL    HW2 9399   6.085   2.892   2.146
 2834SOL     OW 9400   3.713   0.788   5.899
 2834SOL    HW1 9401   3.664   0.845   5.834
 2834SOL    HW2 9402   3.779   0.844   5.950
 2835SOL     OW 9403   0.585   6.628   3.063
 2835SOL    HW1 9404   0.568   6.672   3.151
 2835SOL    HW2 9405   0.622   6.695   2.999
 2836SOL     OW 9406   6.599   0.762   0.639
 2836SOL    HW1 9407   6.581   0.667   0.663
 2836SOL    HW2 9408   6.633   0.767   0.545
 2837SOL     OW 9409   6.445   2.826   3.920
 2837SOL    HW1 9410   6.438   2.729   3.898
 2837SOL    HW2 9411   6.428   2.880   3.838
 2838SOL     OW 9412   2.233   4.953   3.970
 2838SOL    HW1 9413   2.137   4.939   3.993
 2838SOL    HW2 9414   2.243   5.035   3.913
 2839SOL     OW 9415   4.925   2.139   1.801
 2839SOL    HW1 9416   4.870   2.066   1.842
 2839SOL    HW2 9417   4.866   2.198   1.747
 2840SOL     OW 9418   6.822   1.946   5.956
 2840SOL    HW1 9419   6.849   2.042   5.964
 2840SOL    HW2 9420   6.812   1.922   5.860
 2841SOL     OW 9421   0.675   6.426   1.588
 2841SOL    HW1 9422   0.725   6.505   1.555
 2841SOL    HW2 9423   0.738   6.360   1.629
 2842SOL     OW 9424   6.232   3.158   3.235
 2842SOL    HW1 9425   6.328   3.184   3.229
 2842SOL    HW2 9426   6.209   3.098   3.158
 2843SOL     OW 9427   3.982   1.943   4.631
 2843SOL    HW1 9428   3.956   1.926   4.536
 2843SOL    HW2 9429   4.069   1.992   4.632
 2844SOL     OW 9430   0.109   3.984   5.701
 2844SOL    HW1 9431   0.019   3.974   5.742
 2844SOL    HW2 9432   0.108   4.057   5.633
 2845SOL     OW 9433   6.572   4.180   5.158
 2845SOL    HW1 9434   6.475   4.190   5.180
 2845SOL    HW2 9435   6.620   4.265   5.183
 2846SOL     OW 9436   4.626   1.466   6.577
 2846SOL    HW1 9437   4.681   1.544   6.608
 2846SOL    HW2 9438   4.539   1.500   6.541
 2847SOL     OW 9439   4.585   4.487   4.019
 2847SOL    HW1 9440   4.592   4.573   4.070
 2847SOL    HW2 9441   4.543   4.504   3.930
 2848SOL     OW 9442   1.437   6.076   5.060
 2848SOL    HW1 9443   1.473   6.167   5.040
 2848SOL    HW2 9444   1.346   6.084   5.101
 2849SOL     OW 9445   2.542   2.702   1.413
 2849SOL    HW1 9446   2.479   2.724   1.339
 2849SOL    HW2 9447   2.515   2.752   1.496
 2850SOL     OW 9448   3.393   1.232   7.018
 2850SOL    HW1 9449   3.311   1.235   0.048
 2850SOL    HW2 9450   3.474   1.249   0.047
 2851SOL     OW 9451   2.353   4.509   6.450
 2851SOL    HW1 9452   2.266   4.518   6.401
 2851SOL    HW2 9453   2.421   4.570   6.409
 2852SOL     OW 9454   6.995   3.271   6.239
 2852SOL    HW1 9455   0.033   3.231   6.174
 2852SOL    HW2 9456   6.970   3.363   6.208
 2853SOL     OW 9457   3.736   3.430   1.563
 2853SOL    HW1 9458   3.785   3.483   1.495
 2853SOL    HW2 9459   3.786   3.432   1.650
 2854SOL     OW 9460   1.178   1.051   3.488
 2854SOL    HW1 9461   1.242   1.079   3.559
 2854SOL    HW2 9462   1.113   1.126   3.472
 2855SOL     OW 9463   3.246   0.925   5.442
 2855SOL    HW1 9464   3.184   0.947   5.518
 2855SOL    HW2 9465   3.291   1.009   5.411
 2856SOL     OW 9466   2.219   1.584   5.094
 2856SOL    HW1 9467   2.229   1.609   5.190
 2856SOL    HW2 9468   2.305   1.601   5.046
 2857SOL     OW 9469   2.941   3.807   3.180
 2857SOL    HW1 9470   2.949   3.712   3.152
 2857SOL    HW2 9471   2.911   3.812   3.275
 2858SOL     OW 9472   5.944   2.878   2.886
 2858SOL    HW1 9473   5.850   2.903   2.861
 2858SOL    HW2 9474   5.942   2.816   2.964
 2859SOL     OW 9475   6.350   6.387   0.707
 2859SOL    HW1 9476   6.307   6.462   0.657
 2859SOL    HW2 9477   6.356   6.306   0.648
 2860SOL     OW 9478   4.450   1.819   1.584
 2860SOL    HW1 9479   4.442   1.889   1.655
 2860SOL    HW2 9480   4.464   1.863   1.495
 2861SOL     OW 9481   3.503   5.530   5.673
 2861SOL    HW1 9482   3.584   5.522   5.731
 2861SOL    HW2 9483   3.472   5.438   5.647
 2862SOL     OW 9484   5.817   0.426   4.687
 2862SOL    HW1 9485   5.846   0.483   4.763
 2862SOL    HW2 9486   5.847   0.331   4.702
 2863SOL     OW 9487   6.312   1.588   0.830
 2863SOL    HW1 9488   6.275   1.514   0.887
 2863SOL    HW2 9489   6.298   1.565   0.734
 2864SOL     OW 9490   3.126   1.347   0.016
 2864SOL    HW1 9491   3.089   1.306   6.960
 2864SOL    HW2 9492   3.083   1.305   0.096
 2865SOL     OW 9493   4.258   5.153   4.848
 2865SOL    HW1 9494   4.192   5.115   4.783
 2865SOL    HW2 9495   4.315   5.222   4.802
 2866SOL     OW 9496   7.002   0.039   6.132
 2866SOL    HW1 9497   6.974   0.134   6.122
 2866SOL    HW2 9498   6.931   7.005   6.097
 2867SOL     OW 9499   6.852   4.399   3.431
 2867SOL    HW1 9500   6.793   4.470   3.393
 2867SOL    HW2 9501   6.881   4.426   3.523
 2868SOL     OW 9502   1.815   4.839   5.385
 2868SOL    HW1 9503   1.802   4.749   5.426
 2868SOL    HW2 9504   1.858   4.900   5.452
 2869SOL     OW 9505   6.034   1.435   2.493
 2869SOL    HW1 9506   5.995   1.416   2.402
 2869SOL    HW2 9507   5.960   1.453   2.557
 2870SOL     OW 9508   4.896   1.798   2.884
 2870SOL    HW1 9509   4.806   1.755   2.889
 2870SOL    HW2 9510   4.930   1.815   2.977
 2871SOL     OW 9511   1.945   1.876   5.981
 2871SOL    HW1 9512   1.884   1.932   6.037
 2871SOL    HW2 9513   2.036   1.917   5.980
 2872SOL     OW 9514   2.088   6.405   4.260
 2872SOL    HW1 9515   2.083   6.336   4.332
 2872SOL    HW2 9516   2.096   6.496   4.300
 2873SOL     OW 9517   0.061   5.430   2.013
 2873SOL    HW1 9518   0.062   5.366   1.937
 2873SOL    HW2 9519   7.016   5.405   2.078
 2874SOL     OW 9520   5.970   1.839   2.280
 2874SOL    HW1 9521   5.895   1.889   2.324
 2874SOL    HW2 9522   5.945   1.817   2.186
 2875SOL     OW 9523   3.150   4.873   0.373
 2875SOL    HW1 9524   3.250   4.874   0.373
 2875SOL    HW2 9525   3.118   4.853   0.466
 2876SOL     OW 9526   0.021   1.500   2.583
 2876SOL    HW1 9527   0.075   1.457   2.511
 2876SOL    HW2 9528   6.951   1.500   2.557
 2877SOL     OW 9529   2.531   3.248   5.965
 2877SOL    HW1 9530   2.496   3.298   6.043
 2877SOL    HW2 9531   2.562   3.312   5.895
 2878SOL     OW 9532   2.966   4.487   6.797
 2878SOL    HW1 9533   2.922   4.400   6.774
 2878SOL    HW2 9534   2.968   4.547   6.717
 2879SOL     OW 9535   5.028   4.997   6.649
 2879SOL    HW1 9536   5.081   4.970   6.730
 2879SOL    HW2 9537   4.998   5.092   6.660
 2880SOL     OW 9538   1.093   5.981   1.709
 2880SOL    HW1 9539   1.060   5.899   1.662
 2880SOL    HW2 9540   1.072   6.062   1.654
 2881SOL     OW 9541   6.843   6.929   7.008
 2881SOL    HW1 9542   6.800   6.887   6.928
 2881SOL    HW2 9543   6.783   6.921   0.060
 2882SOL     OW 9544   6.880   3.477   3.551
 2882SOL    HW1 9545   6.894   3.574   3.533
 2882SOL    HW2 9546   6.898   3.458   3.648
 2883SOL     OW 9547   4.752   6.704   2.393
 2883SOL    HW1 9548   4.812   6.649   2.335
 2883SOL    HW2 9549   4.807   6.765   2.450
 2884SOL     OW 9550   1.667   6.017   3.267
 2884SOL    HW1 9551   1.598   5.946   3.256
 2884SOL    HW2 9552   1.752   5.989   3.222
 2885SOL     OW 9553   0.292   2.065   3.645
 2885SOL    HW1 9554   0.391   2.067   3.631
 2885SOL    HW2 9555   0.257   1.974   3.624
 2886SOL     OW 9556   2.166   2.580   5.700
 2886SOL    HW1 9557   2.244   2.521   5.677
 2886SOL    HW2 9558   2.162   2.593   5.799
 2887SOL     OW 9559   2.065   1.090   4.947
 2887SOL    HW1 9560   2.019   1.115   4.861
 2887SOL    HW2 9561   2.089   1.174   4.996
 2888SOL     OW 9562   6.604   5.156   6.857
 2888SOL    HW1 9563   6.607   5.170   6.956
 2888SOL    HW2 9564   6.624   5.242   6.811
 2889SOL     OW 9565   0.523   7.000   1.950
 2889SOL    HW1 9566   0.476   6.945   1.880
 2889SOL    HW2 9567   0.457   0.006   2.017
 2890SOL     OW 9568   3.185   6.685   0.840
 2890SOL    HW1 9569   3.169   6.694   0.938
 2890SOL    HW2 9570   3.190   6.776   0.798
 2891SOL     OW 9571   2.639   5.074   4.446
 2891SOL    HW1 9572   2.689   5.046   4.364
 2891SOL    HW2 9573   2.565   5.008   4.465
 2892SOL     OW 9574   4.697   4.355   5.715
 2892SOL    HW1 9575   4.788   4.395   5.699
 2892SOL    HW2 9576   4.676   4.290   5.642
 2893SOL     OW 9577   2.914   0.709   6.125
 2893SOL    HW1 9578   2.884   0.622   6.086
 2893SOL    HW2 9579   3.011   0.724   6.105
 2894SOL     OW 9580   3.299   2.610   0.868
 2894SOL    HW1 9581   3.201   2.627   0.866
 2894SOL    HW2 9582   3.326   2.582   0.960
 2895SOL     OW 9583   2.878   3.256   6.789
 2895SOL    HW1 9584   2.917   3.329   6.734
 2895SOL    HW2 9585   2.813   3.203   6.734
 2896SOL     OW 9586   2.251   5.541   0.959
 2896SOL    HW1 9587   2.162   5.497   0.945
 2896SOL    HW2 9588   2.243   5.639   0.941
 2897SOL     OW 9589   1.560   6.620   3.466
 2897SOL    HW1 9590   1.505   6.682   3.522
 2897SOL    HW2 9591   1.626   6.673   3.412
 2898SOL     OW 9592   2.858   4.960   2.463
 2898SOL    HW1 9593   2.885   4.928   2.372
 2898SOL    HW2 9594   2.858   4.883   2.527
 2899SOL     OW 9595   6.423   0.425   0.349
 2899SOL    HW1 9596   6.481   0.400   0.427
 2899SOL    HW2 9597   6.479   0.466   0.277
 2900SOL     OW 9598   2.589   5.525   6.258
 2900SOL    HW1 9599   2.576   5.537   6.357
 2900SOL    HW2 9600   2.678   5.560   6.231
 2901SOL     OW 9601   3.314   0.511   1.420
 2901SOL    HW1 9602   3.369   0.592   1.445
 2901SOL    HW2 9603   3.218   0.538   1.410
 2902SOL     OW 9604   5.415   5.581   1.709
 2902SOL    HW1 9605   5.462   5.567   1.796
 2902SOL    HW2 9606   5.394   5.492   1.667
 2903SOL     OW 9607   2.568   2.084   2.139
 2903SOL    HW1 9608   2.640   2.017   2.122
 2903SOL    HW2 9609   2.590   2.169   2.090
 2904SOL     OW 9610   1.716   3.479   4.964
 2904SOL    HW1 9611   1.750   3.494   5.056
 2904SOL    HW2 9612   1.771   3.531   4.898
 2905SOL     OW 9613   1.011   2.408   1.474
 2905SOL    HW1 9614   0.930   2.406   1.532
 2905SOL    HW2 9615   1.014   2.494   1.424
 2906SOL     OW 9616   5.489   5.876   2.058
 2906SOL    HW1 9617   5.418   5.898   1.991
 2906SOL    HW2 9618   5.476   5.782   2.091
 2907SOL     OW 9619   6.530   0.815   3.893
 2907SOL    HW1 9620   6.588   0.881   3.941
 2907SOL    HW2 9621   6.569   0.797   3.803
 2908SOL     OW 9622   4.431   6.410   4.613
 2908SOL    HW1 9623   4.347   6.375   4.571
 2908SOL    HW2 9624   4.510   6.374   4.564
 2909SOL     OW 9625   1.711   5.854   5.076
 2909SOL    HW1 9626   1.761   5.769   5.093
 2909SOL    HW2 9627   1.638   5.838   5.010
 2910SOL     OW 9628   5.299   6.489   5.849
 2910SOL    HW1 9629   5.233   6.558   5.817
 2910SOL    HW2 9630   5.276   6.400   5.810
 2911SOL     OW 9631   1.704   3.979   3.514
 2911SOL    HW1 9632   1.651   3.997   3.431
 2911SOL    HW2 9633   1.659   4.023   3.592
 2912SOL     OW 9634   2.951   5.474   0.606
 2912SOL    HW1 9635   2.911   5.407   0.544
 2912SOL    HW2 9636   3.032   5.513   0.565
 2913SOL     OW 9637   0.799   2.757   2.971
 2913SOL    HW1 9638   0.859   2.733   3.047
 2913SOL    HW2 9639   0.723   2.692   2.966
 2914SOL     OW 9640   4.783   5.377   5.350
 2914SOL    HW1 9641   4.801   5.465   5.394
 2914SOL    HW2 9642   4.746   5.393   5.259
 2915SOL     OW 9643   4.459   1.197   4.170
 2915SOL    HW1 9644   4.551   1.160   4.184
 2915SOL    HW2 9645   4.461   1.263   4.095
 2916SOL     OW 9646   5.212   5.424   4.208
 2916SOL    HW1 9647   5.264   5.485   4.268
 2916SOL    HW2 9648   5.173   5.349   4.263
 2917SOL     OW 9649   4.625   1.306   2.888
 2917SOL    HW1 9650   4.630   1.382   2.823
 2917SOL    HW2 9651   4.677   1.228   2.852
 2918SOL     OW 9652   6.903   3.820   3.847
 2918SOL    HW1 9653   6.995   3.812   3.810
 2918SOL    HW2 9654   6.855   3.895   3.800
 2919SOL     OW 9655   6.838   6.167   0.042
 2919SOL    HW1 9656   6.833   6.068   0.030
 2919SOL    HW2 9657   6.934   6.196   0.035
 2920SOL     OW 9658   4.340   2.375   3.070
 2920SOL    HW1 9659   4.431   2.409   3.094
 2920SOL    HW2 9660   4.305   2.318   3.145
 2921SOL     OW 9661   0.560   0.320   1.856
 2921SOL    HW1 9662   0.589   0.358   1.943
 2921SOL    HW2 9663   0.597   0.227   1.846
 2922SOL     OW 9664   4.205   6.882   5.766
 2922SOL    HW1 9665   4.173   6.873   5.671
 2922SOL    HW2 9666   4.148   6.948   5.814
 2923SOL     OW 9667   6.809   4.360   0.847
 2923SOL    HW1 9668   6.751   4.283   0.872
 2923SOL    HW2 9669   6.756   4.427   0.795
 2924SOL     OW 9670   5.801   0.336   5.636
 2924SOL    HW1 9671   5.800   0.419   5.693
 2924SOL    HW2 9672   5.887   0.331   5.586
 2925SOL     OW 9673   5.473   3.815   1.230
 2925SOL    HW1 9674   5.463   3.789   1.326
 2925SOL    HW2 9675   5.399   3.773   1.176
 2926SOL     OW 9676   0.132   1.278   4.414
 2926SOL    HW1 9677   0.108   1.292   4.510
 2926SOL    HW2 9678   0.127   1.365   4.365
 2927SOL     OW 9679   0.271   2.642   2.772
 2927SOL    HW1 9680   0.292   2.684   2.683
 2927SOL    HW2 9681   0.286   2.710   2.844
 2928SOL     OW 9682   5.702   6.414   0.625
 2928SOL    HW1 9683   5.767   6.340   0.640
 2928SOL    HW2 9684   5.632   6.412   0.697
 2929SOL     OW 9685   0.905   6.956   5.942
 2929SOL    HW1 9686   0.898   0.018   5.986
 2929SOL    HW2 9687   0.990   6.911   5.971
 2930SOL     OW 9688   3.834   6.658   4.562
 2930SOL    HW1 9689   3.764   6.715   4.605
 2930SOL    HW2 9690   3.791   6.601   4.492
 2931SOL     OW 9691   3.904   5.552   6.534
 2931SOL    HW1 9692   3.816   5.597   6.521
 2931SOL    HW2 9693   3.891   5.453   6.540
 2932SOL     OW 9694   1.559   4.491   1.856
 2932SOL    HW1 9695   1.611   4.429   1.915
 2932SOL    HW2 9696   1.534   4.443   1.772
 2933SOL     OW 9697   4.885   1.402   3.947
 2933SOL    HW1 9698   4.919   1.435   3.859
 2933SOL    HW2 9699   4.960   1.399   4.013
 2934SOL     OW 9700   2.834   0.649   0.218
 2934SOL    HW1 9701   2.930   0.674   0.228
 2934SOL    HW2 9702   2.827   0.560   0.171
 2935SOL     OW 9703   6.619   1.877   1.355
 2935SOL    HW1 9704   6.630   1.920   1.266
 2935SOL    HW2 9705   6.557   1.932   1.411
 2936SOL     OW 9706   3.882   6.136   0.677
 2936SOL    HW1 9707   3.931   6.048   0.681
 2936SOL    HW2 9708   3.823   6.137   0.596
 2937SOL     OW 9709   2.658   4.054   0.683
 2937SOL    HW1 9710   2.619   4.073   0.594
 2937SOL    HW2 9711   2.591   4.006   0.740
 2938SOL     OW 9712   4.397   5.488   5.409
 2938SOL    HW1 9713   4.397   5.514   5.313
 2938SOL    HW2 9714   4.489   5.495   5.446
 2939SOL     OW 9715   0.208   6.442   5.486
 2939SOL    HW1 9716   0.166   6.485   5.407
 2939SOL    HW2 9717   0.140   6.428   5.558
 2940SOL     OW 9718   4.211   0.599   5.455
 2940SOL    HW1 9719   4.300   0.644   5.453
 2940SOL    HW2 9720   4.204   0.535   5.378
 2941SOL     OW 9721   2.572   1.757   5.633
 2941SOL    HW1 9722   2.644   1.825   5.618
 2941SOL    HW2 9723   2.553   1.749   5.730
 2942SOL     OW 9724   3.915   6.587   4.276
 2942SOL    HW1 9725   3.998   6.643   4.279
 2942SOL    HW2 9726   3.937   6.494   4.305
 2943SOL     OW 9727   5.679   3.910   3.001
 2943SOL    HW1 9728   5.694   3.820   2.960
 2943SOL    HW2 9729   5.670   3.978   2.929
 2944SOL     OW 9730   3.646   6.106   6.355
 2944SOL    HW1 9731   3.670   6.028   6.296
 2944SOL    HW2 9732   3.668   6.084   6.450
 2945SOL     OW 9733   3.193   2.969   3.459
 2945SOL    HW1 9734   3.162   3.064   3.470
 2945SOL    HW2 9735   3.213   2.931   3.549
 2946SOL     OW 9736   6.881   6.227   5.905
 2946SOL    HW1 9737   6.842   6.135   5.901
 2946SOL    HW2 9738   6.876   6.261   5.999
 2947SOL     OW 9739   0.361   5.101   0.073
 2947SOL    HW1 9740   0.439   5.137   0.125
 2947SOL    HW2 9741   0.390   5.020   0.023
 2948SOL     OW 9742   6.134   4.687   5.122
 2948SOL    HW1 9743   6.201   4.691   5.048
 2948SOL    HW2 9744   6.050   4.643   5.090
 2949SOL     OW 9745   1.162   6.275   0.825
 2949SOL    HW1 9746   1.187   6.371   0.806
 2949SOL    HW2 9747   1.127   6.233   0.741
 2950SOL     OW 9748   5.352   3.584   4.662
 2950SOL    HW1 9749   5.354   3.504   4.602
 2950SOL    HW2 9750   5.434   3.584   4.719
 2951SOL     OW 9751   6.286   1.346   1.393
 2951SOL    HW1 9752   6.362   1.290   1.358
 2951SOL    HW2 9753   6.316   1.398   1.472
 2952SOL     OW 9754   1.511   3.687   1.964
 2952SOL    HW1 9755   1.486   3.765   2.022
 2952SOL    HW2 9756   1.592   3.642   2.002
 2953SOL     OW 9757   5.546   0.676   3.089
 2953SOL    HW1 9758   5.627   0.721   3.051
 2953SOL    HW2 9759   5.507   0.616   3.019
 2954SOL     OW 9760   5.771   6.342   1.846
 2954SOL    HW1 9761   5.775   6.357   1.747
 2954SOL    HW2 9762   5.688   6.291   1.868
 2955SOL     OW 9763   6.201   3.160   0.603
 2955SOL    HW1 9764   6.234   3.245   0.561
 2955SOL    HW2 9765   6.278   3.113   0.646
 2956SOL     OW 9766   6.513   5.424   2.445
 2956SOL    HW1 9767   6.555   5.391   2.529
 2956SOL    HW2 9768   6.585   5.440   2.376
 2957SOL     OW 9769   1.009   3.500   1.220
 2957SOL    HW1 9770   1.080   3.570   1.206
 2957SOL    HW2 9771   1.042   3.412   1.185
 2958SOL     OW 9772   3.566   5.056   6.488
 2958SOL    HW1 9773   3.533   5.015   6.573
 2958SOL    HW2 9774   3.661   5.083   6.499
 2959SOL     OW 9775   4.180   5.628   7.017
 2959SOL    HW1 9776   4.125   5.679   0.056
 2959SOL    HW2 9777   4.143   5.641   6.925
 2960SOL     OW 9778   2.551   1.797   6.986
 2960SOL    HW1 9779   2.479   1.829   0.020
 2960SOL    HW2 9780   2.551   1.851   6.902
 2961SOL     OW 9781   5.539   2.779   4.361
 2961SOL    HW1 9782   5.566   2.819   4.449
 2961SOL    HW2 9783   5.597   2.700   4.340
 2962SOL     OW 9784   3.626   1.085   3.890
 2962SOL    HW1 9785   3.589   1.106   3.799
 2962SOL    HW2 9786   3.620   0.986   3.906
 2963SOL     OW 9787   1.931   2.971   5.109
 2963SOL    HW1 9788   1.999   3.029   5.153
 2963SOL    HW2 9789   1.967   2.937   5.022
 2964SOL     OW 9790   2.999   5.975   0.367
 2964SOL    HW1 9791   3.058   5.921   0.428
 2964SOL    HW2 9792   2.990   5.927   0.280
 2965SOL     OW 9793   0.643   2.575   5.985
 2965SOL    HW1 9794   0.731   2.621   5.992
 2965SOL    HW2 9795   0.656   2.483   5.948
 2966SOL     OW 9796   4.443   4.661   3.804
 2966SOL    HW1 9797   4.355   4.706   3.820
 2966SOL    HW2 9798   4.434   4.596   3.729
 2967SOL     OW 9799   6.115   1.634   3.894
 2967SOL    HW1 9800   6.068   1.623   3.807
 2967SOL    HW2 9801   6.084   1.719   3.938
 2968SOL     OW 9802   6.797   4.031   3.706
 2968SOL    HW1 9803   6.700   4.006   3.701
 2968SOL    HW2 9804   6.846   3.991   3.629
 2969SOL     OW 9805   4.841   0.984   5.156
 2969SOL    HW1 9806   4.855   0.890   5.188
 2969SOL    HW2 9807   4.887   0.997   5.068
 2970SOL     OW 9808   1.158   4.688   6.455
 2970SOL    HW1 9809   1.070   4.733   6.474
 2970SOL    HW2 9810   1.147   4.589   6.462
 2971SOL     OW 9811   4.884   3.358   3.218
 2971SOL    HW1 9812   4.819   3.358   3.295
 2971SOL    HW2 9813   4.921   3.450   3.205
 2972SOL     OW 9814   0.536   4.322   6.411
 2972SOL    HW1 9815   0.556   4.417   6.436
 2972SOL    HW2 9816   0.602   4.262   6.457
 2973SOL     OW 9817   5.455   6.170   4.229
 2973SOL    HW1 9818   5.404   6.229   4.292
 2973SOL    HW2 9819   5.537   6.218   4.198
 2974SOL     OW 9820   0.146   3.945   2.282
 2974SOL    HW1 9821   0.187   3.855   2.295
 2974SOL    HW2 9822   0.102   3.949   2.193
 2975SOL     OW 9823   0.210   0.858   4.673
 2975SOL    HW1 9824   0.303   0.822   4.667
 2975SOL    HW2 9825   0.212   0.947   4.718
 2976SOL     OW 9826   3.373   6.840   1.899
 2976SOL    HW1 9827   3.371   6.919   1.960
 2976SOL    HW2 9828   3.450   6.850   1.836
 2977SOL     OW 9829   3.412   6.687   4.090
 2977SOL    HW1 9830   3.394   6.760   4.156
 2977SOL    HW2 9831   3.508   6.689   4.063
 2978SOL     OW 9832   4.147   6.419   0.043
 2978SOL    HW1 9833   4.241   6.450   0.032
 2978SOL    HW2 9834   4.088   6.466   7.004
 2979SOL     OW 9835   2.894   0.869   3.694
 2979SOL    HW1 9836   2.821   0.852   3.759
 2979SOL    HW2 9837   2.861   0.927   3.620
 2980SOL     OW 9838   6.945   6.247   3.869
 2980SOL    HW1 9839   6.937   6.168   3.930
 2980SOL    HW2 9840   0.014   6.261   3.846
 2981SOL     OW 9841   1.910   1.190   5.543
 2981SOL    HW1 9842   1.940   1.276   5.585
 2981SOL    HW2 9843   1.949   1.113   5.593
 2982SOL     OW 9844   4.638   0.191   2.948
 2982SOL    HW1 9845   4.577   0.132   2.895
 2982SOL    HW2 9846   4.659   0.147   3.036
 2983SOL     OW 9847   6.392   0.177   2.832
 2983SOL    HW1 9848   6.355   0.088   2.803
 2983SOL    HW2 9849   6.319   0.231   2.873
 2984SOL     OW 9850   5.328   4.686   1.813
 2984SOL    HW1 9851   5.302   4.701   1.717
 2984SOL    HW2 9852   5.250   4.703   1.872
 2985SOL     OW 9853   6.026   2.115   3.213
 2985SOL    HW1 9854   6.061   2.073   3.297
 2985SOL    HW2 9855   6.094   2.105   3.140
 2986SOL     OW 9856   2.215   3.783   5.241
 2986SOL    HW1 9857   2.256   3.848   5.177
 2986SOL    HW2 9858   2.115   3.787   5.233
 2987SOL     OW 9859   4.424   2.342   4.451
 2987SOL    HW1 9860   4.497   2.318   4.514
 2987SOL    HW2 9861   4.337   2.349   4.500
 2988SOL     OW 9862   0.631   0.428   2.075
 2988SOL    HW1 9863   0.551   0.394   2.126
 2988SOL    HW2 9864   0.667   0.510   2.119
 2989SOL     OW 9865   6.933   4.755   1.007
 2989SOL    HW1 9866   6.945   4.844   0.963
 2989SOL    HW2 9867   6.983   4.753   1.094
 2990SOL     OW 9868   3.292   0.007   0.980
 2990SOL    HW1 9869   3.309   7.004   1.074
 2990SOL    HW2 9870   3.362   0.074   0.954
 2991SOL     OW 9871   6.583   4.851   0.259
 2991SOL    HW1 9872   6.510   4.783   0.265
 2991SOL    HW2 9873   6.665   4.816   0.303
 2992SOL     OW 9874   4.112   4.462   6.578
 2992SOL    HW1 9875   4.120   4.553   6.618
 2992SOL    HW2 9876   4.032   4.459   6.518
 2993SOL     OW 9877   1.895   5.687   0.372
 2993SOL    HW1 9878   1.918   5.778   0.338
 2993SOL    HW2 9879   1.978   5.641   0.405
 2994SOL     OW 9880   4.330   6.808   0.070
 2994SOL    HW1 9881   4.375   6.726   0.106
 2994SOL    HW2 9882   4.233   6.791   0.058
 2995SOL     OW 9883   3.115   0.948   5.938
 2995SOL    HW1 9884   3.019   0.972   5.927
 2995SOL    HW2 9885   3.171   1.006   5.880
 2996SOL     OW 9886   3.667   5.535   6.167
 2996SOL    HW1 9887   3.673   5.562   6.071
 2996SOL    HW2 9888   3.595   5.466   6.178
 2997SOL     OW 9889   5.158   6.614   0.339
 2997SOL    HW1 9890   5.144   6.713   0.346
 2997SOL    HW2 9891   5.196   6.580   0.425
 2998SOL     OW 9892   6.535   5.820   5.043
 2998SOL    HW1 9893   6.455   5.862   5.085
 2998SOL    HW2 9894   6.570   5.747   5.102
 2999SOL     OW 9895   3.260   6.280   2.130
 2999SOL    HW1 9896   3.192   6.321   2.191
 2999SOL    HW2 9897   3.322   6.222   2.184
 3000SOL     OW 9898   1.711   2.966   4.765
 3000SOL    HW1 9899   1.723   3.063   4.747
 3000SOL    HW2 9900   1.744   2.945   4.857
 3001SOL     OW 9901   4.536   0.214   6.090
 3001SOL    HW1 9902   4.506   0.247   6.180
 3001SOL    HW2 9903   4.506   0.278   6.019
 3002SOL     OW 9904   3.681   6.940   5.594
 3002SOL    HW1 9905   3.749   6.997   5.641
 3002SOL    HW2 9906   3.713   6.918   5.502
 3003SOL     OW 9907   2.455   0.075   6.548
 3003SOL    HW1 9908   2.533   0.086   6.487
 3003SOL    HW2 9909   2.382   0.027   6.499
 3004SOL     OW 9910   6.343   3.712   4.961
 3004SOL    HW1 9911   6.360   3.793   5.018
 3004SOL    HW2 9912   6.247   3.687   4.969
 3005SOL     OW 9913   4.485   2.516   1.962
 3005SOL    HW1 9914   4.502   2.611   1.936
 3005SOL    HW2 9915   4.479   2.460   1.879
 3006SOL     OW 9916   5.293   0.819   1.483
 3006SOL    HW1 9917   5.388   0.848   1.473
 3006SOL    HW2 9918   5.287   0.720   1.483
 3007SOL     OW 9919   6.447   5.941   2.202
 3007SOL    HW1 9920   6.383   6.006   2.244
 3007SOL    HW2 9921   6.515   5.992   2.149
 3008SOL     OW 9922   4.224   5.548   6.133
 3008SOL    HW1 9923   4.139   5.551   6.185
 3008SOL    HW2 9924   4.291   5.609   6.174
 3009SOL     OW 9925   1.237   1.648   3.052
 3009SOL    HW1 9926   1.151   1.641   3.102
 3009SOL    HW2 9927   1.222   1.624   2.956
 3010SOL     OW 9928   3.773   6.834   2.159
 3010SOL    HW1 9929   3.791   6.930   2.140
 3010SOL    HW2 9930   3.725   6.793   2.081
 3011SOL     OW 9931   5.427   0.457   6.784
 3011SOL    HW1 9932   5.336   0.466   6.824
 3011SOL    HW2 9933   5.428   0.499   6.693
 3012SOL     OW 9934   0.015   4.628   2.336
 3012SOL    HW1 9935   6.945   4.615   2.357
 3012SOL    HW2 9936   0.038   4.582   2.250
 3013SOL     OW 9937   5.537   4.420   2.246
 3013SOL    HW1 9938   5.615   4.446   2.189
 3013SOL    HW2 9939   5.543   4.323   2.268
 3014SOL     OW 9940   5.210   1.383   5.055
 3014SOL    HW1 9941   5.298   1.380   5.007
 3014SOL    HW2 9942   5.207   1.309   5.122
 3015SOL     OW 9943   2.856   2.376   7.006
 3015SOL    HW1 9944   2.859   2.279   6.984
 3015SOL    HW2 9945   2.939   2.421   6.973
 3016SOL     OW 9946   3.462   5.965   3.142
 3016SOL    HW1 9947   3.464   6.030   3.066
 3016SOL    HW2 9948   3.425   5.878   3.110
 3017SOL     OW 9949   6.855   6.257   1.165
 3017SOL    HW1 9950   6.756   6.270   1.172
 3017SOL    HW2 9951   6.901   6.340   1.194
 3018SOL     OW 9952   3.415   0.098   6.174
 3018SOL    HW1 9953   3.398   0.160   6.097
 3018SOL    HW2 9954   3.467   0.019   6.142
 3019SOL     OW 9955   5.439   6.896   2.091
 3019SOL    HW1 9956   5.474   6.943   2.172
 3019SOL    HW2 9957   5.435   6.961   2.014
 3020SOL     OW 9958   1.469   1.291   0.819
 3020SOL    HW1 9959   1.437   1.292   0.724
 3020SOL    HW2 9960   1.515   1.377   0.839
 3021SOL     OW 9961   3.623   1.025   6.163
 3021SOL    HW1 9962   3.660   1.069   6.081
 3021SOL    HW2 9963   3.668   1.063   6.244
 3022SOL     OW 9964   4.942   6.892   2.915
 3022SOL    HW1 9965   4.989   6.948   2.847
 3022SOL    HW2 9966   4.990   6.899   3.003
 3023SOL     OW 9967   5.799   6.864   2.160
 3023SOL    HW1 9968   5.892   6.865   2.198
 3023SOL    HW2 9969   5.792   6.933   2.088
 3024SOL     OW 9970   2.990   6.319   6.729
 3024SOL    HW1 9971   2.891   6.309   6.716
 3024SOL    HW2 9972   3.028   6.235   6.767
 3025SOL     OW 9973   1.832   2.380   1.673
 3025SOL    HW1 9974   1.916   2.349   1.718
 3025SOL    HW2 9975   1.850   2.467   1.627
 3026SOL     OW 9976   2.051   4.524   1.192
 3026SOL    HW1 9977   1.982   4.476   1.138
 3026SOL    HW2 9978   2.019   4.534   1.286
 3027SOL     OW 9979   1.107   1.829   4.028
 3027SOL    HW1 9980   1.103   1.844   4.126
 3027SOL    HW2 9981   1.202   1.829   3.997
 3028SOL     OW 9982   1.823   0.538   4.836
 3028SOL    HW1 9983   1.799   0.494   4.750
 3028SOL    HW2 9984   1.739   0.563   4.885
 3029SOL     OW 9985   5.123   6.395   5.490
 3029SOL    HW1 9986   5.088   6.457   5.560
 3029SOL    HW2 9987   5.097   6.301   5.513
 3030SOL     OW 9988   1.148   2.256   5.923
 3030SOL    HW1 9989   1.243   2.285   5.925
 3030SOL    HW2 9990   1.128   2.214   5.834
 3031SOL     OW 9991   1.450   4.752   6.830
 3031SOL    HW1 9992   1.540   4.779   6.797
 3031SOL    HW2 9993   1.459   4.703   6.917
 3032SOL     OW 9994   4.769   0.425   5.873
 3032SOL    HW1 9995   4.863   0.392   5.885
 3032SOL    HW2 9996   4.737   0.465   5.959
 3033SOL     OW 9997   5.007   4.813   6.471
 3033SOL    HW1 9998   4.998   4.880   6.545
 3033SOL    HW2 9999   5.098   4.772   6.474
 3034SOL     OW10000   2.092   0.111   4.312
 3034SOL    HW110001   2.173   0.067   4.273
 3034SOL    HW210002   2.108   0.134   4.408
 3035SOL     OW10003   6.416   6.967   6.963
 3035SOL    HW110004   6.391   6.874   6.992
 3035SOL    HW210005   6.504   6.965   6.917
 3036SOL     OW10006   1.367   4.652   6.225
 3036SOL    HW110007   1.352   4.697   6.314
 3036SOL    HW210008   1.408   4.717   6.162
 3037SOL     OW10009   6.756   6.654   5.538
 3037SOL    HW110010   6.784   6.612   5.452
 3037SOL    HW210011   6.819   6.625   5.611
 3038SOL     OW10012   5.596   0.137   5.614
 3038SOL    HW110013   5.648   0.222   5.612
 3038SOL    HW210014   5.534   0.134   5.535
 3039SOL     OW10015   0.797   5.020   0.960
 3039SOL    HW110016   0.865   5.082   0.920
 3039SOL    HW210017   0.716   5.072   0.987
 3040SOL     OW10018   2.313   2.705   6.666
 3040SOL    HW110019   2.336   2.613   6.697
 3040SOL    HW210020   2.359   2.724   6.579
 3041SOL     OW10021   1.776   2.027   6.116
 3041SOL    HW110022   1.680   2.011   6.142
 3041SOL    HW210023   1.828   2.052   6.198
 3042SOL     OW10024   4.690   0.596   1.801
 3042SOL    HW110025   4.640   0.563   1.882
 3042SOL    HW210026   4.734   0.683   1.823
 3043SOL     OW10027   0.052   5.368   0.484
 3043SOL    HW110028   0.003   5.283   0.463
 3043SOL    HW210029   0.049   5.384   0.583
 3044SOL     OW10030   3.374   3.941   6.074
 3044SOL    HW110031   3.337   3.881   6.004
 3044SOL    HW210032   3.343   3.910   6.164
 3045SOL     OW10033   5.533   2.018   3.588
 3045SOL    HW110034   5.459   2.022   3.520
 3045SOL    HW210035   5.615   2.060   3.550
 3046SOL     OW10036   2.358   2.371   5.630
 3046SOL    HW110037   2.446   2.356   5.674
 3046SOL    HW210038   2.370   2.426   5.548
 3047SOL     OW10039   6.612   4.523   2.155
 3047SOL    HW110040   6.710   4.537   2.171
 3047SOL    HW210041   6.598   4.446   2.093
 3048SOL     OW10042   3.189   2.426   1.526
 3048SOL    HW110043   3.276   2.390   1.561
 3048SOL    HW210044   3.117   2.411   1.594
 3049SOL     OW10045   0.928   0.383   2.080
 3049SOL    HW110046   0.898   0.342   1.994
 3049SOL    HW210047   0.848   0.415   2.131
 3050SOL     OW10048   3.534   5.455   3.745
 3050SOL    HW110049   3.536   5.355   3.754
 3050SOL    HW210050   3.441   5.489   3.757
 3051SOL     OW10051   2.701   4.271   5.598
 3051SOL    HW110052   2.653   4.355   5.622
 3051SOL    HW210053   2.706   4.262   5.498
 3052SOL     OW10054   4.323   6.770   2.952
 3052SOL    HW110055   4.225   6.752   2.962
 3052SOL    HW210056   4.356   6.820   3.032
 3053SOL     OW10057   4.932   6.627   0.643
 3053SOL    HW110058   4.938   6.536   0.602
 3053SOL    HW210059   4.973   6.625   0.734
 3054SOL     OW10060   1.997   3.716   6.171
 3054SOL    HW110061   2.046   3.689   6.088
 3054SOL    HW210062   1.955   3.635   6.212
 3055SOL     OW10063   5.926   6.109   2.772
 3055SOL    HW110064   5.999   6.041   2.775
 3055SOL    HW210065   5.915   6.142   2.678
 3056SOL     OW10066   6.534   0.927   1.164
 3056SOL    HW110067   6.527   0.839   1.211
 3056SOL    HW210068   6.523   0.913   1.066
 3057SOL     OW10069   6.298   5.759   2.620
 3057SOL    HW110070   6.323   5.664   2.636
 3057SOL    HW210071   6.232   5.763   2.544
 3058SOL     OW10072   6.252   4.547   1.604
 3058SOL    HW110073   6.286   4.577   1.515
 3058SOL    HW210074   6.268   4.618   1.672
 3059SOL     OW10075   1.986   2.904   4.830
 3059SOL    HW110076   1.913   2.946   4.777
 3059SOL    HW210077   2.073   2.946   4.805
 3060SOL     OW10078   6.538   0.071   0.784
 3060SOL    HW110079   6.602   0.054   0.859
 3060SOL    HW210080   6.576   0.035   0.699
 3061SOL     OW10081   0.058   0.656   6.107
 3061SOL    HW110082   7.015   0.705   6.158
 3061SOL    HW210083   0.080   0.707   6.024
 3062SOL     OW10084   2.868   6.080   6.189
 3062SOL    HW110085   2.884   6.046   6.097
 3062SOL    HW210086   2.771   6.071   6.211
 3063SOL     OW10087   1.792   5.069   0.871
 3063SOL    HW110088   1.740   5.054   0.787
 3063SOL    HW210089   1.872   5.126   0.850
 3064SOL     OW10090   6.834   4.810   2.904
 3064SOL    HW110091   6.931   4.784   2.910
 3064SOL    HW210092   6.802   4.794   2.810
 3065SOL     OW10093   1.733   0.771   1.085
 3065SOL    HW110094   1.671   0.844   1.055
 3065SOL    HW210095   1.822   0.782   1.041
 3066SOL     OW10096   5.730   5.147   1.175
 3066SOL    HW110097   5.812   5.090   1.184
 3066SOL    HW210098   5.652   5.090   1.151
 3067SOL     OW10099   4.959   6.454   3.604
 3067SOL    HW110100   4.977   6.395   3.682
 3067SOL    HW210101   4.969   6.550   3.631
 3068SOL     OW10102   6.159   5.141   0.398
 3068SOL    HW110103   6.158   5.169   0.302
 3068SOL    HW210104   6.233   5.189   0.446
 3069SOL     OW10105   1.266   5.585   3.509
 3069SOL    HW110106   1.295   5.657   3.571
 3069SOL    HW210107   1.173   5.556   3.532
 3070SOL     OW10108   4.001   1.894   4.119
 3070SOL    HW110109   3.987   1.930   4.212
 3070SOL    HW210110   4.095   1.860   4.110
 3071SOL     OW10111   5.992   6.845   3.474
 3071SOL    HW110112   5.984   6.773   3.405
 3071SOL    HW210113   6.072   6.827   3.532
 3072SOL     OW10114   0.642   6.853   2.162
 3072SOL    HW110115   0.583   6.878   2.086
 3072SOL    HW210116   0.736   6.883   2.143
 3073SOL     OW10117   1.283   3.491   4.373
 3073SOL    HW110118   1.331   3.411   4.407
 3073SOL    HW210119   1.334   3.574   4.398
 3074SOL     OW10120   5.043   3.298   5.841
 3074SOL    HW110121   5.100   3.340   5.911
 3074SOL    HW210122   4.996   3.218   5.879
 3075SOL     OW10123   1.404   5.465   1.848
 3075SOL    HW110124   1.370   5.558   1.862
 3075SOL    HW210125   1.351   5.402   1.905
 3076SOL     OW10126   0.527   0.366   5.086
 3076SOL    HW110127   0.599   0.299   5.072
 3076SOL    HW210128   0.472   0.375   5.003
 3077SOL     OW10129   5.016   4.758   4.146
 3077SOL    HW110130   5.098   4.812   4.126
 3077SOL    HW210131   4.958   4.755   4.064
 3078SOL     OW10132   2.266   2.912   0.922
 3078SOL    HW110133   2.270   3.010   0.939
 3078SOL    HW210134   2.199   2.893   0.850
 3079SOL     OW10135   5.852   2.669   6.026
 3079SOL    HW110136   5.878   2.765   6.014
 3079SOL    HW210137   5.796   2.640   5.948
 3080SOL     OW10138   6.301   5.861   0.865
 3080SOL    HW110139   6.247   5.928   0.916
 3080SOL    HW210140   6.364   5.815   0.927
 3081SOL     OW10141   6.459   5.070   5.789
 3081SOL    HW110142   6.510   5.031   5.865
 3081SOL    HW210143   6.483   5.022   5.704
 3082SOL     OW10144   2.454   7.025   2.663
 3082SOL    HW110145   2.484   6.935   2.632
 3082SOL    HW210146   2.534   0.057   2.677
 3083SOL     OW10147   3.681   0.745   2.036
 3083SOL    HW110148   3.711   0.803   2.112
 3083SOL    HW210149   3.587   0.716   2.052
 3084SOL     OW10150   4.839   6.463   4.737
 3084SOL    HW110151   4.851   6.403   4.658
 3084SOL    HW210152   4.761   6.432   4.791
 3085SOL     OW10153   0.787   5.607   1.879
 3085SOL    HW110154   0.840   5.678   1.924
 3085SOL    HW210155   0.719   5.649   1.818
 3086SOL     OW10156   5.662   1.201   4.085
 3086SOL    HW110157   5.710   1.282   4.051
 3086SOL    HW210158   5.620   1.152   4.009
 3087SOL     OW10159   5.676   2.960   2.750
 3087SOL    HW110160   5.710   2.991   2.661
 3087SOL    HW210161   5.667   3.039   2.810
 3088SOL     OW10162   2.997   4.442   6.058
 3088SOL    HW110163   3.024   4.360   6.108
 3088SOL    HW210164   2.942   4.416   5.978
 3089SOL     OW10165   1.529   2.270   0.431
 3089SOL    HW110166   1.533   2.335   0.356
 3089SOL    HW210167   1.547   2.317   0.518
 3090SOL     OW10168   0.956   1.400   1.292
 3090SOL    HW110169   0.976   1.498   1.290
 3090SOL    HW210170   0.862   1.384   1.261
 3091SOL     OW10171   2.298   0.008   0.586
 3091SOL    HW110172   2.244   0.018   0.669
 3091SOL    HW210173   2.378   6.977   0.605
 3092SOL     OW10174   4.527   6.490   1.085
 3092SOL    HW110175   4.614   6.523   1.121
 3092SOL    HW210176   4.497   6.411   1.139
 3093SOL     OW10177   5.274   6.156   4.021
 3093SOL    HW110178   5.222   6.071   4.024
 3093SOL    HW210179   5.358   6.146   4.074
 3094SOL     OW10180   3.240   5.409   5.506
 3094SOL    HW110181   3.269   5.336   5.445
 3094SOL    HW210182   3.186   5.477   5.455
 3095SOL     OW10183   2.936   4.892   4.568
 3095SOL    HW110184   2.859   4.831   4.548
 3095SOL    HW210185   2.947   4.957   4.494
 3096SOL     OW10186   0.812   0.859   5.474
 3096SOL    HW110187   0.758   0.775   5.465
 3096SOL    HW210188   0.750   0.938   5.479
 3097SOL     OW10189   1.119   3.134   0.301
 3097SOL    HW110190   1.080   3.044   0.322
 3097SOL    HW210191   1.213   3.122   0.268
 3098SOL     OW10192   3.827   1.955   0.253
 3098SOL    HW110193   3.779   2.004   0.180
 3098SOL    HW210194   3.866   1.871   0.216
 3099SOL     OW10195   1.274   6.163   4.724
 3099SOL    HW110196   1.281   6.160   4.624
 3099SOL    HW210197   1.299   6.074   4.763
 3100SOL     OW10198   6.718   6.672   0.592
 3100SOL    HW110199   6.649   6.615   0.546
 3100SOL    HW210200   6.804   6.622   0.598
 3101SOL     OW10201   4.558   0.223   1.002
 3101SOL    HW110202   4.466   0.205   0.966
 3101SOL    HW210203   4.619   0.147   0.978
 3102SOL     OW10204   1.387   5.343   0.871
 3102SOL    HW110205   1.330   5.266   0.901
 3102SOL    HW210206   1.484   5.319   0.881
 3103SOL     OW10207   3.817   3.342   2.207
 3103SOL    HW110208   3.746   3.276   2.232
 3103SOL    HW210209   3.857   3.317   2.119
 3104SOL     OW10210   6.688   5.316   3.313
 3104SOL    HW110211   6.699   5.367   3.228
 3104SOL    HW210212   6.590   5.303   3.332
 3105SOL     OW10213   6.458   6.168   3.878
 3105SOL    HW110214   6.493   6.127   3.794
 3105SOL    HW210215   6.525   6.234   3.913
 3106SOL     OW10216   0.003   2.815   4.739
 3106SOL    HW110217   7.007   2.762   4.657
 3106SOL    HW210218   0.095   2.793   4.768
 3107SOL     OW10219   2.974   0.123   4.058
 3107SOL    HW110220   3.029   0.190   4.107
 3107SOL    HW210221   2.980   0.035   4.105
 3108SOL     OW10222   3.232   0.117   3.456
 3108SOL    HW110223   3.196   0.062   3.531
 3108SOL    HW210224   3.157   0.166   3.411
 3109SOL     OW10225   4.947   5.930   2.908
 3109SOL    HW110226   4.860   5.883   2.897
 3109SOL    HW210227   5.019   5.863   2.927
 3110SOL     OW10228   0.363   2.794   2.523
 3110SOL    HW110229   0.331   2.833   2.437
 3110SOL    HW210230   0.453   2.832   2.545
 3111SOL     OW10231   6.562   4.778   3.683
 3111SOL    HW110232   6.565   4.681   3.660
 3111SOL    HW210233   6.655   4.813   3.694
 3112SOL     OW10234   3.276   3.660   6.554
 3112SOL    HW110235   3.199   3.724   6.548
 3112SOL    HW210236   3.244   3.573   6.590
 3113SOL     OW10237   3.496   0.402   3.751
 3113SOL    HW110238   3.422   0.411   3.683
 3113SOL    HW210239   3.567   0.470   3.732
 3114SOL     OW10240   5.489   5.707   0.814
 3114SOL    HW110241   5.473   5.628   0.756
 3114SOL    HW210242   5.586   5.711   0.838
 3115SOL     OW10243   2.640   3.448   1.577
 3115SOL    HW110244   2.574   3.375   1.560
 3115SOL    HW210245   2.691   3.429   1.661
 3116SOL     OW10246   6.843   1.787   0.102
 3116SOL    HW110247   6.820   1.871   0.053
 3116SOL    HW210248   6.847   1.711   0.038
 3117SOL     OW10249   4.001   3.981   5.154
 3117SOL    HW110250   4.025   3.975   5.058
 3117SOL    HW210251   4.033   4.069   5.191
 3118SOL     OW10252   6.164   5.179   0.139
 3118SOL    HW110253   6.144   5.220   0.050
 3118SOL    HW210254   6.253   5.133   0.136
 3119SOL     OW10255   2.149   4.866   5.714
 3119SOL    HW110256   2.236   4.825   5.685
 3119SOL    HW210257   2.142   4.860   5.814
 3120SOL     OW10258   3.270   5.506   5.119
 3120SOL    HW110259   3.346   5.479   5.178
 3120SOL    HW210260   3.288   5.596   5.079
 3121SOL     OW10261   0.649   6.472   2.582
 3121SOL    HW110262   0.713   6.548   2.587
 3121SOL    HW210263   0.676   6.410   2.508
 3122SOL     OW10264   3.089   5.547   0.841
 3122SOL    HW110265   3.012   5.554   0.777
 3122SOL    HW210266   3.072   5.473   0.906
 3123SOL     OW10267   4.067   6.808   4.856
 3123SOL    HW110268   4.154   6.776   4.896
 3123SOL    HW210269   4.046   6.752   4.776
 3124SOL     OW10270   3.452   7.003   5.830
 3124SOL    HW110271   3.454   6.949   5.915
 3124SOL    HW210272   3.542   0.017   5.816
 3125SOL     OW10273   6.705   1.578   5.962
 3125SOL    HW110274   6.776   1.648   5.966
 3125SOL    HW210275   6.688   1.542   6.054
 3126SOL     OW10276   4.098   6.282   0.282
 3126SOL    HW110277   4.109   6.313   0.188
 3126SOL    HW210278   4.167   6.325   0.340
 3127SOL     OW10279   0.988   1.658   3.871
 3127SOL    HW110280   0.892   1.678   3.854
 3127SOL    HW210281   1.025   1.726   3.935
 3128SOL     OW10282   1.293   1.660   0.205
 3128SOL    HW110283   1.263   1.754   0.185
 3128SOL    HW210284   1.240   1.596   0.150
 3129SOL     OW10285   1.437   2.904   4.596
 3129SOL    HW110286   1.458   2.973   4.526
 3129SOL    HW210287   1.347   2.865   4.577
 3130SOL     OW10288   1.833   5.810   2.717
 3130SOL    HW110289   1.885   5.895   2.724
 3130SOL    HW210290   1.887   5.734   2.752
 3131SOL     OW10291   0.015   3.134   3.534
 3131SOL    HW110292   6.957   3.169   3.493
 3131SOL    HW210293   0.053   3.063   3.476
 3132SOL     OW10294   5.012   6.352   5.010
 3132SOL    HW110295   5.037   6.396   5.096
 3132SOL    HW210296   4.915   6.327   5.011
 3133SOL     OW10297   2.817   1.700   2.748
 3133SOL    HW110298   2.898   1.702   2.689
 3133SOL    HW210299   2.823   1.774   2.815
 3134SOL     OW10300   4.908   3.201   2.674
 3134SOL    HW110301   4.881   3.158   2.588
 3134SOL    HW210302   5.007   3.215   2.675
 3135SOL     OW10303   3.031   1.876   3.154
 3135SOL    HW110304   3.022   1.813   3.077
 3135SOL    HW210305   3.103   1.842   3.215
 3136SOL     OW10306   6.158   6.512   5.124
 3136SOL    HW110307   6.140   6.414   5.126
 3136SOL    HW210308   6.099   6.558   5.190
 3137SOL     OW10309   6.920   1.700   4.564
 3137SOL    HW110310   6.904   1.641   4.644
 3137SOL    HW210311   7.005   1.751   4.578
 3138SOL     OW10312   5.151   1.868   5.107
 3138SOL    HW110313   5.123   1.774   5.125
 3138SOL    HW210314   5.209   1.901   5.182
 3139SOL     OW10315   5.038   6.126   5.532
 3139SOL    HW110316   5.090   6.060   5.585
 3139SOL    HW210317   4.945   6.092   5.518
 3140SOL     OW10318   6.477   6.441   6.782
 3140SOL    HW110319   6.396   6.392   6.814
 3140SOL    HW210320   6.556   6.380   6.786
 3141SOL     OW10321   0.898   5.242   0.476
 3141SOL    HW110322   0.987   5.207   0.445
 3141SOL    HW210323   0.909   5.283   0.566
 3142SOL     OW10324   3.681   6.686   6.830
 3142SOL    HW110325   3.686   6.642   6.740
 3142SOL    HW210326   3.589   6.722   6.844
 3143SOL     OW10327   0.228   1.686   0.717
 3143SOL    HW110328   0.228   1.767   0.658
 3143SOL    HW210329   0.319   1.645   0.718
 3144SOL     OW10330   1.805   3.644   6.455
 3144SOL    HW110331   1.890   3.614   6.498
 3144SOL    HW210332   1.789   3.590   6.372
 3145SOL     OW10333   3.899   6.568   3.975
 3145SOL    HW110334   3.986   6.551   3.928
 3145SOL    HW210335   3.913   6.562   4.073
 3146SOL     OW10336   2.311   0.784   3.971
 3146SOL    HW110337   2.255   0.753   3.895
 3146SOL    HW210338   2.305   0.883   3.979
 3147SOL     OW10339   3.930   3.637   0.597
 3147SOL    HW110340   3.914   3.704   0.524
 3147SOL    HW210341   4.019   3.593   0.583
 3148SOL     OW10342   3.829   5.641   5.017
 3148SOL    HW110343   3.732   5.637   5.041
 3148SOL    HW210344   3.880   5.578   5.075
 3149SOL     OW10345   3.536   6.366   5.663
 3149SOL    HW110346   3.517   6.422   5.583
 3149SOL    HW210347   3.531   6.423   5.745
 3150SOL     OW10348   6.448   0.066   4.452
 3150SOL    HW110349   6.359   0.104   4.428
 3150SOL    HW210350   6.477   0.001   4.382
 3151SOL     OW10351   3.697   0.685   6.913
 3151SOL    HW110352   3.782   0.731   6.887
 3151SOL    HW210353   3.708   0.643   7.003
 3152SOL     OW10354   1.594   4.985   0.355
 3152SOL    HW110355   1.652   4.920   0.306
 3152SOL    HW210356   1.629   4.996   0.448
 3153SOL     OW10357   0.258   4.451   2.804
 3153SOL    HW110358   0.335   4.507   2.773
 3153SOL    HW210359   0.193   4.440   2.728
 3154SOL     OW10360   5.706   2.042   6.484
 3154SOL    HW110361   5.725   2.045   6.583
 3154SOL    HW210362   5.616   2.081   6.467
 3155SOL     OW10363   4.932   6.000   0.044
 3155SOL    HW110364   4.915   6.044   0.131
 3155SOL    HW210365   5.020   5.953   0.046
 3156SOL     OW10366   3.188   3.591   3.386
 3156SOL    HW110367   3.098   3.634   3.387
 3156SOL    HW210368   3.248   3.640   3.323
 3157SOL     OW10369   2.406   2.570   4.678
 3157SOL    HW110370   2.405   2.643   4.746
 3157SOL    HW210371   2.481   2.507   4.697
 3158SOL     OW10372   4.330   6.299   1.228
 3158SOL    HW110373   4.373   6.218   1.189
 3158SOL    HW210374   4.242   6.315   1.183
 3159SOL     OW10375   5.976   4.573   0.797
 3159SOL    HW110376   5.967   4.627   0.880
 3159SOL    HW210377   5.895   4.515   0.786
 3160SOL     OW10378   5.700   4.779   0.185
 3160SOL    HW110379   5.724   4.785   0.088
 3160SOL    HW210380   5.761   4.714   0.230
 3161SOL     OW10381   0.499   1.870   2.762
 3161SOL    HW110382   0.542   1.959   2.775
 3161SOL    HW210383   0.536   1.805   2.829
 3162SOL     OW10384   6.204   6.590   6.100
 3162SOL    HW110385   6.275   6.572   6.169
 3162SOL    HW210386   6.245   6.635   6.021
 3163SOL     OW10387   2.782   4.233   5.335
 3163SOL    HW110388   2.880   4.212   5.341
 3163SOL    HW210389   2.771   4.329   5.310
 3164SOL     OW10390   5.462   5.600   6.070
 3164SOL    HW110391   5.373   5.612   6.115
 3164SOL    HW210392   5.495   5.507   6.085
 3165SOL     OW10393   0.111   2.658   1.556
 3165SOL    HW110394   0.208   2.650   1.579
 3165SOL    HW210395   0.076   2.568   1.527
 3166SOL     OW10396   5.914   2.813   6.636
 3166SOL    HW110397   5.820   2.823   6.668
 3166SOL    HW210398   5.977   2.842   6.708
 3167SOL     OW10399   1.230   4.335   2.650
 3167SOL    HW110400   1.210   4.289   2.563
 3167SOL    HW210401   1.180   4.421   2.655
 3168SOL     OW10402   5.136   2.965   0.988
 3168SOL    HW110403   5.219   2.981   1.042
 3168SOL    HW210404   5.083   3.049   0.984
 3169SOL     OW10405   1.877   1.774   4.822
 3169SOL    HW110406   1.782   1.801   4.810
 3169SOL    HW210407   1.933   1.855   4.841
 3170SOL     OW10408   4.452   0.656   6.032
 3170SOL    HW110409   4.517   0.650   6.108
 3170SOL    HW210410   4.367   0.611   6.058
 3171SOL     OW10411   6.119   0.047   3.097
 3171SOL    HW110412   6.169   6.988   3.111
 3171SOL    HW210413   6.152   0.091   3.013
 3172SOL     OW10414   5.816   0.441   6.041
 3172SOL    HW110415   5.813   0.459   5.943
 3172SOL    HW210416   5.767   0.356   6.061
 3173SOL     OW10417   1.642   1.509   1.143
 3173SOL    HW110418   1.714   1.540   1.081
 3173SOL    HW210419   1.644   1.565   1.226
 3174SOL     OW10420   1.670   4.202   6.185
 3174SOL    HW110421   1.684   4.250   6.099
 3174SOL    HW210422   1.595   4.246   6.236
 3175SOL     OW10423   6.942   5.816   1.013
 3175SOL    HW110424   6.908   5.905   0.984
 3175SOL    HW210425   6.968   5.820   1.110
 3176SOL     OW10426   1.722   5.620   6.138
 3176SOL    HW110427   1.660   5.695   6.161
 3176SOL    HW210428   1.764   5.637   6.049
 3177SOL     OW10429   0.270   0.081   4.163
 3177SOL    HW110430   0.188   0.100   4.111
 3177SOL    HW210431   0.259   7.022   4.213
 3178SOL     OW10432   1.590   3.290   0.748
 3178SOL    HW110433   1.680   3.313   0.712
 3178SOL    HW210434   1.525   3.280   0.673
 3179SOL     OW10435   1.027   2.343   3.452
 3179SOL    HW110436   1.055   2.369   3.359
 3179SOL    HW210437   1.106   2.310   3.503
 3180SOL     OW10438   5.490   1.040   6.145
 3180SOL    HW110439   5.563   1.029   6.079
 3180SOL    HW210440   5.411   1.083   6.100
 3181SOL     OW10441   0.274   1.797   3.587
 3181SOL    HW110442   0.188   1.763   3.550
 3181SOL    HW210443   0.346   1.789   3.518
 3182SOL     OW10444   1.592   4.494   5.066
 3182SOL    HW110445   1.556   4.583   5.036
 3182SOL    HW210446   1.692   4.495   5.057
 3183SOL     OW10447   4.335   3.152   1.451
 3183SOL    HW110448   4.371   3.192   1.535
 3183SOL    HW210449   4.410   3.110   1.400
 3184SOL     OW10450   2.652   1.669   3.056
 3184SOL    HW110451   2.663   1.582   3.009
 3184SOL    HW210452   2.610   1.735   2.994
 3185SOL     OW10453   0.513   6.570   5.920
 3185SOL    HW110454   0.514   6.507   5.843
 3185SOL    HW210455   0.604   6.610   5.932
 3186SOL     OW10456   3.424   0.400   1.832
 3186SOL    HW110457   3.492   0.423   1.902
 3186SOL    HW210458   3.343   0.456   1.845
 3187SOL     OW10459   2.839   4.555   0.028
 3187SOL    HW110460   2.876   4.535   6.964
 3187SOL    HW210461   2.915   4.569   0.092
 3188SOL     OW10462   4.996   0.381   3.178
 3188SOL    HW110463   5.019   0.476   3.202
 3188SOL    HW210464   4.944   0.381   3.092
 3189SOL     OW10465   0.232   6.995   1.589
 3189SOL    HW110466   0.142   0.007   1.605
 3189SOL    HW210467   0.284   0.026   1.527
 3190SOL     OW10468   0.775   6.877   1.448
 3190SOL    HW110469   0.779   6.777   1.444
 3190SOL    HW210470   0.842   6.915   1.384
 3191SOL     OW10471   3.279   0.390   0.986
 3191SOL    HW110472   3.210   0.454   1.022
 3191SOL    HW210473   3.256   0.366   0.892
 3192SOL     OW10474   5.842   2.543   3.724
 3192SOL    HW110475   5.820   2.606   3.799
 3192SOL    HW210476   5.908   2.475   3.756
 3193SOL     OW10477   4.964   4.131   0.258
 3193SOL    HW110478   5.014   4.213   0.283
 3193SOL    HW210479   4.899   4.153   0.185
 3194SOL     OW10480   1.556   4.846   5.781
 3194SOL    HW110481   1.639   4.901   5.777
 3194SOL    HW210482   1.528   4.821   5.688
 3195SOL     OW10483   0.715   3.914   2.979
 3195SOL    HW110484   0.765   3.835   3.014
 3195SOL    HW210485   0.765   3.954   2.902
 3196SOL     OW10486   0.542   6.150   5.297
 3196SOL    HW110487   0.451   6.143   5.255
 3196SOL    HW210488   0.533   6.141   5.396
 3197SOL     OW10489   0.980   4.003   4.258
 3197SOL    HW110490   1.040   3.929   4.228
 3197SOL    HW210491   0.997   4.084   4.202
 3198SOL     OW10492   5.527   0.246   0.340
 3198SOL    HW110493   5.449   0.215   0.396
 3198SOL    HW210494   5.581   0.166   0.312
 3199SOL     OW10495   3.778   2.027   2.813
 3199SOL    HW110496   3.722   2.030   2.729
 3199SOL    HW210497   3.819   1.936   2.821
 3200SOL     OW10498   6.938   1.939   0.962
 3200SOL    HW110499   6.985   2.024   0.937
 3200SOL    HW210500   6.850   1.935   0.916
 3201SOL     OW10501   4.633   4.474   3.287
 3201SOL    HW110502   4.544   4.515   3.268
 3201SOL    HW210503   4.676   4.520   3.364
 3202SOL     OW10504   1.655   5.727   2.065
 3202SOL    HW110505   1.645   5.647   2.123
 3202SOL    HW210506   1.684   5.805   2.120
 3203SOL     OW10507   5.352   6.928   1.277
 3203SOL    HW110508   5.372   7.026   1.288
 3203SOL    HW210509   5.279   6.902   1.339
 3204SOL     OW10510   6.295   6.126   1.463
 3204SOL    HW110511   6.198   6.145   1.476
 3204SOL    HW210512   6.348   6.208   1.484
 3205SOL     OW10513   1.505   3.784   3.316
 3205SOL    HW110514   1.445   3.863   3.323
 3205SOL    HW210515   1.598   3.814   3.297
 3206SOL     OW10516   1.484   6.288   0.220
 3206SOL    HW110517   1.480   6.259   0.316
 3206SOL    HW210518   1.446   6.216   0.162
 3207SOL     OW10519   0.834   1.537   2.754
 3207SOL    HW110520   0.867   1.512   2.664
 3207SOL    HW210521   0.785   1.460   2.794
 3208SOL     OW10522   6.144   0.630   5.224
 3208SOL    HW110523   6.163   0.540   5.263
 3208SOL    HW210524   6.190   0.700   5.278
 3209SOL     OW10525   2.801   0.409   2.781
 3209SOL    HW110526   2.881   0.349   2.772
 3209SOL    HW210527   2.720   0.362   2.749
 3210SOL     OW10528   0.502   4.932   2.713
 3210SOL    HW110529   0.462   4.891   2.631
 3210SOL    HW210530   0.577   4.992   2.688
 3211SOL     OW10531   0.915   4.456   2.911
 3211SOL    HW110532   0.944   4.480   2.818
 3211SOL    HW210533   0.958   4.370   2.938
 3212SOL     OW10534   4.948   3.098   5.023
 3212SOL    HW110535   4.909   3.132   5.108
 3212SOL    HW210536   4.936   3.167   4.951
 3213SOL     OW10537   5.087   6.830   1.375
 3213SOL    HW110538   5.083   6.758   1.445
 3213SOL    HW210539   5.020   6.901   1.396
 3214SOL     OW10540   4.317   4.160   6.076
 3214SOL    HW110541   4.393   4.128   6.133
 3214SOL    HW210542   4.272   4.237   6.122
 3215SOL     OW10543   5.855   0.874   0.345
 3215SOL    HW110544   5.910   0.792   0.363
 3215SOL    HW210545   5.834   0.879   0.247
 3216SOL     OW10546   6.456   6.502   4.796
 3216SOL    HW110547   6.529   6.437   4.778
 3216SOL    HW210548   6.369   6.463   4.766
 3217SOL     OW10549   6.889   4.257   0.537
 3217SOL    HW110550   6.821   4.219   0.600
 3217SOL    HW210551   6.893   4.200   0.454
 3218SOL     OW10552   3.701   0.991   1.890
 3218SOL    HW110553   3.689   0.930   1.812
 3218SOL    HW210554   3.785   0.965   1.939
 3219SOL     OW10555   6.799   6.825   4.326
 3219SOL    HW110556   6.748   6.819   4.411
 3219SOL    HW210557   6.784   6.915   4.284
 3220SOL     OW10558   5.944   2.892   6.360
 3220SOL    HW110559   5.935   2.850   6.450
 3220SOL    HW210560   5.874   2.855   6.299
 3221SOL     OW10561   3.754   0.210   2.367
 3221SOL    HW110562   3.713   0.123   2.338
 3221SOL    HW210563   3.695   0.253   2.436
 3222SOL     OW10564   6.109   3.666   2.550
 3222SOL    HW110565   6.163   3.625   2.623
 3222SOL    HW210566   6.171   3.714   2.487
 3223SOL     OW10567   2.517   4.508   4.031
 3223SOL    HW110568   2.440   4.561   4.067
 3223SOL    HW210569   2.583   4.491   4.104
 3224SOL     OW10570   3.702   5.867   1.367
 3224SOL    HW110571   3.613   5.845   1.405
 3224SOL    HW210572   3.697   5.955   1.320
 3225SOL     OW10573   2.310   2.463   1.312
 3225SOL    HW110574   2.360   2.526   1.251
 3225SOL    HW210575   2.244   2.411   1.258
 3226SOL     OW10576   0.377   0.920   4.229
 3226SOL    HW110577   0.455   0.897   4.287
 3226SOL    HW210578   0.331   0.836   4.199
 3227SOL     OW10579   2.303   1.837   5.575
 3227SOL    HW110580   2.402   1.824   5.568
 3227SOL    HW210581   2.280   1.932   5.554
 3228SOL     OW10582   5.016   3.333   4.612
 3228SOL    HW110583   4.974   3.257   4.562
 3228SOL    HW210584   5.014   3.415   4.555
 3229SOL     OW10585   4.013   1.545   5.258
 3229SOL    HW110586   4.026   1.634   5.303
 3229SOL    HW210587   4.094   1.522   5.206
 3230SOL     OW10588   1.516   0.552   3.765
 3230SOL    HW110589   1.486   0.506   3.682
 3230SOL    HW210590   1.493   0.649   3.760
 3231SOL     OW10591   4.979   5.407   0.327
 3231SOL    HW110592   5.062   5.405   0.271
 3231SOL    HW210593   5.001   5.443   0.418
 3232SOL     OW10594   2.223   4.496   3.191
 3232SOL    HW110595   2.224   4.537   3.282
 3232SOL    HW210596   2.287   4.420   3.188
 3233SOL     OW10597   1.578   3.813   0.699
 3233SOL    HW110598   1.567   3.766   0.787
 3233SOL    HW210599   1.593   3.910   0.715
 3234SOL     OW10600   6.379   2.393   4.966
 3234SOL    HW110601   6.394   2.481   5.012
 3234SOL    HW210602   6.284   2.388   4.934
 3235SOL     OW10603   5.359   0.711   2.560
 3235SOL    HW110604   5.425   0.772   2.604
 3235SOL    HW210605   5.269   0.725   2.601
 3236SOL     OW10606   0.201   2.953   1.629
 3236SOL    HW110607   0.299   2.938   1.635
 3236SOL    HW210608   0.173   2.954   1.533
 3237SOL     OW10609   2.842   6.537   4.527
 3237SOL    HW110610   2.860   6.459   4.588
 3237SOL    HW210611   2.784   6.508   4.451
 3238SOL     OW10612   6.154   6.117   6.489
 3238SOL    HW110613   6.194   6.071   6.410
 3238SOL    HW210614   6.117   6.206   6.461
 3239SOL     OW10615   0.631   5.507   5.576
 3239SOL    HW110616   0.569   5.570   5.622
 3239SOL    HW210617   0.579   5.449   5.513
 3240SOL     OW10618   0.199   2.078   5.226
 3240SOL    HW110619   0.218   1.988   5.187
 3240SOL    HW210620   0.165   2.139   5.154
 3241SOL     OW10621   4.818   0.063   5.148
 3241SOL    HW110622   4.855   0.073   5.056
 3241SOL    HW210623   4.868   0.123   5.211
 3242SOL     OW10624   3.360   6.691   0.357
 3242SOL    HW110625   3.301   6.640   0.420
 3242SOL    HW210626   3.450   6.649   0.356
 3243SOL     OW10627   3.751   5.314   0.875
 3243SOL    HW110628   3.723   5.401   0.916
 3243SOL    HW210629   3.793   5.330   0.786
 3244SOL     OW10630   1.596   6.062   5.520
 3244SOL    HW110631   1.510   6.098   5.556
 3244SOL    HW210632   1.583   6.034   5.425
 3245SOL     OW10633   2.646   2.062   5.709
 3245SOL    HW110634   2.737   2.028   5.733
 3245SOL    HW210635   2.576   1.998   5.742
 3246SOL     OW10636   5.674   6.301   3.324
 3246SOL    HW110637   5.764   6.263   3.300
 3246SOL    HW210638   5.686   6.393   3.361
 3247SOL     OW10639   6.734   1.979   5.673
 3247SOL    HW110640   6.668   2.031   5.619
 3247SOL    HW210641   6.703   1.885   5.682
 3248SOL     OW10642   5.277   3.948   2.875
 3248SOL    HW110643   5.333   4.018   2.830
 3248SOL    HW210644   5.184   3.952   2.839
 3249SOL     OW10645   3.147   4.326   5.571
 3249SOL    HW110646   3.166   4.253   5.505
 3249SOL    HW210647   3.050   4.352   5.564
 3250SOL     OW10648   4.858   5.539   1.673
 3250SOL    HW110649   4.957   5.526   1.672
 3250SOL    HW210650   4.828   5.558   1.767
 3251SOL     OW10651   3.457   0.848   3.652
 3251SOL    HW110652   3.526   0.832   3.723
 3251SOL    HW210653   3.369   0.814   3.684
 3252SOL     OW10654   3.069   2.179   3.548
 3252SOL    HW110655   3.100   2.107   3.610
 3252SOL    HW210656   2.987   2.221   3.586
 3253SOL     OW10657   4.392   4.238   1.062
 3253SOL    HW110658   4.369   4.160   1.003
 3253SOL    HW210659   4.311   4.295   1.074
 3254SOL     OW10660   5.468   4.508   2.765
 3254SOL    HW110661   5.515   4.437   2.818
 3254SOL    HW210662   5.369   4.499   2.776
 3255SOL     OW10663   4.405   4.585   0.949
 3255SOL    HW110664   4.387   4.546   1.040
 3255SOL    HW210665   4.489   4.639   0.953
 3256SOL     OW10666   6.156   6.188   5.706
 3256SOL    HW110667   6.255   6.201   5.705
 3256SOL    HW210668   6.135   6.102   5.753
 3257SOL     OW10669   2.376   1.619   1.179
 3257SOL    HW110670   2.465   1.662   1.168
 3257SOL    HW210671   2.351   1.618   1.276
 3258SOL     OW10672   5.254   6.639   1.779
 3258SOL    HW110673   5.166   6.608   1.814
 3258SOL    HW210674   5.301   6.693   1.849
 3259SOL     OW10675   6.113   6.595   2.947
 3259SOL    HW110676   6.095   6.545   2.862
 3259SOL    HW210677   6.195   6.559   2.990
 3260SOL     OW10678   1.618   2.356   0.677
 3260SOL    HW110679   1.540   2.415   0.695
 3260SOL    HW210680   1.680   2.357   0.755
 3261SOL     OW10681   4.361   0.218   3.662
 3261SOL    HW110682   4.337   0.159   3.738
 3261SOL    HW210683   4.320   0.183   3.578
 3262SOL     OW10684   4.018   1.376   4.106
 3262SOL    HW110685   3.957   1.311   4.153
 3262SOL    HW210686   4.049   1.335   4.021
 3263SOL     OW10687   3.442   5.151   2.935
 3263SOL    HW110688   3.462   5.208   2.855
 3263SOL    HW210689   3.403   5.064   2.905
 3264SOL     OW10690   4.853   4.592   5.912
 3264SOL    HW110691   4.753   4.593   5.902
 3264SOL    HW210692   4.895   4.596   5.821
 3265SOL     OW10693   5.249   0.366   6.433
 3265SOL    HW110694   5.337   0.412   6.447
 3265SOL    HW210695   5.235   0.350   6.335
 3266SOL     OW10696   0.851   2.601   0.253
 3266SOL    HW110697   0.941   2.585   0.214
 3266SOL    HW210698   0.794   2.520   0.241
 3267SOL     OW10699   4.951   2.636   1.894
 3267SOL    HW110700   4.886   2.600   1.961
 3267SOL    HW210701   4.962   2.734   1.908
 3268SOL     OW10702   1.874   4.637   0.121
 3268SOL    HW110703   1.932   4.622   0.041
 3268SOL    HW210704   1.784   4.668   0.092
 3269SOL     OW10705   4.557   3.631   0.915
 3269SOL    HW110706   4.549   3.595   1.008
 3269SOL    HW210707   4.596   3.724   0.919
 3270SOL     OW10708   0.396   5.428   4.147
 3270SOL    HW110709   0.446   5.512   4.169
 3270SOL    HW210710   0.409   5.361   4.220
 3271SOL     OW10711   5.010   0.699   2.144
 3271SOL    HW110712   4.942   0.633   2.175
 3271SOL    HW210713   5.080   0.710   2.214
 3272SOL     OW10714   4.926   0.018   0.063
 3272SOL    HW110715   4.937   6.948   0.043
 3272SOL    HW210716   4.986   0.044   0.138
 3273SOL     OW10717   1.156   1.037   2.924
 3273SOL    HW110718   1.083   0.974   2.949
 3273SOL    HW210719   1.119   1.111   2.867
 3274SOL     OW10720   2.731   1.586   0.030
 3274SOL    HW110721   2.683   1.673   0.019
 3274SOL    HW210722   2.819   1.590   7.010
 3275SOL     OW10723   4.327   0.665   0.399
 3275SOL    HW110724   4.263   0.729   0.357
 3275SOL    HW210725   4.420   0.702   0.395
 3276SOL     OW10726   2.342   6.276   0.212
 3276SOL    HW110727   2.275   6.216   0.168
 3276SOL    HW210728   2.391   6.328   0.142
 3277SOL     OW10729   0.201   5.941   5.877
 3277SOL    HW110730   0.148   6.025   5.862
 3277SOL    HW210731   0.297   5.964   5.894
 3278SOL     OW10732   1.148   1.244   0.778
 3278SOL    HW110733   1.087   1.317   0.746
 3278SOL    HW210734   1.162   1.253   0.877
 3279SOL     OW10735   2.251   6.120   1.524
 3279SOL    HW110736   2.328   6.061   1.498
 3279SOL    HW210737   2.187   6.127   1.447
 3280SOL     OW10738   2.882   6.146   4.197
 3280SOL    HW110739   2.915   6.238   4.175
 3280SOL    HW210740   2.821   6.152   4.276
 3281SOL     OW10741   2.858   6.272   0.489
 3281SOL    HW110742   2.842   6.180   0.526
 3281SOL    HW210743   2.801   6.286   0.408
 3282SOL     OW10744   2.127   5.918   2.559
 3282SOL    HW110745   2.059   5.965   2.616
 3282SOL    HW210746   2.204   5.978   2.542
 3283SOL     OW10747   1.874   0.079   4.137
 3283SOL    HW110748   1.899   0.016   4.063
 3283SOL    HW210749   1.939   0.068   4.212
 3284SOL     OW10750   1.170   5.304   5.948
 3284SOL    HW110751   1.253   5.256   5.920
 3284SOL    HW210752   1.191   5.401   5.962
 3285SOL     OW10753   0.248   2.744   4.798
 3285SOL    HW110754   0.243   2.649   4.769
 3285SOL    HW210755   0.313   2.753   4.874
 3286SOL     OW10756   4.652   4.761   6.376
 3286SOL    HW110757   4.659   4.703   6.457
 3286SOL    HW210758   4.625   4.705   6.297
 3287SOL     OW10759   0.773   3.562   1.617
 3287SOL    HW110760   0.727   3.475   1.596
 3287SOL    HW210761   0.720   3.611   1.686
 3288SOL     OW10762   1.109   6.060   6.114
 3288SOL    HW110763   1.153   6.146   6.090
 3288SOL    HW210764   1.021   6.079   6.159
 3289SOL     OW10765   1.434   5.519   4.129
 3289SOL    HW110766   1.487   5.552   4.207
 3289SOL    HW210767   1.452   5.421   4.116
 3290SOL     OW10768   0.464   4.881   3.512
 3290SOL    HW110769   0.486   4.786   3.492
 3290SOL    HW210770   0.367   4.897   3.498
 3291SOL     OW10771   1.563   0.543   1.754
 3291SOL    HW110772   1.658   0.526   1.728
 3291SOL    HW210773   1.536   0.634   1.724
 3292SOL     OW10774   0.088   5.270   5.087
 3292SOL    HW110775   0.088   5.360   5.131
 3292SOL    HW210776   0.182   5.238   5.076
 3293SOL     OW10777   5.747   0.777   2.414
 3293SOL    HW110778   5.845   0.767   2.396
 3293SOL    HW210779   5.699   0.694   2.389
 3294SOL     OW10780   0.598   6.554   0.677
 3294SOL    HW110781   0.579   6.579   0.582
 3294SOL    HW210782   0.697   6.559   0.694
 3295SOL     OW10783   1.610   2.229   6.320
 3295SOL    HW110784   1.658   2.254   6.236
 3295SOL    HW210785   1.590   2.312   6.373
 3296SOL     OW10786   0.983   6.675   2.215
 3296SOL    HW110787   1.027   6.644   2.131
 3296SOL    HW210788   0.951   6.769   2.203
 3297SOL     OW10789   2.885   1.492   6.296
 3297SOL    HW110790   2.953   1.503   6.369
 3297SOL    HW210791   2.912   1.414   6.238
 3298SOL     OW10792   6.710   4.380   2.671
 3298SOL    HW110793   6.716   4.293   2.720
 3298SOL    HW210794   6.660   4.446   2.726
 3299SOL     OW10795   0.677   1.041   4.828
 3299SOL    HW110796   0.592   1.094   4.822
 3299SOL    HW210797   0.755   1.104   4.831
 3300SOL     OW10798   0.300   0.145   4.953
 3300SOL    HW110799   0.278   0.108   5.043
 3300SOL    HW210800   0.309   0.070   4.887
 3301SOL     OW10801   6.990   3.883   2.509
 3301SOL    HW110802   6.986   3.794   2.554
 3301SOL    HW210803   0.058   3.913   2.503
 3302SOL     OW10804   1.395   5.790   5.366
 3302SOL    HW110805   1.440   5.876   5.344
 3302SOL    HW210806   1.455   5.734   5.424
 3303SOL     OW10807   3.084   3.239   3.531
 3303SOL    HW110808   3.178   3.273   3.535
 3303SOL    HW210809   3.055   3.211   3.622
 3304SOL     OW10810   1.639   0.707   2.857
 3304SOL    HW110811   1.619   0.805   2.847
 3304SOL    HW210812   1.738   0.694   2.868
 3305SOL     OW10813   0.388   2.515   0.454
 3305SOL    HW110814   0.342   2.537   0.368
 3305SOL    HW210815   0.354   2.574   0.527
 3306SOL     OW10816   1.166   3.393   2.263
 3306SOL    HW110817   1.262   3.420   2.257
 3306SOL    HW210818   1.158   3.308   2.313
 3307SOL     OW10819   0.640   0.174   0.551
 3307SOL    HW110820   0.594   0.166   0.463
 3307SOL    HW210821   0.608   0.102   0.612
 3308SOL     OW10822   5.296   6.436   0.796
 3308SOL    HW110823   5.249   6.349   0.787
 3308SOL    HW210824   5.382   6.423   0.845
 3309SOL     OW10825   1.602   5.246   2.486
 3309SOL    HW110826   1.648   5.334   2.476
 3309SOL    HW210827   1.658   5.174   2.445
 3310SOL     OW10828   1.471   6.715   1.701
 3310SOL    HW110829   1.477   6.794   1.763
 3310SOL    HW210830   1.543   6.650   1.721
 3311SOL     OW10831   4.207   5.938   0.951
 3311SOL    HW110832   4.291   5.991   0.948
 3311SOL    HW210833   4.159   5.947   0.863
 3312SOL     OW10834   1.981   2.797   6.900
 3312SOL    HW110835   2.015   2.793   6.806
 3312SOL    HW210836   2.041   2.854   6.955
 3313SOL     OW10837   6.344   6.213   4.950
 3313SOL    HW110838   6.252   6.176   4.964
 3313SOL    HW210839   6.368   6.274   5.025
 3314SOL     OW10840   0.621   4.271   6.847
 3314SOL    HW110841   0.525   4.301   6.845
 3314SOL    HW210842   0.678   4.340   6.801
 3315SOL     OW10843   6.579   3.484   3.303
 3315SOL    HW110844   6.549   3.389   3.304
 3315SOL    HW210845   6.596   3.514   3.397
 3316SOL     OW10846   3.908   1.465   0.178
 3316SOL    HW110847   3.850   1.402   0.126
 3316SOL    HW210848   3.994   1.419   0.201
 3317SOL     OW10849   4.222   2.663   1.657
 3317SOL    HW110850   4.240   2.757   1.687
 3317SOL    HW210851   4.125   2.642   1.671
 3318SOL     OW10852   2.791   5.118   5.419
 3318SOL    HW110853   2.872   5.082   5.372
 3318SOL    HW210854   2.712   5.114   5.357
 3319SOL     OW10855   6.912   6.469   6.732
 3319SOL    HW110856   6.850   6.429   6.799
 3319SOL    HW210857   6.978   6.528   6.779
 3320SOL     OW10858   0.515   0.122   0.292
 3320SOL    HW110859   0.574   0.121   0.211
 3320SOL    HW210860   0.491   0.216   0.315
 3321SOL     OW10861   4.027   3.396   4.041
 3321SOL    HW110862   4.007   3.307   4.001
 3321SOL    HW210863   4.085   3.448   3.979
 3322SOL     OW10864   4.270   1.908   1.799
 3322SOL    HW110865   4.231   1.915   1.707
 3322SOL    HW210866   4.363   1.943   1.799
 3323SOL     OW10867   2.384   4.400   0.239
 3323SOL    HW110868   2.476   4.391   0.201
 3323SOL    HW210869   2.320   4.344   0.186
 3324SOL     OW10870   6.296   3.191   1.582
 3324SOL    HW110871   6.238   3.110   1.588
 3324SOL    HW210872   6.335   3.198   1.491
 3325SOL     OW10873   1.076   4.425   6.425
 3325SOL    HW110874   1.075   4.390   6.332
 3325SOL    HW210875   0.983   4.422   6.463
 3326SOL     OW10876   6.050   1.189   1.535
 3326SOL    HW110877   6.142   1.228   1.529
 3326SOL    HW210878   6.030   1.137   1.452
 3327SOL     OW10879   4.075   5.813   1.821
 3327SOL    HW110880   4.140   5.770   1.883
 3327SOL    HW210881   4.125   5.871   1.756
 3328SOL     OW10882   6.191   6.781   4.208
 3328SOL    HW110883   6.196   6.763   4.306
 3328SOL    HW210884   6.257   6.852   4.183
 3329SOL     OW10885   5.184   0.745   6.338
 3329SOL    HW110886   5.266   0.687   6.335
 3329SOL    HW210887   5.209   0.837   6.369
 3330SOL     OW10888   6.885   6.490   3.090
 3330SOL    HW110889   6.894   6.436   3.174
 3330SOL    HW210890   6.942   6.450   3.019
 3331SOL     OW10891   1.592   3.989   2.929
 3331SOL    HW110892   1.496   3.971   2.908
 3331SOL    HW210893   1.638   3.902   2.949
 3332SOL     OW10894   3.143   5.237   0.270
 3332SOL    HW110895   3.170   5.332   0.254
 3332SOL    HW210896   3.221   5.184   0.304
 3333SOL     OW10897   2.086   3.246   1.224
 3333SOL    HW110898   2.063   3.206   1.313
 3333SOL    HW210899   2.014   3.309   1.196
 3334SOL     OW10900   1.435   2.566   1.922
 3334SOL    HW110901   1.424   2.604   1.831
 3334SOL    HW210902   1.524   2.520   1.929
 3335SOL     OW10903   3.462   4.146   5.326
 3335SOL    HW110904   3.528   4.144   5.400
 3335SOL    HW210905   3.370   4.151   5.363
 3336SOL     OW10906   4.428   6.007   5.391
 3336SOL    HW110907   4.364   5.961   5.451
 3336SOL    HW210908   4.378   6.069   5.329
 3337SOL     OW10909   3.801   2.964   3.359
 3337SOL    HW110910   3.821   2.955   3.262
 3337SOL    HW210911   3.704   2.983   3.372
 3338SOL     OW10912   3.077   2.932   1.395
 3338SOL    HW110913   3.122   2.853   1.437
 3338SOL    HW210914   2.979   2.913   1.385
 3339SOL     OW10915   1.116   6.860   6.990
 3339SOL    HW110916   1.206   6.857   6.947
 3339SOL    HW210917   1.061   6.782   6.958
 3340SOL     OW10918   3.841   1.368   5.737
 3340SOL    HW110919   3.776   1.416   5.796
 3340SOL    HW210920   3.840   1.409   5.646
 3341SOL     OW10921   1.146   4.374   1.479
 3341SOL    HW110922   1.084   4.301   1.453
 3341SOL    HW210923   1.150   4.380   1.579
 3342SOL     OW10924   6.295   0.728   2.694
 3342SOL    HW110925   6.367   0.738   2.625
 3342SOL    HW210926   6.230   0.658   2.665
 3343SOL     OW10927   3.708   5.825   0.583
 3343SOL    HW110928   3.747   5.810   0.492
 3343SOL    HW210929   3.776   5.802   0.653
 3344SOL     OW10930   1.095   3.597   1.939
 3344SOL    HW110931   1.044   3.538   2.001
 3344SOL    HW210932   1.173   3.547   1.902
 3345SOL     OW10933   5.715   5.321   1.422
 3345SOL    HW110934   5.676   5.271   1.499
 3345SOL    HW210935   5.684   5.279   1.337
 3346SOL     OW10936   1.216   0.765   6.965
 3346SOL    HW110937   1.200   0.674   6.927
 3346SOL    HW210938   1.268   0.757   0.023
 3347SOL     OW10939   0.651   3.825   5.871
 3347SOL    HW110940   0.625   3.892   5.940
 3347SOL    HW210941   0.570   3.774   5.841
 3348SOL     OW10942   3.870   4.286   6.210
 3348SOL    HW110943   3.792   4.341   6.241
 3348SOL    HW210944   3.882   4.208   6.271
 3349SOL     OW10945   1.954   5.244   2.218
 3349SOL    HW110946   2.005   5.210   2.140
 3349SOL    HW210947   2.014   5.299   2.276
 3350SOL     OW10948   1.881   4.844   5.077
 3350SOL    HW110949   1.798   4.879   5.120
 3350SOL    HW210950   1.868   4.748   5.052
 3351SOL     OW10951   5.396   0.281   1.977
 3351SOL    HW110952   5.469   0.331   1.930
 3351SOL    HW210953   5.424   0.264   2.072
 3352SOL     OW10954   5.467   1.201   0.103
 3352SOL    HW110955   5.430   1.147   0.179
 3352SOL    HW210956   5.394   1.222   0.038
 3353SOL     OW10957   4.163   1.096   6.540
 3353SOL    HW110958   4.096   1.169   6.550
 3353SOL    HW210959   4.119   1.008   6.558
 3354SOL     OW10960   2.207   3.385   0.830
 3354SOL    HW110961   2.131   3.327   0.857
 3354SOL    HW210962   2.284   3.328   0.800
 3355SOL     OW10963   1.184   0.636   4.681
 3355SOL    HW110964   1.167   0.733   4.665
 3355SOL    HW210965   1.137   0.607   4.764
 3356SOL     OW10966   2.275   0.796   6.377
 3356SOL    HW110967   2.293   0.700   6.357
 3356SOL    HW210968   2.350   0.832   6.433
 3357SOL     OW10969   3.010   3.232   2.884
 3357SOL    HW110970   2.946   3.304   2.909
 3357SOL    HW210971   3.010   3.220   2.785
 3358SOL     OW10972   0.445   1.771   1.394
 3358SOL    HW110973   0.462   1.686   1.344
 3358SOL    HW210974   0.347   1.788   1.397
 3359SOL     OW10975   0.869   6.935   4.372
 3359SOL    HW110976   0.920   6.951   4.288
 3359SOL    HW210977   0.917   6.868   4.428
 3360SOL     OW10978   2.115   5.428   4.467
 3360SOL    HW110979   2.129   5.402   4.372
 3360SOL    HW210980   2.109   5.345   4.523
 3361SOL     OW10981   6.855   6.795   4.891
 3361SOL    HW110982   6.890   6.749   4.810
 3361SOL    HW210983   6.829   6.889   4.868
 3362SOL     OW10984   3.978   0.712   4.256
 3362SOL    HW110985   4.066   0.730   4.301
 3362SOL    HW210986   3.940   0.626   4.292
 3363SOL     OW10987   5.329   4.103   0.053
 3363SOL    HW110988   5.335   4.201   0.040
 3363SOL    HW210989   5.235   4.073   0.040
 3364SOL     OW10990   1.323   3.498   1.873
 3364SOL    HW110991   1.368   3.577   1.915
 3364SOL    HW210992   1.392   3.441   1.827
 3365SOL     OW10993   1.333   2.987   3.242
 3365SOL    HW110994   1.262   3.047   3.203
 3365SOL    HW210995   1.293   2.931   3.314
 3366SOL     OW10996   6.438   2.757   4.559
 3366SOL    HW110997   6.440   2.747   4.460
 3366SOL    HW210998   6.344   2.771   4.590
 3367SOL     OW10999   3.490   2.876   3.781
 3367SOL    HW111000   3.500   2.776   3.786
 3367SOL    HW211001   3.554   2.912   3.712
 3368SOL     OW11002   2.561   1.210   3.325
 3368SOL    HW111003   2.573   1.201   3.424
 3368SOL    HW211004   2.534   1.304   3.303
 3369SOL     OW11005   4.883   3.089   1.229
 3369SOL    HW111006   4.893   3.121   1.135
 3369SOL    HW211007   4.898   3.165   1.292
 3370SOL     OW11008   0.795   6.150   3.046
 3370SOL    HW111009   0.783   6.124   3.141
 3370SOL    HW211010   0.827   6.071   2.993
 3371SOL     OW11011   2.107   2.856   1.316
 3371SOL    HW111012   2.196   2.852   1.272
 3371SOL    HW211013   2.035   2.851   1.247
 3372SOL     OW11014   6.027   2.993   3.860
 3372SOL    HW111015   5.975   2.971   3.943
 3372SOL    HW211016   6.015   3.090   3.837
 3373SOL     OW11017   0.002   4.547   0.827
 3373SOL    HW111018   6.959   4.477   0.815
 3373SOL    HW211019   7.002   4.609   0.901
 3374SOL     OW11020   0.755   6.017   4.148
 3374SOL    HW111021   0.716   6.106   4.172
 3374SOL    HW211022   0.686   5.946   4.160
 3375SOL     OW11023   0.509   6.378   5.722
 3375SOL    HW111024   0.523   6.371   5.623
 3375SOL    HW211025   0.555   6.302   5.767
 3376SOL     OW11026   3.122   3.112   5.093
 3376SOL    HW111027   3.075   3.164   5.022
 3376SOL    HW211028   3.183   3.045   5.051
 3377SOL     OW11029   6.816   5.467   4.561
 3377SOL    HW111030   6.745   5.521   4.516
 3377SOL    HW211031   6.777   5.420   4.640
 3378SOL     OW11032   1.170   5.949   0.729
 3378SOL    HW111033   1.196   5.966   0.634
 3378SOL    HW211034   1.249   5.963   0.788
 3379SOL     OW11035   5.988   3.904   4.072
 3379SOL    HW111036   6.079   3.918   4.111
 3379SOL    HW211037   5.918   3.919   4.142
 3380SOL     OW11038   2.460   5.189   1.296
 3380SOL    HW111039   2.379   5.204   1.352
 3380SOL    HW211040   2.432   5.158   1.205
 3381SOL     OW11041   2.872   3.681   6.490
 3381SOL    HW111042   2.915   3.704   6.403
 3381SOL    HW211043   2.841   3.764   6.536
 3382SOL     OW11044   6.879   3.778   6.678
 3382SOL    HW111045   6.961   3.824   6.711
 3382SOL    HW211046   6.902   3.686   6.648
 3383SOL     OW11047   3.505   5.557   0.805
 3383SOL    HW111048   3.585   5.557   0.865
 3383SOL    HW211049   3.528   5.514   0.718
 3384SOL     OW11050   2.529   2.779   6.497
 3384SOL    HW111051   2.524   2.761   6.399
 3384SOL    HW211052   2.622   2.807   6.521
 3385SOL     OW11053   6.092   2.103   4.301
 3385SOL    HW111054   6.158   2.031   4.324
 3385SOL    HW211055   6.057   2.145   4.385
 3386SOL     OW11056   0.606   5.995   4.427
 3386SOL    HW111057   0.699   5.961   4.440
 3386SOL    HW211058   0.560   5.940   4.357
 3387SOL     OW11059   6.101   0.920   2.749
 3387SOL    HW111060   6.179   0.872   2.708
 3387SOL    HW211061   6.051   0.969   2.677
 3388SOL     OW11062   6.932   3.725   0.638
 3388SOL    HW111063   6.999   3.800   0.642
 3388SOL    HW211064   6.954   3.657   0.708
 3389SOL     OW11065   6.095   5.572   6.337
 3389SOL    HW111066   6.085   5.510   6.415
 3389SOL    HW211067   6.172   5.541   6.280
 3390SOL     OW11068   3.434   4.943   7.022
 3390SOL    HW111069   3.423   4.988   6.934
 3390SOL    HW211070   3.373   4.984   0.062
 3391SOL     OW11071   4.997   3.985   5.022
 3391SOL    HW111072   4.960   3.910   4.966
 3391SOL    HW211073   4.927   4.056   5.032
 3392SOL     OW11074   5.073   6.228   6.165
 3392SOL    HW111075   5.136   6.296   6.203
 3392SOL    HW211076   5.093   6.214   6.068
 3393SOL     OW11077   3.604   6.563   0.297
 3393SOL    HW111078   3.675   6.571   0.227
 3393SOL    HW211079   3.563   6.472   0.292
 3394SOL     OW11080   3.061   5.086   0.890
 3394SOL    HW111081   3.051   5.124   0.982
 3394SOL    HW211082   2.981   5.110   0.835
 3395SOL     OW11083   2.161   6.683   3.078
 3395SOL    HW111084   2.110   6.765   3.053
 3395SOL    HW211085   2.237   6.708   3.138
 3396SOL     OW11086   5.078   0.328   4.310
 3396SOL    HW111087   5.170   0.357   4.282
 3396SOL    HW211088   5.029   0.292   4.231
 3397SOL     OW11089   2.477   6.304   0.809
 3397SOL    HW111090   2.480   6.211   0.773
 3397SOL    HW211091   2.548   6.359   0.766
 3398SOL     OW11092   6.448   1.115   6.625
 3398SOL    HW111093   6.498   1.198   6.600
 3398SOL    HW211094   6.424   1.118   6.721
 3399SOL     OW11095   6.755   6.372   1.962
 3399SOL    HW111096   6.782   6.401   1.871
 3399SOL    HW211097   6.806   6.424   2.030
 3400SOL     OW11098   3.347   2.850   5.205
 3400SOL    HW111099   3.438   2.864   5.243
 3400SOL    HW211100   3.345   2.880   5.110
 3401SOL     OW11101   0.074   3.100   4.459
 3401SOL    HW111102   7.006   3.072   4.476
 3401SOL    HW211103   0.075   3.178   4.397
 3402SOL     OW11104   5.604   3.395   0.341
 3402SOL    HW111105   5.658   3.410   0.424
 3402SOL    HW211106   5.508   3.384   0.366
 3403SOL     OW11107   5.754   6.457   5.717
 3403SOL    HW111108   5.845   6.451   5.759
 3403SOL    HW211109   5.696   6.517   5.772
 3404SOL     OW11110   4.924   5.129   3.239
 3404SOL    HW111111   4.995   5.171   3.296
 3404SOL    HW211112   4.967   5.071   3.170
 3405SOL     OW11113   4.372   6.206   0.394
 3405SOL    HW111114   4.328   6.125   0.432
 3405SOL    HW211115   4.337   6.288   0.440
 3406SOL     OW11116   4.022   4.957   1.008
 3406SOL    HW111117   3.938   4.997   0.972
 3406SOL    HW211118   4.066   5.022   1.069
 3407SOL     OW11119   0.787   2.961   0.044
 3407SOL    HW111120   0.819   3.017   0.120
 3407SOL    HW211121   0.825   2.996   6.985
 3408SOL     OW11122   4.283   6.873   4.416
 3408SOL    HW111123   4.309   6.969   4.416
 3408SOL    HW211124   4.363   6.816   4.437
 3409SOL     OW11125   3.916   1.727   0.101
 3409SOL    HW111126   3.919   1.628   0.116
 3409SOL    HW211127   3.869   1.747   0.015
 3410SOL     OW11128   6.459   0.809   2.897
 3410SOL    HW111129   6.411   0.826   2.983
 3410SOL    HW211130   6.394   0.777   2.828
 3411SOL     OW11131   5.724   3.071   5.572
 3411SOL    HW111132   5.720   3.169   5.593
 3411SOL    HW211133   5.688   3.019   5.649
 3412SOL     OW11134   5.760   2.885   3.620
 3412SOL    HW111135   5.738   2.975   3.657
 3412SOL    HW211136   5.859   2.877   3.607
 3413SOL     OW11137   6.723   2.461   0.929
 3413SOL    HW111138   6.797   2.506   0.980
 3413SOL    HW211139   6.642   2.519   0.931
 3414SOL     OW11140   3.706   3.167   1.571
 3414SOL    HW111141   3.703   3.266   1.558
 3414SOL    HW211142   3.801   3.137   1.575
 3415SOL     OW11143   2.219   1.517   6.398
 3415SOL    HW111144   2.188   1.561   6.314
 3415SOL    HW211145   2.139   1.492   6.454
 3416SOL     OW11146   6.033   0.055   5.969
 3416SOL    HW111147   5.950   0.080   5.918
 3416SOL    HW211148   6.040   6.983   5.975
 3417SOL     OW11149   5.904   0.537   2.458
 3417SOL    HW111150   5.883   0.461   2.397
 3417SOL    HW211151   5.931   0.617   2.405
 3418SOL     OW11152   4.351   5.602   0.640
 3418SOL    HW111153   4.420   5.539   0.676
 3418SOL    HW211154   4.395   5.667   0.579
 3419SOL     OW11155   2.798   4.840   5.135
 3419SOL    HW111156   2.778   4.917   5.074
 3419SOL    HW211157   2.796   4.755   5.083
 3420SOL     OW11158   4.281   0.991   2.292
 3420SOL    HW111159   4.249   0.990   2.198
 3420SOL    HW211160   4.362   1.049   2.300
 3421SOL     OW11161   0.257   1.842   5.085
 3421SOL    HW111162   0.357   1.850   5.092
 3421SOL    HW211163   0.234   1.770   5.019
 3422SOL     OW11164   3.434   5.916   1.866
 3422SOL    HW111165   3.449   5.818   1.863
 3422SOL    HW211166   3.392   5.946   1.780
 3423SOL     OW11167   2.413   4.383   5.847
 3423SOL    HW111168   2.489   4.321   5.828
 3423SOL    HW211169   2.334   4.359   5.791
 3424SOL     OW11170   5.658   0.834   1.981
 3424SOL    HW111171   5.700   0.884   1.905
 3424SOL    HW211172   5.714   0.755   2.005
 3425SOL     OW11173   6.133   2.653   6.360
 3425SOL    HW111174   6.192   2.727   6.326
 3425SOL    HW211175   6.071   2.623   6.287
 3426SOL     OW11176   6.589   5.285   0.083
 3426SOL    HW111177   6.615   5.381   0.072
 3426SOL    HW211178   6.590   5.261   0.180
 3427SOL     OW11179   1.856   1.399   6.298
 3427SOL    HW111180   1.927   1.330   6.310
 3427SOL    HW211181   1.897   1.487   6.274
 3428SOL     OW11182   5.121   0.128   4.641
 3428SOL    HW111183   5.097   0.031   4.648
 3428SOL    HW211184   5.217   0.137   4.618
 3429SOL     OW11185   4.227   6.680   0.643
 3429SOL    HW111186   4.183   6.610   0.699
 3429SOL    HW211187   4.225   6.767   0.691
 3430SOL     OW11188   2.708   4.210   6.422
 3430SOL    HW111189   2.723   4.299   6.465
 3430SOL    HW211190   2.610   4.197   6.406
 3431SOL     OW11191   0.754   4.802   2.776
 3431SOL    HW111192   0.782   4.737   2.706
 3431SOL    HW211193   0.659   4.830   2.761
 3432SOL     OW11194   0.685   4.970   0.013
 3432SOL    HW111195   0.761   4.926   6.992
 3432SOL    HW211196   0.721   5.034   0.081
 3433SOL     OW11197   1.048   1.160   0.094
 3433SOL    HW111198   1.026   1.064   0.076
 3433SOL    HW211199   1.134   1.183   0.048
 3434SOL     OW11200   3.906   2.217   1.773
 3434SOL    HW111201   3.952   2.170   1.848
 3434SOL    HW211202   3.831   2.273   1.809
 3435SOL     OW11203   1.978   2.336   1.390
 3435SOL    HW111204   2.020   2.348   1.300
 3435SOL    HW211205   1.938   2.423   1.419
 3436SOL     OW11206   4.073   6.564   5.907
 3436SOL    HW111207   4.093   6.566   6.005
 3436SOL    HW211208   4.125   6.636   5.861
 3437SOL     OW11209   1.240   6.441   0.484
 3437SOL    HW111210   1.306   6.499   0.436
 3437SOL    HW211211   1.265   6.344   0.472
 3438SOL     OW11212   2.363   4.164   0.901
 3438SOL    HW111213   2.338   4.088   0.842
 3438SOL    HW211214   2.313   4.247   0.873
 3439SOL     OW11215   3.059   5.691   0.199
 3439SOL    HW111216   2.982   5.627   0.189
 3439SOL    HW211217   3.142   5.639   0.224
 3440SOL     OW11218   3.844   3.764   5.767
 3440SOL    HW111219   3.784   3.828   5.816
 3440SOL    HW211220   3.794   3.722   5.692
 3441SOL     OW11221   6.735   4.904   4.849
 3441SOL    HW111222   6.662   4.915   4.782
 3441SOL    HW211223   6.822   4.889   4.802
 3442SOL     OW11224   1.124   2.444   0.563
 3442SOL    HW111225   1.029   2.453   0.592
 3442SOL    HW211226   1.127   2.409   0.469
 3443SOL     OW11227   0.749   6.093   2.573
 3443SOL    HW111228   0.819   6.164   2.572
 3443SOL    HW211229   0.662   6.131   2.542
 3444SOL     OW11230   0.332   4.027   6.075
 3444SOL    HW111231   0.247   4.007   6.026
 3444SOL    HW211232   0.324   4.116   6.120
 3445SOL     OW11233   5.994   4.854   4.752
 3445SOL    HW111234   6.051   4.776   4.775
 3445SOL    HW211235   5.917   4.859   4.816
 3446SOL     OW11236   4.680   1.495   0.523
 3446SOL    HW111237   4.750   1.471   0.456
 3446SOL    HW211238   4.651   1.590   0.508
 3447SOL     OW11239   4.712   1.701   5.991
 3447SOL    HW111240   4.731   1.638   5.916
 3447SOL    HW211241   4.720   1.795   5.957
 3448SOL     OW11242   1.070   5.069   5.680
 3448SOL    HW111243   1.056   4.977   5.715
 3448SOL    HW211244   1.009   5.133   5.728
 3449SOL     OW11245   0.859   3.663   5.839
 3449SOL    HW111246   0.882   3.655   5.742
 3449SOL    HW211247   0.775   3.717   5.849
 3450SOL     OW11248   2.721   6.914   2.313
 3450SOL    HW111249   2.706   6.841   2.380
 3450SOL    HW211250   2.818   6.918   2.289
 3451SOL     OW11251   2.084   2.296   0.859
 3451SOL    HW111252   2.147   2.227   0.825
 3451SOL    HW211253   2.003   2.300   0.801
 3452SOL     OW11254   4.331   1.809   6.224
 3452SOL    HW111255   4.313   1.791   6.127
 3452SOL    HW211256   4.419   1.769   6.249
 3453SOL     OW11257   4.603   6.604   6.078
 3453SOL    HW111258   4.609   6.693   6.123
 3453SOL    HW211259   4.590   6.533   6.147
 3454SOL     OW11260   1.186   3.146   2.419
 3454SOL    HW111261   1.284   3.141   2.441
 3454SOL    HW211262   1.142   3.060   2.446
 3455SOL     OW11263   0.752   4.164   6.554
 3455SOL    HW111264   0.702   4.106   6.620
 3455SOL    HW211265   0.843   4.125   6.539
 3456SOL     OW11266   4.181   5.418   3.242
 3456SOL    HW111267   4.184   5.458   3.150
 3456SOL    HW211268   4.221   5.327   3.239
 3457SOL     OW11269   4.216   4.526   0.232
 3457SOL    HW111270   4.281   4.457   0.200
 3457SOL    HW211271   4.123   4.495   0.213
 3458SOL     OW11272   4.798   1.772   1.335
 3458SOL    HW111273   4.821   1.767   1.433
 3458SOL    HW211274   4.785   1.867   1.309
 3459SOL     OW11275   6.317   6.396   2.157
 3459SOL    HW111276   6.417   6.402   2.160
 3459SOL    HW211277   6.288   6.375   2.063
 3460SOL     OW11278   3.723   1.939   5.226
 3460SOL    HW111279   3.736   2.022   5.172
 3460SOL    HW211280   3.783   1.867   5.190
 3461SOL     OW11281   4.592   4.762   4.087
 3461SOL    HW111282   4.601   4.823   4.166
 3461SOL    HW211283   4.506   4.782   4.039
 3462SOL     OW11284   1.107   4.841   6.211
 3462SOL    HW111285   1.150   4.803   6.293
 3462SOL    HW211286   1.050   4.772   6.168
 3463SOL     OW11287   6.023   3.716   0.382
 3463SOL    HW111288   5.987   3.714   0.289
 3463SOL    HW211289   5.989   3.636   0.432
 3464SOL     OW11290   0.232   4.507   3.929
 3464SOL    HW111291   0.201   4.480   4.020
 3464SOL    HW211292   0.332   4.498   3.924
 3465SOL     OW11293   0.598   3.116   2.343
 3465SOL    HW111294   0.650   3.122   2.257
 3465SOL    HW211295   0.662   3.109   2.420
 3466SOL     OW11296   6.544   3.588   3.621
 3466SOL    HW111297   6.633   3.633   3.627
 3466SOL    HW211298   6.472   3.657   3.612
 3467SOL     OW11299   1.825   2.629   5.843
 3467SOL    HW111300   1.756   2.686   5.888
 3467SOL    HW211301   1.905   2.620   5.904
 3468SOL     OW11302   4.917   6.030   1.882
 3468SOL    HW111303   4.879   5.968   1.951
 3468SOL    HW211304   4.881   6.006   1.792
 3469SOL     OW11305   5.885   4.248   0.458
 3469SOL    HW111306   5.841   4.226   0.372
 3469SOL    HW211307   5.982   4.269   0.442
 3470SOL     OW11308   5.949   4.993   1.317
 3470SOL    HW111309   5.977   4.970   1.410
 3470SOL    HW211310   6.014   5.058   1.278
 3471SOL     OW11311   4.471   6.704   4.505
 3471SOL    HW111312   4.480   6.610   4.540
 3471SOL    HW211313   4.558   6.752   4.517
 3472SOL     OW11314   4.348   1.425   4.670
 3472SOL    HW111315   4.376   1.349   4.611
 3472SOL    HW211316   4.409   1.430   4.750
 3473SOL     OW11317   4.583   6.736   3.981
 3473SOL    HW111318   4.496   6.688   3.976
 3473SOL    HW211319   4.628   6.715   4.068
 3474SOL     OW11320   4.691   4.188   0.584
 3474SOL    HW111321   4.643   4.110   0.544
 3474SOL    HW211322   4.651   4.273   0.549
 3475SOL     OW11323   1.683   5.258   5.116
 3475SOL    HW111324   1.775   5.292   5.096
 3475SOL    HW211325   1.690   5.164   5.150
 3476SOL     OW11326   4.329   2.012   3.999
 3476SOL    HW111327   4.260   1.978   3.936
 3476SOL    HW211328   4.357   1.938   4.061
 3477SOL     OW11329   4.484   5.275   1.893
 3477SOL    HW111330   4.443   5.185   1.876
 3477SOL    HW211331   4.429   5.345   1.847
 3478SOL     OW11332   3.757   4.040   0.523
 3478SOL    HW111333   3.666   4.079   0.504
 3478SOL    HW211334   3.826   4.092   0.472
 3479SOL     OW11335   1.539   0.217   0.881
 3479SOL    HW111336   1.556   0.297   0.823
 3479SOL    HW211337   1.581   0.231   0.971
 3480SOL     OW11338   1.378   0.170   3.928
 3480SOL    HW111339   1.476   0.159   3.911
 3480SOL    HW211340   1.343   0.088   3.974
 3481SOL     OW11341   2.194   6.060   0.119
 3481SOL    HW111342   2.168   6.084   0.025
 3481SOL    HW211343   2.154   5.971   0.142
 3482SOL     OW11344   0.323   2.414   1.762
 3482SOL    HW111345   0.340   2.495   1.705
 3482SOL    HW211346   0.240   2.368   1.731
 3483SOL     OW11347   3.582   1.305   0.632
 3483SOL    HW111348   3.579   1.205   0.631
 3483SOL    HW211349   3.674   1.336   0.656
 3484SOL     OW11350   3.692   4.101   3.256
 3484SOL    HW111351   3.629   4.029   3.227
 3484SOL    HW211352   3.645   4.164   3.318
 3485SOL     OW11353   6.232   1.726   5.460
 3485SOL    HW111354   6.257   1.822   5.443
 3485SOL    HW211355   6.202   1.685   5.374
 3486SOL     OW11356   5.748   0.869   3.284
 3486SOL    HW111357   5.741   0.880   3.185
 3486SOL    HW211358   5.843   0.878   3.312
 3487SOL     OW11359   0.934   0.211   0.522
 3487SOL    HW111360   0.838   0.236   0.508
 3487SOL    HW211361   0.983   0.287   0.566
 3488SOL     OW11362   6.215   3.932   4.259
 3488SOL    HW111363   6.182   3.900   4.347
 3488SOL    HW211364   6.216   4.032   4.258
 3489SOL     OW11365   2.305   5.157   6.744
 3489SOL    HW111366   2.391   5.131   6.788
 3489SOL    HW211367   2.324   5.207   6.659
 3490SOL     OW11368   4.625   3.633   0.454
 3490SOL    HW111369   4.675   3.625   0.540
 3490SOL    HW211370   4.554   3.703   0.463
 3491SOL     OW11371   5.875   3.003   5.098
 3491SOL    HW111372   5.841   2.977   5.189
 3491SOL    HW211373   5.816   3.074   5.059
 3492SOL     OW11374   6.250   4.926   6.881
 3492SOL    HW111375   6.200   4.851   6.925
 3492SOL    HW211376   6.308   4.972   6.949
 3493SOL     OW11377   6.811   4.937   1.816
 3493SOL    HW111378   6.796   5.035   1.830
 3493SOL    HW211379   6.883   4.924   1.748
 3494SOL     OW11380   3.043   6.234   1.400
 3494SOL    HW111381   3.048   6.134   1.407
 3494SOL    HW211382   3.120   6.267   1.345
 3495SOL     OW11383   5.746   4.293   6.733
 3495SOL    HW111384   5.734   4.320   6.828
 3495SOL    HW211385   5.735   4.194   6.725
 3496SOL     OW11386   0.896   4.792   0.695
 3496SOL    HW111387   0.908   4.804   0.794
 3496SOL    HW211388   0.985   4.773   0.653
 3497SOL     OW11389   4.766   0.311   4.596
 3497SOL    HW111390   4.842   0.373   4.576
 3497SOL    HW211391   4.773   0.230   4.538
 3498SOL     OW11392   1.016   1.694   0.473
 3498SOL    HW111393   1.102   1.741   0.454
 3498SOL    HW211394   0.980   1.654   0.388
 3499SOL     OW11395   0.133   4.081   4.459
 3499SOL    HW111396   0.179   3.995   4.439
 3499SOL    HW211397   0.194   4.157   4.436
 3500SOL     OW11398   5.615   3.099   0.677
 3500SOL    HW111399   5.605   3.173   0.743
 3500SOL    HW211400   5.667   3.133   0.598
 3501SOL     OW11401   0.484   4.850   2.999
 3501SOL    HW111402   0.542   4.923   3.035
 3501SOL    HW211403   0.480   4.857   2.899
 3502SOL     OW11404   0.581   5.331   1.573
 3502SOL    HW111405   0.678   5.355   1.570
 3502SOL    HW211406   0.544   5.352   1.663
 3503SOL     OW11407   3.504   6.875   3.240
 3503SOL    HW111408   3.457   6.884   3.328
 3503SOL    HW211409   3.564   6.794   3.242
 3504SOL     OW11410   1.885   2.930   2.757
 3504SOL    HW111411   1.817   2.867   2.719
 3504SOL    HW211412   1.863   2.950   2.852
 3505SOL     OW11413   4.784   6.734   4.705
 3505SOL    HW111414   4.741   6.787   4.779
 3505SOL    HW211415   4.780   6.636   4.728
 3506SOL     OW11416   6.242   4.909   2.354
 3506SOL    HW111417   6.210   5.004   2.353
 3506SOL    HW211418   6.225   4.868   2.264
 3507SOL     OW11419   6.970   0.335   5.939
 3507SOL    HW111420   6.939   0.258   5.883
 3507SOL    HW211421   6.917   0.338   6.024
 3508SOL     OW11422   6.261   4.438   0.184
 3508SOL    HW111423   6.302   4.518   0.226
 3508SOL    HW211424   6.327   4.394   0.123
 3509SOL     OW11425   5.713   0.230   6.497
 3509SOL    HW111426   5.768   0.306   6.532
 3509SOL    HW211427   5.662   0.189   6.572
 3510SOL     OW11428   1.398   1.684   1.955
 3510SOL    HW111429   1.341   1.753   1.910
 3510SOL    HW211430   1.469   1.653   1.891
 3511SOL     OW11431   0.897   0.832   4.747
 3511SOL    HW111432   0.809   0.879   4.750
 3511SOL    HW211433   0.937   0.841   4.656
 3512SOL     OW11434   3.708   2.957   1.172
 3512SOL    HW111435   3.736   2.885   1.236
 3512SOL    HW211436   3.724   2.926   1.078
 3513SOL     OW11437   5.625   4.297   1.139
 3513SOL    HW111438   5.634   4.200   1.119
 3513SOL    HW211439   5.531   4.316   1.168
 3514SOL     OW11440   2.330   6.206   1.945
 3514SOL    HW111441   2.420   6.227   1.908
 3514SOL    HW211442   2.340   6.147   2.025
 3515SOL     OW11443   4.034   6.350   3.239
 3515SOL    HW111444   4.062   6.264   3.198
 3515SOL    HW211445   4.100   6.377   3.309
 3516SOL     OW11446   1.945   1.005   0.239
 3516SOL    HW111447   1.927   1.018   0.337
 3516SOL    HW211448   2.018   0.938   0.228
 3517SOL     OW11449   0.732   0.433   6.643
 3517SOL    HW111450   0.661   0.455   6.710
 3517SOL    HW211451   0.774   0.345   6.667
 3518SOL     OW11452   4.098   3.602   6.193
 3518SOL    HW111453   4.079   3.602   6.095
 3518SOL    HW211454   4.193   3.574   6.208
 3519SOL     OW11455   3.311   6.838   0.115
 3519SOL    HW111456   3.342   6.929   0.142
 3519SOL    HW211457   3.330   6.773   0.189
 3520SOL     OW11458   3.487   5.059   1.568
 3520SOL    HW111459   3.497   4.960   1.583
 3520SOL    HW211460   3.486   5.078   1.470
 3521SOL     OW11461   6.480   2.322   6.149
 3521SOL    HW111462   6.478   2.254   6.221
 3521SOL    HW211463   6.424   2.401   6.175
 3522SOL     OW11464   2.781   0.380   0.901
 3522SOL    HW111465   2.694   0.408   0.941
 3522SOL    HW211466   2.818   0.302   0.953
 3523SOL     OW11467   2.572   4.631   5.229
 3523SOL    HW111468   2.606   4.689   5.303
 3523SOL    HW211469   2.649   4.596   5.175
 3524SOL     OW11470   2.404   0.719   2.898
 3524SOL    HW111471   2.459   0.800   2.878
 3524SOL    HW211472   2.309   0.736   2.872
 3525SOL     OW11473   1.359   3.259   3.049
 3525SOL    HW111474   1.387   3.229   2.958
 3525SOL    HW211475   1.275   3.212   3.075
 3526SOL     OW11476   3.574   6.646   3.460
 3526SOL    HW111477   3.495   6.600   3.419
 3526SOL    HW211478   3.545   6.728   3.508
 3527SOL     OW11479   5.434   3.737   0.093
 3527SOL    HW111480   5.476   3.826   0.073
 3527SOL    HW211481   5.429   3.682   0.010
 3528SOL     OW11482   1.848   6.746   4.760
 3528SOL    HW111483   1.765   6.802   4.757
 3528SOL    HW211484   1.874   6.731   4.855
 3529SOL     OW11485   3.938   5.736   0.130
 3529SOL    HW111486   3.984   5.808   0.078
 3529SOL    HW211487   3.934   5.762   0.227
 3530SOL     OW11488   2.034   6.464   2.955
 3530SOL    HW111489   2.017   6.478   2.857
 3530SOL    HW211490   2.084   6.543   2.991
 3531SOL     OW11491   5.320   4.598   6.956
 3531SOL    HW111492   5.294   4.618   0.024
 3531SOL    HW211493   5.345   4.501   6.949
 3532SOL     OW11494   2.200   6.576   0.956
 3532SOL    HW111495   2.216   6.501   0.892
 3532SOL    HW211496   2.278   6.585   1.017
 3533SOL     OW11497   1.496   0.765   3.439
 3533SOL    HW111498   1.556   0.758   3.359
 3533SOL    HW211499   1.439   0.683   3.445
 3534SOL     OW11500   5.473   0.457   5.247
 3534SOL    HW111501   5.571   0.435   5.251
 3534SOL    HW211502   5.424   0.383   5.202
 3535SOL     OW11503   5.144   6.899   0.400
 3535SOL    HW111504   5.067   6.896   0.464
 3535SOL    HW211505   5.123   6.962   0.325
 3536SOL     OW11506   0.905   3.231   2.469
 3536SOL    HW111507   0.980   3.177   2.429
 3536SOL    HW211508   0.873   3.297   2.401
 3537SOL     OW11509   3.214   4.807   1.185
 3537SOL    HW111510   3.187   4.881   1.246
 3537SOL    HW211511   3.226   4.842   1.093
 3538SOL     OW11512   3.875   0.669   3.853
 3538SOL    HW111513   3.777   0.655   3.866
 3538SOL    HW211514   3.891   0.727   3.774
 3539SOL     OW11515   4.727   5.579   5.724
 3539SOL    HW111516   4.649   5.626   5.683
 3539SOL    HW211517   4.760   5.632   5.802
 3540SOL     OW11518   3.912   4.562   6.428
 3540SOL    HW111519   3.860   4.622   6.489
 3540SOL    HW211520   3.849   4.512   6.369
 3541SOL     OW11521   1.137   2.624   2.038
 3541SOL    HW111522   1.094   2.628   1.948
 3541SOL    HW211523   1.172   2.532   2.054
 3542SOL     OW11524   5.969   1.279   0.038
 3542SOL    HW111525   5.883   1.310   0.079
 3542SOL    HW211526   5.965   1.292   6.966
 3543SOL     OW11527   0.773   2.773   3.824
 3543SOL    HW111528   0.763   2.683   3.783
 3543SOL    HW211529   0.871   2.794   3.835
 3544SOL     OW11530   2.818   4.402   0.323
 3544SOL    HW111531   2.897   4.463   0.320
 3544SOL    HW211532   2.782   4.390   0.231
 3545SOL     OW11533   4.081   6.321   0.702
 3545SOL    HW111534   4.010   6.252   0.684
 3545SOL    HW211535   4.046   6.388   0.768
 3546SOL     OW11536   6.446   4.864   1.300
 3546SOL    HW111537   6.487   4.846   1.390
 3546SOL    HW211538   6.491   4.942   1.258
 3547SOL     OW11539   0.830   3.951   4.867
 3547SOL    HW111540   0.890   4.000   4.804
 3547SOL    HW211541   0.739   3.943   4.827
 3548SOL     OW11542   6.237   0.226   5.698
 3548SOL    HW111543   6.316   0.272   5.739
 3548SOL    HW211544   6.163   0.220   5.765
 3549SOL     OW11545   2.388   6.177   6.509
 3549SOL    HW111546   2.352   6.219   6.426
 3549SOL    HW211547   2.372   6.238   6.587
 3550SOL     OW11548   5.608   1.781   5.639
 3550SOL    HW111549   5.629   1.826   5.552
 3550SOL    HW211550   5.690   1.736   5.675
 3551SOL     OW11551   6.027   1.850   5.006
 3551SOL    HW111552   6.076   1.847   5.093
 3551SOL    HW211553   6.086   1.891   4.936
 3552SOL     OW11554   6.911   0.134   2.814
 3552SOL    HW111555   6.966   0.052   2.797
 3552SOL    HW211556   6.830   0.132   2.754
 3553SOL     OW11557   6.121   5.864   6.739
 3553SOL    HW111558   6.168   5.855   6.827
 3553SOL    HW211559   6.136   5.956   6.703
 3554SOL     OW11560   4.710   4.303   6.815
 3554SOL    HW111561   4.625   4.252   6.804
 3554SOL    HW211562   4.715   4.375   6.745
 3555SOL     OW11563   2.993   1.535   5.527
 3555SOL    HW111564   2.982   1.473   5.604
 3555SOL    HW211565   3.087   1.568   5.524
 3556SOL     OW11566   6.116   1.069   0.379
 3556SOL    HW111567   6.054   0.990   0.383
 3556SOL    HW211568   6.081   1.135   0.312
 3557SOL     OW11569   5.015   6.558   1.855
 3557SOL    HW111570   5.016   6.656   1.874
 3557SOL    HW211571   4.920   6.527   1.843
 3558SOL     OW11572   3.625   5.551   2.730
 3558SOL    HW111573   3.599   5.455   2.730
 3558SOL    HW211574   3.672   5.573   2.644
 3559SOL     OW11575   3.693   6.609   6.566
 3559SOL    HW111576   3.619   6.577   6.507
 3559SOL    HW211577   3.710   6.706   6.548
 3560SOL     OW11578   2.404   5.904   4.489
 3560SOL    HW111579   2.422   5.807   4.469
 3560SOL    HW211580   2.360   5.946   4.410
 3561SOL     OW11581   4.273   3.091   5.348
 3561SOL    HW111582   4.188   3.099   5.399
 3561SOL    HW211583   4.311   2.999   5.360
 3562SOL     OW11584   2.624   0.943   0.531
 3562SOL    HW111585   2.652   0.911   0.441
 3562SOL    HW211586   2.637   1.042   0.537
 3563SOL     OW11587   0.024   2.309   6.732
 3563SOL    HW111588   7.025   2.404   6.750
 3563SOL    HW211589   0.115   2.291   6.768
 3564SOL     OW11590   6.513   3.644   2.875
 3564SOL    HW111591   6.566   3.704   2.815
 3564SOL    HW211592   6.486   3.693   2.957
 3565SOL     OW11593   5.033   6.582   5.664
 3565SOL    HW111594   4.950   6.571   5.718
 3565SOL    HW211595   5.062   6.678   5.667
 3566SOL     OW11596   1.298   0.541   5.775
 3566SOL    HW111597   1.296   0.628   5.724
 3566SOL    HW211598   1.339   0.556   5.864
 3567SOL     OW11599   6.934   3.990   6.993
 3567SOL    HW111600   7.003   4.029   6.931
 3567SOL    HW211601   6.899   4.062   0.026
 3568SOL     OW11602   4.179   3.443   5.550
 3568SOL    HW111603   4.269   3.444   5.594
 3568SOL    HW211604   4.144   3.537   5.544
 3569SOL     OW11605   1.944   0.348   3.833
 3569SOL    HW111606   1.891   0.391   3.760
 3569SOL    HW211607   1.911   0.380   3.922
 3570SOL     OW11608   6.198   1.729   4.321
 3570SOL    HW111609   6.174   1.810   4.267
 3570SOL    HW211610   6.139   1.653   4.295
 3571SOL     OW11611   6.324   5.146   4.679
 3571SOL    HW111612   6.332   5.245   4.688
 3571SOL    HW211613   6.391   5.102   4.738
 3572SOL     OW11614   6.235   6.553   5.483
 3572SOL    HW111615   6.173   6.597   5.419
 3572SOL    HW211616   6.266   6.619   5.551
 3573SOL     OW11617   0.151   1.863   1.255
 3573SOL    HW111618   0.152   1.963   1.255
 3573SOL    HW211619   0.122   1.831   1.165
 3574SOL     OW11620   6.450   3.972   0.362
 3574SOL    HW111621   6.530   4.031   0.348
 3574SOL    HW211622   6.441   3.950   0.459
 3575SOL     OW11623   6.177   6.890   1.988
 3575SOL    HW111624   6.232   6.813   1.953
 3575SOL    HW211625   6.153   6.872   2.084
 3576SOL     OW11626   6.558   0.621   0.150
 3576SOL    HW111627   6.594   0.713   0.130
 3576SOL    HW211628   6.630   0.553   0.135
 3577SOL     OW11629   2.454   3.983   0.130
 3577SOL    HW111630   2.355   3.984   0.114
 3577SOL    HW211631   2.499   4.044   0.065
 3578SOL     OW11632   3.574   4.475   1.643
 3578SOL    HW111633   3.541   4.530   1.719
 3578SOL    HW211634   3.496   4.429   1.599
 3579SOL     OW11635   1.839   4.553   5.483
 3579SOL    HW111636   1.849   4.482   5.552
 3579SOL    HW211637   1.899   4.533   5.406
 3580SOL     OW11638   6.111   3.041   0.976
 3580SOL    HW111639   6.131   3.139   0.976
 3580SOL    HW211640   6.041   3.021   1.045
 3581SOL     OW11641   6.447   0.508   3.394
 3581SOL    HW111642   6.357   0.482   3.359
 3581SOL    HW211643   6.515   0.442   3.362
 3582SOL     OW11644   0.123   7.011   5.585
 3582SOL    HW111645   0.221   6.993   5.575
 3582SOL    HW211646   0.077   6.986   5.500
 3583SOL     OW11647   1.067   5.181   1.773
 3583SOL    HW111648   1.042   5.270   1.810
 3583SOL    HW211649   0.988   5.142   1.725
 3584SOL     OW11650   6.144   0.048   5.088
 3584SOL    HW111651   6.117   0.128   5.141
 3584SOL    HW211652   6.173   0.077   4.997
 3585SOL     OW11653   2.083   4.742   3.470
 3585SOL    HW111654   2.026   4.817   3.438
 3585SOL    HW211655   2.157   4.777   3.527
 3586SOL     OW11656   1.105   0.557   6.037
 3586SOL    HW111657   1.042   0.629   6.007
 3586SOL    HW211658   1.199   0.586   6.018
 3587SOL     OW11659   3.502   6.501   6.381
 3587SOL    HW111660   3.412   6.457   6.378
 3587SOL    HW211661   3.512   6.563   6.303
 3588SOL     OW11662   2.014   2.330   5.427
 3588SOL    HW111663   2.025   2.429   5.439
 3588SOL    HW211664   2.090   2.295   5.372
 3589SOL     OW11665   3.856   0.242   4.264
 3589SOL    HW111666   3.932   0.206   4.210
 3589SOL    HW211667   3.772   0.236   4.211
 3590SOL     OW11668   1.240   4.966   6.813
 3590SOL    HW111669   1.255   4.974   6.911
 3590SOL    HW211670   1.306   4.902   6.773
 3591SOL     OW11671   5.454   2.241   5.074
 3591SOL    HW111672   5.507   2.323   5.055
 3591SOL    HW211673   5.511   2.160   5.060
 3592SOL     OW11674   5.311   2.176   1.999
 3592SOL    HW111675   5.251   2.220   1.931
 3592SOL    HW211676   5.264   2.173   2.087
 3593SOL     OW11677   1.340   5.813   4.236
 3593SOL    HW111678   1.252   5.853   4.209
 3593SOL    HW211679   1.363   5.737   4.175
 3594SOL     OW11680   3.871   1.877   4.392
 3594SOL    HW111681   3.816   1.804   4.351
 3594SOL    HW211682   3.816   1.959   4.402
 3595SOL     OW11683   2.381   6.797   5.519
 3595SOL    HW111684   2.287   6.769   5.538
 3595SOL    HW211685   2.429   6.722   5.473
 3596SOL     OW11686   0.566   3.915   3.510
 3596SOL    HW111687   0.487   3.890   3.567
 3596SOL    HW211688   0.545   3.894   3.414
 3597SOL     OW11689   3.767   6.960   3.895
 3597SOL    HW111690   3.690   6.929   3.950
 3597SOL    HW211691   3.734   7.017   3.820
 3598SOL     OW11692   1.914   0.489   6.889
 3598SOL    HW111693   1.922   0.398   6.929
 3598SOL    HW211694   1.990   0.504   6.825
 3599SOL     OW11695   0.103   1.496   4.253
 3599SOL    HW111696   0.007   1.490   4.226
 3599SOL    HW211697   0.125   1.590   4.280
 3600SOL     OW11698   6.562   0.181   1.279
 3600SOL    HW111699   6.659   0.185   1.257
 3600SOL    HW211700   6.545   0.231   1.364
 3601SOL     OW11701   6.160   3.930   5.607
 3601SOL    HW111702   6.165   3.937   5.507
 3601SOL    HW211703   6.066   3.906   5.634
 3602SOL     OW11704   2.927   1.452   1.295
 3602SOL    HW111705   2.864   1.428   1.220
 3602SOL    HW211706   2.886   1.426   1.382
 3603SOL     OW11707   4.236   5.801   4.431
 3603SOL    HW111708   4.232   5.771   4.336
 3603SOL    HW211709   4.331   5.804   4.462
 3604SOL     OW11710   6.378   4.342   3.611
 3604SOL    HW111711   6.402   4.295   3.525
 3604SOL    HW211712   6.362   4.275   3.682
 3605SOL     OW11713   6.136   2.619   6.823
 3605SOL    HW111714   6.085   2.579   6.747
 3605SOL    HW211715   6.072   2.664   6.886
 3606SOL     OW11716   1.649   4.378   3.430
 3606SOL    HW111717   1.739   4.378   3.386
 3606SOL    HW211718   1.596   4.298   3.398
 3607SOL     OW11719   4.342   0.070   6.983
 3607SOL    HW111720   4.277   0.020   6.925
 3607SOL    HW211721   4.308   0.071   0.050
 3608SOL     OW11722   0.760   2.656   3.390
 3608SOL    HW111723   0.826   2.673   3.316
 3608SOL    HW211724   0.748   2.739   3.444
 3609SOL     OW11725   6.689   6.815   4.601
 3609SOL    HW111726   6.600   6.798   4.644
 3609SOL    HW211727   6.696   6.911   4.577
 3610SOL     OW11728   2.155   5.356   5.444
 3610SOL    HW111729   2.211   5.301   5.382
 3610SOL    HW211730   2.181   5.335   5.539
 3611SOL     OW11731   4.555   5.721   5.537
 3611SOL    HW111732   4.467   5.743   5.579
 3611SOL    HW211733   4.605   5.806   5.518
 3612SOL     OW11734   2.205   6.343   1.230
 3612SOL    HW111735   2.303   6.349   1.252
 3612SOL    HW211736   2.151   6.383   1.304
 3613SOL     OW11737   5.170   5.205   6.470
 3613SOL    HW111738   5.260   5.202   6.427
 3613SOL    HW211739   5.152   5.117   6.514
 3614SOL     OW11740   4.184   3.501   4.408
 3614SOL    HW111741   4.281   3.478   4.414
 3614SOL    HW211742   4.131   3.440   4.467
 3615SOL     OW11743   5.952   6.444   5.915
 3615SOL    HW111744   6.003   6.529   5.928
 3615SOL    HW211745   5.948   6.394   6.002
 3616SOL     OW11746   5.920   0.575   4.895
 3616SOL    HW111747   5.915   0.590   4.994
 3616SOL    HW211748   6.002   0.620   4.859
 3617SOL     OW11749   0.030   0.359   0.120
 3617SOL    HW111750   0.025   0.259   0.112
 3617SOL    HW211751   0.102   0.394   0.060
 3618SOL     OW11752   2.908   6.590   6.384
 3618SOL    HW111753   2.977   6.543   6.440
 3618SOL    HW211754   2.954   6.644   6.313
 3619SOL     OW11755   5.046   4.283   4.135
 3619SOL    HW111756   5.113   4.342   4.088
 3619SOL    HW211757   5.050   4.191   4.095
 3620SOL     OW11758   6.343   1.081   4.705
 3620SOL    HW111759   6.339   1.092   4.804
 3620SOL    HW211760   6.436   1.101   4.673
 3621SOL     OW11761   1.590   3.355   5.576
 3621SOL    HW111762   1.620   3.260   5.568
 3621SOL    HW211763   1.623   3.394   5.662
 3622SOL     OW11764   0.466   3.379   1.346
 3622SOL    HW111765   0.406   3.457   1.328
 3622SOL    HW211766   0.557   3.397   1.307
 3623SOL     OW11767   6.801   4.929   3.888
 3623SOL    HW111768   6.755   5.018   3.888
 3623SOL    HW211769   6.759   4.871   3.958
 3624SOL     OW11770   1.712   1.392   1.928
 3624SOL    HW111771   1.624   1.406   1.972
 3624SOL    HW211772   1.704   1.405   1.829
 3625SOL     OW11773   0.496   3.205   4.380
 3625SOL    HW111774   0.459   3.298   4.385
 3625SOL    HW211775   0.590   3.209   4.344
 3626SOL     OW11776   2.908   3.964   5.101
 3626SOL    HW111777   2.825   3.923   5.065
 3626SOL    HW211778   2.901   3.971   5.201
 3627SOL     OW11779   3.395   3.170   3.955
 3627SOL    HW111780   3.323   3.101   3.958
 3627SOL    HW211781   3.355   3.260   3.939
 3628SOL     OW11782   2.873   5.505   3.131
 3628SOL    HW111783   2.913   5.533   3.044
 3628SOL    HW211784   2.909   5.562   3.204
 3629SOL     OW11785   5.342   3.046   5.262
 3629SOL    HW111786   5.289   3.009   5.185
 3629SOL    HW211787   5.433   3.006   5.262
 3630SOL     OW11788   5.804   1.645   4.979
 3630SOL    HW111789   5.720   1.692   4.952
 3630SOL    HW211790   5.873   1.712   5.005
 3631SOL     OW11791   2.101   1.101   3.948
 3631SOL    HW111792   2.200   1.095   3.948
 3631SOL    HW211793   2.067   1.091   3.854
 3632SOL     OW11794   3.839   6.940   6.226
 3632SOL    HW111795   3.795   6.895   6.304
 3632SOL    HW211796   3.930   6.901   6.212
 3633SOL     OW11797   1.331   3.585   5.166
 3633SOL    HW111798   1.340   3.678   5.203
 3633SOL    HW211799   1.350   3.519   5.238
 3634SOL     OW11800   3.362   5.601   5.918
 3634SOL    HW111801   3.417   5.590   5.835
 3634SOL    HW211802   3.331   5.696   5.924
 3635SOL     OW11803   1.732   0.902   5.318
 3635SOL    HW111804   1.792   0.847   5.376
 3635SOL    HW211805   1.762   0.997   5.320
 3636SOL     OW11806   1.521   5.718   6.601
 3636SOL    HW111807   1.582   5.773   6.544
 3636SOL    HW211808   1.576   5.660   6.661
 3637SOL     OW11809   4.798   1.240   1.746
 3637SOL    HW111810   4.800   1.243   1.846
 3637SOL    HW211811   4.892   1.246   1.711
 3638SOL     OW11812   6.129   4.970   3.037
 3638SOL    HW111813   6.131   5.067   3.012
 3638SOL    HW211814   6.174   4.958   3.126
 3639SOL     OW11815   2.594   5.546   6.823
 3639SOL    HW111816   2.570   5.620   6.885
 3639SOL    HW211817   2.519   5.480   6.820
 3640SOL     OW11818   2.423   6.975   1.619
 3640SOL    HW111819   2.418   6.880   1.586
 3640SOL    HW211820   2.467   6.977   1.709
 3641SOL     OW11821   2.342   0.803   4.602
 3641SOL    HW111822   2.434   0.790   4.641
 3641SOL    HW211823   2.283   0.727   4.630
 3642SOL     OW11824   5.967   6.488   2.248
 3642SOL    HW111825   5.898   6.561   2.250
 3642SOL    HW211826   6.049   6.519   2.297
 3643SOL     OW11827   3.753   4.984   5.826
 3643SOL    HW111828   3.698   4.913   5.784
 3643SOL    HW211829   3.698   5.067   5.836
 3644SOL     OW11830   6.845   0.151   0.459
 3644SOL    HW111831   6.825   0.249   0.454
 3644SOL    HW211832   6.853   0.124   0.555
 3645SOL     OW11833   3.631   6.467   2.759
 3645SOL    HW111834   3.683   6.383   2.743
 3645SOL    HW211835   3.681   6.525   2.822
 3646SOL     OW11836   6.634   5.604   4.412
 3646SOL    HW111837   6.604   5.559   4.328
 3646SOL    HW211838   6.710   5.665   4.392
 3647SOL     OW11839   2.474   2.255   1.635
 3647SOL    HW111840   2.567   2.291   1.647
 3647SOL    HW211841   2.450   2.256   1.538
 3648SOL     OW11842   3.153   6.107   3.579
 3648SOL    HW111843   3.202   6.035   3.629
 3648SOL    HW211844   3.217   6.154   3.518
 3649SOL     OW11845   3.537   3.084   2.104
 3649SOL    HW111846   3.544   2.985   2.106
 3649SOL    HW211847   3.580   3.119   2.020
 3650SOL     OW11848   5.311   6.499   1.567
 3650SOL    HW111849   5.411   6.509   1.565
 3650SOL    HW211850   5.273   6.557   1.638
 3651SOL     OW11851   1.334   6.349   2.610
 3651SOL    HW111852   1.290   6.377   2.525
 3651SOL    HW211853   1.293   6.263   2.642
 3652SOL     OW11854   4.803   4.792   3.149
 3652SOL    HW111855   4.889   4.822   3.110
 3652SOL    HW211856   4.765   4.718   3.093
 3653SOL     OW11857   6.666   3.208   4.814
 3653SOL    HW111858   6.692   3.298   4.781
 3653SOL    HW211859   6.696   3.197   4.909
 3654SOL     OW11860   1.084   5.762   1.532
 3654SOL    HW111861   1.177   5.794   1.517
 3654SOL    HW211862   1.081   5.663   1.523
 3655SOL     OW11863   0.226   1.161   3.763
 3655SOL    HW111864   0.285   1.171   3.843
 3655SOL    HW211865   0.173   1.076   3.772
 3656SOL     OW11866   2.582   1.265   2.769
 3656SOL    HW111867   2.487   1.234   2.766
 3656SOL    HW211868   2.638   1.210   2.707
 3657SOL     OW11869   4.382   5.011   1.930
 3657SOL    HW111870   4.414   4.991   2.022
 3657SOL    HW211871   4.289   4.975   1.918
 3658SOL     OW11872   2.540   5.453   5.274
 3658SOL    HW111873   2.603   5.504   5.333
 3658SOL    HW211874   2.467   5.513   5.242
 3659SOL     OW11875   0.807   3.956   0.442
 3659SOL    HW111876   0.874   3.936   0.514
 3659SOL    HW211877   0.810   3.883   0.373
 3660SOL     OW11878   4.225   5.215   0.836
 3660SOL    HW111879   4.147   5.265   0.874
 3660SOL    HW211880   4.212   5.117   0.851
 3661SOL     OW11881   5.054   1.664   1.251
 3661SOL    HW111882   5.087   1.612   1.329
 3661SOL    HW211883   4.965   1.703   1.272
 3662SOL     OW11884   2.902   6.257   4.868
 3662SOL    HW111885   2.845   6.308   4.933
 3662SOL    HW211886   2.980   6.313   4.841
 3663SOL     OW11887   1.552   3.676   6.193
 3663SOL    HW111888   1.619   3.603   6.182
 3663SOL    HW211889   1.594   3.763   6.168
 3664SOL     OW11890   4.156   6.964   1.450
 3664SOL    HW111891   4.141   6.881   1.503
 3664SOL    HW211892   4.203   0.004   1.507
 3665SOL     OW11893   1.475   6.773   5.356
 3665SOL    HW111894   1.422   6.689   5.361
 3665SOL    HW211895   1.427   6.841   5.301
 3666SOL     OW11896   0.873   4.839   4.114
 3666SOL    HW111897   0.809   4.839   4.037
 3666SOL    HW211898   0.848   4.767   4.179
 3667SOL     OW11899   0.088   1.392   6.585
 3667SOL    HW111900   0.024   1.336   6.637
 3667SOL    HW211901   0.175   1.399   6.635
 3668SOL     OW11902   1.628   6.028   1.854
 3668SOL    HW111903   1.650   5.931   1.845
 3668SOL    HW211904   1.533   6.043   1.826
 3669SOL     OW11905   5.879   1.799   3.877
 3669SOL    HW111906   5.877   1.725   3.809
 3669SOL    HW211907   5.881   1.887   3.830
 3670SOL     OW11908   2.228   5.425   6.250
 3670SOL    HW111909   2.139   5.469   6.238
 3670SOL    HW211910   2.245   5.364   6.172
 3671SOL     OW11911   1.607   0.983   2.811
 3671SOL    HW111912   1.612   1.032   2.898
 3671SOL    HW211913   1.529   1.017   2.758
 3672SOL     OW11914   6.648   6.926   0.568
 3672SOL    HW111915   6.596   6.931   0.483
 3672SOL    HW211916   6.671   6.831   0.587
 3673SOL     OW11917   4.176   0.382   6.674
 3673SOL    HW111918   4.152   0.301   6.728
 3673SOL    HW211919   4.103   0.403   6.609
 3674SOL     OW11920   1.425   6.551   0.988
 3674SOL    HW111921   1.520   6.575   0.970
 3674SOL    HW211922   1.370   6.567   0.906
 3675SOL     OW11923   1.890   1.661   4.587
 3675SOL    HW111924   1.900   1.563   4.603
 3675SOL    HW211925   1.902   1.710   4.674
 3676SOL     OW11926   1.689   4.992   3.213
 3676SOL    HW111927   1.737   5.069   3.171
 3676SOL    HW211928   1.593   4.993   3.184
 3677SOL     OW11929   6.650   6.944   3.839
 3677SOL    HW111930   6.626   7.021   3.898
 3677SOL    HW211931   6.685   6.868   3.895
 3678SOL     OW11932   1.252   1.238   3.295
 3678SOL    HW111933   1.284   1.152   3.336
 3678SOL    HW211934   1.155   1.231   3.274
 3679SOL     OW11935   0.337   0.787   1.319
 3679SOL    HW111936   0.354   0.837   1.234
 3679SOL    HW211937   0.409   0.809   1.385
 3680SOL     OW11938   6.393   4.352   4.569
 3680SOL    HW111939   6.379   4.260   4.607
 3680SOL    HW211940   6.306   4.400   4.565
 3681SOL     OW11941   5.271   6.365   4.891
 3681SOL    HW111942   5.307   6.272   4.885
 3681SOL    HW211943   5.174   6.361   4.917
 3682SOL     OW11944   0.487   2.391   6.282
 3682SOL    HW111945   0.452   2.457   6.215
 3682SOL    HW211946   0.567   2.430   6.328
 3683SOL     OW11947   5.349   6.080   3.474
 3683SOL    HW111948   5.352   6.131   3.560
 3683SOL    HW211949   5.435   6.032   3.461
 3684SOL     OW11950   1.643   2.945   0.738
 3684SOL    HW111951   1.566   2.974   0.682
 3684SOL    HW211952   1.719   2.917   0.679
 3685SOL     OW11953   6.498   6.764   6.295
 3685SOL    HW111954   6.530   6.789   6.387
 3685SOL    HW211955   6.431   6.832   6.264
 3686SOL     OW11956   6.021   4.484   1.403
 3686SOL    HW111957   5.972   4.464   1.318
 3686SOL    HW211958   6.080   4.563   1.390
 3687SOL     OW11959   3.020   1.137   6.876
 3687SOL    HW111960   3.075   1.070   6.826
 3687SOL    HW211961   2.948   1.172   6.816
 3688SOL     OW11962   6.868   3.015   6.929
 3688SOL    HW111963   6.775   2.996   6.898
 3688SOL    HW211964   6.873   3.006   0.001
 3689SOL     OW11965   2.922   0.110   3.767
 3689SOL    HW111966   2.937   0.129   3.864
 3689SOL    HW211967   2.825   0.119   3.745
 3690SOL     OW11968   4.327   6.175   5.189
 3690SOL    HW111969   4.342   6.273   5.171
 3690SOL    HW211970   4.229   6.157   5.194
 3691SOL     OW11971   3.536   2.552   0.141
 3691SOL    HW111972   3.485   2.480   0.189
 3691SOL    HW211973   3.625   2.564   0.186
 3692SOL     OW11974   0.847   0.049   6.456
 3692SOL    HW111975   0.927   0.004   6.417
 3692SOL    HW211976   0.797   0.097   6.384
 3693SOL     OW11977   2.378   1.833   3.603
 3693SOL    HW111978   2.378   1.894   3.524
 3693SOL    HW211979   2.456   1.770   3.596
 3694SOL     OW11980   2.314   5.730   2.518
 3694SOL    HW111981   2.226   5.776   2.509
 3694SOL    HW211982   2.333   5.712   2.615
 3695SOL     OW11983   1.655   2.709   1.383
 3695SOL    HW111984   1.735   2.668   1.426
 3695SOL    HW211985   1.580   2.643   1.384
 3696SOL     OW11986   3.057   5.766   5.742
 3696SOL    HW111987   3.138   5.750   5.685
 3696SOL    HW211988   3.081   5.827   5.817
 3697SOL     OW11989   5.435   0.091   4.306
 3697SOL    HW111990   5.534   0.083   4.294
 3697SOL    HW211991   5.395   7.027   4.319
 3698SOL     OW11992   3.009   0.400   6.276
 3698SOL    HW111993   3.047   0.445   6.195
 3698SOL    HW211994   2.916   0.368   6.255
 3699SOL     OW11995   1.458   4.277   2.205
 3699SOL    HW111996   1.466   4.376   2.193
 3699SOL    HW211997   1.500   4.250   2.292
 3700SOL     OW11998   0.373   0.363   3.663
 3700SOL    HW111999   0.385   0.435   3.594
 3700SOL    HW212000   0.460   0.347   3.709
 3701SOL     OW12001   5.674   0.309   3.472
 3701SOL    HW112002   5.654   0.393   3.421
 3701SOL    HW212003   5.773   0.296   3.479
 3702SOL     OW12004   4.571   1.050   6.598
 3702SOL    HW112005   4.529   1.093   6.678
 3702SOL    HW212006   4.624   1.117   6.547
 3703SOL     OW12007   4.336   4.332   6.962
 3703SOL    HW112008   4.372   4.262   6.900
 3703SOL    HW212009   4.378   4.322   0.025
 3704SOL     OW12010   2.240   0.313   2.326
 3704SOL    HW112011   2.245   0.223   2.282
 3704SOL    HW212012   2.332   0.352   2.332
 3705SOL     OW12013   5.706   1.353   4.542
 3705SOL    HW112014   5.613   1.385   4.559
 3705SOL    HW212015   5.740   1.303   4.622
 3706SOL     OW12016   2.422   2.144   3.285
 3706SOL    HW112017   2.344   2.088   3.258
 3706SOL    HW212018   2.486   2.088   3.338
 3707SOL     OW12019   4.558   2.240   5.162
 3707SOL    HW112020   4.624   2.176   5.202
 3707SOL    HW212021   4.496   2.190   5.102
 3708SOL     OW12022   6.316   7.011   5.922
 3708SOL    HW112023   6.382   0.058   5.934
 3708SOL    HW212024   6.228   0.010   5.962
 3709SOL     OW12025   4.688   0.235   0.277
 3709SOL    HW112026   4.603   0.283   0.298
 3709SOL    HW212027   4.748   0.237   0.356
 3710SOL     OW12028   6.961   5.121   0.440
 3710SOL    HW112029   7.021   5.056   0.396
 3710SOL    HW212030   6.955   5.101   0.538
 3711SOL     OW12031   6.579   5.275   2.671
 3711SOL    HW112032   6.534   5.192   2.637
 3711SOL    HW212033   6.570   5.278   2.771
 3712SOL     OW12034   2.161   0.403   0.404
 3712SOL    HW112035   2.137   0.475   0.469
 3712SOL    HW212036   2.256   0.374   0.421
 3713SOL     OW12037   3.741   5.877   6.254
 3713SOL    HW112038   3.695   5.827   6.327
 3713SOL    HW212039   3.702   5.850   6.166
 3714SOL     OW12040   4.254   1.323   5.308
 3714SOL    HW112041   4.276   1.385   5.232
 3714SOL    HW212042   4.338   1.282   5.343
 3715SOL     OW12043   5.385   3.954   3.947
 3715SOL    HW112044   5.366   3.861   3.978
 3715SOL    HW212045   5.449   3.998   4.009
 3716SOL     OW12046   0.366   1.900   4.794
 3716SOL    HW112047   0.394   1.837   4.721
 3716SOL    HW212048   0.434   1.900   4.867
 3717SOL     OW12049   6.162   0.516   0.005
 3717SOL    HW112050   6.190   0.433   6.984
 3717SOL    HW212051   6.079   0.498   0.057
 3718SOL     OW12052   0.882   5.546   0.404
 3718SOL    HW112053   0.844   5.471   0.458
 3718SOL    HW212054   0.982   5.537   0.399
 3719SOL     OW12055   3.896   5.282   6.550
 3719SOL    HW112056   3.909   5.234   6.463
 3719SOL    HW212057   3.944   5.233   6.623
 3720SOL     OW12058   0.148   1.788   6.194
 3720SOL    HW112059   0.231   1.734   6.207
 3720SOL    HW212060   0.168   1.866   6.136
 3721SOL     OW12061   4.635   3.147   0.842
 3721SOL    HW112062   4.589   3.071   0.889
 3721SOL    HW212063   4.573   3.185   0.773
 3722SOL     OW12064   5.910   5.929   1.445
 3722SOL    HW112065   5.813   5.931   1.419
 3722SOL    HW212066   5.921   5.973   1.535
 3723SOL     OW12067   4.246   1.293   0.504
 3723SOL    HW112068   4.261   1.197   0.481
 3723SOL    HW212069   4.164   1.302   0.560
 3724SOL     OW12070   0.096   4.950   5.749
 3724SOL    HW112071   0.196   4.949   5.751
 3724SOL    HW212072   0.062   4.858   5.733
 3725SOL     OW12073   6.783   0.532   0.674
 3725SOL    HW112074   6.801   0.555   0.769
 3725SOL    HW212075   6.722   0.453   0.669
 3726SOL     OW12076   5.906   3.657   1.588
 3726SOL    HW112077   5.810   3.671   1.560
 3726SOL    HW212078   5.958   3.740   1.568
 3727SOL     OW12079   2.484   2.765   5.264
 3727SOL    HW112080   2.455   2.692   5.203
 3727SOL    HW212081   2.445   2.852   5.233
 3728SOL     OW12082   0.487   3.404   6.646
 3728SOL    HW112083   0.539   3.460   6.582
 3728SOL    HW212084   0.460   3.460   6.725
 3729SOL     OW12085   0.364   2.464   3.268
 3729SOL    HW112086   0.420   2.546   3.254
 3729SOL    HW212087   0.355   2.415   3.181
 3730SOL     OW12088   2.469   0.659   0.865
 3730SOL    HW112089   2.522   0.590   0.816
 3730SOL    HW212090   2.458   0.632   0.960
 3731SOL     OW12091   3.066   6.345   6.188
 3731SOL    HW112092   3.010   6.410   6.136
 3731SOL    HW212093   3.067   6.257   6.141
 3732SOL     OW12094   2.050   3.691   4.512
 3732SOL    HW112095   2.070   3.624   4.440
 3732SOL    HW212096   2.059   3.647   4.601
 3733SOL     OW12097   3.033   3.380   1.130
 3733SOL    HW112098   3.050   3.288   1.096
 3733SOL    HW212099   3.103   3.443   1.095
 3734SOL     OW12100   5.224   6.759   3.281
 3734SOL    HW112101   5.226   6.800   3.373
 3734SOL    HW212102   5.244   6.662   3.287
 3735SOL     OW12103   3.377   1.816   1.955
 3735SOL    HW112104   3.413   1.816   1.861
 3735SOL    HW212105   3.386   1.907   1.994
 3736SOL     OW12106   4.466   1.160   6.044
 3736SOL    HW112107   4.417   1.098   5.983
 3736SOL    HW212108   4.436   1.254   6.027
 3737SOL     OW12109   3.859   6.658   3.374
 3737SOL    HW112110   3.884   6.755   3.379
 3737SOL    HW212111   3.765   6.646   3.405
 3738SOL     OW12112   7.005   0.117   4.023
 3738SOL    HW112113   7.001   0.216   4.009
 3738SOL    HW212114   6.994   0.070   3.935
 3739SOL     OW12115   0.927   3.778   1.782
 3739SOL    HW112116   0.887   3.732   1.702
 3739SOL    HW212117   0.976   3.710   1.837
 3740SOL     OW12118   5.335   0.791   7.011
 3740SOL    HW112119   5.407   0.796   6.942
 3740SOL    HW212120   5.310   0.884   0.012
 3741SOL     OW12121   3.482   2.167   6.841
 3741SOL    HW112122   3.540   2.205   6.913
 3741SOL    HW212123   3.442   2.242   6.788
 3742SOL     OW12124   3.359   3.410   5.595
 3742SOL    HW112125   3.390   3.314   5.596
 3742SOL    HW212126   3.431   3.467   5.556
 3743SOL     OW12127   0.761   5.812   5.894
 3743SOL    HW112128   0.779   5.719   5.863
 3743SOL    HW212129   0.848   5.858   5.913
 3744SOL     OW12130   0.110   5.622   3.090
 3744SOL    HW112131   0.038   5.682   3.126
 3744SOL    HW212132   0.188   5.678   3.060
 3745SOL     OW12133   5.169   5.765   1.606
 3745SOL    HW112134   5.104   5.801   1.672
 3745SOL    HW212135   5.201   5.675   1.637
 3746SOL     OW12136   4.447   1.529   2.304
 3746SOL    HW112137   4.458   1.628   2.294
 3746SOL    HW212138   4.485   1.499   2.391
 3747SOL     OW12139   2.516   0.145   0.876
 3747SOL    HW112140   2.571   0.171   0.797
 3747SOL    HW212141   2.420   0.167   0.858
 3748SOL     OW12142   5.559   0.916   2.274
 3748SOL    HW112143   5.620   0.847   2.314
 3748SOL    HW212144   5.584   0.931   2.179
 3749SOL     OW12145   1.863   0.675   4.508
 3749SOL    HW112146   1.859   0.734   4.427
 3749SOL    HW212147   1.772   0.671   4.551
 3750SOL     OW12148   0.168   4.743   6.855
 3750SOL    HW112149   0.113   4.758   6.773
 3750SOL    HW212150   0.154   4.819   6.919
 3751SOL     OW12151   1.489   3.863   1.405
 3751SOL    HW112152   1.469   3.800   1.330
 3751SOL    HW212153   1.553   3.820   1.469
 3752SOL     OW12154   5.528   6.308   0.164
 3752SOL    HW112155   5.619   6.280   0.135
 3752SOL    HW212156   5.460   6.263   0.106
 3753SOL     OW12157   6.884   0.074   3.075
 3753SOL    HW112158   6.837   0.062   2.988
 3753SOL    HW212159   6.916   0.169   3.084
 3754SOL     OW12160   2.126   1.203   1.499
 3754SOL    HW112161   2.137   1.300   1.520
 3754SOL    HW212162   2.211   1.154   1.516
 3755SOL     OW12163   3.304   5.304   4.121
 3755SOL    HW112164   3.204   5.309   4.118
 3755SOL    HW212165   3.332   5.252   4.202
 3756SOL     OW12166   1.699   6.542   0.633
 3756SOL    HW112167   1.790   6.521   0.598
 3756SOL    HW212168   1.707   6.573   0.728
 3757SOL     OW12169   0.512   4.310   1.271
 3757SOL    HW112170   0.521   4.236   1.204
 3757SOL    HW212171   0.597   4.363   1.274
 3758SOL     OW12172   2.015   0.099   3.700
 3758SOL    HW112173   1.991   0.189   3.737
 3758SOL    HW212174   1.970   0.028   3.753
 3759SOL     OW12175   5.358   0.323   4.154
 3759SOL    HW112176   5.380   0.232   4.190
 3759SOL    HW212177   5.443   0.369   4.127
 3760SOL     OW12178   1.044   1.231   2.784
 3760SOL    HW112179   1.026   1.309   2.843
 3760SOL    HW212180   0.998   1.244   2.696
 3761SOL     OW12181   4.578   2.106   5.670
 3761SOL    HW112182   4.638   2.102   5.590
 3761SOL    HW212183   4.606   2.038   5.737
 3762SOL     OW12184   7.015   2.893   3.992
 3762SOL    HW112185   0.056   2.936   3.932
 3762SOL    HW212186   6.966   2.823   3.942
 3763SOL     OW12187   0.985   4.725   6.732
 3763SOL    HW112188   0.940   4.750   6.647
 3763SOL    HW212189   1.079   4.696   6.713
 3764SOL     OW12190   2.770   0.786   2.886
 3764SOL    HW112191   2.743   0.786   2.790
 3764SOL    HW212192   2.765   0.879   2.923
 3765SOL     OW12193   5.517   2.588   2.976
 3765SOL    HW112194   5.464   2.606   3.060
 3765SOL    HW212195   5.498   2.495   2.945
 3766SOL     OW12196   1.618   3.253   1.904
 3766SOL    HW112197   1.525   3.217   1.899
 3766SOL    HW212198   1.627   3.331   1.842
 3767SOL     OW12199   1.995   5.937   5.826
 3767SOL    HW112200   1.958   5.974   5.911
 3767SOL    HW212201   1.926   5.942   5.754
 3768SOL     OW12202   1.471   6.934   2.563
 3768SOL    HW112203   1.435   7.027   2.567
 3768SOL    HW212204   1.399   6.871   2.533
 3769SOL     OW12205   5.405   5.495   4.421
 3769SOL    HW112206   5.442   5.585   4.398
 3769SOL    HW212207   5.454   5.425   4.369
 3770SOL     OW12208   2.649   0.830   1.685
 3770SOL    HW112209   2.743   0.855   1.660
 3770SOL    HW212210   2.594   0.913   1.696
 3771SOL     OW12211   6.449   5.306   5.669
 3771SOL    HW112212   6.453   5.217   5.714
 3771SOL    HW212213   6.436   5.293   5.571
 3772SOL     OW12214   0.980   5.439   1.827
 3772SOL    HW112215   0.900   5.495   1.846
 3772SOL    HW212216   1.063   5.495   1.837
 3773SOL     OW12217   5.185   5.178   6.954
 3773SOL    HW112218   5.123   5.163   0.004
 3773SOL    HW212219   5.206   5.091   6.910
 3774SOL     OW12220   6.552   4.849   2.070
 3774SOL    HW112221   6.552   4.942   2.032
 3774SOL    HW212222   6.596   4.851   2.160
 3775SOL     OW12223   4.657   5.129   5.429
 3775SOL    HW112224   4.564   5.148   5.397
 3775SOL    HW212225   4.719   5.196   5.389
 3776SOL     OW12226   4.311   2.849   6.670
 3776SOL    HW112227   4.335   2.859   6.767
 3776SOL    HW212228   4.387   2.882   6.614
 3777SOL     OW12229   2.992   4.859   4.269
 3777SOL    HW112230   2.941   4.945   4.274
 3777SOL    HW212231   2.931   4.786   4.239
 3778SOL     OW12232   3.645   5.413   6.622
 3778SOL    HW112233   3.712   5.341   6.603
 3778SOL    HW212234   3.601   5.395   6.710
 3779SOL     OW12235   6.721   4.672   6.891
 3779SOL    HW112236   6.748   4.591   6.839
 3779SOL    HW212237   6.734   4.754   6.834
 3780SOL     OW12238   6.069   3.813   2.055
 3780SOL    HW112239   6.089   3.765   1.970
 3780SOL    HW212240   6.056   3.747   2.128
 3781SOL     OW12241   1.556   5.970   5.257
 3781SOL    HW112242   1.501   6.003   5.180
 3781SOL    HW212243   1.633   5.917   5.222
 3782SOL     OW12244   4.257   4.870   0.859
 3782SOL    HW112245   4.269   4.898   0.954
 3782SOL    HW212246   4.257   4.770   0.854
 3783SOL     OW12247   4.711   5.295   4.618
 3783SOL    HW112248   4.683   5.305   4.522
 3783SOL    HW212249   4.664   5.364   4.673
 3784SOL     OW12250   5.387   2.855   5.449
 3784SOL    HW112251   5.410   2.819   5.359
 3784SOL    HW212252   5.356   2.950   5.441
 3785SOL     OW12253   1.119   2.343   2.883
 3785SOL    HW112254   1.035   2.290   2.867
 3785SOL    HW212255   1.161   2.365   2.795
 3786SOL     OW12256   2.162   3.354   4.746
 3786SOL    HW112257   2.203   3.409   4.672
 3786SOL    HW212258   2.201   3.383   4.833
 3787SOL     OW12259   5.199   6.413   4.155
 3787SOL    HW112260   5.197   6.393   4.253
 3787SOL    HW212261   5.215   6.328   4.104
 3788SOL     OW12262   4.795   3.043   6.106
 3788SOL    HW112263   4.763   2.949   6.119
 3788SOL    HW212264   4.892   3.042   6.080
 3789SOL     OW12265   2.500   3.019   1.105
 3789SOL    HW112266   2.491   3.031   1.006
 3789SOL    HW212267   2.500   3.109   1.150
 3790SOL     OW12268   0.824   6.220   1.728
 3790SOL    HW112269   0.880   6.244   1.807
 3790SOL    HW212270   0.747   6.163   1.757
 3791SOL     OW12271   5.010   0.579   5.363
 3791SOL    HW112272   5.026   0.515   5.439
 3791SOL    HW212273   5.095   0.588   5.310
 3792SOL     OW12274   6.834   0.070   4.247
 3792SOL    HW112275   6.904   0.112   4.188
 3792SOL    HW212276   6.854   0.092   4.342
 3793SOL     OW12277   4.000   4.578   0.665
 3793SOL    HW112278   3.949   4.585   0.750
 3793SOL    HW212279   3.956   4.510   0.605
 3794SOL     OW12280   1.300   5.026   6.162
 3794SOL    HW112281   1.241   4.946   6.174
 3794SOL    HW212282   1.262   5.103   6.212
 3795SOL     OW12283   2.939   5.934   0.842
 3795SOL    HW112284   2.918   5.894   0.931
 3795SOL    HW212285   3.010   6.004   0.853
 3796SOL     OW12286   4.832   0.624   0.395
 3796SOL    HW112287   4.764   0.617   0.322
 3796SOL    HW212288   4.920   0.589   0.362
 3797SOL     OW12289   0.305   3.150   1.368
 3797SOL    HW112290   0.366   3.224   1.340
 3797SOL    HW212291   0.335   3.113   1.456
 3798SOL     OW12292   1.555   5.157   3.937
 3798SOL    HW112293   1.508   5.223   3.879
 3798SOL    HW212294   1.517   5.162   4.030
 3799SOL     OW12295   6.976   1.310   3.495
 3799SOL    HW112296   6.904   1.326   3.428
 3799SOL    HW212297   7.027   1.227   3.471
 3800SOL     OW12298   5.583   2.278   3.112
 3800SOL    HW112299   5.593   2.232   3.200
 3800SOL    HW212300   5.495   2.325   3.109
 3801SOL     OW12301   5.737   0.894   1.048
 3801SOL    HW112302   5.767   0.802   1.070
 3801SOL    HW212303   5.637   0.899   1.055
 3802SOL     OW12304   6.450   3.613   1.551
 3802SOL    HW112305   6.391   3.693   1.554
 3802SOL    HW212306   6.422   3.547   1.621
 3803SOL     OW12307   3.826   4.138   4.876
 3803SOL    HW112308   3.870   4.084   4.804
 3803SOL    HW212309   3.738   4.172   4.844
 3804SOL     OW12310   3.629   6.258   3.403
 3804SOL    HW112311   3.603   6.271   3.499
 3804SOL    HW212312   3.650   6.161   3.388
 3805SOL     OW12313   2.487   2.440   7.025
 3805SOL    HW112314   2.454   2.512   0.059
 3805SOL    HW212315   2.446   2.451   6.935
 3806SOL     OW12316   2.273   5.235   1.530
 3806SOL    HW112317   2.222   5.262   1.611
 3806SOL    HW212318   2.329   5.156   1.550
 3807SOL     OW12319   1.323   4.207   3.751
 3807SOL    HW112320   1.299   4.185   3.846
 3807SOL    HW212321   1.245   4.250   3.706
 3808SOL     OW12322   3.083   6.865   5.286
 3808SOL    HW112323   3.019   6.834   5.215
 3808SOL    HW212324   3.084   6.965   5.288
 3809SOL     OW12325   5.587   1.737   1.755
 3809SOL    HW112326   5.650   1.762   1.682
 3809SOL    HW212327   5.567   1.818   1.810
 3810SOL     OW12328   4.579   2.128   3.186
 3810SOL    HW112329   4.631   2.146   3.269
 3810SOL    HW212330   4.624   2.174   3.108
 3811SOL     OW12331   6.967   5.778   5.316
 3811SOL    HW112332   6.976   5.697   5.374
 3811SOL    HW212333   0.021   5.787   5.258
 3812SOL     OW12334   4.481   5.408   0.245
 3812SOL    HW112335   4.422   5.390   0.166
 3812SOL    HW212336   4.574   5.377   0.225
 3813SOL     OW12337   5.998   4.457   0.174
 3813SOL    HW112338   5.973   4.496   0.086
 3813SOL    HW212339   6.098   4.454   0.183
 3814SOL     OW12340   6.952   0.146   4.637
 3814SOL    HW112341   6.936   0.230   4.689
 3814SOL    HW212342   6.875   0.084   4.650
 3815SOL     OW12343   6.273   3.551   6.444
 3815SOL    HW112344   6.272   3.648   6.418
 3815SOL    HW212345   6.313   3.541   6.535
 3816SOL     OW12346   6.584   6.591   1.401
 3816SOL    HW112347   6.594   6.540   1.487
 3816SOL    HW212348   6.666   6.647   1.388
 3817SOL     OW12349   4.419   3.618   1.655
 3817SOL    HW112350   4.440   3.675   1.576
 3817SOL    HW212351   4.368   3.671   1.723
 3818SOL     OW12352   5.638   5.929   2.436
 3818SOL    HW112353   5.550   5.885   2.452
 3818SOL    HW212354   5.693   5.926   2.520
 3819SOL     OW12355   5.988   3.558   3.557
 3819SOL    HW112356   6.038   3.502   3.622
 3819SOL    HW212357   6.052   3.600   3.492
 3820SOL     OW12358   3.480   6.283   5.336
 3820SOL    HW112359   3.565   6.298   5.288
 3820SOL    HW212360   3.456   6.365   5.389
 3821SOL     OW12361   1.669   0.213   0.472
 3821SOL    HW112362   1.678   0.145   0.545
 3821SOL    HW212363   1.751   0.213   0.415
 3822SOL     OW12364   4.970   0.082   2.003
 3822SOL    HW112365   4.917   0.010   2.048
 3822SOL    HW212366   5.065   0.053   1.993
 3823SOL     OW12367   5.880   6.178   5.788
 3823SOL    HW112368   5.921   6.133   5.867
 3823SOL    HW212369   5.919   6.270   5.779
 3824SOL     OW12370   2.437   2.803   0.715
 3824SOL    HW112371   2.480   2.881   0.671
 3824SOL    HW212372   2.378   2.835   0.789
 3825SOL     OW12373   0.844   5.161   5.823
 3825SOL    HW112374   0.803   5.072   5.839
 3825SOL    HW212375   0.824   5.222   5.900
 3826SOL     OW12376   5.517   4.040   3.654
 3826SOL    HW112377   5.507   4.034   3.554
 3826SOL    HW212378   5.502   3.950   3.694
 3827SOL     OW12379   6.742   1.903   0.323
 3827SOL    HW112380   6.816   1.934   0.382
 3827SOL    HW212381   6.780   1.865   0.239
 3828SOL     OW12382   3.940   3.193   3.434
 3828SOL    HW112383   3.896   3.104   3.426
 3828SOL    HW212384   3.917   3.235   3.522
 3829SOL     OW12385   0.485   3.706   2.223
 3829SOL    HW112386   0.499   3.803   2.206
 3829SOL    HW212387   0.477   3.691   2.322
 3830SOL     OW12388   5.987   0.470   3.719
 3830SOL    HW112389   5.926   0.549   3.721
 3830SOL    HW212390   5.955   0.403   3.786
 3831SOL     OW12391   4.433   2.490   3.707
 3831SOL    HW112392   4.377   2.494   3.789
 3831SOL    HW212393   4.527   2.518   3.728
 3832SOL     OW12394   6.857   0.885   3.377
 3832SOL    HW112395   6.761   0.896   3.404
 3832SOL    HW212396   6.862   0.825   3.297
 3833SOL     OW12397   1.317   2.849   5.355
 3833SOL    HW112398   1.277   2.839   5.264
 3833SOL    HW212399   1.245   2.870   5.422
 3834SOL     OW12400   4.949   4.076   0.564
 3834SOL    HW112401   4.858   4.115   0.548
 3834SOL    HW212402   4.982   4.033   0.480
 3835SOL     OW12403   4.214   5.833   5.029
 3835SOL    HW112404   4.188   5.767   5.100
 3835SOL    HW212405   4.199   5.926   5.064
 3836SOL     OW12406   6.801   6.109   5.234
 3836SOL    HW112407   6.801   6.042   5.159
 3836SOL    HW212408   6.894   6.117   5.270
 3837SOL     OW12409   4.494   4.496   5.837
 3837SOL    HW112410   4.569   4.438   5.806
 3837SOL    HW212411   4.408   4.447   5.827
 3838SOL     OW12412   0.241   0.487   4.310
 3838SOL    HW112413   0.159   0.452   4.355
 3838SOL    HW212414   0.309   0.414   4.301
 3839SOL     OW12415   5.161   0.398   3.963
 3839SOL    HW112416   5.195   0.444   3.880
 3839SOL    HW212417   5.208   0.435   4.043
 3840SOL     OW12418   3.028   1.082   6.469
 3840SOL    HW112419   2.963   1.060   6.396
 3840SOL    HW212420   2.992   1.158   6.523
 3841SOL     OW12421   6.125   4.473   4.212
 3841SOL    HW112422   6.166   4.564   4.201
 3841SOL    HW212423   6.042   4.467   4.157
 3842SOL     OW12424   1.811   3.980   5.327
 3842SOL    HW112425   1.791   3.951   5.421
 3842SOL    HW212426   1.875   4.058   5.330
 3843SOL     OW12427   4.794   2.002   6.711
 3843SOL    HW112428   4.752   1.978   6.623
 3843SOL    HW212429   4.835   2.093   6.705
 3844SOL     OW12430   0.343   0.035   1.211
 3844SOL    HW112431   0.332   0.019   1.113
 3844SOL    HW212432   0.376   0.128   1.226
 3845SOL     OW12433   2.174   5.205   0.358
 3845SOL    HW112434   2.153   5.184   0.262
 3845SOL    HW212435   2.197   5.302   0.367
 3846SOL     OW12436   0.513   3.161   2.970
 3846SOL    HW112437   0.452   3.205   2.904
 3846SOL    HW212438   0.573   3.097   2.923
 3847SOL     OW12439   6.998   2.100   0.160
 3847SOL    HW112440   6.959   2.190   0.183
 3847SOL    HW212441   6.988   2.084   0.062
 3848SOL     OW12442   5.571   4.134   2.284
 3848SOL    HW112443   5.494   4.095   2.336
 3848SOL    HW212444   5.590   4.077   2.205
 3849SOL     OW12445   6.722   5.019   6.490
 3849SOL    HW112446   6.770   5.027   6.402
 3849SOL    HW212447   6.752   5.093   6.551
 3850SOL     OW12448   2.833   2.372   1.321
 3850SOL    HW112449   2.853   2.469   1.304
 3850SOL    HW212450   2.915   2.326   1.353
 3851SOL     OW12451   0.339   6.245   2.300
 3851SOL    HW112452   0.427   6.219   2.342
 3851SOL    HW212453   0.282   6.291   2.369
 3852SOL     OW12454   1.677   6.912   5.215
 3852SOL    HW112455   1.628   6.834   5.253
 3852SOL    HW212456   1.739   6.950   5.284
 3853SOL     OW12457   2.973   0.090   3.017
 3853SOL    HW112458   3.062   0.080   3.061
 3853SOL    HW212459   2.986   0.114   2.920
 3854SOL     OW12460   0.695   2.469   1.875
 3854SOL    HW112461   0.734   2.500   1.962
 3854SOL    HW212462   0.631   2.394   1.892
 3855SOL     OW12463   3.768   6.686   0.505
 3855SOL    HW112464   3.722   6.616   0.450
 3855SOL    HW212465   3.742   6.675   0.601
 3856SOL     OW12466   0.114   2.646   6.591
 3856SOL    HW112467   0.016   2.625   6.592
 3856SOL    HW212468   0.165   2.563   6.567
 3857SOL     OW12469   2.190   0.248   6.305
 3857SOL    HW112470   2.210   0.150   6.298
 3857SOL    HW212471   2.093   0.263   6.287
 3858SOL     OW12472   4.910   0.349   4.056
 3858SOL    HW112473   4.999   0.375   4.018
 3858SOL    HW212474   4.857   0.300   3.987
 3859SOL     OW12475   6.256   0.107   1.889
 3859SOL    HW112476   6.197   0.036   1.927
 3859SOL    HW212477   6.319   0.138   1.960
 3860SOL     OW12478   1.456   6.843   4.223
 3860SOL    HW112479   1.361   6.830   4.195
 3860SOL    HW212480   1.516   6.834   4.143
 3861SOL     OW12481   2.839   5.428   1.335
 3861SOL    HW112482   2.824   5.518   1.294
 3861SOL    HW212483   2.934   5.420   1.366
 3862SOL     OW12484   1.789   0.558   4.101
 3862SOL    HW112485   1.838   0.472   4.111
 3862SOL    HW212486   1.691   0.541   4.088
 3863SOL     OW12487   3.674   6.930   0.483
 3863SOL    HW112488   3.602   6.924   0.553
 3863SOL    HW212489   3.713   6.839   0.469
 3864SOL     OW12490   1.954   0.459   5.083
 3864SOL    HW112491   1.861   0.461   5.045
 3864SOL    HW212492   2.018   0.498   5.016
 3865SOL     OW12493   3.849   1.103   0.581
 3865SOL    HW112494   3.803   1.099   0.492
 3865SOL    HW212495   3.857   1.198   0.610
 3866SOL     OW12496   2.535   2.010   6.786
 3866SOL    HW112497   2.621   2.011   6.736
 3866SOL    HW212498   2.540   2.076   6.862
 3867SOL     OW12499   1.052   2.749   2.256
 3867SOL    HW112500   1.077   2.718   2.164
 3867SOL    HW212501   0.956   2.779   2.256
 3868SOL     OW12502   4.624   0.662   0.205
 3868SOL    HW112503   4.545   0.661   0.144
 3868SOL    HW212504   4.708   0.652   0.151
 3869SOL     OW12505   5.149   1.890   3.904
 3869SOL    HW112506   5.109   1.981   3.888
 3869SOL    HW212507   5.244   1.900   3.932
 3870SOL     OW12508   0.309   0.800   5.029
 3870SOL    HW112509   0.403   0.768   5.043
 3870SOL    HW212510   0.293   0.882   5.084
 3871SOL     OW12511   2.992   5.482   4.683
 3871SOL    HW112512   2.895   5.480   4.662
 3871SOL    HW212513   3.038   5.405   4.638
 3872SOL     OW12514   2.884   3.646   5.614
 3872SOL    HW112515   2.938   3.676   5.693
 3872SOL    HW212516   2.944   3.602   5.548
 3873SOL     OW12517   4.274   1.885   0.531
 3873SOL    HW112518   4.270   1.827   0.449
 3873SOL    HW212519   4.294   1.827   0.611
 3874SOL     OW12520   2.800   1.229   0.297
 3874SOL    HW112521   2.723   1.203   0.356
 3874SOL    HW212522   2.840   1.146   0.257
 3875SOL     OW12523   1.250   2.464   6.331
 3875SOL    HW112524   1.274   2.367   6.334
 3875SOL    HW212525   1.334   2.519   6.328
 3876SOL     OW12526   3.616   5.284   2.144
 3876SOL    HW112527   3.681   5.212   2.165
 3876SOL    HW212528   3.537   5.276   2.204
 3877SOL     OW12529   6.794   1.197   6.992
 3877SOL    HW112530   6.710   1.143   6.989
 3877SOL    HW212531   6.793   1.256   0.046
 3878SOL     OW12532   5.258   0.593   4.632
 3878SOL    HW112533   5.264   0.573   4.729
 3878SOL    HW212534   5.180   0.545   4.592
 3879SOL     OW12535   6.038   6.047   0.666
 3879SOL    HW112536   5.948   6.081   0.637
 3879SOL    HW212537   6.051   6.065   0.763
 3880SOL     OW12538   4.303   4.860   4.097
 3880SOL    HW112539   4.222   4.836   4.043
 3880SOL    HW212540   4.300   4.957   4.122
 3881SOL     OW12541   0.555   3.420   0.286
 3881SOL    HW112542   0.595   3.382   0.203
 3881SOL    HW212543   0.609   3.390   0.365
 3882SOL     OW12544   0.692   1.945   6.810
 3882SOL    HW112545   0.595   1.923   6.811
 3882SOL    HW212546   0.721   1.975   6.901
 3883SOL     OW12547   4.881   5.504   3.270
 3883SOL    HW112548   4.821   5.509   3.349
 3883SOL    HW212549   4.965   5.456   3.295
 3884SOL     OW12550   0.394   4.478   1.870
 3884SOL    HW112551   0.474   4.420   1.882
 3884SOL    HW212552   0.423   4.570   1.841
 3885SOL     OW12553   5.084   5.591   2.789
 3885SOL    HW112554   5.152   5.657   2.822
 3885SOL    HW212555   5.055   5.532   2.865
 3886SOL     OW12556   3.395   6.538   5.493
 3886SOL    HW112557   3.345   6.584   5.420
 3886SOL    HW212558   3.423   6.606   5.562
 3887SOL     OW12559   1.055   6.489   2.425
 3887SOL    HW112560   1.125   6.419   2.408
 3887SOL    HW212561   1.035   6.537   2.340
 3888SOL     OW12562   6.126   5.262   4.127
 3888SOL    HW112563   6.071   5.274   4.209
 3888SOL    HW212564   6.129   5.347   4.075
 3889SOL     OW12565   4.718   3.812   0.224
 3889SOL    HW112566   4.793   3.834   0.287
 3889SOL    HW212567   4.736   3.725   0.179
 3890SOL     OW12568   5.361   2.938   4.233
 3890SOL    HW112569   5.438   2.903   4.286
 3890SOL    HW212570   5.279   2.936   4.289
 3891SOL     OW12571   5.875   5.780   2.991
 3891SOL    HW112572   5.825   5.694   3.006
 3891SOL    HW212573   5.954   5.763   2.933
 3892SOL     OW12574   6.997   1.540   1.426
 3892SOL    HW112575   0.057   1.553   1.377
 3892SOL    HW212576   6.922   1.574   1.369
 3893SOL     OW12577   3.957   3.734   2.582
 3893SOL    HW112578   3.960   3.636   2.560
 3893SOL    HW212579   4.022   3.753   2.656
 3894SOL     OW12580   4.422   0.579   5.689
 3894SOL    HW112581   4.415   0.606   5.593
 3894SOL    HW212582   4.503   0.622   5.729
 3895SOL     OW12583   1.536   0.564   4.044
 3895SOL    HW112584   1.542   0.529   3.950
 3895SOL    HW212585   1.513   0.661   4.042
 3896SOL     OW12586   0.949   0.606   6.639
 3896SOL    HW112587   0.963   0.682   6.703
 3896SOL    HW212588   0.862   0.561   6.660
 3897SOL     OW12589   4.412   6.449   1.858
 3897SOL    HW112590   4.442   6.535   1.816
 3897SOL    HW212591   4.433   6.451   1.956
 3898SOL     OW12592   4.250   2.800   0.471
 3898SOL    HW112593   4.280   2.715   0.428
 3898SOL    HW212594   4.306   2.818   0.552
 3899SOL     OW12595   3.284   6.827   6.140
 3899SOL    HW112596   3.257   6.906   6.085
 3899SOL    HW212597   3.380   6.803   6.120
 3900SOL     OW12598   5.091   3.905   3.256
 3900SOL    HW112599   5.170   3.844   3.251
 3900SOL    HW212600   5.107   3.975   3.326
 3901SOL     OW12601   2.699   0.203   0.048
 3901SOL    HW112602   2.720   0.111   0.015
 3901SOL    HW212603   2.650   0.196   0.135
 3902SOL     OW12604   6.187   3.019   2.976
 3902SOL    HW112605   6.212   3.098   2.920
 3902SOL    HW212606   6.099   2.982   2.946
 3903SOL     OW12607   3.177   4.710   6.627
 3903SOL    HW112608   3.110   4.636   6.617
 3903SOL    HW212609   3.175   4.744   6.721
 3904SOL     OW12610   1.346   0.448   0.147
 3904SOL    HW112611   1.378   0.536   0.111
 3904SOL    HW212612   1.383   0.434   0.239
 3905SOL     OW12613   6.835   5.816   4.895
 3905SOL    HW112614   6.825   5.721   4.925
 3905SOL    HW212615   6.924   5.851   4.925
 3906SOL     OW12616   6.840   6.517   5.305
 3906SOL    HW112617   6.939   6.510   5.292
 3906SOL    HW212618   6.794   6.499   5.218
 3907SOL     OW12619   6.855   1.465   4.455
 3907SOL    HW112620   6.865   1.562   4.476
 3907SOL    HW212621   6.770   1.451   4.404
 3908SOL     OW12622   2.028   3.174   6.040
 3908SOL    HW112623   1.946   3.122   6.018
 3908SOL    HW212624   2.107   3.132   5.996
 3909SOL     OW12625   5.946   5.234   3.864
 3909SOL    HW112626   6.022   5.179   3.899
 3909SOL    HW212627   5.860   5.186   3.882
 3910SOL     OW12628   4.065   3.802   2.809
 3910SOL    HW112629   4.062   3.902   2.808
 3910SOL    HW212630   4.069   3.770   2.904
 3911SOL     OW12631   6.277   2.073   5.875
 3911SOL    HW112632   6.183   2.106   5.878
 3911SOL    HW212633   6.291   2.018   5.792
 3912SOL     OW12634   5.512   2.816   6.591
 3912SOL    HW112635   5.570   2.804   6.672
 3912SOL    HW212636   5.443   2.887   6.610
 3913SOL     OW12637   0.857   6.575   0.786
 3913SOL    HW112638   0.900   6.513   0.851
 3913SOL    HW212639   0.890   6.668   0.803
 3914SOL     OW12640   2.971   5.608   5.951
 3914SOL    HW112641   3.014   5.656   5.875
 3914SOL    HW212642   2.936   5.520   5.920
 3915SOL     OW12643   6.379   5.892   1.268
 3915SOL    HW112644   6.454   5.902   1.202
 3915SOL    HW212645   6.408   5.927   1.357
 3916SOL     OW12646   0.966   0.567   2.944
 3916SOL    HW112647   1.036   0.504   2.911
 3916SOL    HW212648   0.878   0.542   2.904
 3917SOL     OW12649   1.984   7.009   6.548
 3917SOL    HW112650   1.947   0.074   6.563
 3917SOL    HW212651   2.030   6.977   6.631
 3918SOL     OW12652   5.909   3.701   0.723
 3918SOL    HW112653   5.927   3.635   0.650
 3918SOL    HW212654   5.974   3.777   0.716
 3919SOL     OW12655   3.366   6.424   0.073
 3919SOL    HW112656   3.300   6.490   0.108
 3919SOL    HW212657   3.414   6.381   0.150
 3920SOL     OW12658   2.084   1.800   6.805
 3920SOL    HW112659   2.020   1.806   6.728
 3920SOL    HW212660   2.033   1.797   6.891
 3921SOL     OW12661   1.278   3.786   1.770
 3921SOL    HW112662   1.251   3.719   1.840
 3921SOL    HW212663   1.197   3.829   1.732
 3922SOL     OW12664   1.153   4.510   0.964
 3922SOL    HW112665   1.249   4.526   0.987
 3922SOL    HW212666   1.102   4.595   0.974
 3923SOL     OW12667   6.599   0.193   0.153
 3923SOL    HW112668   6.584   0.258   0.078
 3923SOL    HW212669   6.682   0.219   0.202
 3924SOL     OW12670   6.902   4.755   4.644
 3924SOL    HW112671   6.944   4.724   4.730
 3924SOL    HW212672   6.828   4.693   4.619
 3925SOL     OW12673   1.659   5.222   2.152
 3925SOL    HW112674   1.751   5.200   2.181
 3925SOL    HW212675   1.661   5.259   2.059
 3926SOL     OW12676   4.399   4.744   2.048
 3926SOL    HW112677   4.308   4.760   2.010
 3926SOL    HW212678   4.463   4.724   1.973
 3927SOL     OW12679   0.641   3.574   6.162
 3927SOL    HW112680   0.724   3.629   6.149
 3927SOL    HW212681   0.667   3.478   6.178
 3928SOL     OW12682   5.251   5.772   6.274
 3928SOL    HW112683   5.173   5.746   6.217
 3928SOL    HW212684   5.242   5.729   6.364
 3929SOL     OW12685   1.178   1.840   4.984
 3929SOL    HW112686   1.236   1.781   4.928
 3929SOL    HW212687   1.229   1.870   5.065
 3930SOL     OW12688   2.323   1.584   3.873
 3930SOL    HW112689   2.374   1.514   3.922
 3930SOL    HW212690   2.241   1.544   3.832
 3931SOL     OW12691   5.538   1.238   1.554
 3931SOL    HW112692   5.496   1.215   1.466
 3931SOL    HW212693   5.515   1.332   1.579
 3932SOL     OW12694   1.881   2.240   4.175
 3932SOL    HW112695   1.791   2.196   4.175
 3932SOL    HW212696   1.885   2.308   4.102
 3933SOL     OW12697   0.983   6.711   5.409
 3933SOL    HW112698   0.947   6.725   5.316
 3933SOL    HW212699   0.912   6.669   5.466
 3934SOL     OW12700   5.496   0.229   6.304
 3934SOL    HW112701   5.571   0.163   6.299
 3934SOL    HW212702   5.483   0.259   6.399
 3935SOL     OW12703   5.084   0.694   0.793
 3935SOL    HW112704   5.178   0.662   0.783
 3935SOL    HW212705   5.084   0.791   0.817
 3936SOL     OW12706   0.200   5.182   3.376
 3936SOL    HW112707   0.287   5.134   3.366
 3936SOL    HW212708   0.126   5.124   3.340
 3937SOL     OW12709   0.250   1.280   2.506
 3937SOL    HW112710   0.306   1.275   2.423
 3937SOL    HW212711   0.278   1.359   2.561
 3938SOL     OW12712   0.125   2.303   2.130
 3938SOL    HW112713   0.050   2.250   2.089
 3938SOL    HW212714   0.087   2.380   2.181
 3939SOL     OW12715   2.746   1.747   1.574
 3939SOL    HW112716   2.718   1.842   1.569
 3939SOL    HW212717   2.720   1.699   1.490
 3940SOL     OW12718   4.073   3.118   1.319
 3940SOL    HW112719   4.168   3.127   1.350
 3940SOL    HW212720   4.049   3.021   1.317
 3941SOL     OW12721   4.292   3.934   6.378
 3941SOL    HW112722   4.362   3.988   6.331
 3941SOL    HW212723   4.220   3.995   6.410
 3942SOL     OW12724   6.682   6.504   6.351
 3942SOL    HW112725   6.592   6.473   6.322
 3942SOL    HW212726   6.734   6.535   6.271
 3943SOL     OW12727   0.223   3.542   4.059
 3943SOL    HW112728   0.251   3.498   3.974
 3943SOL    HW212729   0.124   3.557   4.058
 3944SOL     OW12730   5.153   2.434   4.869
 3944SOL    HW112731   5.185   2.379   4.792
 3944SOL    HW212732   5.112   2.519   4.835
 3945SOL     OW12733   6.994   0.625   0.545
 3945SOL    HW112734   0.048   0.648   0.600
 3945SOL    HW212735   6.917   0.605   0.606
 3946SOL     OW12736   4.404   4.788   3.132
 3946SOL    HW112737   4.393   4.725   3.054
 3946SOL    HW212738   4.401   4.882   3.099
 3947SOL     OW12739   5.996   5.452   7.011
 3947SOL    HW112740   5.984   5.420   6.917
 3947SOL    HW212741   5.946   5.391   0.046
 3948SOL     OW12742   6.391   4.493   0.964
 3948SOL    HW112743   6.412   4.585   0.996
 3948SOL    HW212744   6.301   4.492   0.922
 3949SOL     OW12745   5.041   6.309   3.374
 3949SOL    HW112746   5.015   6.352   3.461
 3949SOL    HW212747   4.967   6.319   3.308
 3950SOL     OW12748   1.210   5.936   0.425
 3950SOL    HW112749   1.272   5.875   0.377
 3950SOL    HW212750   1.115   5.907   0.408
 3951SOL     OW12751   5.653   0.030   2.317
 3951SOL    HW112752   5.703   0.069   2.394
 3951SOL    HW212753   5.712   6.992   2.270
 3952SOL     OW12754   6.207   2.229   0.372
 3952SOL    HW112755   6.245   2.137   0.361
 3952SOL    HW212756   6.142   2.229   0.448
 3953SOL     OW12757   3.537   4.131   2.965
 3953SOL    HW112758   3.440   4.137   2.990
 3953SOL    HW212759   3.583   4.216   2.990
 3954SOL     OW12760   3.994   4.655   5.534
 3954SOL    HW112761   3.921   4.597   5.570
 3954SOL    HW212762   3.996   4.742   5.583
 3955SOL     OW12763   4.242   1.238   4.896
 3955SOL    HW112764   4.179   1.259   4.822
 3955SOL    HW212765   4.195   1.187   4.967
 3956SOL     OW12766   1.840   1.216   1.454
 3956SOL    HW112767   1.838   1.124   1.493
 3956SOL    HW212768   1.935   1.246   1.444
 3957SOL     OW12769   3.354   1.073   4.546
 3957SOL    HW112770   3.321   0.979   4.552
 3957SOL    HW212771   3.408   1.095   4.627
 3958SOL     OW12772   5.611   0.805   5.508
 3958SOL    HW112773   5.626   0.744   5.586
 3958SOL    HW212774   5.692   0.803   5.449
 3959SOL     OW12775   4.366   5.278   0.619
 3959SOL    HW112776   4.350   5.213   0.544
 3959SOL    HW212777   4.329   5.240   0.704
 3960SOL     OW12778   5.378   2.309   4.141
 3960SOL    HW112779   5.348   2.399   4.174
 3960SOL    HW212780   5.469   2.289   4.176
 3961SOL     OW12781   5.701   6.251   3.626
 3961SOL    HW112782   5.744   6.161   3.633
 3961SOL    HW212783   5.627   6.247   3.558
 3962SOL     OW12784   0.067   5.501   5.442
 3962SOL    HW112785   0.038   5.416   5.484
 3962SOL    HW212786   0.098   5.483   5.348
 3963SOL     OW12787   4.700   6.959   2.104
 3963SOL    HW112788   4.698   7.026   2.030
 3963SOL    HW212789   4.659   6.999   2.186
 3964SOL     OW12790   5.574   3.326   3.403
 3964SOL    HW112791   5.511   3.250   3.419
 3964SOL    HW212792   5.534   3.411   3.440
 3965SOL     OW12793   4.895   3.897   4.547
 3965SOL    HW112794   4.965   3.837   4.586
 3965SOL    HW212795   4.889   3.981   4.602
 3966SOL     OW12796   2.608   6.033   6.418
 3966SOL    HW112797   2.541   6.094   6.462
 3966SOL    HW212798   2.652   5.977   6.488
 3967SOL     OW12799   2.063   4.928   2.822
 3967SOL    HW112800   2.160   4.924   2.798
 3967SOL    HW212801   2.027   5.018   2.799
 3968SOL     OW12802   3.961   0.014   0.478
 3968SOL    HW112803   3.992   6.958   0.432
 3968SOL    HW212804   3.887   7.019   0.542
 3969SOL     OW12805   1.032   5.106   2.551
 3969SOL    HW112806   1.106   5.160   2.511
 3969SOL    HW212807   1.071   5.026   2.597
 3970SOL     OW12808   5.393   6.257   2.509
 3970SOL    HW112809   5.316   6.317   2.487
 3970SOL    HW212810   5.424   6.274   2.602
 3971SOL     OW12811   2.656   5.719   3.901
 3971SOL    HW112812   2.662   5.785   3.975
 3971SOL    HW212813   2.672   5.765   3.814
 3972SOL     OW12814   1.938   3.675   0.031
 3972SOL    HW112815   1.906   3.620   6.981
 3972SOL    HW212816   1.904   3.636   0.116
 3973SOL     OW12817   1.157   5.516   0.390
 3973SOL    HW112818   1.186   5.486   0.481
 3973SOL    HW212819   1.237   5.544   0.337
 3974SOL     OW12820   2.201   0.971   5.170
 3974SOL    HW112821   2.275   1.029   5.205
 3974SOL    HW212822   2.150   1.021   5.100
 3975SOL     OW12823   5.399   2.459   6.268
 3975SOL    HW112824   5.475   2.399   6.292
 3975SOL    HW212825   5.421   2.510   6.185
 3976SOL     OW12826   2.207   5.466   2.393
 3976SOL    HW112827   2.269   5.523   2.446
 3976SOL    HW212828   2.259   5.400   2.340
 3977SOL     OW12829   0.620   3.581   6.447
 3977SOL    HW112830   0.601   3.576   6.349
 3977SOL    HW212831   0.686   3.655   6.463
 3978SOL     OW12832   6.584   4.507   3.590
 3978SOL    HW112833   6.519   4.443   3.631
 3978SOL    HW212834   6.676   4.485   3.620
 3979SOL     OW12835   4.061   0.199   6.215
 3979SOL    HW112836   3.993   0.155   6.157
 3979SOL    HW212837   4.039   0.296   6.223
 3980SOL     OW12838   6.029   6.356   5.499
 3980SOL    HW112839   6.061   6.295   5.572
 3980SOL    HW212840   6.087   6.437   5.496
 3981SOL     OW12841   4.721   6.954   0.441
 3981SOL    HW112842   4.670   6.874   0.410
 3981SOL    HW212843   4.816   6.948   0.410
 3982SOL     OW12844   3.073   5.774   2.643
 3982SOL    HW112845   2.981   5.802   2.670
 3982SOL    HW212846   3.140   5.835   2.685
 3983SOL     OW12847   3.811   5.840   3.546
 3983SOL    HW112848   3.776   5.906   3.480
 3983SOL    HW212849   3.787   5.869   3.639
 3984SOL     OW12850   6.801   2.794   2.838
 3984SOL    HW112851   6.737   2.860   2.877
 3984SOL    HW212852   6.756   2.706   2.827
 3985SOL     OW12853   4.119   5.336   6.846
 3985SOL    HW112854   4.169   5.260   6.889
 3985SOL    HW212855   4.185   5.404   6.813
 3986SOL     OW12856   5.047   0.749   1.889
 3986SOL    HW112857   5.073   0.674   1.829
 3986SOL    HW212858   5.042   0.716   1.983
 3987SOL     OW12859   3.181   5.143   5.009
 3987SOL    HW112860   3.139   5.054   4.993
 3987SOL    HW212861   3.111   5.208   5.040
 3988SOL     OW12862   4.049   5.254   0.361
 3988SOL    HW112863   4.088   5.179   0.414
 3988SOL    HW212864   4.084   5.342   0.396
 3989SOL     OW12865   5.891   1.894   0.328
 3989SOL    HW112866   5.945   1.848   0.399
 3989SOL    HW212867   5.950   1.917   0.251
 3990SOL     OW12868   6.433   2.175   2.468
 3990SOL    HW112869   6.366   2.141   2.401
 3990SOL    HW212870   6.431   2.275   2.470
 3991SOL     OW12871   6.912   0.707   3.116
 3991SOL    HW112872   6.942   0.788   3.065
 3991SOL    HW212873   6.830   0.669   3.072
 3992SOL     OW12874   3.309   1.648   1.100
 3992SOL    HW112875   3.396   1.691   1.125
 3992SOL    HW212876   3.237   1.718   1.101
 3993SOL     OW12877   1.489   3.142   1.571
 3993SOL    HW112878   1.545   3.069   1.611
 3993SOL    HW212879   1.414   3.165   1.633
 3994SOL     OW12880   2.644   6.306   4.752
 3994SOL    HW112881   2.594   6.246   4.689
 3994SOL    HW212882   2.702   6.250   4.812
 3995SOL     OW12883   1.695   2.890   5.050
 3995SOL    HW112884   1.782   2.930   5.079
 3995SOL    HW212885   1.698   2.791   5.063
 3996SOL     OW12886   0.271   6.025   4.771
 3996SOL    HW112887   0.212   6.089   4.721
 3996SOL    HW212888   0.318   6.074   4.845
 3997SOL     OW12889   5.381   0.225   4.540
 3997SOL    HW112890   5.448   0.299   4.535
 3997SOL    HW212891   5.400   0.157   4.469
 3998SOL     OW12892   4.155   2.217   3.776
 3998SOL    HW112893   4.215   2.289   3.810
 3998SOL    HW212894   4.148   2.224   3.676
 3999SOL     OW12895   5.207   2.280   4.665
 3999SOL    HW112896   5.265   2.201   4.683
 3999SOL    HW212897   5.116   2.248   4.636
 4000SOL     OW12898   3.992   0.215   3.760
 4000SOL    HW112899   4.031   0.300   3.724
 4000SOL    HW212900   3.901   0.234   3.798
 4001SOL     OW12901   0.989   2.580   3.588
 4001SOL    HW112902   1.068   2.589   3.649
 4001SOL    HW212903   0.981   2.486   3.557
 4002SOL     OW12904   1.963   3.624   1.944
 4002SOL    HW112905   1.935   3.677   1.864
 4002SOL    HW212906   2.060   3.601   1.937
 4003SOL     OW12907   3.474   1.369   4.797
 4003SOL    HW112908   3.496   1.442   4.862
 4003SOL    HW212909   3.390   1.392   4.748
 4004SOL     OW12910   7.018   1.839   5.239
 4004SOL    HW112911   0.085   1.867   5.218
 4004SOL    HW212912   6.987   1.890   5.320
 4005SOL     OW12913   5.791   5.412   5.673
 4005SOL    HW112914   5.821   5.379   5.762
 4005SOL    HW212915   5.691   5.402   5.665
 4006SOL     OW12916   3.450   6.462   2.505
 4006SOL    HW112917   3.478   6.416   2.589
 4006SOL    HW212918   3.515   6.440   2.431
 4007SOL     OW12919   6.765   1.859   6.703
 4007SOL    HW112920   6.854   1.895   6.730
 4007SOL    HW212921   6.734   1.903   6.619
 4008SOL     OW12922   2.783   2.463   5.274
 4008SOL    HW112923   2.688   2.435   5.261
 4008SOL    HW212924   2.786   2.559   5.303
 4009SOL     OW12925   3.680   2.932   2.661
 4009SOL    HW112926   3.590   2.975   2.661
 4009SOL    HW212927   3.680   2.852   2.600
 4010SOL     OW12928   2.243   3.071   6.378
 4010SOL    HW112929   2.198   3.161   6.375
 4010SOL    HW212930   2.180   3.001   6.345
 4011SOL     OW12931   0.634   2.391   1.270
 4011SOL    HW112932   0.723   2.436   1.279
 4011SOL    HW212933   0.587   2.393   1.358
 4012SOL     OW12934   6.460   3.006   3.684
 4012SOL    HW112935   6.489   2.935   3.619
 4012SOL    HW212936   6.526   3.081   3.682
 4013SOL     OW12937   4.410   2.276   3.539
 4013SOL    HW112938   4.404   2.359   3.594
 4013SOL    HW212939   4.321   2.255   3.500
 4014SOL     OW12940   5.775   5.954   2.167
 4014SOL    HW112941   5.742   5.994   2.252
 4014SOL    HW212942   5.699   5.910   2.120
 4015SOL     OW12943   4.377   3.230   0.070
 4015SOL    HW112944   4.316   3.179   0.131
 4015SOL    HW212945   4.323   3.278   0.001
 4016SOL     OW12946   3.324   6.530   4.854
 4016SOL    HW112947   3.395   6.510   4.921
 4016SOL    HW212948   3.359   6.596   4.787
 4017SOL     OW12949   6.694   6.297   6.880
 4017SOL    HW112950   6.669   6.386   6.919
 4017SOL    HW212951   6.744   6.244   6.948
 4018SOL     OW12952   2.623   6.350   0.320
 4018SOL    HW112953   2.604   6.346   0.222
 4018SOL    HW212954   2.537   6.341   0.371
 4019SOL     OW12955   5.120   5.398   3.297
 4019SOL    HW112956   5.207   5.438   3.268
 4019SOL    HW212957   5.135   5.334   3.372
 4020SOL     OW12958   5.263   2.549   5.118
 4020SOL    HW112959   5.228   2.545   5.024
 4020SOL    HW212960   5.203   2.607   5.173
 4021SOL     OW12961   4.080   4.731   6.942
 4021SOL    HW112962   4.010   4.791   6.905
 4021SOL    HW212963   4.115   4.769   0.000
 4022SOL     OW12964   5.470   0.579   1.171
 4022SOL    HW112965   5.412   0.521   1.113
 4022SOL    HW212966   5.426   0.591   1.260
 4023SOL     OW12967   6.891   0.358   5.679
 4023SOL    HW112968   6.934   0.335   5.767
 4023SOL    HW212969   6.943   0.317   5.604
 4024SOL     OW12970   4.091   4.770   4.345
 4024SOL    HW112971   4.183   4.735   4.330
 4024SOL    HW212972   4.067   4.764   4.442
 4025SOL     OW12973   1.641   4.213   2.744
 4025SOL    HW112974   1.738   4.204   2.720
 4025SOL    HW212975   1.618   4.145   2.814
 4026SOL     OW12976   4.936   7.003   4.882
 4026SOL    HW112977   4.848   6.966   4.853
 4026SOL    HW212978   5.003   6.990   4.808
 4027SOL     OW12979   4.365   5.443   1.703
 4027SOL    HW112980   4.384   5.456   1.606
 4027SOL    HW212981   4.369   5.532   1.750
 4028SOL     OW12982   2.522   6.734   3.667
 4028SOL    HW112983   2.574   6.811   3.704
 4028SOL    HW212984   2.426   6.742   3.695
 4029SOL     OW12985   1.897   3.748   3.791
 4029SOL    HW112986   1.861   3.829   3.836
 4029SOL    HW212987   1.868   3.666   3.842
 4030SOL     OW12988   1.364   1.593   6.150
 4030SOL    HW112989   1.297   1.518   6.152
 4030SOL    HW212990   1.375   1.629   6.243
 4031SOL     OW12991   5.339   5.753   3.966
 4031SOL    HW112992   5.266   5.813   4.000
 4031SOL    HW212993   5.319   5.726   3.872
 4032SOL     OW12994   4.314   6.978   4.729
 4032SOL    HW112995   4.405   6.987   4.690
 4032SOL    HW212996   4.246   6.981   4.655
 4033SOL     OW12997   3.213   3.870   5.793
 4033SOL    HW112998   3.145   3.798   5.806
 4033SOL    HW212999   3.183   3.953   5.840
 4034SOL     OW13000   5.921   2.800   4.273
 4034SOL    HW113001   5.843   2.767   4.326
 4034SOL    HW213002   5.976   2.862   4.330
 4035SOL     OW13003   0.555   5.490   0.783
 4035SOL    HW113004   0.559   5.589   0.792
 4035SOL    HW213005   0.603   5.462   0.700
 4036SOL     OW13006   6.276   6.350   2.460
 4036SOL    HW113007   6.270   6.319   2.555
 4036SOL    HW213008   6.252   6.275   2.399
 4037SOL     OW13009   6.407   4.220   6.325
 4037SOL    HW113010   6.331   4.285   6.322
 4037SOL    HW213011   6.460   4.228   6.241
 4038SOL     OW13012   6.375   5.295   3.387
 4038SOL    HW113013   6.388   5.394   3.400
 4038SOL    HW213014   6.322   5.258   3.463
 4039SOL     OW13015   4.327   6.017   0.625
 4039SOL    HW113016   4.390   6.075   0.675
 4039SOL    HW213017   4.378   5.962   0.559
 4040SOL     OW13018   3.498   6.308   0.314
 4040SOL    HW113019   3.528   6.243   0.244
 4040SOL    HW213020   3.462   6.258   0.393
 4041SOL     OW13021   1.443   6.888   3.631
 4041SOL    HW113022   1.528   6.919   3.673
 4041SOL    HW213023   1.382   6.966   3.618
 4042SOL     OW13024   5.849   5.466   1.717
 4042SOL    HW113025   5.876   5.511   1.632
 4042SOL    HW213026   5.852   5.367   1.705
 4043SOL     OW13027   6.397   3.934   1.938
 4043SOL    HW113028   6.340   3.976   1.868
 4043SOL    HW213029   6.373   3.972   2.027
 4044SOL     OW13030   6.780   5.420   2.798
 4044SOL    HW113031   6.758   5.352   2.728
 4044SOL    HW213032   6.711   5.493   2.796
 4045SOL     OW13033   2.115   4.540   5.914
 4045SOL    HW113034   2.193   4.523   5.974
 4045SOL    HW213035   2.081   4.633   5.929
 4046SOL     OW13036   0.141   2.978   0.964
 4046SOL    HW113037   0.227   2.927   0.952
 4046SOL    HW213038   0.100   2.995   0.875
 4047SOL     OW13039   3.032   3.973   1.955
 4047SOL    HW113040   3.047   4.034   2.032
 4047SOL    HW213041   3.118   3.926   1.933
 4048SOL     OW13042   4.722   2.334   1.240
 4048SOL    HW113043   4.690   2.280   1.318
 4048SOL    HW213044   4.822   2.342   1.243
 4049SOL     OW13045   6.915   0.735   5.552
 4049SOL    HW113046   6.882   0.824   5.583
 4049SOL    HW213047   6.886   0.665   5.617
 4050SOL     OW13048   2.361   0.397   1.644
 4050SOL    HW113049   2.302   0.319   1.622
 4050SOL    HW213050   2.322   0.448   1.721
 4051SOL     OW13051   1.408   4.265   0.767
 4051SOL    HW113052   1.454   4.342   0.723
 4051SOL    HW213053   1.375   4.293   0.857
 4052SOL     OW13054   1.428   6.165   1.394
 4052SOL    HW113055   1.518   6.159   1.438
 4052SOL    HW213056   1.393   6.258   1.403
 4053SOL     OW13057   3.070   4.903   3.519
 4053SOL    HW113058   3.105   4.986   3.475
 4053SOL    HW213059   3.147   4.852   3.558
 4054SOL     OW13060   5.368   1.748   6.958
 4054SOL    HW113061   5.297   1.817   6.972
 4054SOL    HW213062   5.329   1.657   6.971
 4055SOL     OW13063   4.358   2.515   1.012
 4055SOL    HW113064   4.428   2.537   1.081
 4055SOL    HW213065   4.369   2.421   0.981
 4056SOL     OW13066   3.706   2.776   0.949
 4056SOL    HW113067   3.721   2.684   0.985
 4056SOL    HW213068   3.607   2.793   0.942
 4057SOL     OW13069   6.607   2.140   0.519
 4057SOL    HW113070   6.578   2.236   0.513
 4057SOL    HW213071   6.700   2.132   0.483
 4058SOL     OW13072   1.308   1.614   4.831
 4058SOL    HW113073   1.240   1.570   4.889
 4058SOL    HW213074   1.288   1.592   4.735
 4059SOL     OW13075   6.252   2.404   5.352
 4059SOL    HW113076   6.250   2.313   5.311
 4059SOL    HW213077   6.251   2.396   5.452
 4060SOL     OW13078   3.608   6.098   4.993
 4060SOL    HW113079   3.631   6.176   4.934
 4060SOL    HW213080   3.512   6.103   5.019
 4061SOL     OW13081   2.740   3.110   1.368
 4061SOL    HW113082   2.703   3.159   1.289
 4061SOL    HW213083   2.820   3.159   1.402
 4062SOL     OW13084   3.777   6.233   2.661
 4062SOL    HW113085   3.857   6.273   2.615
 4062SOL    HW213086   3.807   6.182   2.742
 4063SOL     OW13087   2.551   4.673   6.397
 4063SOL    HW113088   2.581   4.731   6.321
 4063SOL    HW213089   2.600   4.698   6.480
 4064SOL     OW13090   5.909   6.730   4.193
 4064SOL    HW113091   5.897   6.667   4.116
 4064SOL    HW213092   6.007   6.750   4.204
 4065SOL     OW13093   0.086   4.961   7.015
 4065SOL    HW113094   7.024   4.921   0.008
 4065SOL    HW213095   0.128   4.995   0.073
 4066SOL     OW13096   6.105   5.332   1.301
 4066SOL    HW113097   6.099   5.269   1.224
 4066SOL    HW213098   6.018   5.331   1.352
 4067SOL     OW13099   5.772   1.003   1.408
 4067SOL    HW113100   5.786   1.036   1.314
 4067SOL    HW213101   5.860   0.992   1.453
 4068SOL     OW13102   6.100   1.545   4.896
 4068SOL    HW113103   6.130   1.563   4.803
 4068SOL    HW213104   6.002   1.524   4.897
 4069SOL     OW13105   0.078   6.346   0.658
 4069SOL    HW113106   0.106   6.332   0.753
 4069SOL    HW213107   0.156   6.380   0.605
 4070SOL     OW13108   0.049   3.796   3.298
 4070SOL    HW113109   0.027   3.802   3.201
 4070SOL    HW213110   0.054   3.700   3.326
 4071SOL     OW13111   2.329   0.444   3.779
 4071SOL    HW113112   2.290   0.531   3.748
 4071SOL    HW213113   2.257   0.388   3.820
 4072SOL     OW13114   0.879   0.211   4.062
 4072SOL    HW113115   0.879   0.137   4.130
 4072SOL    HW213116   0.784   0.236   4.040
 4073SOL     OW13117   2.721   4.791   1.424
 4073SOL    HW113118   2.748   4.862   1.489
 4073SOL    HW213119   2.693   4.709   1.474
 4074SOL     OW13120   0.552   2.900   0.714
 4074SOL    HW113121   0.504   2.878   0.799
 4074SOL    HW213122   0.586   2.815   0.672
 4075SOL     OW13123   5.185   0.172   3.524
 4075SOL    HW113124   5.261   0.197   3.584
 4075SOL    HW213125   5.099   0.196   3.567
 4076SOL     OW13126   1.984   2.244   3.062
 4076SOL    HW113127   1.907   2.210   3.009
 4076SOL    HW213128   1.951   2.297   3.140
 4077SOL     OW13129   3.390   0.779   0.802
 4077SOL    HW113130   3.356   0.777   0.896
 4077SOL    HW213131   3.378   0.690   0.760
 4078SOL     OW13132   4.923   3.869   3.030
 4078SOL    HW113133   4.951   3.927   3.106
 4078SOL    HW213134   4.962   3.906   2.945
 4079SOL     OW13135   6.251   0.492   4.364
 4079SOL    HW113136   6.216   0.459   4.451
 4079SOL    HW213137   6.205   0.444   4.289
 4080SOL     OW13138   3.463   2.876   3.042
 4080SOL    HW113139   3.369   2.884   3.009
 4080SOL    HW213140   3.514   2.815   2.981
 4081SOL     OW13141   2.657   2.439   6.605
 4081SOL    HW113142   2.589   2.370   6.581
 4081SOL    HW213143   2.613   2.512   6.657
 4082SOL     OW13144   1.121   2.171   5.647
 4082SOL    HW113145   1.030   2.211   5.635
 4082SOL    HW213146   1.135   2.100   5.577
 4083SOL     OW13147   6.124   5.355   2.787
 4083SOL    HW113148   6.191   5.281   2.791
 4083SOL    HW213149   6.095   5.369   2.692
 4084SOL     OW13150   4.779   0.419   2.504
 4084SOL    HW113151   4.873   0.436   2.535
 4084SOL    HW213152   4.722   0.393   2.582
 4085SOL     OW13153   2.524   4.546   2.725
 4085SOL    HW113154   2.564   4.605   2.795
 4085SOL    HW213155   2.457   4.485   2.768
 4086SOL     OW13156   5.875   4.588   4.981
 4086SOL    HW113157   5.831   4.656   5.039
 4086SOL    HW213158   5.827   4.501   4.987
 4087SOL     OW13159   2.308   0.787   1.710
 4087SOL    HW113160   2.362   0.818   1.788
 4087SOL    HW213161   2.211   0.798   1.731
 4088SOL     OW13162   0.287   1.876   5.720
 4088SOL    HW113163   0.386   1.867   5.719
 4088SOL    HW213164   0.246   1.791   5.685
 4089SOL     OW13165   1.102   1.083   2.118
 4089SOL    HW113166   1.172   1.107   2.186
 4089SOL    HW213167   1.082   1.163   2.061
 4090SOL     OW13168   2.674   2.698   5.758
 4090SOL    HW113169   2.724   2.612   5.766
 4090SOL    HW213170   2.658   2.719   5.662
 4091SOL     OW13171   3.171   5.931   1.964
 4091SOL    HW113172   3.127   6.019   1.945
 4091SOL    HW213173   3.268   5.937   1.945
 4092SOL     OW13174   5.456   2.094   6.142
 4092SOL    HW113175   5.538   2.143   6.111
 4092SOL    HW213176   5.468   1.996   6.127
 4093SOL     OW13177   5.438   3.966   3.390
 4093SOL    HW113178   5.495   4.010   3.320
 4093SOL    HW213179   5.386   3.891   3.349
 4094SOL     OW13180   6.791   6.612   0.028
 4094SOL    HW113181   6.748   6.628   0.117
 4094SOL    HW213182   6.727   6.633   6.982
 4095SOL     OW13183   1.727   5.019   0.595
 4095SOL    HW113184   1.811   5.072   0.579
 4095SOL    HW213185   1.752   4.927   0.626
 4096SOL     OW13186   0.782   0.387   6.365
 4096SOL    HW113187   0.762   0.397   6.463
 4096SOL    HW213188   0.739   0.304   6.330
 4097SOL     OW13189   0.360   3.753   5.042
 4097SOL    HW113190   0.363   3.753   4.943
 4097SOL    HW213191   0.378   3.661   5.077
 4098SOL     OW13192   1.158   5.684   1.871
 4098SOL    HW113193   1.241   5.723   1.911
 4098SOL    HW213194   1.078   5.736   1.901
 4099SOL     OW13195   6.326   3.391   5.668
 4099SOL    HW113196   6.315   3.451   5.589
 4099SOL    HW213197   6.417   3.350   5.667
 4100SOL     OW13198   2.311   1.613   2.943
 4100SOL    HW113199   2.365   1.695   2.965
 4100SOL    HW213200   2.265   1.625   2.855
 4101SOL     OW13201   6.538   6.110   6.719
 4101SOL    HW113202   6.635   6.118   6.743
 4101SOL    HW213203   6.527   6.040   6.648
 4102SOL     OW13204   1.245   5.619   0.061
 4102SOL    HW113205   1.338   5.656   0.066
 4102SOL    HW213206   1.212   5.624   6.994
 4103SOL     OW13207   2.300   5.947   2.980
 4103SOL    HW113208   2.386   5.946   3.032
 4103SOL    HW213209   2.310   5.887   2.900
 4104SOL     OW13210   2.028   6.080   5.256
 4104SOL    HW113211   1.963   6.149   5.288
 4104SOL    HW213212   2.010   6.059   5.160
 4105SOL     OW13213   4.398   0.424   2.517
 4105SOL    HW113214   4.483   0.408   2.468
 4105SOL    HW213215   4.418   0.456   2.610
 4106SOL     OW13216   1.449   6.979   1.831
 4106SOL    HW113217   1.385   0.020   1.796
 4106SOL    HW213218   1.451   6.984   1.931
 4107SOL     OW13219   1.424   0.750   0.855
 4107SOL    HW113220   1.461   0.679   0.916
 4107SOL    HW213221   1.459   0.840   0.884
 4108SOL     OW13222   6.434   6.184   5.789
 4108SOL    HW113223   6.421   6.085   5.794
 4108SOL    HW213224   6.525   6.205   5.753
 4109SOL     OW13225   5.310   6.295   4.413
 4109SOL    HW113226   5.352   6.234   4.480
 4109SOL    HW213227   5.290   6.383   4.457
 4110SOL     OW13228   4.649   2.900   0.459
 4110SOL    HW113229   4.699   2.828   0.411
 4110SOL    HW213230   4.664   2.987   0.412
 4111SOL     OW13231   5.909   4.949   4.139
 4111SOL    HW113232   5.869   4.859   4.150
 4111SOL    HW213233   5.995   4.942   4.089
 4112SOL     OW13234   4.478   5.792   4.170
 4112SOL    HW113235   4.461   5.880   4.128
 4112SOL    HW213236   4.392   5.740   4.174
 4113SOL     OW13237   4.344   5.382   4.758
 4113SOL    HW113238   4.440   5.408   4.773
 4113SOL    HW213239   4.284   5.457   4.786
 4114SOL     OW13240   0.194   1.154   1.620
 4114SOL    HW113241   0.125   1.227   1.623
 4114SOL    HW213242   0.270   1.178   1.680
 4115SOL     OW13243   4.359   5.628   3.488
 4115SOL    HW113244   4.284   5.637   3.423
 4115SOL    HW213245   4.378   5.716   3.530
 4116SOL     OW13246   5.703   3.112   3.759
 4116SOL    HW113247   5.621   3.170   3.759
 4116SOL    HW213248   5.785   3.170   3.763
 4117SOL     OW13249   0.660   1.004   3.352
 4117SOL    HW113250   0.656   1.104   3.351
 4117SOL    HW213251   0.663   0.972   3.446
 4118SOL     OW13252   1.218   0.027   1.149
 4118SOL    HW113253   1.168   0.093   1.092
 4118SOL    HW213254   1.175   6.965   1.141
 4119SOL     OW13255   6.632   0.661   4.252
 4119SOL    HW113256   6.620   0.625   4.160
 4119SOL    HW213257   6.608   0.591   4.319
 4120SOL     OW13258   2.487   0.626   6.109
 4120SOL    HW113259   2.425   0.577   6.171
 4120SOL    HW213260   2.541   0.692   6.161
 4121SOL     OW13261   6.732   0.880   2.249
 4121SOL    HW113262   6.723   0.781   2.252
 4121SOL    HW213263   6.661   0.919   2.191
 4122SOL     OW13264   0.887   5.446   3.470
 4122SOL    HW113265   0.906   5.490   3.558
 4122SOL    HW213266   0.968   5.394   3.442
 4123SOL     OW13267   5.364   4.074   1.296
 4123SOL    HW113268   5.343   4.141   1.225
 4123SOL    HW213269   5.422   4.002   1.257
 4124SOL     OW13270   6.338   6.732   0.047
 4124SOL    HW113271   6.436   6.720   0.061
 4124SOL    HW213272   6.293   6.643   0.053
 4125SOL     OW13273   6.891   2.784   0.310
 4125SOL    HW113274   6.795   2.763   0.324
 4125SOL    HW213275   6.902   2.881   0.293
 4126SOL     OW13276   1.172   3.804   4.192
 4126SOL    HW113277   1.271   3.810   4.175
 4126SOL    HW213278   1.125   3.789   4.105
 4127SOL     OW13279   5.383   2.575   3.963
 4127SOL    HW113280   5.359   2.478   3.975
 4127SOL    HW213281   5.325   2.630   4.023
 4128SOL     OW13282   6.726   2.432   6.552
 4128SOL    HW113283   6.758   2.453   6.460
 4128SOL    HW213284   6.741   2.511   6.611
 4129SOL     OW13285   2.962   1.238   0.945
 4129SOL    HW113286   2.945   1.260   0.849
 4129SOL    HW213287   3.058   1.212   0.957
 4130SOL     OW13288   5.894   2.481   0.320
 4130SOL    HW113289   5.871   2.521   0.409
 4130SOL    HW213290   5.903   2.382   0.330
 4131SOL     OW13291   4.432   6.493   3.146
 4131SOL    HW113292   4.349   6.482   3.202
 4131SOL    HW213293   4.497   6.550   3.196
 4132SOL     OW13294   6.767   4.644   3.311
 4132SOL    HW113295   6.718   4.728   3.336
 4132SOL    HW213296   6.759   4.629   3.212
 4133SOL     OW13297   5.480   6.351   2.774
 4133SOL    HW113298   5.531   6.434   2.751
 4133SOL    HW213299   5.536   6.294   2.835
 4134SOL     OW13300   1.631   3.415   1.368
 4134SOL    HW113301   1.668   3.468   1.292
 4134SOL    HW213302   1.548   3.460   1.402
 4135SOL     OW13303   5.899   1.098   1.080
 4135SOL    HW113304   5.852   1.012   1.060
 4135SOL    HW213305   5.832   1.165   1.112
 4136SOL     OW13306   0.547   4.465   0.916
 4136SOL    HW113307   0.450   4.477   0.936
 4136SOL    HW213308   0.563   4.475   0.818
 4137SOL     OW13309   0.121   2.916   6.397
 4137SOL    HW113310   0.201   2.861   6.416
 4137SOL    HW213311   0.104   2.979   6.473
 4138SOL     OW13312   4.502   6.960   6.669
 4138SOL    HW113313   4.505   0.031   6.689
 4138SOL    HW213314   4.519   6.945   6.572
 4139SOL     OW13315   1.975   4.254   2.589
 4139SOL    HW113316   2.008   4.317   2.518
 4139SOL    HW213317   1.984   4.298   2.678
 4140SOL     OW13318   2.240   6.972   6.443
 4140SOL    HW113319   2.150   6.988   6.483
 4140SOL    HW213320   2.230   6.935   6.351
 4141SOL     OW13321   5.040   1.477   6.021
 4141SOL    HW113322   4.945   1.483   5.991
 4141SOL    HW213323   5.054   1.390   6.068
 4142SOL     OW13324   6.371   5.346   1.383
 4142SOL    HW113325   6.281   5.328   1.345
 4142SOL    HW213326   6.439   5.347   1.310
 4143SOL     OW13327   5.997   3.884   6.688
 4143SOL    HW113328   6.086   3.838   6.687
 4143SOL    HW213329   6.008   3.975   6.729
 4144SOL     OW13330   4.327   1.187   1.677
 4144SOL    HW113331   4.411   1.225   1.637
 4144SOL    HW213332   4.255   1.256   1.674
 4145SOL     OW13333   5.837   0.249   1.538
 4145SOL    HW113334   5.775   0.172   1.521
 4145SOL    HW213335   5.921   0.215   1.580
 4146SOL     OW13336   4.431   0.035   1.512
 4146SOL    HW113337   4.422   6.998   1.436
 4146SOL    HW213338   4.425   7.013   1.599
 4147SOL     OW13339   4.982   5.079   0.125
 4147SOL    HW113340   4.931   5.053   0.043
 4147SOL    HW213341   4.921   5.079   0.204
 4148SOL     OW13342   2.875   1.533   5.994
 4148SOL    HW113343   2.787   1.486   5.990
 4148SOL    HW213344   2.890   1.568   6.087
 4149SOL     OW13345   1.359   3.704   6.618
 4149SOL    HW113346   1.350   3.771   6.691
 4149SOL    HW213347   1.302   3.731   6.540
 4150SOL     OW13348   5.242   1.556   0.404
 4150SOL    HW113349   5.177   1.569   0.329
 4150SOL    HW213350   5.199   1.583   0.490
 4151SOL     OW13351   2.511   5.908   4.808
 4151SOL    HW113352   2.526   5.969   4.886
 4151SOL    HW213353   2.497   5.963   4.725
 4152SOL     OW13354   2.469   4.112   1.313
 4152SOL    HW113355   2.515   4.159   1.388
 4152SOL    HW213356   2.494   4.155   1.226
 4153SOL     OW13357   6.963   5.906   2.111
 4153SOL    HW113358   6.912   5.908   2.025
 4153SOL    HW213359   6.917   5.846   2.176
 4154SOL     OW13360   0.338   6.664   3.960
 4154SOL    HW113361   0.389   6.750   3.958
 4154SOL    HW213362   0.361   6.610   3.880
 4155SOL     OW13363   6.590   0.406   2.144
 4155SOL    HW113364   6.554   0.398   2.051
 4155SOL    HW213365   6.677   0.358   2.151
 4156SOL     OW13366   0.315   5.074   5.417
 4156SOL    HW113367   0.289   4.988   5.373
 4156SOL    HW213368   0.240   5.106   5.475
 4157SOL     OW13369   5.560   6.095   0.783
 4157SOL    HW113370   5.493   6.067   0.715
 4157SOL    HW213371   5.516   6.105   0.872
 4158SOL     OW13372   0.396   2.865   0.938
 4158SOL    HW113373   0.406   2.909   1.027
 4158SOL    HW213374   0.416   2.767   0.947
 4159SOL     OW13375   3.008   0.946   4.191
 4159SOL    HW113376   2.995   1.045   4.193
 4159SOL    HW213377   2.923   0.901   4.217
 4160SOL     OW13378   1.251   6.299   6.042
 4160SOL    HW113379   1.165   6.347   6.057
 4160SOL    HW213380   1.310   6.354   5.982
 4161SOL     OW13381   3.210   3.359   3.011
 4161SOL    HW113382   3.154   3.293   2.961
 4161SOL    HW213383   3.152   3.415   3.070
 4162SOL     OW13384   5.407   5.542   1.294
 4162SOL    HW113385   5.505   5.558   1.292
 4162SOL    HW213386   5.359   5.629   1.305
 4163SOL     OW13387   3.859   5.761   1.600
 4163SOL    HW113388   3.809   5.804   1.524
 4163SOL    HW213389   3.922   5.827   1.640
 4164SOL     OW13390   5.421   1.561   6.512
 4164SOL    HW113391   5.478   1.510   6.447
 4164SOL    HW213392   5.435   1.659   6.499
 4165SOL     OW13393   3.396   1.612   4.441
 4165SOL    HW113394   3.410   1.526   4.490
 4165SOL    HW213395   3.387   1.594   4.343
 4166SOL     OW13396   6.643   1.872   1.700
 4166SOL    HW113397   6.613   1.777   1.712
 4166SOL    HW213398   6.592   1.914   1.625
 4167SOL     OW13399   3.843   4.998   4.383
 4167SOL    HW113400   3.920   4.943   4.416
 4167SOL    HW213401   3.855   5.093   4.411
 4168SOL     OW13402   5.492   4.153   0.278
 4168SOL    HW113403   5.472   4.172   0.374
 4168SOL    HW213404   5.406   4.142   0.228
 4169SOL     OW13405   5.417   3.326   6.689
 4169SOL    HW113406   5.512   3.311   6.715
 4169SOL    HW213407   5.412   3.399   6.621
 4170SOL     OW13408   1.181   2.641   5.649
 4170SOL    HW113409   1.086   2.622   5.676
 4170SOL    HW213410   1.181   2.699   5.568
 4171SOL     OW13411   0.489   1.698   6.451
 4171SOL    HW113412   0.481   1.790   6.413
 4171SOL    HW213413   0.567   1.693   6.513
 4172SOL     OW13414   2.635   2.679   6.791
 4172SOL    HW113415   2.685   2.712   6.871
 4172SOL    HW213416   2.546   2.725   6.787
 4173SOL     OW13417   4.380   1.540   5.742
 4173SOL    HW113418   4.394   1.628   5.787
 4173SOL    HW213419   4.344   1.473   5.807
 4174SOL     OW13420   4.367   6.559   3.915
 4174SOL    HW113421   4.270   6.565   3.892
 4174SOL    HW213422   4.417   6.521   3.836
 4175SOL     OW13423   1.510   4.852   6.052
 4175SOL    HW113424   1.529   4.853   5.954
 4175SOL    HW213425   1.447   4.927   6.074
 4176SOL     OW13426   5.136   6.810   5.746
 4176SOL    HW113427   5.230   6.843   5.741
 4176SOL    HW213428   5.108   6.803   5.842
 4177SOL     OW13429   4.077   4.753   2.815
 4177SOL    HW113430   4.176   4.742   2.816
 4177SOL    HW213431   4.044   4.762   2.909
 4178SOL     OW13432   4.131   6.476   1.459
 4178SOL    HW113433   4.048   6.423   1.475
 4178SOL    HW213434   4.210   6.415   1.466
 4179SOL     OW13435   4.110   2.409   6.915
 4179SOL    HW113436   4.202   2.435   6.885
 4179SOL    HW213437   4.051   2.489   6.914
 4180SOL     OW13438   4.285   3.855   0.297
 4180SOL    HW113439   4.369   3.888   0.255
 4180SOL    HW213440   4.306   3.815   0.387
 4181SOL     OW13441   5.828   6.754   5.891
 4181SOL    HW113442   5.734   6.736   5.922
 4181SOL    HW213443   5.889   6.757   5.970
 4182SOL     OW13444   1.204   5.737   5.178
 4182SOL    HW113445   1.272   5.743   5.251
 4182SOL    HW213446   1.120   5.783   5.207
 4183SOL     OW13447   4.328   1.725   0.732
 4183SOL    HW113448   4.359   1.643   0.684
 4183SOL    HW213449   4.380   1.734   0.818
 4184SOL     OW13450   3.701   5.663   3.380
 4184SOL    HW113451   3.716   5.740   3.442
 4184SOL    HW213452   3.615   5.618   3.404
 4185SOL     OW13453   4.706   4.205   3.320
 4185SOL    HW113454   4.675   4.299   3.334
 4185SOL    HW213455   4.653   4.164   3.246
 4186SOL     OW13456   1.909   6.017   0.275
 4186SOL    HW113457   1.880   5.988   0.184
 4186SOL    HW213458   2.004   6.048   0.271
 4187SOL     OW13459   2.359   3.649   5.747
 4187SOL    HW113460   2.398   3.559   5.727
 4187SOL    HW213461   2.340   3.697   5.661
 4188SOL     OW13462   4.422   6.764   6.830
 4188SOL    HW113463   4.329   6.795   6.848
 4188SOL    HW213464   4.466   6.826   6.764
 4189SOL     OW13465   4.332   4.807   3.528
 4189SOL    HW113466   4.343   4.886   3.468
 4189SOL    HW213467   4.236   4.781   3.531
 4190SOL     OW13468   6.087   6.510   1.641
 4190SOL    HW113469   6.029   6.588   1.662
 4190SOL    HW213470   6.178   6.541   1.612
 4191SOL     OW13471   4.334   3.265   6.653
 4191SOL    HW113472   4.421   3.253   6.700
 4191SOL    HW213473   4.312   3.362   6.647
 4192SOL     OW13474   1.583   3.688   6.914
 4192SOL    HW113475   1.537   3.767   6.873
 4192SOL    HW213476   1.628   3.635   6.842
 4193SOL     OW13477   7.011   0.113   7.015
 4193SOL    HW113478   6.959   0.033   0.018
 4193SOL    HW213479   0.049   0.086   6.944
 4194SOL     OW13480   5.042   1.712   5.660
 4194SOL    HW113481   5.127   1.660   5.652
 4194SOL    HW213482   4.966   1.658   5.624
 4195SOL     OW13483   3.084   6.980   1.232
 4195SOL    HW113484   3.079   6.988   1.132
 4195SOL    HW213485   3.078   0.045   1.272
 4196SOL     OW13486   6.331   2.814   2.664
 4196SOL    HW113487   6.231   2.815   2.656
 4196SOL    HW213488   6.362   2.721   2.688
 4197SOL     OW13489   3.169   0.878   6.935
 4197SOL    HW113490   3.146   0.905   0.001
 4197SOL    HW213491   3.122   0.792   6.913
 4198SOL     OW13492   6.256   2.525   1.764
 4198SOL    HW113493   6.254   2.508   1.862
 4198SOL    HW213494   6.314   2.457   1.719
 4199SOL     OW13495   0.203   3.679   6.335
 4199SOL    HW113496   0.199   3.718   6.243
 4199SOL    HW213497   0.165   3.587   6.333
 4200SOL     OW13498   4.741   1.976   3.954
 4200SOL    HW113499   4.702   1.980   4.046
 4200SOL    HW213500   4.669   1.953   3.888
 4201SOL     OW13501   6.150   0.034   4.353
 4201SOL    HW113502   6.167   0.051   4.256
 4201SOL    HW213503   6.143   6.962   4.368
 4202SOL     OW13504   4.660   3.843   1.682
 4202SOL    HW113505   4.692   3.931   1.717
 4202SOL    HW213506   4.569   3.854   1.641
 4203SOL     OW13507   6.045   4.630   5.601
 4203SOL    HW113508   5.974   4.649   5.669
 4203SOL    HW213509   6.112   4.704   5.602
 4204SOL     OW13510   1.789   4.236   6.618
 4204SOL    HW113511   1.702   4.196   6.593
 4204SOL    HW213512   1.779   4.336   6.627
 4205SOL     OW13513   4.611   6.615   6.445
 4205SOL    HW113514   4.656   6.640   6.530
 4205SOL    HW213515   4.626   6.518   6.427
 4206SOL     OW13516   2.115   2.155   4.103
 4206SOL    HW113517   2.020   2.184   4.111
 4206SOL    HW213518   2.140   2.102   4.184
 4207SOL     OW13519   0.478   2.460   2.673
 4207SOL    HW113520   0.451   2.554   2.693
 4207SOL    HW213521   0.457   2.438   2.577
 4208SOL     OW13522   1.995   2.077   3.567
 4208SOL    HW113523   1.963   2.051   3.658
 4208SOL    HW213524   2.047   2.163   3.573
 4209SOL     OW13525   6.835   5.999   1.894
 4209SOL    HW113526   6.911   6.064   1.885
 4209SOL    HW213527   6.794   5.983   1.804
 4210SOL     OW13528   3.050   4.273   5.203
 4210SOL    HW113529   3.026   4.370   5.201
 4210SOL    HW213530   3.051   4.237   5.109
 4211SOL     OW13531   3.666   2.701   5.298
 4211SOL    HW113532   3.676   2.796   5.269
 4211SOL    HW213533   3.738   2.679   5.365
 4212SOL     OW13534   0.023   2.222   3.163
 4212SOL    HW113535   6.989   2.301   3.154
 4212SOL    HW213536   0.103   2.234   3.105
 4213SOL     OW13537   3.561   0.130   3.759
 4213SOL    HW113538   3.542   0.104   3.664
 4213SOL    HW213539   3.539   0.227   3.772
 4214SOL     OW13540   6.902   5.760   3.146
 4214SOL    HW113541   6.870   5.737   3.238
 4214SOL    HW213542   6.825   5.758   3.082
 4215SOL     OW13543   5.913   6.825   5.650
 4215SOL    HW113544   5.916   6.740   5.597
 4215SOL    HW213545   5.878   6.806   5.742
 4216SOL     OW13546   2.830   5.441   1.966
 4216SOL    HW113547   2.823   5.343   1.980
 4216SOL    HW213548   2.760   5.471   1.901
 4217SOL     OW13549   1.131   0.093   3.284
 4217SOL    HW113550   1.183   0.014   3.317
 4217SOL    HW213551   1.172   0.129   3.201
 4218SOL     OW13552   2.242   0.909   1.127
 4218SOL    HW113553   2.245   0.942   1.032
 4218SOL    HW213554   2.203   0.817   1.129
 4219SOL     OW13555   3.696   5.143   3.049
 4219SOL    HW113556   3.599   5.154   3.026
 4219SOL    HW213557   3.707   5.133   3.148
 4220SOL     OW13558   5.580   1.619   1.209
 4220SOL    HW113559   5.562   1.711   1.173
 4220SOL    HW213560   5.676   1.596   1.195
 4221SOL     OW13561   0.917   6.338   0.963
 4221SOL    HW113562   0.994   6.326   0.899
 4221SOL    HW213563   0.834   6.300   0.922
 4222SOL     OW13564   4.999   3.296   4.070
 4222SOL    HW113565   4.948   3.374   4.106
 4222SOL    HW213566   5.087   3.289   4.119
 4223SOL     OW13567   3.543   3.727   2.742
 4223SOL    HW113568   3.487   3.690   2.816
 4223SOL    HW213569   3.603   3.799   2.779
 4224SOL     OW13570   4.615   4.865   4.408
 4224SOL    HW113571   4.701   4.835   4.451
 4224SOL    HW213572   4.635   4.926   4.332
 4225SOL     OW13573   1.072   1.828   5.996
 4225SOL    HW113574   1.121   1.757   5.946
 4225SOL    HW213575   1.098   1.824   6.092
 4226SOL     OW13576   0.609   5.309   5.034
 4226SOL    HW113577   0.667   5.247   4.981
 4226SOL    HW213578   0.630   5.299   5.131
 4227SOL     OW13579   4.950   5.292   2.104
 4227SOL    HW113580   4.916   5.254   2.190
 4227SOL    HW213581   4.961   5.218   2.037
 4228SOL     OW13582   1.725   4.625   4.302
 4228SOL    HW113583   1.795   4.694   4.282
 4228SOL    HW213584   1.696   4.581   4.217
 4229SOL     OW13585   5.611   5.594   5.477
 4229SOL    HW113586   5.542   5.603   5.549
 4229SOL    HW213587   5.695   5.641   5.506
 4230SOL     OW13588   6.704   0.987   1.745
 4230SOL    HW113589   6.701   0.902   1.798
 4230SOL    HW213590   6.706   0.965   1.647
 4231SOL     OW13591   0.265   1.546   6.391
 4231SOL    HW113592   0.198   1.518   6.459
 4231SOL    HW213593   0.334   1.605   6.434
 4232SOL     OW13594   1.414   4.898   4.225
 4232SOL    HW113595   1.427   4.857   4.135
 4232SOL    HW213596   1.463   4.845   4.294
 4233SOL     OW13597   4.955   5.570   2.252
 4233SOL    HW113598   4.871   5.520   2.271
 4233SOL    HW213599   5.030   5.530   2.305
 4234SOL     OW13600   3.570   5.091   5.571
 4234SOL    HW113601   3.567   5.156   5.496
 4234SOL    HW213602   3.549   4.999   5.537
 4235SOL     OW13603   6.977   5.910   6.005
 4235SOL    HW113604   0.042   5.891   5.971
 4235SOL    HW213605   6.983   5.949   6.096
 4236SOL     OW13606   0.886   5.746   3.070
 4236SOL    HW113607   0.932   5.670   3.117
 4236SOL    HW213608   0.801   5.768   3.116
 4237SOL     OW13609   0.324   4.715   4.298
 4237SOL    HW113610   0.263   4.757   4.231
 4237SOL    HW213611   0.271   4.679   4.375
 4238SOL     OW13612   3.491   6.389   2.065
 4238SOL    HW113613   3.530   6.319   2.005
 4238SOL    HW213614   3.392   6.377   2.069
 4239SOL     OW13615   4.316   1.514   4.008
 4239SOL    HW113616   4.272   1.425   4.016
 4239SOL    HW213617   4.411   1.502   3.978
 4240SOL     OW13618   5.750   6.592   2.044
 4240SOL    HW113619   5.792   6.548   1.964
 4240SOL    HW213620   5.780   6.687   2.049
 4241SOL     OW13621   6.447   4.317   0.550
 4241SOL    HW113622   6.431   4.413   0.573
 4241SOL    HW213623   6.399   4.295   0.465
 4242SOL     OW13624   3.187   2.140   3.268
 4242SOL    HW113625   3.093   2.119   3.240
 4242SOL    HW213626   3.189   2.157   3.366
 4243SOL     OW13627   4.742   1.360   3.178
 4243SOL    HW113628   4.787   1.449   3.175
 4243SOL    HW213629   4.669   1.357   3.110
 4244SOL     OW13630   3.310   2.922   4.579
 4244SOL    HW113631   3.391   2.892   4.628
 4244SOL    HW213632   3.327   2.916   4.480
 4245SOL     OW13633   5.641   0.384   6.956
 4245SOL    HW113634   5.563   0.403   6.897
 4245SOL    HW213635   5.609   0.365   0.022
 4246SOL     OW13636   0.030   3.585   6.939
 4246SOL    HW113637   0.015   3.520   6.865
 4246SOL    HW213638   0.118   3.567   6.982
 4247SOL     OW13639   0.662   5.701   5.212
 4247SOL    HW113640   0.627   5.608   5.222
 4247SOL    HW213641   0.715   5.707   5.128
 4248SOL     OW13642   2.115   3.894   5.869
 4248SOL    HW113643   2.137   3.987   5.899
 4248SOL    HW213644   2.191   3.857   5.816
 4249SOL     OW13645   5.381   4.516   5.657
 4249SOL    HW113646   5.442   4.586   5.620
 4249SOL    HW213647   5.332   4.551   5.737
 4250SOL     OW13648   1.156   4.733   2.908
 4250SOL    HW113649   1.213   4.687   2.977
 4250SOL    HW213650   1.075   4.771   2.952
 4251SOL     OW13651   5.333   3.919   0.478
 4251SOL    HW113652   5.323   4.014   0.508
 4251SOL    HW213653   5.315   3.857   0.554
 4252SOL     OW13654   0.439   5.474   5.184
 4252SOL    HW113655   0.503   5.421   5.129
 4252SOL    HW213656   0.403   5.417   5.257
 4253SOL     OW13657   4.048   6.730   2.922
 4253SOL    HW113658   3.974   6.702   2.983
 4253SOL    HW213659   4.024   6.706   2.828
 4254SOL     OW13660   2.824   4.317   1.519
 4254SOL    HW113661   2.875   4.239   1.481
 4254SOL    HW213662   2.729   4.312   1.488
 4255SOL     OW13663   0.729   2.269   4.638
 4255SOL    HW113664   0.711   2.226   4.550
 4255SOL    HW213665   0.801   2.337   4.628
 4256SOL     OW13666   2.032   1.032   1.680
 4256SOL    HW113667   1.992   1.059   1.767
 4256SOL    HW213668   2.046   1.114   1.623
 4257SOL     OW13669   4.182   2.134   4.597
 4257SOL    HW113670   4.233   2.189   4.663
 4257SOL    HW213671   4.123   2.194   4.543
 4258SOL     OW13672   5.197   6.632   2.266
 4258SOL    HW113673   5.257   6.566   2.221
 4258SOL    HW213674   5.246   6.673   2.344
 4259SOL     OW13675   1.537   2.766   0.942
 4259SOL    HW113676   1.566   2.831   0.871
 4259SOL    HW213677   1.568   2.798   1.031
 4260SOL     OW13678   4.173   5.827   3.377
 4260SOL    HW113679   4.110   5.771   3.431
 4260SOL    HW213680   4.200   5.907   3.430
 4261SOL     OW13681   1.655   1.674   3.249
 4261SOL    HW113682   1.755   1.667   3.257
 4261SOL    HW213683   1.626   1.641   3.160
 4262SOL     OW13684   0.224   6.079   6.315
 4262SOL    HW113685   0.143   6.026   6.292
 4262SOL    HW213686   0.259   6.123   6.233
 4263SOL     OW13687   4.047   5.271   6.311
 4263SOL    HW113688   4.012   5.359   6.345
 4263SOL    HW213689   4.082   5.284   6.218
 4264SOL     OW13690   0.109   0.399   0.816
 4264SOL    HW113691   0.154   0.352   0.740
 4264SOL    HW213692   0.155   0.375   0.901
 4265SOL     OW13693   0.457   2.544   0.136
 4265SOL    HW113694   0.465   2.609   0.060
 4265SOL    HW213695   0.538   2.551   0.194
 4266SOL     OW13696   3.283   4.550   1.163
 4266SOL    HW113697   3.253   4.636   1.203
 4266SOL    HW213698   3.381   4.538   1.177
 4267SOL     OW13699   2.203   4.141   5.966
 4267SOL    HW113700   2.138   4.190   5.908
 4267SOL    HW213701   2.200   4.178   6.059
 4268SOL     OW13702   1.507   0.947   0.239
 4268SOL    HW113703   1.513   0.997   0.326
 4268SOL    HW213704   1.588   0.967   0.184
 4269SOL     OW13705   2.776   3.736   0.577
 4269SOL    HW113706   2.698   3.753   0.638
 4269SOL    HW213707   2.744   3.737   0.482
 4270SOL     OW13708   4.081   2.811   5.984
 4270SOL    HW113709   4.136   2.863   5.919
 4270SOL    HW213710   3.990   2.853   5.993
 4271SOL     OW13711   1.355   6.867   0.339
 4271SOL    HW113712   1.278   6.892   0.280
 4271SOL    HW213713   1.370   6.768   0.333
 4272SOL     OW13714   0.159   4.346   3.412
 4272SOL    HW113715   0.181   4.368   3.507
 4272SOL    HW213716   0.059   4.349   3.399
 4273SOL     OW13717   5.427   6.173   4.644
 4273SOL    HW113718   5.390   6.153   4.735
 4273SOL    HW213719   5.473   6.092   4.608
 4274SOL     OW13720   1.981   0.348   4.120
 4274SOL    HW113721   1.948   0.265   4.165
 4274SOL    HW213722   2.078   0.359   4.139
 4275SOL     OW13723   1.398   6.677   6.502
 4275SOL    HW113724   1.425   6.588   6.466
 4275SOL    HW213725   1.351   6.664   6.589
 4276SOL     OW13726   1.790   4.595   2.682
 4276SOL    HW113727   1.791   4.515   2.742
 4276SOL    HW213728   1.870   4.592   2.622
 4277SOL     OW13729   0.718   5.341   4.509
 4277SOL    HW113730   0.791   5.279   4.482
 4277SOL    HW213731   0.681   5.386   4.428
 4278SOL     OW13732   0.899   6.379   5.504
 4278SOL    HW113733   0.886   6.287   5.542
 4278SOL    HW213734   0.905   6.373   5.405
 4279SOL     OW13735   3.251   5.697   4.216
 4279SOL    HW113736   3.319   5.687   4.288
 4279SOL    HW213737   3.275   5.638   4.139
 4280SOL     OW13738   5.006   3.524   3.564
 4280SOL    HW113739   5.104   3.541   3.576
 4280SOL    HW213740   4.969   3.591   3.499
 4281SOL     OW13741   2.670   3.763   5.273
 4281SOL    HW113742   2.721   3.840   5.310
 4281SOL    HW213743   2.591   3.797   5.223
 4282SOL     OW13744   0.665   3.160   1.140
 4282SOL    HW113745   0.748   3.110   1.164
 4282SOL    HW213746   0.674   3.255   1.168
 4283SOL     OW13747   2.163   0.623   4.189
 4283SOL    HW113748   2.233   0.645   4.122
 4283SOL    HW213749   2.157   0.697   4.257
 4284SOL     OW13750   6.331   1.713   3.047
 4284SOL    HW113751   6.246   1.666   3.022
 4284SOL    HW213752   6.351   1.784   2.980
 4285SOL     OW13753   1.082   6.340   5.101
 4285SOL    HW113754   1.165   6.397   5.109
 4285SOL    HW213755   1.072   6.310   5.006
 4286SOL     OW13756   5.690   5.555   7.009
 4286SOL    HW113757   5.668   5.534   6.914
 4286SOL    HW213758   5.685   5.471   0.036
 4287SOL     OW13759   4.024   6.391   5.053
 4287SOL    HW113760   4.120   6.400   5.078
 4287SOL    HW213761   4.001   6.462   4.986
 4288SOL     OW13762   1.665   6.482   2.837
 4288SOL    HW113763   1.591   6.547   2.857
 4288SOL    HW213764   1.750   6.515   2.880
 4289SOL     OW13765   6.184   3.541   0.614
 4289SOL    HW113766   6.235   3.508   0.535
 4289SOL    HW213767   6.224   3.503   0.698
 4290SOL     OW13768   2.256   1.221   2.581
 4290SOL    HW113769   2.244   1.131   2.537
 4290SOL    HW213770   2.313   1.279   2.523
 4291SOL     OW13771   6.144   4.730   1.338
 4291SOL    HW113772   6.241   4.706   1.342
 4291SOL    HW213773   6.124   4.769   1.248
 4292SOL     OW13774   6.119   5.919   5.769
 4292SOL    HW113775   6.069   5.851   5.717
 4292SOL    HW213776   6.217   5.898   5.766
 4293SOL     OW13777   0.294   2.413   6.537
 4293SOL    HW113778   0.363   2.392   6.607
 4293SOL    HW213779   0.338   2.416   6.447
 4294SOL     OW13780   4.969   2.582   6.288
 4294SOL    HW113781   4.982   2.581   6.189
 4294SOL    HW213782   4.950   2.489   6.320
 4295SOL     OW13783   3.939   6.515   4.789
 4295SOL    HW113784   3.988   6.439   4.746
 4295SOL    HW213785   3.881   6.560   4.722
 4296SOL     OW13786   2.506   1.076   1.751
 4296SOL    HW113787   2.436   1.072   1.679
 4296SOL    HW213788   2.536   1.170   1.762
 4297SOL     OW13789   5.823   0.796   6.747
 4297SOL    HW113790   5.821   0.739   6.665
 4297SOL    HW213791   5.909   0.846   6.751
 4298SOL     OW13792   2.957   5.050   1.187
 4298SOL    HW113793   2.891   5.103   1.240
 4298SOL    HW213794   3.050   5.071   1.218
 4299SOL     OW13795   1.008   4.077   6.444
 4299SOL    HW113796   1.086   4.083   6.506
 4299SOL    HW213797   1.041   4.057   6.351
 4300SOL     OW13798   5.717   0.181   6.075
 4300SOL    HW113799   5.714   0.122   6.156
 4300SOL    HW213800   5.743   0.127   5.995
 4301SOL     OW13801   2.605   1.492   0.479
 4301SOL    HW113802   2.522   1.549   0.476
 4301SOL    HW213803   2.663   1.514   0.401
 4302SOL     OW13804   1.049   6.483   6.838
 4302SOL    HW113805   1.073   6.396   6.881
 4302SOL    HW213806   0.986   6.533   6.898
 4303SOL     OW13807   6.935   3.971   2.130
 4303SOL    HW113808   6.949   4.047   2.067
 4303SOL    HW213809   6.916   4.006   2.222
 4304SOL     OW13810   3.326   2.953   4.951
 4304SOL    HW113811   3.360   3.046   4.938
 4304SOL    HW213812   3.336   2.901   4.866
 4305SOL     OW13813   6.289   1.102   4.963
 4305SOL    HW113814   6.285   1.004   4.984
 4305SOL    HW213815   6.209   1.148   5.003
 4306SOL     OW13816   6.149   6.318   6.747
 4306SOL    HW113817   6.154   6.262   6.665
 4306SOL    HW213818   6.091   6.272   6.815
 4307SOL     OW13819   5.112   3.446   6.946
 4307SOL    HW113820   5.039   3.396   6.992
 4307SOL    HW213821   5.145   3.392   6.869
 4308SOL     OW13822   4.311   0.012   5.008
 4308SOL    HW113823   4.386   6.990   5.051
 4308SOL    HW213824   4.314   7.024   4.909
 4309SOL     OW13825   1.269   1.061   0.611
 4309SOL    HW113826   1.248   1.118   0.691
 4309SOL    HW213827   1.234   0.969   0.626
 4310SOL     OW13828   1.606   1.015   2.376
 4310SOL    HW113829   1.541   0.939   2.374
 4310SOL    HW213830   1.594   1.066   2.461
 4311SOL     OW13831   1.592   5.973   4.211
 4311SOL    HW113832   1.600   6.025   4.126
 4311SOL    HW213833   1.512   5.913   4.206
 4312SOL     OW13834   1.814   5.054   1.753
 4312SOL    HW113835   1.762   5.108   1.819
 4312SOL    HW213836   1.824   4.961   1.787
 4313SOL     OW13837   4.800   0.403   1.612
 4313SOL    HW113838   4.868   0.342   1.652
 4313SOL    HW213839   4.773   0.471   1.680
 4314SOL     OW13840   5.469   3.386   3.106
 4314SOL    HW113841   5.436   3.417   3.016
 4314SOL    HW213842   5.401   3.409   3.176
 4315SOL     OW13843   2.377   1.771   1.872
 4315SOL    HW113844   2.316   1.765   1.951
 4315SOL    HW213845   2.359   1.855   1.822
 4316SOL     OW13846   0.406   0.408   2.223
 4316SOL    HW113847   0.383   0.394   2.319
 4316SOL    HW213848   0.322   0.417   2.169
 4317SOL     OW13849   4.287   0.413   3.427
 4317SOL    HW113850   4.373   0.402   3.475
 4317SOL    HW213851   4.231   0.331   3.439
 4318SOL     OW13852   0.177   3.182   4.005
 4318SOL    HW113853   0.166   3.155   3.910
 4318SOL    HW213854   0.226   3.110   4.055
 4319SOL     OW13855   2.588   3.426   5.754
 4319SOL    HW113856   2.637   3.349   5.714
 4319SOL    HW213857   2.597   3.506   5.694
 4320SOL     OW13858   0.557   6.278   2.759
 4320SOL    HW113859   0.615   6.286   2.840
 4320SOL    HW213860   0.603   6.320   2.680
 4321SOL     OW13861   0.961   0.798   5.160
 4321SOL    HW113862   0.874   0.841   5.140
 4321SOL    HW213863   0.948   0.725   5.227
 4322SOL     OW13864   5.544   1.284   0.682
 4322SOL    HW113865   5.478   1.271   0.608
 4322SOL    HW213866   5.505   1.250   0.767
 4323SOL     OW13867   6.693   2.073   3.913
 4323SOL    HW113868   6.772   2.102   3.858
 4323SOL    HW213869   6.614   2.059   3.853
 4324SOL     OW13870   6.460   3.310   6.041
 4324SOL    HW113871   6.436   3.297   6.137
 4324SOL    HW213872   6.379   3.341   5.991
 4325SOL     OW13873   1.989   1.634   5.464
 4325SOL    HW113874   1.908   1.689   5.481
 4325SOL    HW213875   1.987   1.552   5.521
 4326SOL     OW13876   6.020   2.170   5.873
 4326SOL    HW113877   5.981   2.253   5.833
 4326SOL    HW213878   5.977   2.153   5.962
 4327SOL     OW13879   5.492   0.179   3.622
 4327SOL    HW113880   5.528   0.093   3.586
 4327SOL    HW213881   5.551   0.255   3.592
 4328SOL     OW13882   5.471   5.495   0.648
 4328SOL    HW113883   5.569   5.487   0.663
 4328SOL    HW213884   5.423   5.421   0.695
 4329SOL     OW13885   4.082   1.379   6.126
 4329SOL    HW113886   4.002   1.439   6.131
 4329SOL    HW213887   4.153   1.413   6.189
 4330SOL     OW13888   1.134   0.064   6.411
 4330SOL    HW113889   1.226   0.041   6.440
 4330SOL    HW213890   1.127   0.162   6.394
 4331SOL     OW13891   5.455   2.727   0.810
 4331SOL    HW113892   5.537   2.782   0.827
 4331SOL    HW213893   5.432   2.676   0.893
 4332SOL     OW13894   5.176   3.506   1.362
 4332SOL    HW113895   5.243   3.436   1.338
 4332SOL    HW213896   5.134   3.484   1.450
 4333SOL     OW13897   5.281   1.938   5.327
 4333SOL    HW113898   5.220   1.972   5.399
 4333SOL    HW213899   5.325   1.854   5.358
 4334SOL     OW13900   4.525   0.556   2.021
 4334SOL    HW113901   4.483   0.523   2.105
 4334SOL    HW213902   4.486   0.645   1.996
 4335SOL     OW13903   3.597   4.070   5.544
 4335SOL    HW113904   3.548   4.046   5.628
 4335SOL    HW213905   3.641   3.988   5.507
 4336SOL     OW13906   1.706   6.699   4.303
 4336SOL    HW113907   1.614   6.733   4.322
 4336SOL    HW213908   1.718   6.609   4.344
 4337SOL     OW13909   0.501   4.941   0.445
 4337SOL    HW113910   0.448   5.022   0.468
 4337SOL    HW213911   0.482   4.868   0.511
 4338SOL     OW13912   6.515   5.922   3.667
 4338SOL    HW113913   6.535   5.831   3.630
 4338SOL    HW213914   6.560   5.991   3.611
 4339SOL     OW13915   6.000   1.146   6.297
 4339SOL    HW113916   6.097   1.150   6.318
 4339SOL    HW213917   5.950   1.212   6.353
 4340SOL     OW13918   4.929   3.081   2.176
 4340SOL    HW113919   4.850   3.053   2.121
 4340SOL    HW213920   5.001   3.012   2.167
 4341SOL     OW13921   0.609   3.789   0.542
 4341SOL    HW113922   0.520   3.824   0.570
 4341SOL    HW213923   0.667   3.865   0.513
 4342SOL     OW13924   6.983   2.936   3.013
 4342SOL    HW113925   6.947   2.948   3.106
 4342SOL    HW213926   6.935   2.861   2.968
 4343SOL     OW13927   2.396   1.603   1.494
 4343SOL    HW113928   2.349   1.691   1.495
 4343SOL    HW213929   2.387   1.559   1.583
 4344SOL     OW13930   2.295   4.246   3.142
 4344SOL    HW113931   2.269   4.237   3.239
 4344SOL    HW213932   2.251   4.173   3.089
 4345SOL     OW13933   2.185   1.539   5.986
 4345SOL    HW113934   2.146   1.598   6.056
 4345SOL    HW213935   2.161   1.444   6.004
 4346SOL     OW13936   0.374   2.668   1.625
 4346SOL    HW113937   0.411   2.696   1.537
 4346SOL    HW213938   0.444   2.681   1.696
 4347SOL     OW13939   6.130   5.932   2.778
 4347SOL    HW113940   6.183   5.987   2.842
 4347SOL    HW213941   6.190   5.864   2.735
 4348SOL     OW13942   1.100   3.574   6.840
 4348SOL    HW113943   1.070   3.668   6.827
 4348SOL    HW213944   1.085   3.547   6.935
 4349SOL     OW13945   0.255   0.263   3.102
 4349SOL    HW113946   0.300   0.286   3.189
 4349SOL    HW213947   0.200   0.181   3.115
 4350SOL     OW13948   5.263   1.443   3.918
 4350SOL    HW113949   5.234   1.411   4.008
 4350SOL    HW213950   5.191   1.500   3.878
 4351SOL     OW13951   3.044   6.343   0.700
 4351SOL    HW113952   3.137   6.327   0.666
 4351SOL    HW213953   2.978   6.310   0.633
 4352SOL     OW13954   5.949   1.389   2.217
 4352SOL    HW113955   5.892   1.468   2.243
 4352SOL    HW213956   5.914   1.351   2.132
 4353SOL     OW13957   3.282   5.739   0.783
 4353SOL    HW113958   3.360   5.678   0.799
 4353SOL    HW213959   3.197   5.690   0.802
 4354SOL     OW13960   1.612   0.537   1.336
 4354SOL    HW113961   1.680   0.534   1.263
 4354SOL    HW213962   1.619   0.454   1.392
 4355SOL     OW13963   4.537   1.155   1.036
 4355SOL    HW113964   4.532   1.245   1.080
 4355SOL    HW213965   4.558   1.086   1.105
 4356SOL     OW13966   3.924   4.162   0.349
 4356SOL    HW113967   3.893   4.142   0.256
 4356SOL    HW213968   4.024   4.152   0.354
 4357SOL     OW13969   6.350   0.818   6.865
 4357SOL    HW113970   6.265   0.778   6.830
 4357SOL    HW213971   6.345   0.825   6.965
 4358SOL     OW13972   6.858   0.591   1.697
 4358SOL    HW113973   6.821   0.667   1.749
 4358SOL    HW213974   6.863   0.510   1.755
 4359SOL     OW13975   6.381   2.732   4.262
 4359SOL    HW113976   6.365   2.816   4.211
 4359SOL    HW213977   6.418   2.662   4.201
 4360SOL     OW13978   2.376   3.400   1.227
 4360SOL    HW113979   2.291   3.349   1.232
 4360SOL    HW213980   2.358   3.491   1.190
 4361SOL     OW13981   5.426   1.735   2.147
 4361SOL    HW113982   5.484   1.760   2.069
 4361SOL    HW213983   5.441   1.639   2.170
 4362SOL     OW13984   5.631   4.357   3.802
 4362SOL    HW113985   5.536   4.333   3.785
 4362SOL    HW213986   5.672   4.292   3.865
 4363SOL     OW13987   4.747   1.457   5.808
 4363SOL    HW113988   4.708   1.489   5.722
 4363SOL    HW213989   4.715   1.363   5.825
 4364SOL     OW13990   3.428   3.412   5.182
 4364SOL    HW113991   3.420   3.314   5.200
 4364SOL    HW213992   3.525   3.437   5.181
 4365SOL     OW13993   3.058   1.194   1.486
 4365SOL    HW113994   2.983   1.254   1.459
 4365SOL    HW213995   3.097   1.226   1.572
 4366SOL     OW13996   5.184   5.182   1.110
 4366SOL    HW113997   5.253   5.172   1.181
 4366SOL    HW213998   5.157   5.279   1.104
 4367SOL     OW13999   0.509   6.241   0.350
 4367SOL    HW114000   0.588   6.297   0.328
 4367SOL    HW214001   0.514   6.211   0.445
 4368SOL     OW14002   5.255   3.330   1.954
 4368SOL    HW114003   5.226   3.387   1.877
 4368SOL    HW214004   5.274   3.238   1.922
 4369SOL     OW14005   3.312   5.670   1.643
 4369SOL    HW114006   3.223   5.629   1.664
 4369SOL    HW214007   3.371   5.602   1.600
 4370SOL     OW14008   5.418   4.845   2.868
 4370SOL    HW114009   5.449   4.849   2.964
 4370SOL    HW214010   5.498   4.838   2.808
 4371SOL     OW14011   0.101   1.852   2.209
 4371SOL    HW114012   0.051   1.782   2.260
 4371SOL    HW214013   0.043   1.933   2.199
 4372SOL     OW14014   4.634   0.021   3.392
 4372SOL    HW114015   4.694   6.995   3.452
 4372SOL    HW214016   4.605   0.104   3.439
 4373SOL     OW14017   6.958   1.708   6.338
 4373SOL    HW114018   6.922   1.623   6.301
 4373SOL    HW214019   0.020   1.727   6.297
 4374SOL     OW14020   3.286   2.043   1.250
 4374SOL    HW114021   3.251   1.970   1.193
 4374SOL    HW214022   3.221   2.063   1.323
 4375SOL     OW14023   3.676   6.724   4.012
 4375SOL    HW114024   3.696   6.780   4.092
 4375SOL    HW214025   3.757   6.670   3.988
 4376SOL     OW14026   6.372   1.912   3.989
 4376SOL    HW114027   6.431   1.854   4.044
 4376SOL    HW214028   6.277   1.897   4.013
 4377SOL     OW14029   6.088   5.402   6.552
 4377SOL    HW114030   6.174   5.385   6.599
 4377SOL    HW214031   6.012   5.377   6.612
 4378SOL     OW14032   2.140   1.385   3.743
 4378SOL    HW114033   2.123   1.417   3.650
 4378SOL    HW214034   2.235   1.354   3.751
 4379SOL     OW14035   2.853   1.840   5.633
 4379SOL    HW114036   2.847   1.796   5.543
 4379SOL    HW214037   2.905   1.782   5.695
 4380SOL     OW14038   0.258   1.611   2.388
 4380SOL    HW114039   0.324   1.584   2.458
 4380SOL    HW214040   0.294   1.690   2.338
 4381SOL     OW14041   1.830   6.062   6.631
 4381SOL    HW114042   1.859   5.981   6.681
 4381SOL    HW214043   1.887   6.072   6.549
 4382SOL     OW14044   0.483   4.230   4.982
 4382SOL    HW114045   0.454   4.182   4.899
 4382SOL    HW214046   0.427   4.312   4.994
 4383SOL     OW14047   6.538   3.489   6.989
 4383SOL    HW114048   6.637   3.505   6.994
 4383SOL    HW214049   6.521   3.406   6.935
 4384SOL     OW14050   5.634   6.681   3.754
 4384SOL    HW114051   5.666   6.775   3.750
 4384SOL    HW214052   5.702   6.620   3.714
 4385SOL     OW14053   4.220   1.548   5.507
 4385SOL    HW114054   4.259   1.513   5.592
 4385SOL    HW214055   4.209   1.473   5.442
 4386SOL     OW14056   1.935   3.775   5.193
 4386SOL    HW114057   1.917   3.800   5.098
 4386SOL    HW214058   1.897   3.845   5.254
 4387SOL     OW14059   6.193   1.837   0.572
 4387SOL    HW114060   6.281   1.819   0.528
 4387SOL    HW214061   6.178   1.936   0.576
 4388SOL     OW14062   5.045   3.682   6.823
 4388SOL    HW114063   4.963   3.629   6.802
 4388SOL    HW214064   5.105   3.628   6.881
 4389SOL     OW14065   0.828   3.165   0.681
 4389SOL    HW114066   0.860   3.083   0.634
 4389SOL    HW214067   0.769   3.139   0.757
 4390SOL     OW14068   0.110   1.290   0.569
 4390SOL    HW114069   0.104   1.190   0.574
 4390SOL    HW214070   0.179   1.316   0.501
 4391SOL     OW14071   1.377   5.689   0.735
 4391SOL    HW114072   1.456   5.650   0.688
 4391SOL    HW214073   1.293   5.649   0.698
 4392SOL     OW14074   1.378   3.351   5.333
 4392SOL    HW114075   1.465   3.343   5.382
 4392SOL    HW214076   1.371   3.278   5.265
 4393SOL     OW14077   5.195   0.565   1.720
 4393SOL    HW114078   5.282   0.612   1.736
 4393SOL    HW214079   5.203   0.470   1.749
 4394SOL     OW14080   1.302   0.328   2.367
 4394SOL    HW114081   1.234   0.303   2.436
 4394SOL    HW214082   1.379   0.265   2.371
 4395SOL     OW14083   2.492   5.030   1.577
 4395SOL    HW114084   2.591   5.026   1.590
 4395SOL    HW214085   2.466   4.972   1.500
 4396SOL     OW14086   2.967   1.196   2.769
 4396SOL    HW114087   3.007   1.263   2.831
 4396SOL    HW214088   3.031   1.120   2.755
 4397SOL     OW14089   3.098   1.727   4.390
 4397SOL    HW114090   3.181   1.747   4.442
 4397SOL    HW214091   3.111   1.644   4.336
 4398SOL     OW14092   1.941   3.115   5.385
 4398SOL    HW114093   1.866   3.142   5.325
 4398SOL    HW214094   2.023   3.167   5.363
 4399SOL     OW14095   2.728   6.463   1.918
 4399SOL    HW114096   2.817   6.434   1.883
 4399SOL    HW214097   2.658   6.397   1.890
 4400SOL     OW14098   1.988   5.802   4.472
 4400SOL    HW114099   1.993   5.821   4.374
 4400SOL    HW214100   2.075   5.763   4.503
 4401SOL     OW14101   3.461   6.239   6.690
 4401SOL    HW114102   3.397   6.189   6.749
 4401SOL    HW214103   3.507   6.310   6.743
 4402SOL     OW14104   1.598   0.311   2.878
 4402SOL    HW114105   1.617   0.295   2.975
 4402SOL    HW214106   1.539   0.391   2.869
 4403SOL     OW14107   0.867   4.866   2.040
 4403SOL    HW114108   0.867   4.779   1.992
 4403SOL    HW214109   0.838   4.939   1.978
 4404SOL     OW14110   0.101   6.591   6.454
 4404SOL    HW114111   0.005   6.594   6.484
 4404SOL    HW214112   0.110   6.526   6.379
 4405SOL     OW14113   1.924   5.871   2.345
 4405SOL    HW114114   2.001   5.869   2.409
 4405SOL    HW214115   1.870   5.788   2.356
 4406SOL     OW14116   5.765   3.894   1.783
 4406SOL    HW114117   5.760   3.862   1.877
 4406SOL    HW214118   5.805   3.986   1.780
 4407SOL     OW14119   5.702   6.791   1.412
 4407SOL    HW114120   5.668   6.826   1.325
 4407SOL    HW214121   5.780   6.731   1.396
 4408SOL     OW14122   4.177   0.844   6.880
 4408SOL    HW114123   4.176   0.892   6.968
 4408SOL    HW214124   4.172   0.745   6.895
 4409SOL     OW14125   2.736   0.609   3.481
 4409SOL    HW114126   2.754   0.645   3.572
 4409SOL    HW214127   2.719   0.685   3.418
 4410SOL     OW14128   0.337   6.591   1.084
 4410SOL    HW114129   0.341   6.668   1.147
 4410SOL    HW214130   0.380   6.616   0.997
 4411SOL     OW14131   4.070   4.707   5.263
 4411SOL    HW114132   4.049   4.705   5.361
 4411SOL    HW214133   4.085   4.614   5.230
 4412SOL     OW14134   4.397   6.463   2.130
 4412SOL    HW114135   4.413   6.411   2.214
 4412SOL    HW214136   4.305   6.502   2.132
 4413SOL     OW14137   4.897   5.968   3.823
 4413SOL    HW114138   4.817   6.000   3.772
 4413SOL    HW214139   4.924   5.878   3.789
 4414SOL     OW14140   5.060   3.834   1.556
 4414SOL    HW114141   4.995   3.910   1.566
 4414SOL    HW214142   5.081   3.797   1.646
 4415SOL     OW14143   2.201   3.019   1.933
 4415SOL    HW114144   2.198   3.100   1.992
 4415SOL    HW214145   2.251   3.040   1.849
 4416SOL     OW14146   5.028   2.646   3.067
 4416SOL    HW114147   5.100   2.617   3.004
 4416SOL    HW214148   4.976   2.721   3.025
 4417SOL     OW14149   6.787   3.953   2.366
 4417SOL    HW114150   6.856   3.930   2.435
 4417SOL    HW214151   6.696   3.946   2.407
 4418SOL     OW14152   6.536   6.675   5.726
 4418SOL    HW114153   6.612   6.656   5.663
 4418SOL    HW214154   6.463   6.723   5.677
 4419SOL     OW14155   6.424   5.612   6.751
 4419SOL    HW114156   6.368   5.668   6.689
 4419SOL    HW214157   6.373   5.595   6.836
 4420SOL     OW14158   3.743   2.089   1.035
 4420SOL    HW114159   3.793   2.173   1.053
 4420SOL    HW214160   3.649   2.098   1.069
 4421SOL     OW14161   1.802   2.620   0.453
 4421SOL    HW114162   1.833   2.655   0.365
 4421SOL    HW214163   1.878   2.618   0.517
 4422SOL     OW14164   6.575   3.476   6.360
 4422SOL    HW114165   6.505   3.543   6.338
 4422SOL    HW214166   6.661   3.501   6.315
 4423SOL     OW14167   6.432   4.437   5.559
 4423SOL    HW114168   6.382   4.382   5.492
 4423SOL    HW214169   6.523   4.399   5.573
 4424SOL     OW14170   5.120   5.967   2.362
 4424SOL    HW114171   5.089   5.935   2.451
 4424SOL    HW214172   5.133   6.066   2.364
 4425SOL     OW14173   1.094   5.260   1.395
 4425SOL    HW114174   1.147   5.184   1.432
 4425SOL    HW214175   1.080   5.328   1.467
 4426SOL     OW14176   0.367   0.552   4.564
 4426SOL    HW114177   0.282   0.562   4.615
 4426SOL    HW214178   0.346   0.545   4.466
 4427SOL     OW14179   2.440   5.651   1.868
 4427SOL    HW114180   2.362   5.697   1.826
 4427SOL    HW214181   2.438   5.665   1.967
 4428SOL     OW14182   5.773   5.967   3.604
 4428SOL    HW114183   5.731   5.889   3.651
 4428SOL    HW214184   5.735   5.973   3.511
 4429SOL     OW14185   2.714   5.953   3.426
 4429SOL    HW114186   2.661   6.002   3.495
 4429SOL    HW214187   2.694   5.855   3.432
 4430SOL     OW14188   5.816   4.163   5.377
 4430SOL    HW114189   5.779   4.209   5.296
 4430SOL    HW214190   5.770   4.197   5.459
 4431SOL     OW14191   4.127   6.699   4.597
 4431SOL    HW114192   4.028   6.691   4.580
 4431SOL    HW214193   4.170   6.747   4.521
 4432SOL     OW14194   0.862   3.861   6.559
 4432SOL    HW114195   0.889   3.948   6.516
 4432SOL    HW214196   0.899   3.785   6.506
 4433SOL     OW14197   0.943   1.102   5.277
 4433SOL    HW114198   0.909   1.013   5.309
 4433SOL    HW214199   0.876   1.173   5.300
 4434SOL     OW14200   0.295   0.340   2.478
 4434SOL    HW114201   0.199   0.316   2.466
 4434SOL    HW214202   0.308   0.378   2.569
 4435SOL     OW14203   2.186   3.929   0.431
 4435SOL    HW114204   2.255   3.857   0.441
 4435SOL    HW214205   2.119   3.902   0.362
 4436SOL     OW14206   4.396   2.451   1.691
 4436SOL    HW114207   4.315   2.510   1.688
 4436SOL    HW214208   4.383   2.373   1.631
 4437SOL     OW14209   6.452   4.323   0.045
 4437SOL    HW114210   6.531   4.263   0.033
 4437SOL    HW214211   6.480   4.418   0.031
 4438SOL     OW14212   3.778   1.096   5.335
 4438SOL    HW114213   3.864   1.129   5.375
 4438SOL    HW214214   3.782   1.105   5.235
 4439SOL     OW14215   2.684   6.208   2.952
 4439SOL    HW114216   2.681   6.306   2.970
 4439SOL    HW214217   2.726   6.161   3.029
 4440SOL     OW14218   1.288   4.367   6.614
 4440SOL    HW114219   1.269   4.423   6.694
 4440SOL    HW214220   1.212   4.375   6.549
 4441SOL     OW14221   6.991   2.123   1.217
 4441SOL    HW114222   0.053   2.153   1.183
 4441SOL    HW214223   6.976   2.160   1.309
 4442SOL     OW14224   2.015   5.437   0.054
 4442SOL    HW114225   2.101   5.431   0.003
 4442SOL    HW214226   2.001   5.352   0.106
 4443SOL     OW14227   0.552   5.534   5.977
 4443SOL    HW114228   0.645   5.550   6.011
 4443SOL    HW214229   0.538   5.588   5.894
 4444SOL     OW14230   5.944   5.370   0.337
 4444SOL    HW114231   6.036   5.395   0.367
 4444SOL    HW214232   5.950   5.318   0.252
 4445SOL     OW14233   0.957   4.465   0.304
 4445SOL    HW114234   0.881   4.474   0.369
 4445SOL    HW214235   1.044   4.469   0.355
 4446SOL     OW14236   4.519   1.817   1.055
 4446SOL    HW114237   4.608   1.775   1.067
 4446SOL    HW214238   4.450   1.763   1.103
 4447SOL     OW14239   4.215   5.797   5.925
 4447SOL    HW114240   4.116   5.792   5.912
 4447SOL    HW214241   4.239   5.885   5.967
 4448SOL     OW14242   3.758   6.492   1.304
 4448SOL    HW114243   3.707   6.567   1.264
 4448SOL    HW214244   3.723   6.473   1.396
 4449SOL     OW14245   3.710   1.541   5.903
 4449SOL    HW114246   3.616   1.520   5.928
 4449SOL    HW214247   3.712   1.627   5.851
 4450SOL     OW14248   2.712   6.538   6.981
 4450SOL    HW114249   2.811   6.537   6.971
 4450SOL    HW214250   2.679   6.632   6.984
 4451SOL     OW14251   4.357   5.209   3.439
 4451SOL    HW114252   4.263   5.236   3.463
 4451SOL    HW214253   4.401   5.167   3.518
 4452SOL     OW14254   4.740   5.766   4.246
 4452SOL    HW114255   4.795   5.849   4.235
 4452SOL    HW214256   4.647   5.783   4.213
 4453SOL     OW14257   6.932   4.757   0.073
 4453SOL    HW114258   6.861   4.695   0.041
 4453SOL    HW214259   6.998   4.707   0.129
 4454SOL     OW14260   1.211   2.971   0.731
 4454SOL    HW114261   1.286   3.031   0.701
 4454SOL    HW214262   1.232   2.877   0.708
 4455SOL     OW14263   1.269   0.269   4.856
 4455SOL    HW114264   1.183   0.300   4.896
 4455SOL    HW214265   1.250   0.200   4.786
 4456SOL     OW14266   2.453   6.854   3.979
 4456SOL    HW114267   2.452   6.953   3.965
 4456SOL    HW214268   2.401   6.809   3.906
 4457SOL     OW14269   1.469   1.501   4.468
 4457SOL    HW114270   1.525   1.544   4.539
 4457SOL    HW214271   1.470   1.402   4.480
 4458SOL     OW14272   1.042   3.424   6.626
 4458SOL    HW114273   1.040   3.496   6.696
 4458SOL    HW214274   0.950   3.411   6.589
 4459SOL     OW14275   0.711   3.324   3.117
 4459SOL    HW114276   0.669   3.248   3.068
 4459SOL    HW214277   0.652   3.352   3.193
 4460SOL     OW14278   0.227   2.445   4.802
 4460SOL    HW114279   0.200   2.398   4.718
 4460SOL    HW214280   0.307   2.400   4.841
 4461SOL     OW14281   1.735   0.473   1.035
 4461SOL    HW114282   1.822   0.426   1.022
 4461SOL    HW214283   1.752   0.572   1.042
 4462SOL     OW14284   6.465   4.290   3.081
 4462SOL    HW114285   6.499   4.197   3.068
 4462SOL    HW214286   6.386   4.305   3.020
 4463SOL     OW14287   5.888   1.573   0.211
 4463SOL    HW114288   5.795   1.584   0.175
 4463SOL    HW214289   5.903   1.639   0.285
 4464SOL     OW14290   0.101   4.122   1.460
 4464SOL    HW114291   0.173   4.139   1.527
 4464SOL    HW214292   0.069   4.028   1.468
 4465SOL     OW14293   3.522   5.248   1.762
 4465SOL    HW114294   3.518   5.166   1.705
 4465SOL    HW214295   3.442   5.251   1.822
 4466SOL     OW14296   0.782   2.531   2.120
 4466SOL    HW114297   0.721   2.568   2.191
 4466SOL    HW214298   0.840   2.460   2.160
 4467SOL     OW14299   5.492   5.129   2.561
 4467SOL    HW114300   5.511   5.204   2.624
 4467SOL    HW214301   5.577   5.084   2.534
 4468SOL     OW14302   1.798   3.194   1.615
 4468SOL    HW114303   1.826   3.169   1.707
 4468SOL    HW214304   1.711   3.149   1.594
 4469SOL     OW14305   2.136   5.677   1.603
 4469SOL    HW114306   2.108   5.730   1.683
 4469SOL    HW214307   2.172   5.738   1.533
 4470SOL     OW14308   0.914   0.121   2.943
 4470SOL    HW114309   0.888   0.092   3.035
 4470SOL    HW214310   0.896   0.047   2.878
 4471SOL     OW14311   1.047   6.701   6.404
 4471SOL    HW114312   0.951   6.727   6.404
 4471SOL    HW214313   1.100   6.768   6.457
 4472SOL     OW14314   1.806   2.514   0.858
 4472SOL    HW114315   1.782   2.609   0.881
 4472SOL    HW214316   1.808   2.459   0.942
 4473SOL     OW14317   0.160   3.602   4.522
 4473SOL    HW114318   0.112   3.516   4.541
 4473SOL    HW214319   0.165   3.656   4.606
 4474SOL     OW14320   3.252   5.946   0.971
 4474SOL    HW114321   3.290   5.888   0.899
 4474SOL    HW214322   3.221   5.889   1.046
 4475SOL     OW14323   0.771   3.916   1.028
 4475SOL    HW114324   0.792   3.976   0.951
 4475SOL    HW214325   0.849   3.911   1.089
 4476SOL     OW14326   5.582   1.182   4.343
 4476SOL    HW114327   5.636   1.186   4.259
 4476SOL    HW214328   5.638   1.214   4.420
 4477SOL     OW14329   0.720   0.885   5.072
 4477SOL    HW114330   0.665   0.802   5.086
 4477SOL    HW214331   0.711   0.915   4.977
 4478SOL     OW14332   1.480   0.058   1.509
 4478SOL    HW114333   1.468   0.065   1.410
 4478SOL    HW214334   1.392   0.074   1.554
 4479SOL     OW14335   1.822   2.161   0.093
 4479SOL    HW114336   1.787   2.121   0.178
 4479SOL    HW214337   1.832   2.089   0.024
 4480SOL     OW14338   0.686   6.802   3.324
 4480SOL    HW114339   0.707   6.774   3.417
 4480SOL    HW214340   0.739   6.884   3.300
 4481SOL     OW14341   1.880   3.834   5.953
 4481SOL    HW114342   1.970   3.864   5.921
 4481SOL    HW214343   1.888   3.799   6.046
 4482SOL     OW14344   1.992   0.004   1.480
 4482SOL    HW114345   2.060   6.958   1.475
 4482SOL    HW214346   1.902   6.991   1.499
 4483SOL     OW14347   1.299   3.641   0.994
 4483SOL    HW114348   1.248   3.588   0.926
 4483SOL    HW214349   1.243   3.655   1.076
 4484SOL     OW14350   2.420   1.224   6.896
 4484SOL    HW114351   2.488   1.257   6.961
 4484SOL    HW214352   2.335   1.275   6.907
 4485SOL     OW14353   6.619   2.501   5.557
 4485SOL    HW114354   6.645   2.597   5.568
 4485SOL    HW214355   6.601   2.482   5.461
 4486SOL     OW14356   4.884   4.849   4.514
 4486SOL    HW114357   4.966   4.840   4.571
 4486SOL    HW214358   4.872   4.765   4.460
 4487SOL     OW14359   0.596   2.678   6.640
 4487SOL    HW114360   0.577   2.632   6.727
 4487SOL    HW214361   0.549   2.766   6.638
 4488SOL     OW14362   0.194   4.096   3.646
 4488SOL    HW114363   0.152   4.185   3.633
 4488SOL    HW214364   0.258   4.100   3.723
 4489SOL     OW14365   3.599   6.389   5.943
 4489SOL    HW114366   3.620   6.369   6.039
 4489SOL    HW214367   3.681   6.421   5.896
 4490SOL     OW14368   5.169   1.379   1.734
 4490SOL    HW114369   5.247   1.319   1.715
 4490SOL    HW214370   5.184   1.428   1.819
 4491SOL     OW14371   1.112   3.146   3.151
 4491SOL    HW114372   1.086   3.197   3.069
 4491SOL    HW214373   1.043   3.158   3.222
 4492SOL     OW14374   7.015   0.964   2.224
 4492SOL    HW114375   7.019   1.047   2.279
 4492SOL    HW214376   6.920   0.937   2.212
 4493SOL     OW14377   5.299   1.435   5.877
 4493SOL    HW114378   5.224   1.497   5.899
 4493SOL    HW214379   5.263   1.343   5.860
 4494SOL     OW14380   1.223   0.500   1.724
 4494SOL    HW114381   1.166   0.529   1.801
 4494SOL    HW214382   1.310   0.550   1.725
 4495SOL     OW14383   4.285   6.638   1.055
 4495SOL    HW114384   4.367   6.581   1.050
 4495SOL    HW214385   4.309   6.733   1.033
 4496SOL     OW14386   2.842   6.226   5.504
 4496SOL    HW114387   2.793   6.141   5.524
 4496SOL    HW214388   2.837   6.287   5.584
 4497SOL     OW14389   3.884   0.949   6.066
 4497SOL    HW114390   3.932   0.862   6.076
 4497SOL    HW214391   3.951   1.023   6.057
 4498SOL     OW14392   0.584   4.792   4.264
 4498SOL    HW114393   0.502   4.735   4.261
 4498SOL    HW214394   0.564   4.883   4.227
 4499SOL     OW14395   5.661   1.314   2.481
 4499SOL    HW114396   5.665   1.402   2.433
 4499SOL    HW214397   5.570   1.274   2.472
 4500SOL     OW14398   4.075   5.921   0.648
 4500SOL    HW114399   4.069   5.857   0.571
 4500SOL    HW214400   4.153   5.982   0.635
 4501SOL     OW14401   5.999   0.726   2.291
 4501SOL    HW114402   5.992   0.826   2.286
 4501SOL    HW214403   6.095   0.699   2.299
 4502SOL     OW14404   0.101   4.053   6.329
 4502SOL    HW114405   0.053   3.979   6.375
 4502SOL    HW214406   0.092   4.042   6.230
 4503SOL     OW14407   3.454   1.626   2.562
 4503SOL    HW114408   3.527   1.567   2.597
 4503SOL    HW214409   3.424   1.593   2.473
 4504SOL     OW14410   0.734   2.403   2.971
 4504SOL    HW114411   0.636   2.411   2.950
 4504SOL    HW214412   0.748   2.414   3.070
 4505SOL     OW14413   5.924   3.269   3.753
 4505SOL    HW114414   6.011   3.302   3.717
 4505SOL    HW214415   5.886   3.336   3.817
 4506SOL     OW14416   5.014   3.585   6.411
 4506SOL    HW114417   4.918   3.606   6.430
 4506SOL    HW214418   5.054   3.536   6.488
 4507SOL     OW14419   6.293   2.220   3.443
 4507SOL    HW114420   6.290   2.164   3.526
 4507SOL    HW214421   6.329   2.165   3.367
 4508SOL     OW14422   0.155   4.794   0.634
 4508SOL    HW114423   0.192   4.773   0.544
 4508SOL    HW214424   0.143   4.709   0.686
 4509SOL     OW14425   5.113   2.341   2.214
 4509SOL    HW114426   5.137   2.256   2.262
 4509SOL    HW214427   5.118   2.417   2.278
 4510SOL     OW14428   4.285   1.518   4.353
 4510SOL    HW114429   4.295   1.423   4.323
 4510SOL    HW214430   4.188   1.540   4.365
 4511SOL     OW14431   6.892   5.208   6.634
 4511SOL    HW114432   6.927   5.127   6.681
 4511SOL    HW214433   6.941   5.289   6.665
 4512SOL     OW14434   3.307   3.051   5.527
 4512SOL    HW114435   3.238   3.092   5.586
 4512SOL    HW214436   3.271   2.967   5.486
 4513SOL     OW14437   0.320   6.914   0.332
 4513SOL    HW114438   0.263   6.934   0.411
 4513SOL    HW214439   0.399   6.976   0.332
 4514SOL     OW14440   4.804   4.772   6.908
 4514SOL    HW114441   4.800   4.721   6.822
 4514SOL    HW214442   4.735   4.844   6.908
 4515SOL     OW14443   4.006   0.804   6.369
 4515SOL    HW114444   3.977   0.755   6.287
 4515SOL    HW214445   3.953   0.888   6.379
 4516SOL     OW14446   3.166   2.699   5.846
 4516SOL    HW114447   3.070   2.727   5.839
 4516SOL    HW214448   3.217   2.739   5.769
 4517SOL     OW14449   4.564   0.931   4.719
 4517SOL    HW114450   4.520   0.842   4.735
 4517SOL    HW214451   4.520   0.976   4.641
 4518SOL     OW14452   0.119   6.442   1.056
 4518SOL    HW114453   0.042   6.493   1.017
 4518SOL    HW214454   0.196   6.504   1.071
 4519SOL     OW14455   4.690   6.760   0.013
 4519SOL    HW114456   4.717   6.785   0.106
 4519SOL    HW214457   4.750   6.687   7.007
 4520SOL     OW14458   4.620   5.378   5.109
 4520SOL    HW114459   4.531   5.415   5.084
 4520SOL    HW214460   4.634   5.289   5.066
 4521SOL     OW14461   4.323   2.311   4.001
 4521SOL    HW114462   4.348   2.214   4.000
 4521SOL    HW214463   4.232   2.321   4.041
 4522SOL     OW14464   5.834   3.801   3.550
 4522SOL    HW114465   5.768   3.788   3.476
 4522SOL    HW214466   5.882   3.714   3.568
 4523SOL     OW14467   6.262   2.786   6.015
 4523SOL    HW114468   6.257   2.847   6.094
 4523SOL    HW214469   6.350   2.799   5.968
 4524SOL     OW14470   1.907   3.861   2.456
 4524SOL    HW114471   1.936   3.766   2.443
 4524SOL    HW214472   1.981   3.912   2.500
 4525SOL     OW14473   3.864   2.592   5.484
 4525SOL    HW114474   3.844   2.543   5.400
 4525SOL    HW214475   3.806   2.558   5.558
 4526SOL     OW14476   1.431   0.228   5.311
 4526SOL    HW114477   1.372   0.278   5.375
 4526SOL    HW214478   1.423   0.269   5.220
 4527SOL     OW14479   0.516   1.610   2.996
 4527SOL    HW114480   0.597   1.662   2.969
 4527SOL    HW214481   0.447   1.672   3.033
 4528SOL     OW14482   5.107   0.351   4.885
 4528SOL    HW114483   5.058   0.299   4.814
 4528SOL    HW214484   5.203   0.323   4.886
 4529SOL     OW14485   1.976   1.924   3.812
 4529SOL    HW114486   1.931   1.836   3.827
 4529SOL    HW214487   2.072   1.917   3.837
 4530SOL     OW14488   3.950   6.066   6.317
 4530SOL    HW114489   3.898   5.981   6.309
 4530SOL    HW214490   4.033   6.060   6.262
 4531SOL     OW14491   1.479   6.342   5.059
 4531SOL    HW114492   1.413   6.406   5.098
 4531SOL    HW214493   1.566   6.352   5.106
 4532SOL     OW14494   6.763   1.528   2.558
 4532SOL    HW114495   6.726   1.567   2.474
 4532SOL    HW214496   6.695   1.467   2.599
 4533SOL     OW14497   2.875   0.207   1.533
 4533SOL    HW114498   2.946   0.182   1.598
 4533SOL    HW214499   2.802   0.138   1.536
 4534SOL     OW14500   5.494   1.787   4.406
 4534SOL    HW114501   5.570   1.725   4.424
 4534SOL    HW214502   5.434   1.748   4.336
 4535SOL     OW14503   1.942   0.185   0.081
 4535SOL    HW114504   2.040   0.187   0.066
 4535SOL    HW214505   1.922   0.200   0.178
 4536SOL     OW14506   3.423   0.534   5.846
 4536SOL    HW114507   3.399   0.607   5.783
 4536SOL    HW214508   3.380   0.551   5.935
 4537SOL     OW14509   2.975   3.265   3.201
 4537SOL    HW114510   2.967   3.208   3.120
 4537SOL    HW214511   2.911   3.234   3.271
 4538SOL     OW14512   0.597   2.326   0.525
 4538SOL    HW114513   0.561   2.234   0.511
 4538SOL    HW214514   0.525   2.393   0.505
 4539SOL     OW14515   1.768   5.521   4.831
 4539SOL    HW114516   1.847   5.525   4.769
 4539SOL    HW214517   1.692   5.572   4.792
 4540SOL     OW14518   1.075   2.086   0.457
 4540SOL    HW114519   1.136   2.058   0.383
 4540SOL    HW214520   1.128   2.109   0.538
 4541SOL     OW14521   4.184   3.239   6.897
 4541SOL    HW114522   4.240   3.264   6.818
 4541SOL    HW214523   4.156   3.143   6.888
 4542SOL     OW14524   0.397   1.576   6.105
 4542SOL    HW114525   0.374   1.590   6.201
 4542SOL    HW214526   0.474   1.635   6.080
 4543SOL     OW14527   3.886   1.940   0.873
 4543SOL    HW114528   3.864   2.006   0.945
 4543SOL    HW214529   3.808   1.878   0.860
 4544SOL     OW14530   4.608   6.776   0.811
 4544SOL    HW114531   4.593   6.815   0.902
 4544SOL    HW214532   4.620   6.850   0.744
 4545SOL     OW14533   2.567   3.154   5.647
 4545SOL    HW114534   2.517   3.085   5.700
 4545SOL    HW214535   2.518   3.173   5.562
 4546SOL     OW14536   3.645   0.185   5.742
 4546SOL    HW114537   3.619   0.277   5.714
 4546SOL    HW214538   3.695   0.190   5.829
 4547SOL     OW14539   0.411   0.236   6.925
 4547SOL    HW114540   0.349   0.158   6.932
 4547SOL    HW214541   0.415   0.267   6.831
 4548SOL     OW14542   3.400   1.304   1.922
 4548SOL    HW114543   3.487   1.278   1.880
 4548SOL    HW214544   3.408   1.394   1.963
 4549SOL     OW14545   0.307   3.669   3.672
 4549SOL    HW114546   0.289   3.584   3.721
 4549SOL    HW214547   0.335   3.649   3.578
 4550SOL     OW14548   1.917   5.839   4.753
 4550SOL    HW114549   1.920   5.784   4.670
 4550SOL    HW214550   1.878   5.785   4.828
 4551SOL     OW14551   2.830   2.453   5.741
 4551SOL    HW114552   2.870   2.479   5.654
 4551SOL    HW214553   2.858   2.360   5.765
 4552SOL     OW14554   4.569   0.846   0.394
 4552SOL    HW114555   4.604   0.792   0.317
 4552SOL    HW214556   4.517   0.924   0.359
 4553SOL     OW14557   0.333   6.185   0.138
 4553SOL    HW114558   0.388   6.231   0.208
 4553SOL    HW214559   0.313   6.092   0.168
 4554SOL     OW14560   5.785   0.188   2.930
 4554SOL    HW114561   5.747   0.170   3.021
 4554SOL    HW214562   5.717   0.163   2.861
 4555SOL     OW14563   0.768   0.890   1.424
 4555SOL    HW114564   0.858   0.879   1.380
 4555SOL    HW214565   0.756   0.820   1.494
 4556SOL     OW14566   5.505   4.658   4.249
 4556SOL    HW114567   5.450   4.656   4.165
 4556SOL    HW214568   5.475   4.584   4.310
 4557SOL     OW14569   0.202   5.088   4.200
 4557SOL    HW114570   0.172   5.041   4.283
 4557SOL    HW214571   0.201   5.024   4.123
 4558SOL     OW14572   1.327   4.015   4.873
 4558SOL    HW114573   1.247   3.974   4.830
 4558SOL    HW214574   1.379   3.945   4.922
 4559SOL     OW14575   6.825   3.113   3.940
 4559SOL    HW114576   6.755   3.071   3.998
 4559SOL    HW214577   6.915   3.075   3.963
 4560SOL     OW14578   5.964   4.435   3.167
 4560SOL    HW114579   5.956   4.413   3.070
 4560SOL    HW214580   5.974   4.534   3.178
 4561SOL     OW14581   4.819   2.468   4.237
 4561SOL    HW114582   4.738   2.434   4.188
 4561SOL    HW214583   4.790   2.535   4.305
 4562SOL     OW14584   3.520   1.278   0.325
 4562SOL    HW114585   3.517   1.302   0.421
 4562SOL    HW214586   3.487   1.355   0.270
 4563SOL     OW14587   0.635   4.341   1.906
 4563SOL    HW114588   0.638   4.389   1.819
 4563SOL    HW214589   0.717   4.285   1.917
 4564SOL     OW14590   2.238   4.075   2.743
 4564SOL    HW114591   2.239   4.039   2.836
 4564SOL    HW214592   2.305   4.148   2.735
 4565SOL     OW14593   1.812   6.709   5.805
 4565SOL    HW114594   1.899   6.674   5.840
 4565SOL    HW214595   1.751   6.632   5.787
 4566SOL     OW14596   6.460   4.520   3.351
 4566SOL    HW114597   6.506   4.533   3.439
 4566SOL    HW214598   6.418   4.429   3.348
 4567SOL     OW14599   0.047   6.865   6.689
 4567SOL    HW114600   0.023   6.892   6.596
 4567SOL    HW214601   0.144   6.883   6.706
 4568SOL     OW14602   1.221   5.148   3.937
 4568SOL    HW114603   1.142   5.204   3.960
 4568SOL    HW214604   1.235   5.079   4.008
 4569SOL     OW14605   2.286   1.800   3.239
 4569SOL    HW114606   2.330   1.823   3.152
 4569SOL    HW214607   2.212   1.865   3.257
 4570SOL     OW14608   5.038   5.280   1.421
 4570SOL    HW114609   5.052   5.354   1.487
 4570SOL    HW214610   5.050   5.316   1.328
 4571SOL     OW14611   2.541   3.778   5.953
 4571SOL    HW114612   2.500   3.729   5.877
 4571SOL    HW214613   2.474   3.841   5.993
 4572SOL     OW14614   3.572   2.783   2.060
 4572SOL    HW114615   3.627   2.806   1.979
 4572SOL    HW214616   3.575   2.685   2.075
 4573SOL     OW14617   2.799   5.064   6.974
 4573SOL    HW114618   2.874   5.099   0.003
 4573SOL    HW214619   2.752   4.991   7.024
 4574SOL     OW14620   5.055   0.704   2.420
 4574SOL    HW114621   4.957   0.721   2.431
 4574SOL    HW214622   5.085   0.638   2.489
 4575SOL     OW14623   0.778   0.591   5.375
 4575SOL    HW114624   0.690   0.571   5.333
 4575SOL    HW214625   0.831   0.506   5.384
 4576SOL     OW14626   3.455   3.613   6.775
 4576SOL    HW114627   3.424   3.591   6.682
 4576SOL    HW214628   3.386   3.671   6.819
 4577SOL     OW14629   0.535   1.680   2.099
 4577SOL    HW114630   0.469   1.745   2.061
 4577SOL    HW214631   0.628   1.710   2.076
 4578SOL     OW14632   1.970   1.217   2.437
 4578SOL    HW114633   1.881   1.202   2.480
 4578SOL    HW214634   2.030   1.267   2.499
 4579SOL     OW14635   4.732   0.860   3.635
 4579SOL    HW114636   4.819   0.886   3.677
 4579SOL    HW214637   4.711   0.765   3.657
 4580SOL     OW14638   0.529   1.239   0.454
 4580SOL    HW114639   0.493   1.157   0.410
 4580SOL    HW214640   0.453   1.296   0.486
 4581SOL     OW14641   2.555   0.698   1.325
 4581SOL    HW114642   2.609   0.725   1.405
 4581SOL    HW214643   2.604   0.722   1.242
 4582SOL     OW14644   0.090   0.757   3.461
 4582SOL    HW114645   0.122   0.749   3.367
 4582SOL    HW214646   0.010   0.817   3.464
 4583SOL     OW14647   1.842   6.966   7.000
 4583SOL    HW114648   1.908   6.901   6.962
 4583SOL    HW214649   1.891   0.011   0.022
 4584SOL     OW14650   0.316   2.062   4.573
 4584SOL    HW114651   0.354   2.101   4.657
 4584SOL    HW214652   0.385   2.007   4.527
 4585SOL     OW14653   1.536   2.645   3.358
 4585SOL    HW114654   1.516   2.743   3.372
 4585SOL    HW214655   1.617   2.636   3.300
 4586SOL     OW14656   6.090   5.109   6.591
 4586SOL    HW114657   6.162   5.166   6.631
 4586SOL    HW214658   6.111   5.092   6.495
 4587SOL     OW14659   4.258   4.008   5.430
 4587SOL    HW114660   4.201   3.992   5.510
 4587SOL    HW214661   4.199   4.028   5.351
 4588SOL     OW14662   3.270   3.824   6.342
 4588SOL    HW114663   3.310   3.763   6.411
 4588SOL    HW214664   3.171   3.827   6.354
 4589SOL     OW14665   5.775   6.247   2.484
 4589SOL    HW114666   5.856   6.189   2.483
 4589SOL    HW214667   5.750   6.271   2.391
 4590SOL     OW14668   3.664   5.535   1.498
 4590SOL    HW114669   3.565   5.546   1.505
 4590SOL    HW214670   3.708   5.575   1.579
 4591SOL     OW14671   2.426   1.145   5.232
 4591SOL    HW114672   2.461   1.208   5.163
 4591SOL    HW214673   2.365   1.194   5.294
 4592SOL     OW14674   2.573   1.516   3.552
 4592SOL    HW114675   2.504   1.486   3.618
 4592SOL    HW214676   2.561   1.467   3.466
 4593SOL     OW14677   1.247   6.184   4.431
 4593SOL    HW114678   1.241   6.208   4.334
 4593SOL    HW214679   1.261   6.086   4.440
 4594SOL     OW14680   2.087   6.502   3.584
 4594SOL    HW114681   2.144   6.420   3.571
 4594SOL    HW214682   2.089   6.528   3.681
 4595SOL     OW14683   5.457   1.824   6.457
 4595SOL    HW114684   5.445   1.923   6.457
 4595SOL    HW214685   5.523   1.798   6.387
 4596SOL     OW14686   1.182   0.840   2.017
 4596SOL    HW114687   1.137   0.923   2.051
 4596SOL    HW214688   1.151   0.821   1.924
 4597SOL     OW14689   2.630   5.871   0.457
 4597SOL    HW114690   2.716   5.910   0.490
 4597SOL    HW214691   2.566   5.944   0.435
 4598SOL     OW14692   0.801   4.231   0.596
 4598SOL    HW114693   0.778   4.233   0.499
 4598SOL    HW214694   0.846   4.317   0.621
 4599SOL     OW14695   3.699   6.758   1.897
 4599SOL    HW114696   3.658   6.775   1.807
 4599SOL    HW214697   3.777   6.696   1.888
 4600SOL     OW14698   0.335   6.926   6.665
 4600SOL    HW114699   0.330   6.838   6.618
 4600SOL    HW214700   0.336   7.000   6.599
 4601SOL     OW14701   1.915   0.307   5.642
 4601SOL    HW114702   1.828   0.258   5.649
 4601SOL    HW214703   1.945   0.335   5.733
 4602SOL     OW14704   3.086   1.850   6.204
 4602SOL    HW114705   3.039   1.936   6.180
 4602SOL    HW214706   3.021   1.789   6.249
 4603SOL     OW14707   3.875   6.714   1.012
 4603SOL    HW114708   3.880   6.812   1.031
 4603SOL    HW214709   3.888   6.663   1.097
 4604SOL     OW14710   6.749   6.722   4.077
 4604SOL    HW114711   6.790   6.777   4.150
 4604SOL    HW214712   6.704   6.643   4.117
 4605SOL     OW14713   3.858   0.405   1.643
 4605SOL    HW114714   3.765   0.424   1.610
 4605SOL    HW214715   3.923   0.464   1.595
 4606SOL     OW14716   0.031   6.746   5.073
 4606SOL    HW114717   0.104   6.714   5.012
 4606SOL    HW214718   6.972   6.748   5.023
 4607SOL     OW14719   1.929   1.808   0.754
 4607SOL    HW114720   1.886   1.749   0.823
 4607SOL    HW214721   1.930   1.902   0.788
 4608SOL     OW14722   0.030   3.094   4.721
 4608SOL    HW114723   0.054   3.082   4.625
 4608SOL    HW214724   7.026   3.007   4.760
 4609SOL     OW14725   5.031   5.570   6.944
 4609SOL    HW114726   5.073   5.518   6.869
 4609SOL    HW214727   4.933   5.549   6.947
 4610SOL     OW14728   5.331   4.976   0.523
 4610SOL    HW114729   5.316   4.881   0.495
 4610SOL    HW214730   5.403   5.017   0.468
 4611SOL     OW14731   7.020   1.204   6.328
 4611SOL    HW114732   0.055   1.276   6.358
 4611SOL    HW214733   0.015   1.177   6.234
 4612SOL     OW14734   2.163   1.320   2.157
 4612SOL    HW114735   2.101   1.373   2.216
 4612SOL    HW214736   2.156   1.223   2.179
 4613SOL     OW14737   1.455   4.693   1.560
 4613SOL    HW114738   1.475   4.623   1.492
 4613SOL    HW214739   1.368   4.671   1.605
 4614SOL     OW14740   6.832   4.490   3.708
 4614SOL    HW114741   6.828   4.590   3.698
 4614SOL    HW214742   6.779   4.463   3.789
 4615SOL     OW14743   1.524   4.244   6.541
 4615SOL    HW114744   1.440   4.293   6.566
 4615SOL    HW214745   1.556   4.276   6.451
 4616SOL     OW14746   0.987   3.473   6.172
 4616SOL    HW114747   0.994   3.511   6.080
 4616SOL    HW214748   0.916   3.403   6.174
 4617SOL     OW14749   0.084   2.599   3.704
 4617SOL    HW114750   0.130   2.519   3.666
 4617SOL    HW214751   0.152   2.662   3.741
 4618SOL     OW14752   1.780   3.678   5.729
 4618SOL    HW114753   1.807   3.748   5.796
 4618SOL    HW214754   1.751   3.595   5.777
 4619SOL     OW14755   4.800   6.267   6.198
 4619SOL    HW114756   4.900   6.268   6.192
 4619SOL    HW214757   4.761   6.264   6.105
 4620SOL     OW14758   0.418   4.745   1.675
 4620SOL    HW114759   0.340   4.807   1.670
 4620SOL    HW214760   0.448   4.722   1.583
 4621SOL     OW14761   3.249   0.351   2.937
 4621SOL    HW114762   3.225   0.258   2.964
 4621SOL    HW214763   3.340   0.352   2.897
 4622SOL     OW14764   5.305   0.113   0.471
 4622SOL    HW114765   5.310   0.017   0.498
 4622SOL    HW214766   5.221   0.154   0.507
 4623SOL     OW14767   2.991   4.952   2.084
 4623SOL    HW114768   3.033   4.941   1.994
 4623SOL    HW214769   2.998   4.865   2.134
 4624SOL     OW14770   4.534   1.553   1.771
 4624SOL    HW114771   4.526   1.637   1.718
 4624SOL    HW214772   4.599   1.566   1.845
 4625SOL     OW14773   1.368   5.740   1.556
 4625SOL    HW114774   1.387   5.651   1.516
 4625SOL    HW214775   1.357   5.808   1.483
 4626SOL     OW14776   3.881   2.949   1.848
 4626SOL    HW114777   3.919   3.006   1.775
 4626SOL    HW214778   3.796   2.907   1.816
 4627SOL     OW14779   5.518   6.840   4.904
 4627SOL    HW114780   5.601   6.863   4.855
 4627SOL    HW214781   5.487   6.749   4.877
 4628SOL     OW14782   5.572   4.539   3.417
 4628SOL    HW114783   5.616   4.450   3.414
 4628SOL    HW214784   5.636   4.609   3.384
 4629SOL     OW14785   1.792   5.594   0.032
 4629SOL    HW114786   1.866   5.536   0.066
 4629SOL    HW214787   1.724   5.607   0.103
 4630SOL     OW14788   2.029   3.543   1.555
 4630SOL    HW114789   2.096   3.579   1.620
 4630SOL    HW214790   2.038   3.443   1.549
 4631SOL     OW14791   6.681   0.807   2.741
 4631SOL    HW114792   6.706   0.712   2.724
 4631SOL    HW214793   6.590   0.811   2.782
 4632SOL     OW14794   2.925   5.018   3.008
 4632SOL    HW114795   2.938   4.945   3.074
 4632SOL    HW214796   2.829   5.023   2.982
 4633SOL     OW14797   5.048   2.613   4.700
 4633SOL    HW114798   5.009   2.558   4.625
 4633SOL    HW214799   4.974   2.646   4.758
 4634SOL     OW14800   4.145   3.611   4.832
 4634SOL    HW114801   4.123   3.520   4.866
 4634SOL    HW214802   4.241   3.614   4.804
 4635SOL     OW14803   4.452   5.807   2.161
 4635SOL    HW114804   4.380   5.859   2.114
 4635SOL    HW214805   4.540   5.850   2.142
 4636SOL     OW14806   1.574   5.195   6.775
 4636SOL    HW114807   1.594   5.267   6.708
 4636SOL    HW214808   1.652   5.133   6.782
 4637SOL     OW14809   2.620   1.992   3.438
 4637SOL    HW114810   2.677   1.984   3.520
 4637SOL    HW214811   2.671   1.957   3.359
 4638SOL     OW14812   4.490   4.768   0.409
 4638SOL    HW114813   4.560   4.783   0.479
 4638SOL    HW214814   4.403   4.744   0.453
 4639SOL     OW14815   3.845   1.973   1.921
 4639SOL    HW114816   3.777   1.947   1.852
 4639SOL    HW214817   3.803   2.037   1.986
 4640SOL     OW14818   6.285   3.221   0.210
 4640SOL    HW114819   6.194   3.261   0.222
 4640SOL    HW214820   6.355   3.292   0.219
 4641SOL     OW14821   1.821   5.426   4.385
 4641SOL    HW114822   1.917   5.419   4.413
 4641SOL    HW214823   1.784   5.334   4.374
 4642SOL     OW14824   6.426   1.258   5.150
 4642SOL    HW114825   6.377   1.222   5.071
 4642SOL    HW214826   6.374   1.334   5.190
 4643SOL     OW14827   0.715   1.597   0.114
 4643SOL    HW114828   0.692   1.520   0.173
 4643SOL    HW214829   0.633   1.652   0.099
 4644SOL     OW14830   1.898   0.366   0.311
 4644SOL    HW114831   1.845   0.450   0.322
 4644SOL    HW214832   1.986   0.377   0.358
 4645SOL     OW14833   6.388   1.717   5.182
 4645SOL    HW114834   6.472   1.712   5.237
 4645SOL    HW214835   6.407   1.764   5.096
 4646SOL     OW14836   2.270   4.097   3.645
 4646SOL    HW114837   2.175   4.070   3.629
 4646SOL    HW214838   2.296   4.072   3.739
 4647SOL     OW14839   1.644   6.509   1.733
 4647SOL    HW114840   1.684   6.419   1.750
 4647SOL    HW214841   1.717   6.577   1.725
 4648SOL     OW14842   2.848   1.196   4.942
 4648SOL    HW114843   2.815   1.110   4.904
 4648SOL    HW214844   2.770   1.255   4.963
 4649SOL     OW14845   6.153   1.429   0.612
 4649SOL    HW114846   6.062   1.412   0.575
 4649SOL    HW214847   6.201   1.341   0.623
 4650SOL     OW14848   4.614   5.962   1.054
 4650SOL    HW114849   4.660   5.967   1.143
 4650SOL    HW214850   4.665   5.901   0.993
 4651SOL     OW14851   0.067   4.019   6.010
 4651SOL    HW114852   7.004   3.978   5.997
 4651SOL    HW214853   0.058   4.118   6.016
 4652SOL     OW14854   0.097   6.862   5.349
 4652SOL    HW114855   0.170   6.802   5.381
 4652SOL    HW214856   0.031   6.808   5.297
 4653SOL     OW14857   0.062   5.816   1.268
 4653SOL    HW114858   0.050   5.756   1.347
 4653SOL    HW214859   0.041   5.911   1.294
 4654SOL     OW14860   0.880   0.415   6.093
 4654SOL    HW114861   0.961   0.469   6.068
 4654SOL    HW214862   0.885   0.390   6.189
 4655SOL     OW14863   5.394   3.526   2.091
 4655SOL    HW114864   5.374   3.505   2.187
 4655SOL    HW214865   5.382   3.443   2.036
 4656SOL     OW14866   6.632   1.230   2.100
 4656SOL    HW114867   6.676   1.256   2.186
 4656SOL    HW214868   6.587   1.141   2.112
 4657SOL     OW14869   3.540   1.515   2.944
 4657SOL    HW114870   3.608   1.532   2.873
 4657SOL    HW214871   3.574   1.447   3.008
 4658SOL     OW14872   1.226   2.199   6.385
 4658SOL    HW114873   1.194   2.136   6.456
 4658SOL    HW214874   1.194   2.169   6.296
 4659SOL     OW14875   2.180   4.410   0.843
 4659SOL    HW114876   2.095   4.454   0.813
 4659SOL    HW214877   2.257   4.450   0.793
 4660SOL     OW14878   1.095   5.413   3.819
 4660SOL    HW114879   1.009   5.365   3.834
 4660SOL    HW214880   1.122   5.462   3.903
 4661SOL     OW14881   0.806   1.536   5.698
 4661SOL    HW114882   0.844   1.456   5.653
 4661SOL    HW214883   0.816   1.616   5.638
 4662SOL     OW14884   2.179   0.072   5.867
 4662SOL    HW114885   2.196   0.168   5.891
 4662SOL    HW214886   2.171   0.063   5.768
 4663SOL     OW14887   1.432   0.356   0.391
 4663SOL    HW114888   1.513   0.298   0.403
 4663SOL    HW214889   1.360   0.326   0.452
 4664SOL     OW14890   5.786   0.036   5.779
 4664SOL    HW114891   5.708   0.078   5.731
 4664SOL    HW214892   5.805   6.973   5.740
 4665SOL     OW14893   0.576   0.456   3.511
 4665SOL    HW114894   0.640   0.508   3.454
 4665SOL    HW214895   0.600   0.468   3.608
 4666SOL     OW14896   1.771   2.196   5.869
 4666SOL    HW114897   1.840   2.204   5.796
 4666SOL    HW214898   1.808   2.142   5.944
 4667SOL     OW14899   6.994   3.381   0.750
 4667SOL    HW114900   6.960   3.290   0.772
 4667SOL    HW214901   0.066   3.376   0.734
 4668SOL     OW14902   5.014   2.192   4.451
 4668SOL    HW114903   5.071   2.112   4.470
 4668SOL    HW214904   5.036   2.228   4.360
 4669SOL     OW14905   5.148   6.977   6.374
 4669SOL    HW114906   5.209   6.985   6.296
 4669SOL    HW214907   5.182   0.008   6.448
 4670SOL     OW14908   0.221   3.343   6.570
 4670SOL    HW114909   0.317   3.367   6.586
 4670SOL    HW214910   0.163   3.405   6.623
 4671SOL     OW14911   0.133   2.979   2.155
 4671SOL    HW114912   0.177   2.894   2.127
 4671SOL    HW214913   0.191   3.025   2.222
 4672SOL     OW14914   3.297   4.062   6.970
 4672SOL    HW114915   3.285   3.967   6.941
 4672SOL    HW214916   3.343   4.114   6.899
 4673SOL     OW14917   5.837   0.882   0.796
 4673SOL    HW114918   5.798   0.885   0.888
 4673SOL    HW214919   5.915   0.944   0.791
 4674SOL     OW14920   0.829   2.712   0.838
 4674SOL    HW114921   0.812   2.798   0.887
 4674SOL    HW214922   0.745   2.683   0.793
 4675SOL     OW14923   2.029   5.383   6.717
 4675SOL    HW114924   2.022   5.371   6.618
 4675SOL    HW214925   2.009   5.296   6.763
 4676SOL     OW14926   0.670   6.267   4.135
 4676SOL    HW114927   0.574   6.247   4.156
 4676SOL    HW214928   0.674   6.340   4.067
 4677SOL     OW14929   3.912   6.817   6.906
 4677SOL    HW114930   3.902   6.911   6.937
 4677SOL    HW214931   3.829   6.788   6.860
 4678SOL     OW14932   2.170   4.308   0.072
 4678SOL    HW114933   2.075   4.283   0.088
 4678SOL    HW214934   2.177   4.362   7.015
 4679SOL     OW14935   2.460   6.818   5.775
 4679SOL    HW114936   2.419   6.728   5.759
 4679SOL    HW214937   2.476   6.863   5.687
 4680SOL     OW14938   1.464   4.698   0.106
 4680SOL    HW114939   1.466   4.610   0.154
 4680SOL    HW214940   1.419   4.767   0.164
 4681SOL     OW14941   6.845   5.780   4.365
 4681SOL    HW114942   6.901   5.782   4.448
 4681SOL    HW214943   6.902   5.751   4.288
 4682SOL     OW14944   3.281   6.288   0.593
 4682SOL    HW114945   3.298   6.191   0.577
 4682SOL    HW214946   3.348   6.323   0.658
 4683SOL     OW14947   7.015   4.768   3.356
 4683SOL    HW114948   0.047   4.737   3.430
 4683SOL    HW214949   6.936   4.708   3.347
 4684SOL     OW14950   1.594   1.652   5.280
 4684SOL    HW114951   1.610   1.562   5.321
 4684SOL    HW214952   1.540   1.642   5.196
 4685SOL     OW14953   4.886   4.551   5.249
 4685SOL    HW114954   4.795   4.586   5.271
 4685SOL    HW214955   4.954   4.622   5.263
 4686SOL     OW14956   5.316   6.246   0.427
 4686SOL    HW114957   5.272   6.324   0.473
 4686SOL    HW214958   5.265   6.224   0.344
 4687SOL     OW14959   5.336   6.613   4.366
 4687SOL    HW114960   5.304   6.570   4.282
 4687SOL    HW214961   5.335   6.712   4.355
 4688SOL     OW14962   0.806   2.086   0.496
 4688SOL    HW114963   0.900   2.114   0.475
 4688SOL    HW214964   0.786   1.999   0.451
 4689SOL     OW14965   1.941   4.960   4.554
 4689SOL    HW114966   1.965   5.057   4.558
 4689SOL    HW214967   1.927   4.925   4.647
 4690SOL     OW14968   1.667   1.546   0.514
 4690SOL    HW114969   1.575   1.554   0.475
 4690SOL    HW214970   1.661   1.540   0.613
 4691SOL     OW14971   3.794   4.617   0.161
 4691SOL    HW114972   3.836   4.590   0.248
 4691SOL    HW214973   3.776   4.715   0.161
 4692SOL     OW14974   0.539   5.904   2.992
 4692SOL    HW114975   0.590   5.893   3.077
 4692SOL    HW214976   0.603   5.907   2.915
 4693SOL     OW14977   0.860   0.788   3.784
 4693SOL    HW114978   0.927   0.794   3.858
 4693SOL    HW214979   0.886   0.715   3.721
 4694SOL     OW14980   0.931   1.242   6.058
 4694SOL    HW114981   0.971   1.320   6.010
 4694SOL    HW214982   0.884   1.273   6.140
 4695SOL     OW14983   2.943   3.055   1.805
 4695SOL    HW114984   3.006   3.122   1.765
 4695SOL    HW214985   2.996   2.981   1.846
 4696SOL     OW14986   5.873   3.721   0.151
 4696SOL    HW114987   5.793   3.715   0.210
 4696SOL    HW214988   5.855   3.785   0.076
 4697SOL     OW14989   1.054   5.377   6.478
 4697SOL    HW114990   1.131   5.379   6.542
 4697SOL    HW214991   1.088   5.366   6.385
 4698SOL     OW14992   5.994   3.604   2.316
 4698SOL    HW114993   6.039   3.630   2.401
 4698SOL    HW214994   6.045   3.530   2.273
 4699SOL     OW14995   6.612   0.031   2.847
 4699SOL    HW114996   6.537   0.097   2.851
 4699SOL    HW214997   6.578   6.967   2.872
 4700SOL     OW14998   5.285   6.807   6.965
 4700SOL    HW114999   5.286   6.877   0.010
 4700SOL    HW215000   5.257   6.849   6.878
 4701SOL     OW15001   0.932   0.941   0.502
 4701SOL    HW115002   0.862   0.871   0.510
 4701SOL    HW215003   0.915   0.997   0.421
 4702SOL     OW15004   2.631   3.527   0.123
 4702SOL    HW115005   2.608   3.483   0.210
 4702SOL    HW215006   2.689   3.467   0.069
 4703SOL     OW15007   1.424   0.759   1.687
 4703SOL    HW115008   1.351   0.811   1.732
 4703SOL    HW215009   1.503   0.819   1.671
 4704SOL     OW15010   4.530   7.001   0.229
 4704SOL    HW115011   4.600   0.018   0.285
 4704SOL    HW215012   4.453   6.974   0.285
 4705SOL     OW15013   3.268   4.007   4.172
 4705SOL    HW115014   3.362   4.042   4.179
 4705SOL    HW215015   3.206   4.070   4.217
 4706SOL     OW15016   4.820   4.970   0.960
 4706SOL    HW115017   4.900   4.963   1.021
 4706SOL    HW215018   4.737   4.973   1.015
 4707SOL     OW15019   3.411   6.190   1.466
 4707SOL    HW115020   3.379   6.252   1.394
 4707SOL    HW215021   3.347   6.192   1.543
 4708SOL     OW15022   1.618   2.886   2.847
 4708SOL    HW115023   1.621   2.983   2.823
 4708SOL    HW215024   1.536   2.867   2.901
 4709SOL     OW15025   2.901   3.909   0.223
 4709SOL    HW115026   2.994   3.876   0.241
 4709SOL    HW215027   2.886   3.994   0.272
 4710SOL     OW15028   5.240   2.741   1.268
 4710SOL    HW115029   5.213   2.666   1.328
 4710SOL    HW215030   5.221   2.716   1.173
 4711SOL     OW15031   2.798   6.750   3.185
 4711SOL    HW115032   2.876   6.789   3.236
 4711SOL    HW215033   2.796   6.789   3.093
 4712SOL     OW15034   1.516   4.331   6.988
 4712SOL    HW115035   1.512   4.231   6.994
 4712SOL    HW215036   1.551   4.368   0.047
 4713SOL     OW15037   2.299   5.736   1.332
 4713SOL    HW115038   2.222   5.774   1.281
 4713SOL    HW215039   2.322   5.646   1.295
 4714SOL     OW15040   2.976   1.979   0.884
 4714SOL    HW115041   3.002   1.991   0.980
 4714SOL    HW215042   2.887   2.022   0.869
 4715SOL     OW15043   5.325   4.215   5.034
 4715SOL    HW115044   5.266   4.276   4.982
 4715SOL    HW215045   5.302   4.120   5.012
 4716SOL     OW15046   2.750   5.118   0.405
 4716SOL    HW115047   2.759   5.079   0.496
 4716SOL    HW215048   2.807   5.200   0.397
 4717SOL     OW15049   1.569   5.542   4.365
 4717SOL    HW115050   1.634   5.477   4.404
 4717SOL    HW215051   1.562   5.622   4.424
 4718SOL     OW15052   5.614   0.967   6.682
 4718SOL    HW115053   5.610   0.964   6.582
 4718SOL    HW215054   5.683   0.903   6.715
 4719SOL     OW15055   4.501   3.215   1.658
 4719SOL    HW115056   4.547   3.144   1.712
 4719SOL    HW215057   4.546   3.303   1.674
 4720SOL     OW15058   2.793   0.874   3.952
 4720SOL    HW115059   2.884   0.909   3.977
 4720SOL    HW215060   2.723   0.926   4.001
 4721SOL     OW15061   1.168   1.689   0.778
 4721SOL    HW115062   1.147   1.780   0.813
 4721SOL    HW215063   1.124   1.676   0.690
 4722SOL     OW15064   3.284   0.761   2.625
 4722SOL    HW115065   3.364   0.724   2.671
 4722SOL    HW215066   3.204   0.704   2.644
 4723SOL     OW15067   2.680   0.035   6.068
 4723SOL    HW115068   2.603   7.004   6.095
 4723SOL    HW215069   2.761   7.005   6.055
 4724SOL     OW15070   4.083   5.132   1.215
 4724SOL    HW115071   4.160   5.083   1.255
 4724SOL    HW215072   4.071   5.219   1.262
 4725SOL     OW15073   5.430   5.188   3.113
 4725SOL    HW115074   5.374   5.137   3.178
 4725SOL    HW215075   5.370   5.231   3.045
 4726SOL     OW15076   0.431   5.823   5.279
 4726SOL    HW115077   0.426   5.760   5.357
 4726SOL    HW215078   0.510   5.799   5.223
 4727SOL     OW15079   6.151   6.492   1.328
 4727SOL    HW115080   6.089   6.414   1.334
 4727SOL    HW215081   6.244   6.460   1.311
 4728SOL     OW15082   0.419   0.472   0.026
 4728SOL    HW115083   0.410   0.381   7.012
 4728SOL    HW215084   0.329   0.515   0.030
 4729SOL     OW15085   2.894   0.306   0.651
 4729SOL    HW115086   2.817   0.331   0.592
 4729SOL    HW215087   2.881   0.346   0.742
 4730SOL     OW15088   2.133   0.768   5.375
 4730SOL    HW115089   2.150   0.842   5.310
 4730SOL    HW215090   2.170   0.682   5.339
 4731SOL     OW15091   6.031   1.941   6.922
 4731SOL    HW115092   6.065   2.016   6.865
 4731SOL    HW215093   5.939   1.916   6.891
 4732SOL     OW15094   0.446   1.679   0.454
 4732SOL    HW115095   0.531   1.720   0.423
 4732SOL    HW215096   0.462   1.627   0.537
 4733SOL     OW15097   6.768   3.319   4.221
 4733SOL    HW115098   6.731   3.227   4.230
 4733SOL    HW215099   6.764   3.366   4.309
 4734SOL     OW15100   4.905   4.318   5.941
 4734SOL    HW115101   4.984   4.282   5.891
 4734SOL    HW215102   4.919   4.415   5.961
 4735SOL     OW15103   0.061   4.638   3.592
 4735SOL    HW115104   0.055   4.538   3.597
 4735SOL    HW215105   0.052   4.677   3.683
 4736SOL     OW15106   2.306   7.026   1.279
 4736SOL    HW115107   2.405   0.001   1.265
 4736SOL    HW215108   2.278   6.936   1.312
 4737SOL     OW15109   3.177   5.221   1.580
 4737SOL    HW115110   3.135   5.237   1.670
 4737SOL    HW215111   3.189   5.123   1.566
 4738SOL     OW15112   6.699   6.204   2.976
 4738SOL    HW115113   6.774   6.269   2.978
 4738SOL    HW215114   6.694   6.155   3.064
 4739SOL     OW15115   4.198   0.019   1.182
 4739SOL    HW115116   4.238   7.010   1.267
 4739SOL    HW215117   4.229   0.113   1.167
 4740SOL     OW15118   0.643   2.533   4.018
 4740SOL    HW115119   0.677   2.511   3.926
 4740SOL    HW215120   0.639   2.633   4.028
 4741SOL     OW15121   3.672   3.565   0.966
 4741SOL    HW115122   3.723   3.536   0.885
 4741SOL    HW215123   3.731   3.559   1.047
 4742SOL     OW15124   4.137   1.004   0.541
 4742SOL    HW115125   4.184   1.020   0.627
 4742SOL    HW215126   4.041   1.029   0.551
 4743SOL     OW15127   1.794   6.070   0.535
 4743SOL    HW115128   1.784   6.097   0.440
 4743SOL    HW215129   1.891   6.052   0.554
 4744SOL     OW15130   1.773   5.680   1.316
 4744SOL    HW115131   1.745   5.716   1.227
 4744SOL    HW215132   1.807   5.587   1.305
 4745SOL     OW15133   1.735   3.249   0.122
 4745SOL    HW115134   1.744   3.231   0.024
 4745SOL    HW215135   1.676   3.329   0.136
 4746SOL     OW15136   5.054   5.581   3.907
 4746SOL    HW115137   4.994   5.592   3.828
 4746SOL    HW215138   5.000   5.561   3.988
 4747SOL     OW15139   2.488   0.894   6.562
 4747SOL    HW115140   2.539   0.973   6.597
 4747SOL    HW215141   2.423   0.863   6.631
 4748SOL     OW15142   2.151   6.802   1.444
 4748SOL    HW115143   2.226   6.756   1.493
 4748SOL    HW215144   2.091   6.733   1.403
 4749SOL     OW15145   2.471   1.853   0.941
 4749SOL    HW115146   2.500   1.940   0.901
 4749SOL    HW215147   2.373   1.841   0.928
 4750SOL     OW15148   4.761   3.173   5.702
 4750SOL    HW115149   4.705   3.092   5.688
 4750SOL    HW215150   4.753   3.203   5.797
 4751SOL     OW15151   4.970   1.420   3.490
 4751SOL    HW115152   4.906   1.348   3.465
 4751SOL    HW215153   4.948   1.454   3.582
 4752SOL     OW15154   5.496   1.205   6.730
 4752SOL    HW115155   5.546   1.129   6.690
 4752SOL    HW215156   5.557   1.284   6.739
 4753SOL     OW15157   3.247   6.792   4.638
 4753SOL    HW115158   3.152   6.776   4.667
 4753SOL    HW215159   3.275   6.884   4.666
 4754SOL     OW15160   4.853   4.633   6.624
 4754SOL    HW115161   4.896   4.687   6.552
 4754SOL    HW215162   4.759   4.610   6.596
 4755SOL     OW15163   0.505   0.957   1.425
 4755SOL    HW115164   0.475   1.034   1.369
 4755SOL    HW215165   0.588   0.918   1.386
 4756SOL     OW15166   6.754   3.866   5.521
 4756SOL    HW115167   6.742   3.950   5.468
 4756SOL    HW215168   6.803   3.886   5.605
 4757SOL     OW15169   2.155   3.598   0.183
 4757SOL    HW115170   2.242   3.631   0.147
 4757SOL    HW215171   2.082   3.618   0.118
 4758SOL     OW15172   2.474   5.754   3.504
 4758SOL    HW115173   2.414   5.702   3.443
 4758SOL    HW215174   2.558   5.703   3.520
 4759SOL     OW15175   0.735   6.562   1.893
 4759SOL    HW115176   0.745   6.647   1.843
 4759SOL    HW215177   0.824   6.516   1.899
 4760SOL     OW15178   1.905   5.674   0.701
 4760SOL    HW115179   1.894   5.754   0.759
 4760SOL    HW215180   1.858   5.688   0.614
 4761SOL     OW15181   5.219   6.997   1.771
 4761SOL    HW115182   5.312   7.003   1.808
 4761SOL    HW215183   5.215   0.018   1.684
 4762SOL     OW15184   1.717   0.248   2.457
 4762SOL    HW115185   1.643   0.304   2.419
 4762SOL    HW215186   1.772   0.210   2.382
 4763SOL     OW15187   5.716   5.683   2.350
 4763SOL    HW115188   5.697   5.781   2.353
 4763SOL    HW215189   5.776   5.663   2.272
 4764SOL     OW15190   5.081   3.044   0.565
 4764SOL    HW115191   5.147   2.977   0.599
 4764SOL    HW215192   4.997   3.038   0.618
 4765SOL     OW15193   4.231   1.760   5.974
 4765SOL    HW115194   4.155   1.701   5.946
 4765SOL    HW215195   4.295   1.769   5.898
 4766SOL     OW15196   1.483   0.922   4.626
 4766SOL    HW115197   1.402   0.918   4.686
 4766SOL    HW215198   1.525   0.832   4.621
 4767SOL     OW15199   2.266   4.513   3.487
 4767SOL    HW115200   2.350   4.528   3.539
 4767SOL    HW215201   2.209   4.595   3.491
 4768SOL     OW15202   4.817   2.588   6.567
 4768SOL    HW115203   4.870   2.609   6.485
 4768SOL    HW215204   4.847   2.647   6.643
 4769SOL     OW15205   1.420   3.069   0.529
 4769SOL    HW115206   1.412   3.167   0.510
 4769SOL    HW215207   1.368   3.017   0.461
 4770SOL     OW15208   0.036   1.456   3.756
 4770SOL    HW115209   0.039   1.413   3.665
 4770SOL    HW215210   0.015   1.553   3.746
 4771SOL     OW15211   1.682   0.208   4.327
 4771SOL    HW115212   1.732   0.289   4.356
 4771SOL    HW215213   1.737   0.157   4.260
 4772SOL     OW15214   2.717   5.370   2.744
 4772SOL    HW115215   2.778   5.311   2.690
 4772SOL    HW215216   2.735   5.465   2.721
 4773SOL     OW15217   2.984   5.153   4.803
 4773SOL    HW115218   3.037   5.148   4.718
 4773SOL    HW215219   3.003   5.240   4.848
 4774SOL     OW15220   0.985   4.312   1.121
 4774SOL    HW115221   1.007   4.389   1.062
 4774SOL    HW215222   1.060   4.246   1.120
 4775SOL     OW15223   6.112   5.438   4.938
 4775SOL    HW115224   6.063   5.520   4.968
 4775SOL    HW215225   6.077   5.359   4.988
 4776SOL     OW15226   0.319   1.516   5.318
 4776SOL    HW115227   0.370   1.471   5.244
 4776SOL    HW215228   0.221   1.501   5.304
 4777SOL     OW15229   1.541   6.835   3.074
 4777SOL    HW115230   1.457   6.782   3.079
 4777SOL    HW215231   1.608   6.799   3.139
 4778SOL     OW15232   1.725   1.087   0.112
 4778SOL    HW115233   1.734   1.070   0.014
 4778SOL    HW215234   1.813   1.070   0.156
 4779SOL     OW15235   5.230   0.621   4.946
 4779SOL    HW115236   5.185   0.708   4.930
 4779SOL    HW215237   5.162   0.550   4.962
 4780SOL     OW15238   4.706   2.789   4.379
 4780SOL    HW115239   4.755   2.820   4.460
 4780SOL    HW215240   4.700   2.864   4.313
 4781SOL     OW15241   1.189   5.040   1.967
 4781SOL    HW115242   1.128   5.083   1.900
 4781SOL    HW215243   1.270   5.097   1.979
 4782SOL     OW15244   6.852   6.400   4.101
 4782SOL    HW115245   6.935   6.443   4.136
 4782SOL    HW215246   6.868   6.368   4.008
 4783SOL     OW15247   6.909   3.541   6.089
 4783SOL    HW115248   6.998   3.586   6.079
 4783SOL    HW215249   6.868   3.529   5.999
 4784SOL     OW15250   5.220   3.260   0.264
 4784SOL    HW115251   5.278   3.260   0.183
 4784SOL    HW215252   5.130   3.225   0.241
 4785SOL     OW15253   0.604   0.375   4.041
 4785SOL    HW115254   0.621   0.394   4.138
 4785SOL    HW215255   0.524   0.426   4.010
 4786SOL     OW15256   0.582   5.898   0.135
 4786SOL    HW115257   0.598   5.811   0.183
 4786SOL    HW215258   0.484   5.920   0.139
 4787SOL     OW15259   4.922   1.315   4.817
 4787SOL    HW115260   4.979   1.389   4.856
 4787SOL    HW215261   4.977   1.262   4.753
 4788SOL     OW15262   0.219   6.262   0.896
 4788SOL    HW115263   0.302   6.316   0.890
 4788SOL    HW215264   0.154   6.307   0.958
 4789SOL     OW15265   6.420   1.133   2.833
 4789SOL    HW115266   6.448   1.075   2.757
 4789SOL    HW215267   6.484   1.122   2.909
 4790SOL     OW15268   0.118   1.835   4.596
 4790SOL    HW115269   0.182   1.883   4.656
 4790SOL    HW215270   0.127   1.871   4.503
 4791SOL     OW15271   0.634   0.171   0.046
 4791SOL    HW115272   0.562   0.191   7.007
 4791SOL    HW215273   0.715   0.227   0.027
 4792SOL     OW15274   1.744   3.552   2.103
 4792SOL    HW115275   1.731   3.460   2.140
 4792SOL    HW215276   1.831   3.555   2.052
 4793SOL     OW15277   1.158   4.239   5.523
 4793SOL    HW115278   1.216   4.308   5.567
 4793SOL    HW215279   1.067   4.276   5.507
 4794SOL     OW15280   4.815   1.857   5.049
 4794SOL    HW115281   4.871   1.774   5.045
 4794SOL    HW215282   4.764   1.867   4.963
 4795SOL     OW15283   6.826   1.304   5.958
 4795SOL    HW115284   6.840   1.292   6.057
 4795SOL    HW215285   6.801   1.399   5.940
 4796SOL     OW15286   4.499   1.453   4.917
 4796SOL    HW115287   4.499   1.358   4.948
 4796SOL    HW215288   4.501   1.514   4.996
 4797SOL     OW15289   2.046   4.803   6.394
 4797SOL    HW115290   1.951   4.781   6.416
 4797SOL    HW215291   2.107   4.756   6.458
 4798SOL     OW15292   3.743   5.905   0.299
 4798SOL    HW115293   3.709   5.895   0.206
 4798SOL    HW215294   3.840   5.928   0.297
 4799SOL     OW15295   4.380   2.540   0.368
 4799SOL    HW115296   4.317   2.542   0.290
 4799SOL    HW215297   4.405   2.445   0.388
 4800SOL     OW15298   0.863   4.451   0.062
 4800SOL    HW115299   0.793   4.380   0.060
 4800SOL    HW215300   0.912   4.448   0.149
 4801SOL     OW15301   5.415   2.051   2.791
 4801SOL    HW115302   5.472   2.005   2.858
 4801SOL    HW215303   5.443   2.147   2.783
 4802SOL     OW15304   6.691   0.086   4.561
 4802SOL    HW115305   6.607   0.080   4.506
 4802SOL    HW215306   6.682   0.160   4.627
 4803SOL     OW15307   5.048   4.160   5.440
 4803SOL    HW115308   5.100   4.245   5.437
 4803SOL    HW215309   5.092   4.091   5.382
 4804SOL     OW15310   4.821   2.031   0.849
 4804SOL    HW115311   4.782   1.941   0.829
 4804SOL    HW215312   4.791   2.097   0.780
 4805SOL     OW15313   5.681   1.379   0.079
 4805SOL    HW115314   5.656   1.455   0.139
 4805SOL    HW215315   5.610   1.308   0.084
 4806SOL     OW15316   1.489   1.516   3.029
 4806SOL    HW115317   1.471   1.432   3.080
 4806SOL    HW215318   1.411   1.577   3.036
 4807SOL     OW15319   6.753   4.218   6.573
 4807SOL    HW115320   6.664   4.261   6.589
 4807SOL    HW215321   6.741   4.119   6.560
 4808SOL     OW15322   3.488   5.808   2.279
 4808SOL    HW115323   3.510   5.711   2.287
 4808SOL    HW215324   3.408   5.829   2.335
 4809SOL     OW15325   3.319   3.788   1.198
 4809SOL    HW115326   3.354   3.794   1.292
 4809SOL    HW215327   3.219   3.795   1.200
 4810SOL     OW15328   1.976   5.550   4.092
 4810SOL    HW115329   1.974   5.648   4.114
 4810SOL    HW215330   1.963   5.497   4.175
 4811SOL     OW15331   3.255   3.455   4.543
 4811SOL    HW115332   3.314   3.375   4.557
 4811SOL    HW215333   3.163   3.424   4.519
 4812SOL     OW15334   1.831   6.607   3.035
 4812SOL    HW115335   1.784   6.585   3.120
 4812SOL    HW215336   1.908   6.544   3.022
 4813SOL     OW15337   0.772   2.415   5.169
 4813SOL    HW115338   0.845   2.346   5.164
 4813SOL    HW215339   0.727   2.409   5.257
 4814SOL     OW15340   6.545   3.468   0.634
 4814SOL    HW115341   6.616   3.405   0.602
 4814SOL    HW215342   6.587   3.548   0.676
 4815SOL     OW15343   6.018   4.589   1.988
 4815SOL    HW115344   6.029   4.522   1.914
 4815SOL    HW215345   5.974   4.671   1.952
 4816SOL     OW15346   3.080   0.569   2.880
 4816SOL    HW115347   3.121   0.659   2.898
 4816SOL    HW215348   3.150   0.498   2.886
 4817SOL     OW15349   4.726   1.989   1.209
 4817SOL    HW115350   4.818   2.016   1.180
 4817SOL    HW215351   4.659   2.025   1.144
 4818SOL     OW15352   4.263   0.270   4.283
 4818SOL    HW115353   4.208   0.310   4.356
 4818SOL    HW215354   4.212   0.272   4.197
 4819SOL     OW15355   2.411   0.817   0.676
 4819SOL    HW115356   2.483   0.882   0.651
 4819SOL    HW215357   2.429   0.779   0.766
 4820SOL     OW15358   6.312   4.073   1.722
 4820SOL    HW115359   6.250   4.151   1.733
 4820SOL    HW215360   6.361   4.081   1.635
 4821SOL     OW15361   0.200   5.877   2.023
 4821SOL    HW115362   0.106   5.899   2.049
 4821SOL    HW215363   0.199   5.814   1.945
 4822SOL     OW15364   0.904   4.085   1.779
 4822SOL    HW115365   0.805   4.098   1.784
 4822SOL    HW215366   0.926   3.987   1.786
 4823SOL     OW15367   0.744   1.281   3.374
 4823SOL    HW115368   0.744   1.318   3.467
 4823SOL    HW215369   0.661   1.311   3.326
 4824SOL     OW15370   5.944   2.701   1.969
 4824SOL    HW115371   5.881   2.773   1.939
 4824SOL    HW215372   5.938   2.623   1.906
 4825SOL     OW15373   0.342   2.926   4.015
 4825SOL    HW115374   0.439   2.926   3.989
 4825SOL    HW215375   0.332   2.965   4.106
 4826SOL     OW15376   6.994   6.489   0.184
 4826SOL    HW115377   7.019   6.550   0.258
 4826SOL    HW215378   6.927   6.534   0.125
 4827SOL     OW15379   4.895   1.711   0.399
 4827SOL    HW115380   4.905   1.615   0.374
 4827SOL    HW215381   4.945   1.768   0.335
 4828SOL     OW15382   5.210   3.733   6.577
 4828SOL    HW115383   5.204   3.695   6.669
 4828SOL    HW215384   5.118   3.747   6.540
 4829SOL     OW15385   3.971   0.262   4.984
 4829SOL    HW115386   4.000   0.193   5.051
 4829SOL    HW215387   3.946   0.346   5.032
 4830SOL     OW15388   4.630   5.678   5.259
 4830SOL    HW115389   4.587   5.621   5.189
 4830SOL    HW215390   4.597   5.650   5.349
 4831SOL     OW15391   5.850   3.451   6.769
 4831SOL    HW115392   5.776   3.503   6.726
 4831SOL    HW215393   5.932   3.458   6.713
 4832SOL     OW15394   1.822   2.623   6.161
 4832SOL    HW115395   1.748   2.683   6.129
 4832SOL    HW215396   1.796   2.528   6.146
 4833SOL     OW15397   6.327   1.769   3.337
 4833SOL    HW115398   6.359   1.744   3.246
 4833SOL    HW215399   6.381   1.722   3.406
 4834SOL     OW15400   5.678   0.568   3.328
 4834SOL    HW115401   5.749   0.527   3.272
 4834SOL    HW215402   5.612   0.615   3.270
 4835SOL     OW15403   1.408   1.042   6.095
 4835SOL    HW115404   1.322   1.008   6.131
 4835SOL    HW215405   1.479   1.034   6.165
 4836SOL     OW15406   5.727   2.799   2.179
 4836SOL    HW115407   5.759   2.893   2.175
 4836SOL    HW215408   5.658   2.784   2.108
 4837SOL     OW15409   0.280   3.869   1.098
 4837SOL    HW115410   0.267   3.954   1.046
 4837SOL    HW215411   0.302   3.891   1.193
 4838SOL     OW15412   2.787   5.172   2.016
 4838SOL    HW115413   2.708   5.119   1.984
 4838SOL    HW215414   2.846   5.114   2.072
 4839SOL     OW15415   0.723   6.626   6.777
 4839SOL    HW115416   0.699   6.555   6.843
 4839SOL    HW215417   0.698   6.596   6.685
 4840SOL     OW15418   6.281   6.629   6.423
 4840SOL    HW115419   6.293   6.531   6.404
 4840SOL    HW215420   6.345   6.681   6.367
 4841SOL     OW15421   2.304   5.466   1.749
 4841SOL    HW115422   2.361   5.521   1.811
 4841SOL    HW215423   2.233   5.524   1.708
 4842SOL     OW15424   3.410   6.399   1.731
 4842SOL    HW115425   3.383   6.476   1.673
 4842SOL    HW215426   3.493   6.357   1.694
 4843SOL     OW15427   1.078   2.679   6.540
 4843SOL    HW115428   0.991   2.718   6.570
 4843SOL    HW215429   1.109   2.727   6.457
 4844SOL     OW15430   0.524   1.711   5.410
 4844SOL    HW115431   0.430   1.677   5.418
 4844SOL    HW215432   0.566   1.673   5.328
 4845SOL     OW15433   5.589   5.319   3.704
 4845SOL    HW115434   5.650   5.398   3.702
 4845SOL    HW215435   5.640   5.239   3.736
 4846SOL     OW15436   0.210   5.300   6.999
 4846SOL    HW115437   0.259   5.217   7.026
 4846SOL    HW215438   0.112   5.288   7.015
 4847SOL     OW15439   5.288   2.718   4.700
 4847SOL    HW115440   5.365   2.669   4.660
 4847SOL    HW215441   5.206   2.661   4.697
 4848SOL     OW15442   2.613   2.021   1.840
 4848SOL    HW115443   2.526   2.017   1.790
 4848SOL    HW215444   2.618   2.107   1.890
 4849SOL     OW15445   1.538   6.194   5.840
 4849SOL    HW115446   1.500   6.163   5.753
 4849SOL    HW215447   1.522   6.293   5.849
 4850SOL     OW15448   3.970   0.252   3.370
 4850SOL    HW115449   3.927   0.273   3.458
 4850SOL    HW215450   3.914   0.186   3.320
 4851SOL     OW15451   5.131   1.165   5.212
 4851SOL    HW115452   5.088   1.116   5.136
 4851SOL    HW215453   5.160   1.100   5.282
 4852SOL     OW15454   1.164   1.768   1.808
 4852SOL    HW115455   1.135   1.703   1.737
 4852SOL    HW215456   1.119   1.856   1.792
 4853SOL     OW15457   3.519   1.809   1.712
 4853SOL    HW115458   3.560   1.894   1.744
 4853SOL    HW215459   3.555   1.787   1.621
 4854SOL     OW15460   3.442   0.123   6.937
 4854SOL    HW115461   3.527   0.100   6.985
 4854SOL    HW215462   3.399   0.202   6.981
 4855SOL     OW15463   6.601   3.464   2.521
 4855SOL    HW115464   6.568   3.556   2.498
 4855SOL    HW215465   6.650   3.468   2.608
 4856SOL     OW15466   1.917   4.238   3.080
 4856SOL    HW115467   1.827   4.194   3.089
 4856SOL    HW215468   1.914   4.328   3.122
 4857SOL     OW15469   0.381   1.297   5.778
 4857SOL    HW115470   0.450   1.228   5.754
 4857SOL    HW215471   0.422   1.388   5.774
 4858SOL     OW15472   1.328   0.566   3.564
 4858SOL    HW115473   1.269   0.631   3.612
 4858SOL    HW215474   1.279   0.526   3.486
 4859SOL     OW15475   3.568   5.880   6.033
 4859SOL    HW115476   3.531   5.882   5.940
 4859SOL    HW215477   3.508   5.827   6.092
 4860SOL     OW15478   4.002   3.794   0.800
 4860SOL    HW115479   3.994   3.738   0.883
 4860SOL    HW215480   3.998   3.735   0.719
 4861SOL     OW15481   5.059   3.804   6.253
 4861SOL    HW115482   5.041   3.720   6.303
 4861SOL    HW215483   5.002   3.807   6.171
 4862SOL     OW15484   0.842   6.464   1.196
 4862SOL    HW115485   0.748   6.489   1.177
 4862SOL    HW215486   0.888   6.438   1.111
 4863SOL     OW15487   5.240   4.692   6.498
 4863SOL    HW115488   5.203   4.645   6.578
 4863SOL    HW215489   5.340   4.686   6.498
 4864SOL     OW15490   3.120   1.170   4.048
 4864SOL    HW115491   3.182   1.124   4.112
 4864SOL    HW215492   3.170   1.192   3.964
 4865SOL     OW15493   1.702   6.630   5.371
 4865SOL    HW115494   1.612   6.670   5.350
 4865SOL    HW215495   1.740   6.676   5.451
 4866SOL     OW15496   6.701   3.952   6.554
 4866SOL    HW115497   6.755   3.904   6.623
 4866SOL    HW215498   6.614   3.905   6.542
 4867SOL     OW15499   4.793   0.842   3.099
 4867SOL    HW115500   4.789   0.866   3.196
 4867SOL    HW215501   4.735   0.762   3.082
 4868SOL     OW15502   6.642   4.538   0.766
 4868SOL    HW115503   6.659   4.624   0.815
 4868SOL    HW215504   6.567   4.489   0.809
 4869SOL     OW15505   0.539   1.242   0.938
 4869SOL    HW115506   0.454   1.243   0.885
 4869SOL    HW215507   0.602   1.175   0.898
 4870SOL     OW15508   0.525   6.778   1.536
 4870SOL    HW115509   0.531   6.678   1.544
 4870SOL    HW215510   0.613   6.813   1.503
 4871SOL     OW15511   1.334   1.195   3.664
 4871SOL    HW115512   1.431   1.173   3.672
 4871SOL    HW215513   1.322   1.294   3.668
 4872SOL     OW15514   5.997   6.497   2.713
 4872SOL    HW115515   5.991   6.581   2.659
 4872SOL    HW215516   5.920   6.438   2.691
 4873SOL     OW15517   6.533   5.374   4.961
 4873SOL    HW115518   6.594   5.342   5.033
 4873SOL    HW215519   6.585   5.390   4.877
 4874SOL     OW15520   4.797   2.890   3.337
 4874SOL    HW115521   4.863   2.939   3.395
 4874SOL    HW215522   4.762   2.811   3.386
 4875SOL     OW15523   6.045   6.231   4.989
 4875SOL    HW115524   6.003   6.140   4.982
 4875SOL    HW215525   5.984   6.292   5.040
 4876SOL     OW15526   0.588   1.080   2.043
 4876SOL    HW115527   0.548   0.989   2.038
 4876SOL    HW215528   0.531   1.145   1.992
 4877SOL     OW15529   6.247   1.452   6.364
 4877SOL    HW115530   6.167   1.512   6.364
 4877SOL    HW215531   6.330   1.507   6.373
 4878SOL     OW15532   6.947   3.578   2.232
 4878SOL    HW115533   6.896   3.656   2.195
 4878SOL    HW215534   0.008   3.610   2.268
 4879SOL     OW15535   5.614   0.803   2.664
 4879SOL    HW115536   5.689   0.791   2.729
 4879SOL    HW215537   5.652   0.828   2.574
 4880SOL     OW15538   6.543   3.257   6.811
 4880SOL    HW115539   6.576   3.168   6.841
 4880SOL    HW215540   6.555   3.266   6.712
 4881SOL     OW15541   1.834   2.744   1.707
 4881SOL    HW115542   1.809   2.722   1.802
 4881SOL    HW215543   1.906   2.813   1.707
 4882SOL     OW15544   5.029   2.457   4.087
 4882SOL    HW115545   5.076   2.546   4.081
 4882SOL    HW215546   4.946   2.467   4.142
 4883SOL     OW15547   5.984   4.743   0.568
 4883SOL    HW115548   5.962   4.684   0.646
 4883SOL    HW215549   5.951   4.836   0.586
 4884SOL     OW15550   2.017   0.806   1.555
 4884SOL    HW115551   1.963   0.818   1.472
 4884SOL    HW215552   2.031   0.896   1.598
 4885SOL     OW15553   1.163   4.166   0.086
 4885SOL    HW115554   1.145   4.186   7.017
 4885SOL    HW215555   1.080   4.128   0.128
 4886SOL     OW15556   3.024   0.763   1.993
 4886SOL    HW115557   2.950   0.752   1.927
 4886SOL    HW215558   3.029   0.681   2.051
 4887SOL     OW15559   5.433   6.534   0.273
 4887SOL    HW115560   5.354   6.530   0.334
 4887SOL    HW215561   5.452   6.443   0.238
 4888SOL     OW15562   4.334   0.289   2.869
 4888SOL    HW115563   4.336   0.232   2.951
 4888SOL    HW215564   4.254   0.265   2.814
 4889SOL     OW15565   6.569   3.439   4.652
 4889SOL    HW115566   6.504   3.428   4.577
 4889SOL    HW215567   6.651   3.386   4.633
 4890SOL     OW15568   6.593   1.373   4.634
 4890SOL    HW115569   6.528   1.429   4.686
 4890SOL    HW215570   6.607   1.414   4.544
 4891SOL     OW15571   2.903   5.028   6.545
 4891SOL    HW115572   2.919   5.122   6.575
 4891SOL    HW215573   2.976   4.999   6.484
 4892SOL     OW15574   4.966   5.152   2.360
 4892SOL    HW115575   4.937   5.057   2.351
 4892SOL    HW215576   4.905   5.199   2.424
 4893SOL     OW15577   0.889   3.007   1.185
 4893SOL    HW115578   0.949   2.965   1.118
 4893SOL    HW215579   0.937   3.081   1.232
 4894SOL     OW15580   5.029   6.620   1.569
 4894SOL    HW115581   5.110   6.594   1.621
 4894SOL    HW215582   4.953   6.559   1.594
 4895SOL     OW15583   0.177   4.533   5.509
 4895SOL    HW115584   0.119   4.587   5.448
 4895SOL    HW215585   0.268   4.523   5.467
 4896SOL     OW15586   2.744   5.044   4.923
 4896SOL    HW115587   2.681   5.112   4.961
 4896SOL    HW215588   2.825   5.091   4.888
 4897SOL     OW15589   1.944   0.785   4.842
 4897SOL    HW115590   1.903   0.694   4.832
 4897SOL    HW215591   1.876   0.847   4.879
 4898SOL     OW15592   4.958   1.546   3.740
 4898SOL    HW115593   4.872   1.594   3.760
 4898SOL    HW215594   5.031   1.612   3.725
 4899SOL     OW15595   6.310   6.623   1.553
 4899SOL    HW115596   6.280   6.656   1.464
 4899SOL    HW215597   6.410   6.618   1.555
 4900SOL     OW15598   4.070   6.150   5.885
 4900SOL    HW115599   4.081   6.104   5.797
 4900SOL    HW215600   3.989   6.113   5.932
 4901SOL     OW15601   1.205   0.579   6.709
 4901SOL    HW115602   1.213   0.506   6.776
 4901SOL    HW215603   1.122   0.566   6.655
 4902SOL     OW15604   2.925   6.996   5.653
 4902SOL    HW115605   3.022   6.977   5.665
 4902SOL    HW215606   2.872   6.939   5.716
 4903SOL     OW15607   5.191   3.490   2.865
 4903SOL    HW115608   5.177   3.392   2.856
 4903SOL    HW215609   5.174   3.535   2.778
 4904SOL     OW15610   1.423   0.129   1.253
 4904SOL    HW115611   1.350   0.082   1.204
 4904SOL    HW215612   1.384   0.204   1.307
 4905SOL     OW15613   2.695   7.026   3.205
 4905SOL    HW115614   2.644   0.033   3.284
 4905SOL    HW215615   2.746   6.944   3.232
 4906SOL     OW15616   5.011   3.759   4.858
 4906SOL    HW115617   5.054   3.729   4.773
 4906SOL    HW215618   4.944   3.691   4.888
 4907SOL     OW15619   4.254   2.199   6.981
 4907SOL    HW115620   4.284   2.155   6.896
 4907SOL    HW215621   4.221   2.291   6.961
 4908SOL     OW15622   3.665   0.130   0.112
 4908SOL    HW115623   3.726   0.070   0.164
 4908SOL    HW215624   3.645   0.212   0.166
 4909SOL     OW15625   5.134   5.142   4.662
 4909SOL    HW115626   5.108   5.136   4.565
 4909SOL    HW215627   5.070   5.202   4.710
 4910SOL     OW15628   4.244   2.372   6.440
 4910SOL    HW115629   4.223   2.279   6.469
 4910SOL    HW215630   4.313   2.411   6.501
 4911SOL     OW15631   6.489   3.981   2.434
 4911SOL    HW115632   6.497   4.024   2.523
 4911SOL    HW215633   6.488   4.051   2.362
 4912SOL     OW15634   5.667   2.628   4.078
 4912SOL    HW115635   5.684   2.582   4.165
 4912SOL    HW215636   5.574   2.606   4.047
 4913SOL     OW15637   0.821   4.037   5.139
 4913SOL    HW115638   0.830   4.016   5.042
 4913SOL    HW215639   0.903   4.084   5.172
 4914SOL     OW15640   4.293   0.618   4.045
 4914SOL    HW115641   4.305   0.632   4.144
 4914SOL    HW215642   4.377   0.580   4.006
 4915SOL     OW15643   3.858   5.205   5.600
 4915SOL    HW115644   3.772   5.248   5.573
 4915SOL    HW215645   3.846   5.159   5.688
 4916SOL     OW15646   5.763   2.215   3.529
 4916SOL    HW115647   5.757   2.294   3.469
 4916SOL    HW215648   5.725   2.238   3.619
 4917SOL     OW15649   3.669   6.829   0.085
 4917SOL    HW115650   3.669   6.729   0.091
 4917SOL    HW215651   3.590   6.859   0.033
 4918SOL     OW15652   5.566   5.031   3.424
 4918SOL    HW115653   5.478   5.076   3.439
 4918SOL    HW215654   5.580   4.961   3.494
 4919SOL     OW15655   3.216   3.625   1.792
 4919SOL    HW115656   3.178   3.589   1.707
 4919SOL    HW215657   3.231   3.724   1.783
 4920SOL     OW15658   5.468   1.816   6.117
 4920SOL    HW115659   5.380   1.799   6.072
 4920SOL    HW215660   5.531   1.741   6.095
 4921SOL     OW15661   0.148   6.782   1.926
 4921SOL    HW115662   0.226   6.822   1.879
 4921SOL    HW215663   0.168   6.776   2.024
 4922SOL     OW15664   3.265   1.400   6.286
 4922SOL    HW115665   3.236   1.318   6.238
 4922SOL    HW215666   3.253   1.479   6.226
 4923SOL     OW15667   3.867   1.312   1.904
 4923SOL    HW115668   3.777   1.333   1.942
 4923SOL    HW215669   3.892   1.383   1.838
 4924SOL     OW15670   2.569   0.900   5.159
 4924SOL    HW115671   2.522   0.986   5.173
 4924SOL    HW215672   2.542   0.834   5.229
 4925SOL     OW15673   5.566   5.859   3.403
 4925SOL    HW115674   5.549   5.769   3.365
 4925SOL    HW215675   5.580   5.925   3.329
 4926SOL     OW15676   5.172   2.993   1.418
 4926SOL    HW115677   5.170   2.898   1.387
 4926SOL    HW215678   5.185   3.054   1.340
 4927SOL     OW15679   2.987   1.419   0.332
 4927SOL    HW115680   2.911   1.356   0.316
 4927SOL    HW215681   3.052   1.378   0.395
 4928SOL     OW15682   6.793   2.365   0.678
 4928SOL    HW115683   6.766   2.427   0.752
 4928SOL    HW215684   6.711   2.330   0.633
 4929SOL     OW15685   0.690   6.327   4.960
 4929SOL    HW115686   0.720   6.330   5.056
 4929SOL    HW215687   0.606   6.273   4.954
 4930SOL     OW15688   5.007   5.811   2.585
 4930SOL    HW115689   5.053   5.779   2.668
 4930SOL    HW215690   4.973   5.732   2.533
 4931SOL     OW15691   6.939   6.997   0.666
 4931SOL    HW115692   6.893   7.017   0.753
 4931SOL    HW215693   6.876   6.948   0.605
 4932SOL     OW15694   3.622   3.089   2.376
 4932SOL    HW115695   3.720   3.078   2.392
 4932SOL    HW215696   3.605   3.101   2.278
 4933SOL     OW15697   1.400   0.191   6.039
 4933SOL    HW115698   1.433   0.271   5.990
 4933SOL    HW215699   1.327   0.217   6.102
 4934SOL     OW15700   3.894   6.574   1.809
 4934SOL    HW115701   3.993   6.558   1.814
 4934SOL    HW215702   3.847   6.515   1.875
 4935SOL     OW15703   0.576   0.995   5.456
 4935SOL    HW115704   0.570   1.038   5.365
 4935SOL    HW215705   0.487   0.958   5.481
 4936SOL     OW15706   4.368   2.262   0.943
 4936SOL    HW115707   4.299   2.205   0.900
 4936SOL    HW215708   4.429   2.205   0.998
 4937SOL     OW15709   4.642   2.785   5.071
 4937SOL    HW115710   4.586   2.702   5.071
 4937SOL    HW215711   4.667   2.808   5.165
 4938SOL     OW15712   3.713   4.706   6.553
 4938SOL    HW115713   3.727   4.616   6.594
 4938SOL    HW215714   3.617   4.718   6.529
 4939SOL     OW15715   4.898   3.471   6.164
 4939SOL    HW115716   4.994   3.489   6.184
 4939SOL    HW215717   4.858   3.550   6.117
 4940SOL     OW15718   2.266   6.726   3.769
 4940SOL    HW115719   2.216   6.651   3.814
 4940SOL    HW215720   2.203   6.779   3.713
 4941SOL     OW15721   5.336   0.588   0.779
 4941SOL    HW115722   5.386   0.578   0.693
 4941SOL    HW215723   5.397   0.622   0.850
 4942SOL     OW15724   4.897   3.251   6.617
 4942SOL    HW115725   4.881   3.164   6.665
 4942SOL    HW215726   4.860   3.245   6.525
 4943SOL     OW15727   5.494   2.819   1.236
 4943SOL    HW115728   5.498   2.919   1.238
 4943SOL    HW215729   5.400   2.789   1.250
 4944SOL     OW15730   2.084   4.245   2.039
 4944SOL    HW115731   2.089   4.169   1.975
 4944SOL    HW215732   1.988   4.264   2.062
 4945SOL     OW15733   6.954   6.251   4.484
 4945SOL    HW115734   6.914   6.339   4.462
 4945SOL    HW215735   6.964   6.196   4.401
 4946SOL     OW15736   0.192   4.312   2.005
 4946SOL    HW115737   0.246   4.386   1.965
 4946SOL    HW215738   0.238   4.225   1.991
 4947SOL     OW15739   6.588   0.318   0.983
 4947SOL    HW115740   6.557   0.287   1.073
 4947SOL    HW215741   6.684   0.293   0.971
 4948SOL     OW15742   2.445   1.280   2.111
 4948SOL    HW115743   2.495   1.366   2.105
 4948SOL    HW215744   2.382   1.273   2.033
 4949SOL     OW15745   5.366   2.462   4.544
 4949SOL    HW115746   5.449   2.491   4.590
 4949SOL    HW215747   5.323   2.387   4.595
 4950SOL     OW15748   3.431   4.944   5.037
 4950SOL    HW115749   3.332   4.930   5.047
 4950SOL    HW215750   3.465   4.995   5.115
 4951SOL     OW15751   4.529   1.878   3.810
 4951SOL    HW115752   4.499   1.930   3.730
 4951SOL    HW215753   4.463   1.890   3.884
 4952SOL     OW15754   0.014   4.695   5.271
 4952SOL    HW115755   0.009   4.768   5.340
 4952SOL    HW215756   7.002   4.728   5.185
 4953SOL     OW15757   1.497   5.014   2.302
 4953SOL    HW115758   1.513   5.090   2.239
 4953SOL    HW215759   1.571   5.009   2.368
 4954SOL     OW15760   6.212   6.474   0.083
 4954SOL    HW115761   6.119   6.510   0.072
 4954SOL    HW215762   6.228   6.453   0.180
 4955SOL     OW15763   1.143   0.757   0.869
 4955SOL    HW115764   1.242   0.740   0.863
 4955SOL    HW215765   1.110   0.786   0.779
 4956SOL     OW15766   6.294   6.522   4.161
 4956SOL    HW115767   6.254   6.613   4.169
 4956SOL    HW215768   6.230   6.462   4.113
 4957SOL     OW15769   2.151   6.232   3.557
 4957SOL    HW115770   2.146   6.222   3.656
 4957SOL    HW215771   2.070   6.191   3.515
 4958SOL     OW15772   0.339   6.705   6.525
 4958SOL    HW115773   0.395   6.630   6.562
 4958SOL    HW215774   0.249   6.669   6.500
 4959SOL     OW15775   0.418   1.202   6.631
 4959SOL    HW115776   0.372   1.140   6.695
 4959SOL    HW215777   0.514   1.174   6.621
 4960SOL     OW15778   4.055   6.827   5.239
 4960SOL    HW115779   4.086   6.733   5.233
 4960SOL    HW215780   3.998   6.849   5.160
 4961SOL     OW15781   4.661   0.990   5.441
 4961SOL    HW115782   4.719   0.909   5.440
 4961SOL    HW215783   4.644   1.020   5.348
 4962SOL     OW15784   6.407   2.268   2.115
 4962SOL    HW115785   6.478   2.324   2.159
 4962SOL    HW215786   6.440   2.239   2.025
 4963SOL     OW15787   6.692   4.808   0.894
 4963SOL    HW115788   6.709   4.862   0.812
 4963SOL    HW215789   6.777   4.766   0.925
 4964SOL     OW15790   3.716   6.635   2.992
 4964SOL    HW115791   3.797   6.604   3.041
 4964SOL    HW215792   3.723   6.733   2.975
 4965SOL     OW15793   0.104   6.219   4.692
 4965SOL    HW115794   0.044   6.199   4.769
 4965SOL    HW215795   0.050   6.249   4.614
 4966SOL     OW15796   4.112   5.815   4.676
 4966SOL    HW115797   4.139   5.817   4.580
 4966SOL    HW215798   4.154   5.736   4.720
 4967SOL     OW15799   5.421   2.093   6.415
 4967SOL    HW115800   5.434   2.120   6.320
 4967SOL    HW215801   5.368   2.164   6.463
 4968SOL     OW15802   5.726   4.373   6.998
 4968SOL    HW115803   5.650   4.391   0.033
 4968SOL    HW215804   5.780   4.456   6.987
 4969SOL     OW15805   0.850   1.908   1.137
 4969SOL    HW115806   0.795   1.908   1.054
 4969SOL    HW215807   0.867   2.003   1.166
 4970SOL     OW15808   1.871   2.985   5.908
 4970SOL    HW115809   1.886   2.983   5.809
 4970SOL    HW215810   1.815   2.906   5.934
 4971SOL     OW15811   0.025   5.385   3.861
 4971SOL    HW115812   7.007   5.305   3.820
 4971SOL    HW215813   0.071   5.437   3.789
 4972SOL     OW15814   1.750   2.335   5.446
 4972SOL    HW115815   1.848   2.345   5.425
 4972SOL    HW215816   1.734   2.358   5.542
 4973SOL     OW15817   5.478   5.792   3.105
 4973SOL    HW115818   5.432   5.862   3.159
 4973SOL    HW215819   5.509   5.831   3.019
 4974SOL     OW15820   4.440   6.669   0.297
 4974SOL    HW115821   4.366   6.733   0.320
 4974SOL    HW215822   4.475   6.628   0.381
 4975SOL     OW15823   4.545   6.252   0.143
 4975SOL    HW115824   4.459   6.284   0.183
 4975SOL    HW215825   4.533   6.238   0.044
 4976SOL     OW15826   2.495   0.753   4.185
 4976SOL    HW115827   2.458   0.708   4.266
 4976SOL    HW215828   2.428   0.748   4.111
 4977SOL     OW15829   2.937   2.809   0.134
 4977SOL    HW115830   2.878   2.787   0.212
 4977SOL    HW215831   3.004   2.878   0.161
 4978SOL     OW15832   6.060   4.138   6.842
 4978SOL    HW115833   6.160   4.136   6.840
 4978SOL    HW215834   6.027   4.219   6.793
 4979SOL     OW15835   2.076   2.642   3.997
 4979SOL    HW115836   2.150   2.580   3.975
 4979SOL    HW215837   2.030   2.612   4.080
 4980SOL     OW15838   2.352   4.862   3.168
 4980SOL    HW115839   2.402   4.795   3.113
 4980SOL    HW215840   2.386   4.954   3.146
 4981SOL     OW15841   4.712   6.504   5.351
 4981SOL    HW115842   4.667   6.415   5.364
 4981SOL    HW215843   4.799   6.490   5.304
 4982SOL     OW15844   2.895   2.037   0.293
 4982SOL    HW115845   2.835   2.114   0.267
 4982SOL    HW215846   2.839   1.957   0.313
 4983SOL     OW15847   6.503   2.927   4.947
 4983SOL    HW115848   6.437   2.854   4.932
 4983SOL    HW215849   6.594   2.896   4.920
 4984SOL     OW15850   4.776   4.385   3.023
 4984SOL    HW115851   4.752   4.410   3.117
 4984SOL    HW215852   4.767   4.286   3.011
 4985SOL     OW15853   5.277   4.223   1.845
 4985SOL    HW115854   5.284   4.312   1.889
 4985SOL    HW215855   5.252   4.235   1.749
 4986SOL     OW15856   4.371   4.576   3.326
 4986SOL    HW115857   4.387   4.670   3.297
 4986SOL    HW215858   4.279   4.567   3.363
 4987SOL     OW15859   0.432   3.401   0.843
 4987SOL    HW115860   0.488   3.322   0.864
 4987SOL    HW215861   0.485   3.467   0.789
 4988SOL     OW15862   1.554   1.957   5.050
 4988SOL    HW115863   1.487   1.962   5.125
 4988SOL    HW215864   1.578   2.049   5.021
 4989SOL     OW15865   0.102   1.013   0.638
 4989SOL    HW115866   0.007   0.987   0.622
 4989SOL    HW215867   0.159   0.930   0.642
 4990SOL     OW15868   1.070   2.575   6.146
 4990SOL    HW115869   0.987   2.596   6.198
 4990SOL    HW215870   1.140   2.541   6.209
 4991SOL     OW15871   2.553   1.861   5.158
 4991SOL    HW115872   2.489   1.822   5.092
 4991SOL    HW215873   2.646   1.830   5.137
 4992SOL     OW15874   4.334   0.565   4.522
 4992SOL    HW115875   4.430   0.541   4.508
 4992SOL    HW215876   4.307   0.635   4.457
 4993SOL     OW15877   1.636   6.341   3.982
 4993SOL    HW115878   1.579   6.269   3.943
 4993SOL    HW215879   1.584   6.390   4.052
 4994SOL     OW15880   0.274   6.669   2.515
 4994SOL    HW115881   0.293   6.724   2.434
 4994SOL    HW215882   0.339   6.691   2.587
 4995SOL     OW15883   6.043   3.002   5.734
 4995SOL    HW115884   5.998   2.913   5.726
 4995SOL    HW215885   5.981   3.074   5.704
 4996SOL     OW15886   0.114   1.915   3.827
 4996SOL    HW115887   0.080   1.847   3.763
 4996SOL    HW215888   0.064   1.908   3.913
 4997SOL     OW15889   0.432   2.278   4.316
 4997SOL    HW115890   0.509   2.340   4.332
 4997SOL    HW215891   0.443   2.234   4.227
 4998SOL     OW15892   1.039   5.363   5.262
 4998SOL    HW115893   1.118   5.348   5.323
 4998SOL    HW215894   1.072   5.378   5.169
 4999SOL     OW15895   6.454   5.057   0.975
 4999SOL    HW115896   6.446   4.959   0.959
 4999SOL    HW215897   6.498   5.072   1.064
 5000SOL     OW15898   0.131   5.387   4.163
 5000SOL    HW115899   0.119   5.295   4.128
 5000SOL    HW215900   0.227   5.415   4.152
 5001SOL     OW15901   4.652   4.710   5.278
 5001SOL    HW115902   4.680   4.764   5.198
 5001SOL    HW215903   4.670   4.763   5.361
 5002SOL     OW15904   2.074   2.261   1.806
 5002SOL    HW115905   2.041   2.202   1.879
 5002SOL    HW215906   2.124   2.207   1.739
 5003SOL     OW15907   6.544   4.934   4.045
 5003SOL    HW115908   6.550   5.032   4.024
 5003SOL    HW215909   6.547   4.921   4.144
 5004SOL     OW15910   3.111   4.215   6.187
 5004SOL    HW115911   3.173   4.213   6.108
 5004SOL    HW215912   3.127   4.133   6.243
 5005SOL     OW15913   4.630   1.831   0.065
 5005SOL    HW115914   4.614   1.740   0.103
 5005SOL    HW215915   4.569   1.845   7.014
 5006SOL     OW15916   5.644   4.592   2.584
 5006SOL    HW115917   5.580   4.615   2.511
 5006SOL    HW215918   5.594   4.560   2.664
 5007SOL     OW15919   3.745   1.432   5.176
 5007SOL    HW115920   3.804   1.510   5.198
 5007SOL    HW215921   3.668   1.463   5.120
 5008SOL     OW15922   6.425   0.717   3.564
 5008SOL    HW115923   6.333   0.714   3.602
 5008SOL    HW215924   6.434   0.647   3.493
 5009SOL     OW15925   1.977   5.857   1.787
 5009SOL    HW115926   1.883   5.823   1.779
 5009SOL    HW215927   1.985   5.944   1.739
 5010SOL     OW15928   3.549   3.093   5.627
 5010SOL    HW115929   3.455   3.091   5.592
 5010SOL    HW215930   3.571   3.005   5.668
 5011SOL     OW15931   1.204   2.565   3.747
 5011SOL    HW115932   1.292   2.610   3.731
 5011SOL    HW215933   1.215   2.466   3.740
 5012SOL     OW15934   5.684   3.012   6.961
 5012SOL    HW115935   5.755   3.036   7.026
 5012SOL    HW215936   5.596   3.002   7.009
 5013SOL     OW15937   4.843   2.347   5.626
 5013SOL    HW115938   4.914   2.338   5.556
 5013SOL    HW215939   4.848   2.268   5.688
 5014SOL     OW15940   6.513   5.874   6.560
 5014SOL    HW115941   6.417   5.847   6.545
 5014SOL    HW215942   6.567   5.850   6.480
 5015SOL     OW15943   5.590   2.065   3.907
 5015SOL    HW115944   5.557   2.019   3.825
 5015SOL    HW215945   5.580   2.164   3.896
 5016SOL     OW15946   2.242   6.408   2.343
 5016SOL    HW115947   2.323   6.383   2.290
 5016SOL    HW215948   2.245   6.363   2.432
 5017SOL     OW15949   1.217   2.088   2.114
 5017SOL    HW115950   1.173   1.998   2.104
 5017SOL    HW215951   1.187   2.130   2.199
 5018SOL     OW15952   7.015   5.135   3.694
 5018SOL    HW115953   6.960   5.150   3.612
 5018SOL    HW215954   7.017   5.038   3.716
 5019SOL     OW15955   2.847   5.385   5.353
 5019SOL    HW115956   2.844   5.287   5.371
 5019SOL    HW215957   2.791   5.433   5.421
 5020SOL     OW15958   4.228   5.109   6.788
 5020SOL    HW115959   4.323   5.135   6.808
 5020SOL    HW215960   4.211   5.118   6.689
 5021SOL     OW15961   2.380   4.127   5.596
 5021SOL    HW115962   2.407   4.157   5.504
 5021SOL    HW215963   2.302   4.181   5.628
 5022SOL     OW15964   2.100   3.928   1.114
 5022SOL    HW115965   2.005   3.909   1.137
 5022SOL    HW215966   2.129   3.868   1.039
 5023SOL     OW15967   6.836   3.019   4.444
 5023SOL    HW115968   6.854   2.947   4.378
 5023SOL    HW215969   6.749   3.002   4.490
 5024SOL     OW15970   5.352   3.533   5.507
 5024SOL    HW115971   5.350   3.553   5.605
 5024SOL    HW215972   5.398   3.446   5.492
 5025SOL     OW15973   6.694   1.073   3.668
 5025SOL    HW115974   6.616   1.127   3.698
 5025SOL    HW215975   6.779   1.119   3.695
 5026SOL     OW15976   0.845   6.324   2.856
 5026SOL    HW115977   0.835   6.267   2.937
 5026SOL    HW215978   0.894   6.408   2.881
 5027SOL     OW15979   0.862   6.278   3.797
 5027SOL    HW115980   0.878   6.202   3.860
 5027SOL    HW215981   0.887   6.364   3.841
 5028SOL     OW15982   0.612   6.937   2.657
 5028SOL    HW115983   0.647   6.886   2.736
 5028SOL    HW215984   0.671   6.921   2.578
 5029SOL     OW15985   6.735   1.534   3.467
 5029SOL    HW115986   6.807   1.602   3.450
 5029SOL    HW215987   6.747   1.457   3.404
 5030SOL     OW15988   2.135   5.758   0.137
 5030SOL    HW115989   2.154   5.681   0.077
 5030SOL    HW215990   2.036   5.775   0.140
 5031SOL     OW15991   5.255   0.996   6.463
 5031SOL    HW115992   5.249   0.971   6.559
 5031SOL    HW215993   5.279   1.092   6.454
 5032SOL     OW15994   1.411   5.889   2.272
 5032SOL    HW115995   1.390   5.914   2.177
 5032SOL    HW215996   1.488   5.944   2.304
 5033SOL     OW15997   0.648   3.811   5.128
 5033SOL    HW115998   0.611   3.808   5.035
 5033SOL    HW215999   0.666   3.906   5.154
 5034SOL     OW16000   6.740   4.102   6.253
 5034SOL    HW116001   6.660   4.095   6.312
 5034SOL    HW216002   6.796   4.180   6.283
 5035SOL     OW16003   6.379   4.590   1.372
 5035SOL    HW116004   6.436   4.655   1.321
 5035SOL    HW216005   6.403   4.497   1.345
 5036SOL     OW16006   1.643   0.526   2.038
 5036SOL    HW116007   1.592   0.511   1.954
 5036SOL    HW216008   1.627   0.620   2.071
 5037SOL     OW16009   4.724   2.780   3.067
 5037SOL    HW116010   4.685   2.852   3.125
 5037SOL    HW216011   4.727   2.811   2.972
 5038SOL     OW16012   2.919   5.662   4.930
 5038SOL    HW116013   2.939   5.627   4.839
 5038SOL    HW216014   2.867   5.594   4.982
 5039SOL     OW16015   1.363   2.099   2.945
 5039SOL    HW116016   1.450   2.080   2.990
 5039SOL    HW216017   1.288   2.063   3.000
 5040SOL     OW16018   3.012   3.711   5.864
 5040SOL    HW116019   2.991   3.638   5.929
 5040SOL    HW216020   2.967   3.795   5.892
 5041SOL     OW16021   0.613   5.764   0.732
 5041SOL    HW116022   0.579   5.804   0.818
 5041SOL    HW216023   0.708   5.790   0.718
 5042SOL     OW16024   5.806   1.591   5.719
 5042SOL    HW116025   5.736   1.521   5.707
 5042SOL    HW216026   5.849   1.612   5.631
 5043SOL     OW16027   4.948   6.778   3.901
 5043SOL    HW116028   4.917   6.873   3.901
 5043SOL    HW216029   4.992   6.757   3.988
 5044SOL     OW16030   5.601   4.724   1.825
 5044SOL    HW116031   5.641   4.699   1.913
 5044SOL    HW216032   5.503   4.702   1.826
 5045SOL     OW16033   5.461   3.639   5.097
 5045SOL    HW116034   5.508   3.621   5.011
 5045SOL    HW216035   5.365   3.613   5.088
 5046SOL     OW16036   3.909   3.513   5.460
 5046SOL    HW116037   3.942   3.473   5.546
 5046SOL    HW216038   3.967   3.590   5.434
 5047SOL     OW16039   0.381   1.874   2.538
 5047SOL    HW116040   0.443   1.864   2.616
 5047SOL    HW216041   0.304   1.810   2.548
 5048SOL     OW16042   5.820   3.816   1.252
 5048SOL    HW116043   5.831   3.762   1.168
 5048SOL    HW216044   5.781   3.758   1.324
 5049SOL     OW16045   0.736   2.016   1.634
 5049SOL    HW116046   0.783   2.064   1.560
 5049SOL    HW216047   0.766   1.920   1.636
 5050SOL     OW16048   1.442   3.668   0.482
 5050SOL    HW116049   1.485   3.693   0.569
 5050SOL    HW216050   1.355   3.622   0.499
 5051SOL     OW16051   2.379   3.519   6.615
 5051SOL    HW116052   2.415   3.469   6.536
 5051SOL    HW216053   2.447   3.584   6.647
 5052SOL     OW16054   5.843   3.174   0.519
 5052SOL    HW116055   5.903   3.148   0.594
 5052SOL    HW216056   5.880   3.139   0.433
 5053SOL     OW16057   1.853   4.286   1.211
 5053SOL    HW116058   1.931   4.253   1.157
 5053SOL    HW216059   1.838   4.225   1.289
 5054SOL     OW16060   4.045   6.118   5.173
 5054SOL    HW116061   4.017   6.194   5.114
 5054SOL    HW216062   4.004   6.033   5.139
 5055SOL     OW16063   1.751   2.092   3.829
 5055SOL    HW116064   1.827   2.028   3.845
 5055SOL    HW216065   1.741   2.108   3.731
 5056SOL     OW16066   3.074   2.271   5.491
 5056SOL    HW116067   3.051   2.189   5.544
 5056SOL    HW216068   3.125   2.244   5.409
 5057SOL     OW16069   0.254   4.214   2.955
 5057SOL    HW116070   0.344   4.222   2.913
 5057SOL    HW216071   0.203   4.299   2.940
 5058SOL     OW16072   3.548   2.124   0.780
 5058SOL    HW116073   3.594   2.107   0.867
 5058SOL    HW216074   3.468   2.182   0.795
 5059SOL     OW16075   4.493   1.914   2.995
 5059SOL    HW116076   4.398   1.883   2.992
 5059SOL    HW216077   4.499   2.000   3.045
 5060SOL     OW16078   6.963   3.316   5.781
 5060SOL    HW116079   6.911   3.401   5.780
 5060SOL    HW216080   7.022   3.313   5.862
 5061SOL     OW16081   4.229   2.573   5.945
 5061SOL    HW116082   4.196   2.668   5.943
 5061SOL    HW216083   4.208   2.532   6.033
 5062SOL     OW16084   5.383   1.099   3.414
 5062SOL    HW116085   5.300   1.146   3.444
 5062SOL    HW216086   5.446   1.090   3.491
 5063SOL     OW16087   1.156   1.200   1.381
 5063SOL    HW116088   1.231   1.238   1.327
 5063SOL    HW216089   1.073   1.255   1.367
 5064SOL     OW16090   5.611   5.168   0.806
 5064SOL    HW116091   5.527   5.210   0.771
 5064SOL    HW216092   5.626   5.081   0.758
 5065SOL     OW16093   2.375   1.384   2.399
 5065SOL    HW116094   2.376   1.340   2.309
 5065SOL    HW216095   2.467   1.414   2.422
 5066SOL     OW16096   1.743   5.405   2.656
 5066SOL    HW116097   1.821   5.419   2.595
 5066SOL    HW216098   1.713   5.310   2.650
 5067SOL     OW16099   5.827   3.210   1.397
 5067SOL    HW116100   5.788   3.119   1.406
 5067SOL    HW216101   5.859   3.242   1.487
 5068SOL     OW16102   1.660   6.178   0.740
 5068SOL    HW116103   1.738   6.237   0.758
 5068SOL    HW216104   1.681   6.116   0.664
 5069SOL     OW16105   4.251   5.751   5.655
 5069SOL    HW116106   4.223   5.669   5.607
 5069SOL    HW216107   4.239   5.738   5.753
 5070SOL     OW16108   5.971   3.282   5.634
 5070SOL    HW116109   5.881   3.295   5.675
 5070SOL    HW216110   6.042   3.287   5.705
 5071SOL     OW16111   2.702   6.541   3.564
 5071SOL    HW116112   2.651   6.607   3.619
 5071SOL    HW216113   2.660   6.450   3.574
 5072SOL     OW16114   0.738   1.128   1.563
 5072SOL    HW116115   0.766   1.093   1.653
 5072SOL    HW216116   0.722   1.051   1.501
 5073SOL     OW16117   1.896   1.045   3.662
 5073SOL    HW116118   1.817   1.099   3.690
 5073SOL    HW216119   1.871   0.949   3.656
 5074SOL     OW16120   3.002   2.190   1.431
 5074SOL    HW116121   3.029   2.097   1.455
 5074SOL    HW216122   3.028   2.252   1.505
 5075SOL     OW16123   6.395   3.004   0.721
 5075SOL    HW116124   6.411   3.094   0.762
 5075SOL    HW216125   6.470   2.982   0.658
 5076SOL     OW16126   0.037   1.051   5.596
 5076SOL    HW116127   0.119   1.052   5.654
 5076SOL    HW216128   7.006   1.129   5.618
 5077SOL     OW16129   0.766   4.586   3.388
 5077SOL    HW116130   0.817   4.652   3.332
 5077SOL    HW216131   0.828   4.512   3.416
 5078SOL     OW16132   6.496   2.343   3.678
 5078SOL    HW116133   6.523   2.313   3.586
 5078SOL    HW216134   6.475   2.263   3.734
 5079SOL     OW16135   1.344   3.537   4.748
 5079SOL    HW116136   1.264   3.581   4.786
 5079SOL    HW216137   1.401   3.500   4.821
 5080SOL     OW16138   5.812   5.817   6.772
 5080SOL    HW116139   5.906   5.823   6.737
 5080SOL    HW216140   5.815   5.798   6.871
 5081SOL     OW16141   2.421   4.407   5.326
 5081SOL    HW116142   2.480   4.327   5.322
 5081SOL    HW216143   2.470   4.487   5.291
 5082SOL     OW16144   5.660   5.799   1.328
 5082SOL    HW116145   5.677   5.705   1.296
 5082SOL    HW216146   5.612   5.797   1.415
 5083SOL     OW16147   2.178   0.232   3.886
 5083SOL    HW116148   2.092   0.274   3.858
 5083SOL    HW216149   2.198   0.154   3.826
 5084SOL     OW16150   3.705   4.299   5.748
 5084SOL    HW116151   3.681   4.223   5.687
 5084SOL    HW216152   3.630   4.364   5.751
 5085SOL     OW16153   0.569   4.749   5.649
 5085SOL    HW116154   0.557   4.651   5.634
 5085SOL    HW216155   0.611   4.790   5.568
 5086SOL     OW16156   1.560   4.752   2.299
 5086SOL    HW116157   1.530   4.706   2.383
 5086SOL    HW216158   1.547   4.851   2.309
 5087SOL     OW16159   0.124   4.975   2.091
 5087SOL    HW116160   0.036   4.927   2.083
 5087SOL    HW216161   0.197   4.908   2.104
 5088SOL     OW16162   4.740   5.333   2.400
 5088SOL    HW116163   4.696   5.318   2.311
 5088SOL    HW216164   4.687   5.399   2.453
 5089SOL     OW16165   5.041   5.919   6.009
 5089SOL    HW116166   5.058   5.959   6.099
 5089SOL    HW216167   5.053   5.989   5.939
 5090SOL     OW16168   2.575   6.539   4.877
 5090SOL    HW116169   2.592   6.450   4.834
 5090SOL    HW216170   2.578   6.611   4.807
 5091SOL     OW16171   6.895   6.370   6.161
 5091SOL    HW116172   6.985   6.375   6.204
 5091SOL    HW216173   6.833   6.320   6.221
 5092SOL     OW16174   3.847   3.629   3.989
 5092SOL    HW116175   3.791   3.569   3.933
 5092SOL    HW216176   3.923   3.577   4.029
 5093SOL     OW16177   2.803   2.266   2.883
 5093SOL    HW116178   2.873   2.232   2.946
 5093SOL    HW216179   2.836   2.259   2.789
 5094SOL     OW16180   1.488   5.756   4.539
 5094SOL    HW116181   1.410   5.818   4.547
 5094SOL    HW216182   1.570   5.807   4.515
 5095SOL     OW16183   7.020   1.211   3.165
 5095SOL    HW116184   0.063   1.209   3.094
 5095SOL    HW216185   0.036   1.222   3.254
 5096SOL     OW16186   6.574   3.191   5.617
 5096SOL    HW116187   6.509   3.122   5.588
 5096SOL    HW216188   6.659   3.182   5.565
 5097SOL     OW16189   0.811   0.557   5.783
 5097SOL    HW116190   0.898   0.511   5.767
 5097SOL    HW216191   0.738   0.510   5.733
 5098SOL     OW16192   3.395   2.774   0.211
 5098SOL    HW116193   3.375   2.828   0.129
 5098SOL    HW216194   3.446   2.692   0.185
 5099SOL     OW16195   1.683   6.291   2.190
 5099SOL    HW116196   1.678   6.327   2.097
 5099SOL    HW216197   1.735   6.355   2.247
 5100SOL     OW16198   5.282   3.257   2.259
 5100SOL    HW116199   5.356   3.197   2.230
 5100SOL    HW216200   5.215   3.267   2.185
 5101SOL     OW16201   3.185   0.555   4.931
 5101SOL    HW116202   3.161   0.633   4.990
 5101SOL    HW216203   3.126   0.478   4.954
 5102SOL     OW16204   5.389   5.179   4.795
 5102SOL    HW116205   5.293   5.158   4.779
 5102SOL    HW216206   5.403   5.204   4.891
 5103SOL     OW16207   1.151   0.306   6.127
 5103SOL    HW116208   1.144   0.402   6.101
 5103SOL    HW216209   1.059   0.268   6.138
 5104SOL     OW16210   3.888   3.259   2.970
 5104SOL    HW116211   3.794   3.260   2.937
 5104SOL    HW216212   3.951   3.263   2.892
 5105SOL     OW16213   4.161   3.081   0.165
 5105SOL    HW116214   4.077   3.128   0.192
 5105SOL    HW216215   4.146   3.032   0.079
 5106SOL     OW16216   3.514   1.696   1.393
 5106SOL    HW116217   3.613   1.712   1.398
 5106SOL    HW216218   3.478   1.734   1.308
 5107SOL     OW16219   6.181   5.068   0.784
 5107SOL    HW116220   6.088   5.068   0.749
 5107SOL    HW216221   6.208   5.162   0.806
 5108SOL     OW16222   3.552   4.857   1.289
 5108SOL    HW116223   3.490   4.893   1.220
 5108SOL    HW216224   3.646   4.886   1.267
 5109SOL     OW16225   1.253   2.918   2.770
 5109SOL    HW116226   1.298   2.850   2.712
 5109SOL    HW216227   1.288   2.911   2.863
 5110SOL     OW16228   4.942   7.013   5.380
 5110SOL    HW116229   4.999   6.931   5.382
 5110SOL    HW216230   4.879   7.007   5.302
 5111SOL     OW16231   1.409   5.482   5.557
 5111SOL    HW116232   1.430   5.417   5.630
 5111SOL    HW216233   1.490   5.535   5.534
 5112SOL     OW16234   1.449   6.124   3.508
 5112SOL    HW116235   1.452   6.223   3.491
 5112SOL    HW216236   1.541   6.086   3.497
 5113SOL     OW16237   1.896   4.273   0.399
 5113SOL    HW116238   1.912   4.370   0.418
 5113SOL    HW216239   1.983   4.224   0.396
 5114SOL     OW16240   4.687   4.698   1.566
 5114SOL    HW116241   4.687   4.796   1.588
 5114SOL    HW216242   4.782   4.666   1.557
 5115SOL     OW16243   1.651   3.916   0.387
 5115SOL    HW116244   1.609   3.832   0.422
 5115SOL    HW216245   1.683   3.972   0.463
 5116SOL     OW16246   0.865   6.765   5.127
 5116SOL    HW116247   0.809   6.685   5.149
 5116SOL    HW216248   0.824   6.813   5.049
 5117SOL     OW16249   0.164   2.310   3.618
 5117SOL    HW116250   0.201   2.218   3.626
 5117SOL    HW216251   0.081   2.308   3.561
 5118SOL     OW16252   4.453   5.687   0.246
 5118SOL    HW116253   4.453   5.590   0.222
 5118SOL    HW216254   4.458   5.742   0.162
 5119SOL     OW16255   5.557   1.744   0.575
 5119SOL    HW116256   5.617   1.664   0.564
 5119SOL    HW216257   5.499   1.731   0.655
 5120SOL     OW16258   5.004   6.791   0.071
 5120SOL    HW116259   4.965   6.728   0.003
 5120SOL    HW216260   5.103   6.783   0.071
 5121SOL     OW16261   1.438   3.377   6.258
 5121SOL    HW116262   1.380   3.372   6.340
 5121SOL    HW216263   1.408   3.454   6.201
 5122SOL     OW16264   4.843   4.726   3.948
 5122SOL    HW116265   4.806   4.700   3.859
 5122SOL    HW216266   4.770   4.723   4.016
 5123SOL     OW16267   4.913   3.019   2.458
 5123SOL    HW116268   5.012   3.030   2.463
 5123SOL    HW216269   4.880   3.053   2.370
 5124SOL     OW16270   1.358   5.818   4.973
 5124SOL    HW116271   1.394   5.907   5.002
 5124SOL    HW216272   1.294   5.783   5.042
 5125SOL     OW16273   6.328   1.846   3.711
 5125SOL    HW116274   6.293   1.797   3.791
 5125SOL    HW216275   6.428   1.841   3.710
 5126SOL     OW16276   2.140   0.955   2.092
 5126SOL    HW116277   2.073   0.889   2.058
 5126SOL    HW216278   2.220   0.955   2.032
 5127SOL     OW16279   2.598   6.088   0.054
 5127SOL    HW116280   2.568   6.034   0.133
 5127SOL    HW216281   2.525   6.151   0.027
 5128SOL     OW16282   5.485   6.973   1.845
 5128SOL    HW116283   5.542   0.021   1.810
 5128SOL    HW216284   5.521   6.886   1.811
 5129SOL     OW16285   6.506   6.569   0.428
 5129SOL    HW116286   6.502   6.489   0.369
 5129SOL    HW216287   6.413   6.597   0.452
 5130SOL     OW16288   6.115   5.166   2.352
 5130SOL    HW116289   6.116   5.253   2.401
 5130SOL    HW216290   6.074   5.179   2.262
 5131SOL     OW16291   1.933   2.437   2.523
 5131SOL    HW116292   1.864   2.371   2.552
 5131SOL    HW216293   1.990   2.462   2.601
 5132SOL     OW16294   2.608   6.121   4.986
 5132SOL    HW116295   2.702   6.143   5.011
 5132SOL    HW216296   2.553   6.111   5.069
 5133SOL     OW16297   3.502   6.003   5.414
 5133SOL    HW116298   3.493   6.039   5.507
 5133SOL    HW216299   3.512   6.079   5.349
 5134SOL     OW16300   6.432   3.663   6.174
 5134SOL    HW116301   6.369   3.612   6.116
 5134SOL    HW216302   6.382   3.733   6.224
 5135SOL     OW16303   6.264   1.298   4.526
 5135SOL    HW116304   6.333   1.253   4.470
 5135SOL    HW216305   6.264   1.256   4.617
 5136SOL     OW16306   3.904   1.985   5.727
 5136SOL    HW116307   3.860   2.066   5.767
 5136SOL    HW216308   3.999   1.980   5.757
 5137SOL     OW16309   3.357   3.343   6.961
 5137SOL    HW116310   3.334   3.385   6.873
 5137SOL    HW216311   3.454   3.319   6.962
 5138SOL     OW16312   2.414   3.421   6.143
 5138SOL    HW116313   2.449   3.513   6.156
 5138SOL    HW216314   2.441   3.364   6.221
 5139SOL     OW16315   0.640   0.001   3.626
 5139SOL    HW116316   0.568   0.051   3.674
 5139SOL    HW216317   0.654   0.041   3.536
 5140SOL     OW16318   3.074   2.797   1.763
 5140SOL    HW116319   2.986   2.762   1.730
 5140SOL    HW216320   3.144   2.783   1.693
 5141SOL     OW16321   0.709   4.204   6.182
 5141SOL    HW116322   0.679   4.259   6.260
 5141SOL    HW216323   0.677   4.247   6.098
 5142SOL     OW16324   6.061   2.785   2.643
 5142SOL    HW116325   6.030   2.852   2.575
 5142SOL    HW216326   6.021   2.807   2.732
 5143SOL     OW16327   6.660   5.246   5.180
 5143SOL    HW116328   6.683   5.310   5.254
 5143SOL    HW216329   6.669   5.152   5.214
 5144SOL     OW16330   1.832   1.475   5.208
 5144SOL    HW116331   1.873   1.490   5.118
 5144SOL    HW216332   1.826   1.562   5.257
 5145SOL     OW16333   3.666   5.250   5.919
 5145SOL    HW116334   3.750   5.302   5.937
 5145SOL    HW216335   3.600   5.266   5.991
 5146SOL     OW16336   2.600   5.113   6.774
 5146SOL    HW116337   2.649   5.176   6.714
 5146SOL    HW216338   2.662   5.079   6.845
 5147SOL     OW16339   6.765   5.442   6.516
 5147SOL    HW116340   6.696   5.449   6.443
 5147SOL    HW216341   6.811   5.353   6.510
 5148SOL     OW16342   0.621   0.628   0.675
 5148SOL    HW116343   0.572   0.611   0.761
 5148SOL    HW216344   0.666   0.718   0.680
 5149SOL     OW16345   0.242   0.718   5.886
 5149SOL    HW116346   0.341   0.722   5.901
 5149SOL    HW216347   0.216   0.626   5.857
 5150SOL     OW16348   2.512   5.672   4.353
 5150SOL    HW116349   2.488   5.681   4.256
 5150SOL    HW216350   2.609   5.692   4.366
 5151SOL     OW16351   4.374   1.030   5.833
 5151SOL    HW116352   4.281   1.054   5.803
 5151SOL    HW216353   4.388   0.932   5.822
 5152SOL     OW16354   0.734   4.814   0.454
 5152SOL    HW116355   0.673   4.886   0.420
 5152SOL    HW216356   0.778   4.845   0.538
 5153SOL     OW16357   1.885   2.101   1.125
 5153SOL    HW116358   1.872   2.005   1.150
 5153SOL    HW216359   1.891   2.109   1.025
 5154SOL     OW16360   1.377   4.206   5.742
 5154SOL    HW116361   1.395   4.148   5.663
 5154SOL    HW216362   1.279   4.208   5.760
 5155SOL     OW16363   3.680   0.737   2.931
 5155SOL    HW116364   3.711   0.644   2.948
 5155SOL    HW216365   3.756   0.793   2.898
 5156SOL     OW16366   5.320   3.044   6.122
 5156SOL    HW116367   5.410   3.085   6.104
 5156SOL    HW216368   5.325   2.986   6.202
 5157SOL     OW16369   6.240   2.421   4.086
 5157SOL    HW116370   6.195   2.447   4.171
 5157SOL    HW216371   6.189   2.346   4.043
 5158SOL     OW16372   3.866   0.392   0.977
 5158SOL    HW116373   3.948   0.446   0.958
 5158SOL    HW216374   3.820   0.429   1.058
 5159SOL     OW16375   2.171   3.475   4.965
 5159SOL    HW116376   2.170   3.402   5.033
 5159SOL    HW216377   2.197   3.561   5.009
 5160SOL     OW16378   1.797   2.711   4.316
 5160SOL    HW116379   1.868   2.641   4.310
 5160SOL    HW216380   1.766   2.719   4.410
 5161SOL     OW16381   1.773   3.279   6.413
 5161SOL    HW116382   1.714   3.278   6.494
 5161SOL    HW216383   1.867   3.297   6.440
 5162SOL     OW16384   6.636   5.162   4.539
 5162SOL    HW116385   6.556   5.210   4.502
 5162SOL    HW216386   6.709   5.161   4.470
 5163SOL     OW16387   5.640   4.173   0.817
 5163SOL    HW116388   5.604   4.118   0.892
 5163SOL    HW216389   5.681   4.113   0.748
 5164SOL     OW16390   5.901   5.684   5.710
 5164SOL    HW116391   5.891   5.699   5.808
 5164SOL    HW216392   5.870   5.592   5.687
 5165SOL     OW16393   6.522   3.946   4.686
 5165SOL    HW116394   6.465   3.960   4.767
 5165SOL    HW216395   6.575   4.028   4.668
 5166SOL     OW16396   1.684   0.041   1.720
 5166SOL    HW116397   1.646   0.060   1.629
 5166SOL    HW216398   1.613   7.026   1.777
 5167SOL     OW16399   1.638   0.424   5.615
 5167SOL    HW116400   1.658   0.458   5.523
 5167SOL    HW216401   1.650   0.498   5.681
 5168SOL     OW16402   4.086   1.898   3.189
 5168SOL    HW116403   4.085   1.805   3.153
 5168SOL    HW216404   4.120   1.961   3.119
 5169SOL     OW16405   4.155   4.333   6.226
 5169SOL    HW116406   4.153   4.432   6.240
 5169SOL    HW216407   4.062   4.301   6.209
 5170SOL     OW16408   4.254   5.268   4.527
 5170SOL    HW116409   4.263   5.169   4.535
 5170SOL    HW216410   4.282   5.311   4.613
 5171SOL     OW16411   2.719   4.791   4.823
 5171SOL    HW116412   2.752   4.878   4.860
 5171SOL    HW216413   2.718   4.722   4.895
 5172SOL     OW16414   1.908   4.556   0.391
 5172SOL    HW116415   1.898   4.591   0.298
 5172SOL    HW216416   2.003   4.569   0.422
 5173SOL     OW16417   6.571   2.752   6.066
 5173SOL    HW116418   6.614   2.662   6.066
 5173SOL    HW216419   6.637   2.821   6.097
 5174SOL     OW16420   1.765   4.627   5.927
 5174SOL    HW116421   1.703   4.698   5.895
 5174SOL    HW216422   1.802   4.576   5.849
 5175SOL     OW16423   0.323   5.375   5.754
 5175SOL    HW116424   0.285   5.461   5.721
 5175SOL    HW216425   0.349   5.386   5.850
 5176SOL     OW16426   5.097   4.184   5.779
 5176SOL    HW116427   5.041   4.210   5.701
 5176SOL    HW216428   5.194   4.193   5.755
 5177SOL     OW16429   5.109   5.631   6.016
 5177SOL    HW116430   5.051   5.559   5.977
 5177SOL    HW216431   5.073   5.721   5.990
 5178SOL     OW16432   2.620   2.158   1.254
 5178SOL    HW116433   2.538   2.174   1.310
 5178SOL    HW216434   2.685   2.233   1.267
 5179SOL     OW16435   3.239   6.177   5.494
 5179SOL    HW116436   3.286   6.254   5.451
 5179SOL    HW216437   3.160   6.151   5.439
 5180SOL     OW16438   3.218   1.598   0.176
 5180SOL    HW116439   3.143   1.532   0.168
 5180SOL    HW216440   3.305   1.549   0.174
 5181SOL     OW16441   2.775   6.087   2.524
 5181SOL    HW116442   2.716   6.127   2.594
 5181SOL    HW216443   2.725   6.084   2.437
 5182SOL     OW16444   4.722   4.209   1.419
 5182SOL    HW116445   4.678   4.244   1.502
 5182SOL    HW216446   4.654   4.165   1.361
 5183SOL     OW16447   3.739   1.091   3.584
 5183SOL    HW116448   3.831   1.089   3.545
 5183SOL    HW216449   3.714   1.000   3.616
 5184SOL     OW16450   0.896   2.188   3.198
 5184SOL    HW116451   0.950   2.117   3.243
 5184SOL    HW216452   0.957   2.254   3.154
 5185SOL     OW16453   3.590   0.185   2.013
 5185SOL    HW116454   3.640   0.207   1.929
 5185SOL    HW216455   3.533   0.104   1.999
 5186SOL     OW16456   5.499   4.916   0.077
 5186SOL    HW116457   5.403   4.917   0.106
 5186SOL    HW216458   5.553   4.863   0.143
 5187SOL     OW16459   5.115   1.541   4.724
 5187SOL    HW116460   5.115   1.624   4.781
 5187SOL    HW216461   5.138   1.565   4.630
 5188SOL     OW16462   1.055   2.859   3.800
 5188SOL    HW116463   1.045   2.799   3.721
 5188SOL    HW216464   1.141   2.840   3.846
 5189SOL     OW16465   4.416   5.785   6.942
 5189SOL    HW116466   4.342   5.723   6.967
 5189SOL    HW216467   4.502   5.751   6.978
 5190SOL     OW16468   2.111   3.043   2.631
 5190SOL    HW116469   2.038   3.019   2.695
 5190SOL    HW216470   2.194   2.992   2.654
 5191SOL     OW16471   5.157   0.409   2.112
 5191SOL    HW116472   5.226   0.374   2.049
 5191SOL    HW216473   5.179   0.504   2.136
 5192SOL     OW16474   6.133   4.241   1.856
 5192SOL    HW116475   6.153   4.266   1.951
 5192SOL    HW216476   6.072   4.311   1.817
 5193SOL     OW16477   4.715   4.179   2.196
 5193SOL    HW116478   4.788   4.124   2.157
 5193SOL    HW216479   4.650   4.206   2.124
 5194SOL     OW16480   5.049   1.281   0.201
 5194SOL    HW116481   5.039   1.201   0.260
 5194SOL    HW216482   5.057   1.251   0.106
 5195SOL     OW16483   6.432   6.360   5.184
 5195SOL    HW116484   6.416   6.368   5.282
 5195SOL    HW216485   6.399   6.442   5.138
 5196SOL     OW16486   0.189   3.672   2.329
 5196SOL    HW116487   0.183   3.613   2.409
 5196SOL    HW216488   0.269   3.649   2.275
 5197SOL     OW16489   3.466   5.574   5.333
 5197SOL    HW116490   3.457   5.541   5.427
 5197SOL    HW216491   3.413   5.659   5.323
 5198SOL     OW16492   4.124   1.063   5.101
 5198SOL    HW116493   4.050   1.126   5.127
 5198SOL    HW216494   4.183   1.046   5.179
 5199SOL     OW16495   0.451   5.671   1.442
 5199SOL    HW116496   0.426   5.581   1.406
 5199SOL    HW216497   0.465   5.665   1.540
 5200SOL     OW16498   0.299   6.869   5.124
 5200SOL    HW116499   0.300   6.943   5.192
 5200SOL    HW216500   0.205   6.836   5.113
 5201SOL     OW16501   5.909   4.859   5.126
 5201SOL    HW116502   6.004   4.834   5.111
 5201SOL    HW216503   5.876   4.817   5.210
 5202SOL     OW16504   3.849   2.978   5.954
 5202SOL    HW116505   3.825   2.881   5.963
 5202SOL    HW216506   3.775   3.034   5.992
 5203SOL     OW16507   1.582   0.117   6.231
 5203SOL    HW116508   1.527   0.132   6.149
 5203SOL    HW216509   1.622   0.026   6.228
 5204SOL     OW16510   2.014   0.717   1.009
 5204SOL    HW116511   2.059   0.689   0.925
 5204SOL    HW216512   2.063   0.679   1.088
 5205SOL     OW16513   6.862   0.339   1.492
 5205SOL    HW116514   6.900   0.418   1.444
 5205SOL    HW216515   6.890   0.255   1.446
 5206SOL     OW16516   1.338   4.165   4.104
 5206SOL    HW116517   1.303   4.256   4.128
 5206SOL    HW216518   1.398   4.133   4.178
 5207SOL     OW16519   5.469   6.571   4.827
 5207SOL    HW116520   5.452   6.496   4.890
 5207SOL    HW216521   5.514   6.537   4.745
 5208SOL     OW16522   6.446   1.896   0.382
 5208SOL    HW116523   6.444   1.938   0.473
 5208SOL    HW216524   6.539   1.898   0.346
 5209SOL     OW16525   5.411   6.506   3.671
 5209SOL    HW116526   5.405   6.567   3.592
 5209SOL    HW216527   5.493   6.527   3.724
 5210SOL     OW16528   5.570   4.623   1.010
 5210SOL    HW116529   5.558   4.583   1.101
 5210SOL    HW216530   5.660   4.666   1.004
 5211SOL     OW16531   5.278   2.976   4.803
 5211SOL    HW116532   5.365   2.998   4.848
 5211SOL    HW216533   5.282   2.882   4.769
 5212SOL     OW16534   0.084   3.939   0.580
 5212SOL    HW116535   0.114   3.955   0.486
 5212SOL    HW216536   0.140   3.994   0.642
 5213SOL     OW16537   4.017   3.291   2.728
 5213SOL    HW116538   3.983   3.202   2.698
 5213SOL    HW216539   4.016   3.354   2.650
 5214SOL     OW16540   5.474   3.031   5.798
 5214SOL    HW116541   5.469   2.961   5.869
 5214SOL    HW216542   5.384   3.072   5.784
 5215SOL     OW16543   6.992   5.189   5.334
 5215SOL    HW116544   6.921   5.258   5.346
 5215SOL    HW216545   7.013   5.180   5.236
 5216SOL     OW16546   5.529   5.042   1.053
 5216SOL    HW116547   5.585   5.098   0.992
 5216SOL    HW216548   5.461   4.992   0.999
 5217SOL     OW16549   4.713   6.941   2.776
 5217SOL    HW116550   4.628   6.989   2.797
 5217SOL    HW216551   4.774   6.944   2.855
 5218SOL     OW16552   6.359   7.000   0.507
 5218SOL    HW116553   6.377   6.915   0.555
 5218SOL    HW216554   6.261   7.021   0.510
 5219SOL     OW16555   3.469   1.294   5.251
 5219SOL    HW116556   3.463   1.371   5.187
 5219SOL    HW216557   3.536   1.314   5.321
 5220SOL     OW16558   2.244   4.808   4.322
 5220SOL    HW116559   2.165   4.769   4.369
 5220SOL    HW216560   2.253   4.765   4.232
 5221SOL     OW16561   5.178   6.023   1.224
 5221SOL    HW116562   5.168   6.024   1.125
 5221SOL    HW216563   5.200   6.115   1.256
 5222SOL     OW16564   0.153   3.404   2.145
 5222SOL    HW116565   0.079   3.469   2.161
 5222SOL    HW216566   0.168   3.350   2.228
 5223SOL     OW16567   6.390   2.885   1.011
 5223SOL    HW116568   6.319   2.930   0.958
 5223SOL    HW216569   6.451   2.953   1.051
 5224SOL     OW16570   1.333   1.829   5.242
 5224SOL    HW116571   1.295   1.831   5.335
 5224SOL    HW216572   1.420   1.779   5.242
 5225SOL     OW16573   6.771   1.938   4.816
 5225SOL    HW116574   6.849   1.900   4.865
 5225SOL    HW216575   6.798   2.023   4.771
 5226SOL     OW16576   0.246   6.180   4.411
 5226SOL    HW116577   0.165   6.218   4.367
 5226SOL    HW216578   0.258   6.221   4.501
 5227SOL     OW16579   0.953   3.410   5.919
 5227SOL    HW116580   0.918   3.500   5.891
 5227SOL    HW216581   0.882   3.341   5.907
 5228SOL     OW16582   1.106   2.007   5.418
 5228SOL    HW116583   1.035   1.997   5.348
 5228SOL    HW216584   1.196   2.015   5.373
 5229SOL     OW16585   3.540   1.983   5.861
 5229SOL    HW116586   3.552   2.080   5.840
 5229SOL    HW216587   3.444   1.966   5.885
 5230SOL     OW16588   6.482   0.461   2.675
 5230SOL    HW116589   6.413   0.395   2.646
 5230SOL    HW216590   6.467   0.485   2.771
 5231SOL     OW16591   6.290   3.801   2.400
 5231SOL    HW116592   6.324   3.746   2.323
 5231SOL    HW216593   6.361   3.866   2.428
 5232SOL     OW16594   1.627   2.401   5.698
 5232SOL    HW116595   1.580   2.487   5.719
 5232SOL    HW216596   1.690   2.379   5.772
 5233SOL     OW16597   3.802   0.047   3.255
 5233SOL    HW116598   3.702   0.047   3.255
 5233SOL    HW216599   3.836   0.052   3.161
 5234SOL     OW16600   2.975   2.704   6.252
 5234SOL    HW116601   3.044   2.749   6.196
 5234SOL    HW216602   2.911   2.654   6.193
 5235SOL     OW16603   2.291   1.857   1.442
 5235SOL    HW116604   2.334   1.872   1.531
 5235SOL    HW216605   2.357   1.875   1.369
 5236SOL     OW16606   3.128   4.954   1.842
 5236SOL    HW116607   3.084   4.868   1.818
 5236SOL    HW216608   3.074   5.030   1.806
 5237SOL     OW16609   1.571   1.698   1.733
 5237SOL    HW116610   1.521   1.664   1.654
 5237SOL    HW216611   1.662   1.729   1.704
 5238SOL     OW16612   6.989   0.312   3.152
 5238SOL    HW116613   0.060   0.302   3.172
 5238SOL    HW216614   6.945   0.364   3.225
 5239SOL     OW16615   2.518   4.276   1.080
 5239SOL    HW116616   2.452   4.338   1.123
 5239SOL    HW216617   2.471   4.224   1.008
 5240SOL     OW16618   2.380   3.949   6.049
 5240SOL    HW116619   2.331   4.023   6.004
 5240SOL    HW216620   2.325   3.913   6.124
 5241SOL     OW16621   2.220   6.727   2.680
 5241SOL    HW116622   2.302   6.773   2.714
 5241SOL    HW216623   2.144   6.746   2.742
 5242SOL     OW16624   3.565   6.904   6.092
 5242SOL    HW116625   3.557   6.808   6.118
 5242SOL    HW216626   3.661   6.931   6.092
 5243SOL     OW16627   2.821   6.019   3.137
 5243SOL    HW116628   2.877   5.957   3.083
 5243SOL    HW216629   2.854   6.021   3.232
 5244SOL     OW16630   4.366   1.104   6.830
 5244SOL    HW116631   4.295   1.039   6.854
 5244SOL    HW216632   4.326   1.193   6.810
 5245SOL     OW16633   3.122   4.074   1.695
 5245SOL    HW116634   3.119   4.014   1.776
 5245SOL    HW216635   3.107   4.169   1.724
 5246SOL     OW16636   5.875   4.185   6.250
 5246SOL    HW116637   5.779   4.183   6.278
 5246SOL    HW216638   5.886   4.131   6.166
 5247SOL     OW16639   5.152   1.571   6.622
 5247SOL    HW116640   5.243   1.574   6.581
 5247SOL    HW216641   5.113   1.663   6.626
 5248SOL     OW16642   5.316   1.229   4.314
 5248SOL    HW116643   5.297   1.154   4.377
 5248SOL    HW216644   5.412   1.256   4.322
 5249SOL     OW16645   0.034   5.079   1.244
 5249SOL    HW116646   0.035   4.984   1.214
 5249SOL    HW216647   7.010   5.086   1.330
 5250SOL     OW16648   2.506   5.422   0.915
 5250SOL    HW116649   2.482   5.403   0.820
 5250SOL    HW216650   2.431   5.472   0.959
 5251SOL     OW16651   0.458   4.832   0.040
 5251SOL    HW116652   0.554   4.855   0.055
 5251SOL    HW216653   0.437   4.746   0.088
 5252SOL     OW16654   3.885   5.574   2.911
 5252SOL    HW116655   3.836   5.603   2.993
 5252SOL    HW216656   3.820   5.541   2.843
 5253SOL     OW16657   0.599   5.918   4.913
 5253SOL    HW116658   0.562   5.901   4.822
 5253SOL    HW216659   0.677   5.858   4.929
 5254SOL     OW16660   4.672   5.801   2.549
 5254SOL    HW116661   4.591   5.846   2.511
 5254SOL    HW216662   4.754   5.838   2.506
 5255SOL     OW16663   6.691   1.718   5.718
 5255SOL    HW116664   6.671   1.676   5.806
 5255SOL    HW216665   6.685   1.648   5.646
 5256SOL     OW16666   5.957   1.716   2.600
 5256SOL    HW116667   6.021   1.684   2.530
 5256SOL    HW216668   5.924   1.807   2.575
 5257SOL     OW16669   4.518   2.249   6.418
 5257SOL    HW116670   4.471   2.335   6.438
 5257SOL    HW216671   4.485   2.212   6.332
 5258SOL     OW16672   4.775   1.525   5.196
 5258SOL    HW116673   4.793   1.438   5.243
 5258SOL    HW216674   4.690   1.518   5.144
 5259SOL     OW16675   5.702   5.109   3.845
 5259SOL    HW116676   5.686   5.109   3.944
 5259SOL    HW216677   5.729   5.018   3.815
 5260SOL     OW16678   2.474   6.007   1.716
 5260SOL    HW116679   2.398   5.961   1.762
 5260SOL    HW216680   2.447   6.030   1.622
 5261SOL     OW16681   5.808   4.846   6.949
 5261SOL    HW116682   5.855   4.889   7.026
 5261SOL    HW216683   5.854   4.869   6.864
 5262SOL     OW16684   1.488   1.165   1.668
 5262SOL    HW116685   1.517   1.091   1.606
 5262SOL    HW216686   1.567   1.224   1.687
 5263SOL     OW16687   2.349   6.445   3.163
 5263SOL    HW116688   2.343   6.545   3.159
 5263SOL    HW216689   2.401   6.412   3.084
 5264SOL     OW16690   6.555   2.632   2.016
 5264SOL    HW116691   6.491   2.571   1.969
 5264SOL    HW216692   6.638   2.642   1.961
 5265SOL     OW16693   6.573   5.853   5.410
 5265SOL    HW116694   6.480   5.817   5.408
 5265SOL    HW216695   6.574   5.945   5.371
 5266SOL     OW16696   1.422   6.771   6.199
 5266SOL    HW116697   1.407   6.723   6.285
 5266SOL    HW216698   1.503   6.829   6.206
 5267SOL     OW16699   5.750   1.921   4.103
 5267SOL    HW116700   5.792   1.857   4.039
 5267SOL    HW216701   5.704   1.994   4.052
 5268SOL     OW16702   5.328   0.036   6.197
 5268SOL    HW116703   5.351   0.039   6.100
 5268SOL    HW216704   5.378   0.107   6.246
 5269SOL     OW16705   1.223   0.363   3.768
 5269SOL    HW116706   1.269   0.433   3.714
 5269SOL    HW216707   1.292   0.306   3.813
 5270SOL     OW16708   0.506   2.122   6.315
 5270SOL    HW116709   0.489   2.218   6.290
 5270SOL    HW216710   0.423   2.083   6.355
 5271SOL     OW16711   1.149   4.777   3.939
 5271SOL    HW116712   1.085   4.852   3.958
 5271SOL    HW216713   1.242   4.806   3.962
 5272SOL     OW16714   4.245   0.669   6.427
 5272SOL    HW116715   4.283   0.700   6.514
 5272SOL    HW216716   4.164   0.722   6.405
 5273SOL     OW16717   3.071   1.836   2.660
 5273SOL    HW116718   3.168   1.862   2.661
 5273SOL    HW216719   3.021   1.895   2.597
 5274SOL     OW16720   5.363   5.107   1.279
 5274SOL    HW116721   5.439   5.078   1.220
 5274SOL    HW216722   5.354   5.043   1.355
 5275SOL     OW16723   5.231   1.751   6.317
 5275SOL    HW116724   5.328   1.749   6.340
 5275SOL    HW216725   5.186   1.824   6.369
 5276SOL     OW16726   4.137   6.409   1.847
 5276SOL    HW116727   4.096   6.317   1.842
 5276SOL    HW216728   4.236   6.401   1.842
 5277SOL     OW16729   2.320   2.752   2.047
 5277SOL    HW116730   2.337   2.779   2.142
 5277SOL    HW216731   2.261   2.820   2.003
 5278SOL     OW16732   3.611   3.537   2.513
 5278SOL    HW116733   3.590   3.603   2.441
 5278SOL    HW216734   3.608   3.582   2.602
 5279SOL     OW16735   1.645   6.186   2.990
 5279SOL    HW116736   1.659   6.236   3.076
 5279SOL    HW216737   1.548   6.192   2.964
 5280SOL     OW16738   3.842   0.797   4.503
 5280SOL    HW116739   3.859   0.753   4.415
 5280SOL    HW216740   3.778   0.741   4.556
 5281SOL     OW16741   6.968   2.464   4.062
 5281SOL    HW116742   6.906   2.521   4.116
 5281SOL    HW216743   0.030   2.508   4.055
 5282SOL     OW16744   5.112   2.108   1.317
 5282SOL    HW116745   5.170   2.041   1.271
 5282SOL    HW216746   5.038   2.136   1.256
 5283SOL     OW16747   4.770   4.469   6.315
 5283SOL    HW116748   4.858   4.510   6.291
 5283SOL    HW216749   4.704   4.485   6.242
 5284SOL     OW16750   4.969   3.030   3.941
 5284SOL    HW116751   5.018   3.112   3.968
 5284SOL    HW216752   4.914   3.050   3.860
 5285SOL     OW16753   4.393   6.544   2.474
 5285SOL    HW116754   4.349   6.621   2.519
 5285SOL    HW216755   4.488   6.538   2.503
 5286SOL     OW16756   2.059   5.041   2.028
 5286SOL    HW116757   1.992   5.001   1.966
 5286SOL    HW216758   2.131   5.086   1.976
 5287SOL     OW16759   0.671   1.185   2.563
 5287SOL    HW116760   0.768   1.167   2.547
 5287SOL    HW216761   0.653   1.178   2.661
 5288SOL     OW16762   4.198   0.573   0.639
 5288SOL    HW116763   4.171   0.658   0.684
 5288SOL    HW216764   4.268   0.593   0.570
 5289SOL     OW16765   1.329   5.918   1.355
 5289SOL    HW116766   1.375   6.002   1.383
 5289SOL    HW216767   1.266   5.938   1.280
 5290SOL     OW16768   5.728   5.972   0.098
 5290SOL    HW116769   5.753   6.019   0.183
 5290SOL    HW216770   5.676   5.890   0.120
 5291SOL     OW16771   1.283   5.665   6.525
 5291SOL    HW116772   1.270   5.736   6.457
 5291SOL    HW216773   1.375   5.671   6.564
 5292SOL     OW16774   5.227   1.456   0.830
 5292SOL    HW116775   5.183   1.543   0.810
 5292SOL    HW216776   5.326   1.469   0.837
 5293SOL     OW16777   1.472   1.679   3.915
 5293SOL    HW116778   1.485   1.659   4.012
 5293SOL    HW216779   1.530   1.619   3.860
 5294SOL     OW16780   4.392   2.739   6.245
 5294SOL    HW116781   4.389   2.710   6.150
 5294SOL    HW216782   4.382   2.659   6.304
 5295SOL     OW16783   6.542   1.277   2.585
 5295SOL    HW116784   6.533   1.177   2.584
 5295SOL    HW216785   6.462   1.318   2.542
 5296SOL     OW16786   0.541   3.132   6.674
 5296SOL    HW116787   0.540   3.096   6.767
 5296SOL    HW216788   0.494   3.220   6.672
 5297SOL     OW16789   1.336   2.856   1.938
 5297SOL    HW116790   1.389   2.840   1.855
 5297SOL    HW216791   1.273   2.779   1.953
 5298SOL     OW16792   1.077   4.414   1.750
 5298SOL    HW116793   0.993   4.393   1.800
 5298SOL    HW216794   1.148   4.348   1.773
 5299SOL     OW16795   2.919   0.199   1.058
 5299SOL    HW116796   2.943   0.118   1.005
 5299SOL    HW216797   2.943   0.184   1.154
 5300SOL     OW16798   0.513   5.127   3.789
 5300SOL    HW116799   0.434   5.162   3.739
 5300SOL    HW216800   0.497   5.140   3.887
 5301SOL     OW16801   4.248   0.344   0.014
 5301SOL    HW116802   4.339   0.304   0.006
 5301SOL    HW216803   4.179   0.272   0.008
 5302SOL     OW16804   6.264   3.968   3.322
 5302SOL    HW116805   6.280   3.929   3.232
 5302SOL    HW216806   6.235   4.063   3.313
 5303SOL     OW16807   1.949   4.998   3.461
 5303SOL    HW116808   1.853   5.002   3.433
 5303SOL    HW216809   2.007   5.000   3.379
 5304SOL     OW16810   4.587   2.937   5.740
 5304SOL    HW116811   4.487   2.933   5.738
 5304SOL    HW216812   4.624   2.872   5.673
 5305SOL     OW16813   2.866   1.257   4.076
 5305SOL    HW116814   2.846   1.327   4.007
 5305SOL    HW216815   2.958   1.221   4.061
 5306SOL     OW16816   2.374   6.462   4.515
 5306SOL    HW116817   2.312   6.536   4.491
 5306SOL    HW216818   2.331   6.402   4.583
 5307SOL     OW16819   4.039   0.097   0.149
 5307SOL    HW116820   4.013   0.172   0.209
 5307SOL    HW216821   3.993   0.013   0.177
 5308SOL     OW16822   6.579   1.697   1.955
 5308SOL    HW116823   6.620   1.780   1.991
 5308SOL    HW216824   6.633   1.617   1.983
 5309SOL     OW16825   3.743   3.717   4.789
 5309SOL    HW116826   3.785   3.626   4.789
 5309SOL    HW216827   3.661   3.715   4.848
 5310SOL     OW16828   5.694   2.912   0.849
 5310SOL    HW116829   5.789   2.897   0.823
 5310SOL    HW216830   5.651   2.974   0.782
 5311SOL     OW16831   0.449   6.213   6.563
 5311SOL    HW116832   0.445   6.138   6.629
 5311SOL    HW216833   0.370   6.207   6.502
 5312SOL     OW16834   0.763   3.039   2.111
 5312SOL    HW116835   0.703   3.082   2.043
 5312SOL    HW216836   0.859   3.059   2.089
 5313SOL     OW16837   0.642   6.321   0.881
 5313SOL    HW116838   0.588   6.317   0.965
 5313SOL    HW216839   0.630   6.410   0.838
 5314SOL     OW16840   3.550   5.190   1.312
 5314SOL    HW116841   3.563   5.136   1.229
 5314SOL    HW216842   3.623   5.258   1.320
 5315SOL     OW16843   5.502   2.417   1.994
 5315SOL    HW116844   5.532   2.393   1.901
 5315SOL    HW216845   5.435   2.350   2.025
 5316SOL     OW16846   5.799   5.428   4.084
 5316SOL    HW116847   5.833   5.422   3.991
 5316SOL    HW216848   5.784   5.523   4.109
 5317SOL     OW16849   6.625   5.538   2.214
 5317SOL    HW116850   6.606   5.581   2.126
 5317SOL    HW216851   6.677   5.600   2.272
 5318SOL     OW16852   0.359   2.708   4.299
 5318SOL    HW116853   0.452   2.739   4.277
 5318SOL    HW216854   0.300   2.788   4.311
 5319SOL     OW16855   3.679   6.753   2.594
 5319SOL    HW116856   3.635   6.840   2.619
 5319SOL    HW216857   3.609   6.687   2.566
 5320SOL     OW16858   6.687   3.106   6.050
 5320SOL    HW116859   6.755   3.176   6.071
 5320SOL    HW216860   6.603   3.150   6.018
 5321SOL     OW16861   2.356   4.527   6.112
 5321SOL    HW116862   2.429   4.582   6.152
 5321SOL    HW216863   2.395   4.467   6.042
 5322SOL     OW16864   2.285   6.019   1.127
 5322SOL    HW116865   2.231   5.968   1.059
 5322SOL    HW216866   2.381   6.018   1.100
 5323SOL     OW16867   5.362   3.044   0.423
 5323SOL    HW116868   5.376   2.993   0.508
 5323SOL    HW216869   5.299   3.119   0.439
 5324SOL     OW16870   3.996   2.867   1.407
 5324SOL    HW116871   4.061   2.791   1.417
 5324SOL    HW216872   3.905   2.830   1.389
 5325SOL     OW16873   4.219   6.268   4.479
 5325SOL    HW116874   4.186   6.213   4.556
 5325SOL    HW216875   4.150   6.269   4.407
 5326SOL     OW16876   0.442   0.114   2.358
 5326SOL    HW116877   0.539   0.130   2.373
 5326SOL    HW216878   0.391   0.198   2.379
 5327SOL     OW16879   0.047   0.475   3.574
 5327SOL    HW116880   0.112   0.401   3.557
 5327SOL    HW216881   0.087   0.562   3.547
 5328SOL     OW16882   3.731   4.883   6.870
 5328SOL    HW116883   3.702   4.874   6.965
 5328SOL    HW216884   3.820   4.928   6.866
 5329SOL     OW16885   0.335   5.393   6.770
 5329SOL    HW116886   0.385   5.318   6.728
 5329SOL    HW216887   0.309   5.368   6.863
 5330SOL     OW16888   3.521   4.263   0.155
 5330SOL    HW116889   3.426   4.287   0.136
 5330SOL    HW216890   3.534   4.165   0.140
 5331SOL     OW16891   5.273   1.229   6.955
 5331SOL    HW116892   5.285   1.211   6.857
 5331SOL    HW216893   5.230   1.149   6.998
 5332SOL     OW16894   6.003   3.262   6.945
 5332SOL    HW116895   5.939   3.283   6.872
 5332SOL    HW216896   6.089   3.310   6.930
 5333SOL     OW16897   1.052   0.795   3.988
 5333SOL    HW116898   0.999   0.746   4.058
 5333SOL    HW216899   1.050   0.893   4.008
 5334SOL     OW16900   3.198   6.236   1.882
 5334SOL    HW116901   3.231   6.250   1.976
 5334SOL    HW216902   3.261   6.280   1.818
 5335SOL     OW16903   6.990   4.480   2.097
 5335SOL    HW116904   0.055   4.444   2.083
 5335SOL    HW216905   6.976   4.561   2.040
 5336SOL     OW16906   1.773   3.552   5.225
 5336SOL    HW116907   1.830   3.631   5.201
 5336SOL    HW216908   1.723   3.571   5.309
 5337SOL     OW16909   6.670   3.476   1.171
 5337SOL    HW116910   6.653   3.541   1.097
 5337SOL    HW216911   6.584   3.432   1.196
 5338SOL     OW16912   6.799   3.252   1.217
 5338SOL    HW116913   6.766   3.345   1.203
 5338SOL    HW216914   6.898   3.250   1.212
 5339SOL     OW16915   5.546   2.723   2.722
 5339SOL    HW116916   5.606   2.803   2.727
 5339SOL    HW216917   5.569   2.659   2.796
 5340SOL     OW16918   4.833   3.104   1.709
 5340SOL    HW116919   4.840   3.196   1.747
 5340SOL    HW216920   4.768   3.050   1.763
 5341SOL     OW16921   4.791   5.031   3.636
 5341SOL    HW116922   4.714   5.000   3.693
 5341SOL    HW216923   4.780   4.995   3.543
 5342SOL     OW16924   6.273   5.430   4.685
 5342SOL    HW116925   6.317   5.517   4.666
 5342SOL    HW216926   6.234   5.431   4.777
 5343SOL     OW16927   3.776   3.385   6.640
 5343SOL    HW116928   3.786   3.448   6.564
 5343SOL    HW216929   3.823   3.422   6.720
 5344SOL     OW16930   6.706   1.593   6.534
 5344SOL    HW116931   6.729   1.688   6.554
 5344SOL    HW216932   6.729   1.536   6.613
 5345SOL     OW16933   3.492   1.499   0.137
 5345SOL    HW116934   3.541   1.572   0.185
 5345SOL    HW216935   3.517   1.501   0.040
 5346SOL     OW16936   2.911   6.425   3.402
 5346SOL    HW116937   2.983   6.480   3.442
 5346SOL    HW216938   2.823   6.452   3.440
 5347SOL     OW16939   5.393   1.638   5.021
 5347SOL    HW116940   5.311   1.581   5.014
 5347SOL    HW216941   5.446   1.610   5.101
 5348SOL     OW16942   5.174   2.934   5.080
 5348SOL    HW116943   5.216   2.929   4.989
 5348SOL    HW216944   5.102   3.003   5.080
 5349SOL     OW16945   0.910   4.253   1.404
 5349SOL    HW116946   0.869   4.181   1.460
 5349SOL    HW216947   0.903   4.229   1.307
 5350SOL     OW16948   0.742   6.749   5.890
 5350SOL    HW116949   0.798   6.832   5.894
 5350SOL    HW216950   0.758   6.694   5.973
 5351SOL     OW16951   0.129   5.919   3.208
 5351SOL    HW116952   0.040   5.874   3.206
 5351SOL    HW216953   0.168   5.919   3.115
 5352SOL     OW16954   1.641   2.813   5.950
 5352SOL    HW116955   1.569   2.776   5.891
 5352SOL    HW216956   1.609   2.897   5.993
 5353SOL     OW16957   3.341   6.231   3.397
 5353SOL    HW116958   3.293   6.319   3.400
 5353SOL    HW216959   3.440   6.247   3.397
 5354SOL     OW16960   3.864   6.088   1.708
 5354SOL    HW116961   3.960   6.110   1.722
 5354SOL    HW216962   3.829   6.037   1.787
 5355SOL     OW16963   5.019   5.891   5.370
 5355SOL    HW116964   5.119   5.878   5.366
 5355SOL    HW216965   4.975   5.823   5.311
 5356SOL     OW16966   1.058   6.610   1.588
 5356SOL    HW116967   1.130   6.676   1.565
 5356SOL    HW216968   1.092   6.517   1.574
 5357SOL     OW16969   6.284   3.558   2.723
 5357SOL    HW116970   6.297   3.467   2.684
 5357SOL    HW216971   6.366   3.584   2.776
 5358SOL     OW16972   5.958   0.885   6.378
 5358SOL    HW116973   5.955   0.976   6.337
 5358SOL    HW216974   6.051   0.849   6.374
 5359SOL     OW16975   2.703   2.517   0.156
 5359SOL    HW116976   2.789   2.486   0.114
 5359SOL    HW216977   2.626   2.483   0.102
 5360SOL     OW16978   5.567   6.118   3.919
 5360SOL    HW116979   5.506   6.155   3.849
 5360SOL    HW216980   5.574   6.184   3.994
 5361SOL     OW16981   1.771   3.831   3.203
 5361SOL    HW116982   1.771   3.820   3.104
 5361SOL    HW216983   1.863   3.817   3.239
 5362SOL     OW16984   6.797   1.322   3.274
 5362SOL    HW116985   6.872   1.282   3.221
 5362SOL    HW216986   6.719   1.260   3.275
 5363SOL     OW16987   5.469   5.531   4.032
 5363SOL    HW116988   5.420   5.612   4.065
 5363SOL    HW216989   5.440   5.510   3.939
 5364SOL     OW16990   4.611   2.307   2.486
 5364SOL    HW116991   4.658   2.275   2.404
 5364SOL    HW216992   4.617   2.407   2.490
 5365SOL     OW16993   3.198   3.836   5.500
 5365SOL    HW116994   3.216   3.746   5.462
 5365SOL    HW216995   3.237   3.841   5.592
 5366SOL     OW16996   0.479   5.110   3.347
 5366SOL    HW116997   0.565   5.160   3.351
 5366SOL    HW216998   0.498   5.012   3.356
 5367SOL     OW16999   6.045   6.225   1.542
 5367SOL    HW117000   5.987   6.176   1.607
 5367SOL    HW217001   6.038   6.323   1.558
 5368SOL     OW17002   0.310   5.160   5.015
 5368SOL    HW117003   0.401   5.188   4.985
 5368SOL    HW217004   0.318   5.085   5.080
 5369SOL     OW17005   4.440   6.998   2.807
 5369SOL    HW117006   4.416   6.928   2.874
 5369SOL    HW217007   4.358   0.024   2.783
 5370SOL     OW17008   2.536   2.335   0.473
 5370SOL    HW117009   2.626   2.369   0.498
 5370SOL    HW217010   2.473   2.412   0.462
 5371SOL     OW17011   5.942   5.348   3.614
 5371SOL    HW117012   5.970   5.439   3.644
 5371SOL    HW217013   5.929   5.289   3.693
 5372SOL     OW17014   1.646   0.106   3.968
 5372SOL    HW117015   1.727   0.136   4.017
 5372SOL    HW217016   1.633   0.008   3.981
 5373SOL     OW17017   3.534   0.682   6.690
 5373SOL    HW117018   3.499   0.589   6.687
 5373SOL    HW217019   3.596   0.692   6.768
 5374SOL     OW17020   1.184   3.739   1.212
 5374SOL    HW117021   1.198   3.740   1.311
 5374SOL    HW217022   1.099   3.787   1.189
 5375SOL     OW17023   2.532   4.548   4.900
 5375SOL    HW117024   2.459   4.517   4.961
 5375SOL    HW217025   2.620   4.539   4.947
 5376SOL     OW17026   1.042   0.993   1.027
 5376SOL    HW117027   1.096   1.077   1.037
 5376SOL    HW217028   1.064   0.949   0.940
 5377SOL     OW17029   0.633   2.258   2.221
 5377SOL    HW117030   0.577   2.313   2.160
 5377SOL    HW217031   0.575   2.219   2.293
 5378SOL     OW17032   5.079   0.310   2.352
 5378SOL    HW117033   5.021   0.231   2.338
 5378SOL    HW217034   5.094   0.358   2.265
 5379SOL     OW17035   2.242   1.847   3.846
 5379SOL    HW117036   2.251   1.758   3.890
 5379SOL    HW217037   2.306   1.853   3.769
 5380SOL     OW17038   4.848   6.274   1.177
 5380SOL    HW117039   4.841   6.302   1.081
 5380SOL    HW217040   4.920   6.206   1.187
 5381SOL     OW17041   3.602   1.801   3.280
 5381SOL    HW117042   3.575   1.767   3.370
 5381SOL    HW217043   3.690   1.848   3.288
 5382SOL     OW17044   3.973   0.604   2.427
 5382SOL    HW117045   3.916   0.602   2.510
 5382SOL    HW217046   3.920   0.567   2.351
 5383SOL     OW17047   2.459   3.460   5.373
 5383SOL    HW117048   2.404   3.540   5.354
 5383SOL    HW217049   2.527   3.482   5.444
 5384SOL     OW17050   5.281   6.730   6.226
 5384SOL    HW117051   5.370   6.757   6.262
 5384SOL    HW217052   5.214   6.729   6.300
 5385SOL     OW17053   3.423   3.652   0.103
 5385SOL    HW117054   3.411   3.570   0.160
 5385SOL    HW217055   3.519   3.681   0.107
 5386SOL     OW17056   4.189   5.082   3.764
 5386SOL    HW117057   4.280   5.101   3.727
 5386SOL    HW217058   4.188   4.991   3.804
 5387SOL     OW17059   1.307   2.687   4.188
 5387SOL    HW117060   1.387   2.644   4.146
 5387SOL    HW217061   1.289   2.646   4.277
 5388SOL     OW17062   6.882   5.985   3.974
 5388SOL    HW117063   6.817   5.927   3.925
 5388SOL    HW217064   6.974   5.971   3.936
 5389SOL     OW17065   5.215   1.618   4.468
 5389SOL    HW117066   5.266   1.615   4.382
 5389SOL    HW217067   5.129   1.667   4.455
 5390SOL     OW17068   5.694   3.541   3.167
 5390SOL    HW117069   5.613   3.481   3.168
 5390SOL    HW217070   5.765   3.503   3.226
 5391SOL     OW17071   4.552   2.607   1.511
 5391SOL    HW117072   4.477   2.551   1.545
 5391SOL    HW217073   4.639   2.570   1.543
 5392SOL     OW17074   5.178   0.612   4.266
 5392SOL    HW117075   5.139   0.670   4.337
 5392SOL    HW217076   5.278   0.620   4.268
 5393SOL     OW17077   4.016   1.242   3.464
 5393SOL    HW117078   4.073   1.195   3.397
 5393SOL    HW217079   4.059   1.237   3.554
 5394SOL     OW17080   0.150   3.240   2.350
 5394SOL    HW117081   0.206   3.171   2.397
 5394SOL    HW217082   0.055   3.230   2.376
 5395SOL     OW17083   6.944   1.177   1.132
 5395SOL    HW117084   6.998   1.161   1.049
 5395SOL    HW217085   6.885   1.257   1.118
 5396SOL     OW17086   4.131   2.676   1.145
 5396SOL    HW117087   4.171   2.647   1.232
 5396SOL    HW217088   4.183   2.637   1.069
 5397SOL     OW17089   0.299   0.386   1.788
 5397SOL    HW117090   0.222   0.390   1.852
 5397SOL    HW217091   0.380   0.353   1.836
 5398SOL     OW17092   6.086   2.414   3.520
 5398SOL    HW117093   6.028   2.463   3.455
 5398SOL    HW217094   6.133   2.340   3.472
 5399SOL     OW17095   1.905   2.710   1.203
 5399SOL    HW117096   1.832   2.779   1.208
 5399SOL    HW217097   1.864   2.620   1.191
 5400SOL     OW17098   5.327   3.131   1.235
 5400SOL    HW117099   5.393   3.106   1.163
 5400SOL    HW217100   5.364   3.207   1.288
 5401SOL     OW17101   5.101   3.137   1.653
 5401SOL    HW117102   5.122   3.086   1.569
 5401SOL    HW217103   5.002   3.135   1.669
 5402SOL     OW17104   1.756   6.257   1.790
 5402SOL    HW117105   1.854   6.249   1.809
 5402SOL    HW217106   1.711   6.170   1.811
 5403SOL     OW17107   5.705   2.160   5.923
 5403SOL    HW117108   5.645   2.093   5.879
 5403SOL    HW217109   5.776   2.111   5.974
 5404SOL     OW17110   4.798   6.711   0.276
 5404SOL    HW117111   4.874   6.720   0.211
 5404SOL    HW217112   4.761   6.619   0.271
 5405SOL     OW17113   0.177   5.177   6.630
 5405SOL    HW117114   0.139   5.257   6.677
 5405SOL    HW217115   0.130   5.095   6.661
 5406SOL     OW17116   2.862   1.034   5.865
 5406SOL    HW117117   2.794   0.960   5.864
 5406SOL    HW217118   2.852   1.088   5.781
 5407SOL     OW17119   1.577   0.135   3.189
 5407SOL    HW117120   1.664   0.179   3.211
 5407SOL    HW217121   1.594   0.044   3.150
 5408SOL     OW17122   2.151   2.384   4.604
 5408SOL    HW117123   2.083   2.323   4.564
 5408SOL    HW217124   2.144   2.475   4.563
 5409SOL     OW17125   0.785   3.444   2.884
 5409SOL    HW117126   0.742   3.422   2.972
 5409SOL    HW217127   0.792   3.360   2.829
 5410SOL     OW17128   6.103   2.094   0.591
 5410SOL    HW117129   6.114   2.187   0.627
 5410SOL    HW217130   6.014   2.059   0.617
 5411SOL     OW17131   3.313   5.296   1.282
 5411SOL    HW117132   3.406   5.262   1.298
 5411SOL    HW217133   3.311   5.349   1.198
 5412SOL     OW17134   1.477   2.635   5.733
 5412SOL    HW117135   1.382   2.615   5.710
 5412SOL    HW217136   1.511   2.707   5.672
 5413SOL     OW17137   6.988   5.557   6.006
 5413SOL    HW117138   0.028   5.529   6.075
 5413SOL    HW217139   0.007   5.575   5.920
 5414SOL     OW17140   5.338   5.372   5.849
 5414SOL    HW117141   5.392   5.376   5.933
 5414SOL    HW217142   5.301   5.280   5.837
 5415SOL     OW17143   1.607   1.697   6.065
 5415SOL    HW117144   1.698   1.660   6.047
 5415SOL    HW217145   1.539   1.624   6.059
 5416SOL     OW17146   3.412   6.162   5.977
 5416SOL    HW117147   3.499   6.112   5.983
 5416SOL    HW217148   3.416   6.227   5.901
 5417SOL     OW17149   5.746   0.499   2.655
 5417SOL    HW117150   5.725   0.596   2.649
 5417SOL    HW217151   5.830   0.480   2.604
 5418SOL     OW17152   0.297   3.824   5.349
 5418SOL    HW117153   0.207   3.864   5.333
 5418SOL    HW217154   0.322   3.767   5.270
 5419SOL     OW17155   3.730   1.512   6.355
 5419SOL    HW117156   3.780   1.574   6.416
 5419SOL    HW217157   3.759   1.527   6.261
 5420SOL     OW17158   1.522   2.508   1.069
 5420SOL    HW117159   1.517   2.596   1.023
 5420SOL    HW217160   1.453   2.446   1.031
 5421SOL     OW17161   4.193   5.266   1.796
 5421SOL    HW117162   4.247   5.340   1.755
 5421SOL    HW217163   4.096   5.279   1.775
 5422SOL     OW17164   2.462   6.046   3.586
 5422SOL    HW117165   2.394   6.070   3.655
 5422SOL    HW217166   2.489   5.951   3.596
 5423SOL     OW17167   4.123   6.714   1.579
 5423SOL    HW117168   4.125   6.624   1.536
 5423SOL    HW217169   4.169   6.711   1.668
 5424SOL     OW17170   4.107   3.698   5.518
 5424SOL    HW117171   4.177   3.710   5.448
 5424SOL    HW217172   4.099   3.782   5.572
 5425SOL     OW17173   1.921   5.330   5.608
 5425SOL    HW117174   1.929   5.385   5.525
 5425SOL    HW217175   1.870   5.381   5.677
 5426SOL     OW17176   0.342   4.087   7.012
 5426SOL    HW117177   0.395   4.032   6.948
 5426SOL    HW217178   0.284   4.151   6.961
 5427SOL     OW17179   5.066   2.273   0.524
 5427SOL    HW117180   5.025   2.300   0.611
 5427SOL    HW217181   5.162   2.249   0.539
 5428SOL     OW17182   4.669   5.838   2.831
 5428SOL    HW117183   4.685   5.810   2.736
 5428SOL    HW217184   4.571   5.843   2.849
 5429SOL     OW17185   2.589   6.627   4.111
 5429SOL    HW117186   2.682   6.652   4.085
 5429SOL    HW217187   2.533   6.710   4.117
 5430SOL     OW17188   1.356   4.335   5.283
 5430SOL    HW117189   1.454   4.350   5.296
 5430SOL    HW217190   1.340   4.283   5.200
 5431SOL     OW17191   4.720   4.490   0.701
 5431SOL    HW117192   4.626   4.502   0.733
 5431SOL    HW217193   4.782   4.488   0.780
 5432SOL     OW17194   0.457   5.195   6.608
 5432SOL    HW117195   0.366   5.169   6.578
 5432SOL    HW217196   0.516   5.114   6.610
 5433SOL     OW17197   2.745   6.840   1.331
 5433SOL    HW117198   2.795   6.906   1.275
 5433SOL    HW217199   2.767   6.747   1.302
 5434SOL     OW17200   4.745   6.063   4.033
 5434SOL    HW117201   4.667   6.003   4.052
 5434SOL    HW217202   4.811   6.015   3.976
 5435SOL     OW17203   6.928   3.899   6.394
 5435SOL    HW117204   6.837   3.932   6.416
 5435SOL    HW217205   6.944   3.812   6.440
 5436SOL     OW17206   1.896   4.544   1.946
 5436SOL    HW117207   1.850   4.579   2.028
 5436SOL    HW217208   1.976   4.600   1.925
 5437SOL     OW17209   3.189   6.230   0.033
 5437SOL    HW117210   3.251   6.306   0.013
 5437SOL    HW217211   3.113   6.262   0.089
 5438SOL     OW17212   5.457   6.862   2.602
 5438SOL    HW117213   5.427   6.785   2.545
 5438SOL    HW217214   5.395   6.872   2.679
 5439SOL     OW17215   1.415   4.019   1.851
 5439SOL    HW117216   1.376   3.933   1.885
 5439SOL    HW217217   1.431   4.012   1.752
 5440SOL     OW17218   6.091   0.063   3.831
 5440SOL    HW117219   6.129   0.079   3.740
 5440SOL    HW217220   6.023   7.018   3.827
 5441SOL     OW17221   5.968   2.154   4.542
 5441SOL    HW117222   5.961   2.202   4.630
 5441SOL    HW217223   5.894   2.087   4.535
 5442SOL     OW17224   2.490   0.058   6.809
 5442SOL    HW117225   2.560   0.116   6.851
 5442SOL    HW217226   2.505   0.054   6.710
 5443SOL     OW17227   6.164   0.699   3.317
 5443SOL    HW117228   6.083   0.644   3.293
 5443SOL    HW217229   6.218   0.649   3.385
 5444SOL     OW17230   0.969   1.472   5.933
 5444SOL    HW117231   1.027   1.542   5.975
 5444SOL    HW217232   0.902   1.515   5.873
 5445SOL     OW17233   6.041   6.638   5.335
 5445SOL    HW117234   5.962   6.617   5.392
 5445SOL    HW217235   6.048   6.737   5.322
 5446SOL     OW17236   1.250   4.761   5.746
 5446SOL    HW117237   1.331   4.801   5.788
 5446SOL    HW217238   1.169   4.810   5.775
 5447SOL     OW17239   6.691   2.369   1.755
 5447SOL    HW117240   6.752   2.328   1.687
 5447SOL    HW217241   6.725   2.460   1.779
 5448SOL     OW17242   6.275   4.748   1.800
 5448SOL    HW117243   6.242   4.750   1.894
 5448SOL    HW217244   6.367   4.786   1.797
 5449SOL     OW17245   1.926   6.994   2.045
 5449SOL    HW117246   1.948   0.016   2.129
 5449SOL    HW217247   1.972   0.010   1.968
 5450SOL     OW17248   4.194   5.696   1.405
 5450SOL    HW117249   4.204   5.781   1.459
 5450SOL    HW217250   4.135   5.714   1.327
 5451SOL     OW17251   0.631   6.206   3.655
 5451SOL    HW117252   0.717   6.248   3.684
 5451SOL    HW217253   0.604   6.244   3.567
 5452SOL     OW17254   2.402   4.379   2.932
 5452SOL    HW117255   2.363   4.323   3.005
 5452SOL    HW217256   2.352   4.361   2.847
 5453SOL     OW17257   5.772   4.688   4.158
 5453SOL    HW117258   5.816   4.600   4.139
 5453SOL    HW217259   5.674   4.675   4.168
 5454SOL     OW17260   5.855   3.953   2.389
 5454SOL    HW117261   5.882   3.863   2.424
 5454SOL    HW217262   5.928   4.019   2.407
 5455SOL     OW17263   2.811   1.906   2.922
 5455SOL    HW117264   2.719   1.944   2.916
 5455SOL    HW217265   2.872   1.973   2.966
 5456SOL     OW17266   5.625   2.209   0.574
 5456SOL    HW117267   5.568   2.130   0.551
 5456SOL    HW217268   5.712   2.203   0.524
 5457SOL     OW17269   6.879   1.084   0.290
 5457SOL    HW117270   6.803   1.061   0.351
 5457SOL    HW217271   6.886   1.183   0.279
 5458SOL     OW17272   5.396   4.892   5.820
 5458SOL    HW117273   5.306   4.881   5.864
 5458SOL    HW217274   5.456   4.817   5.846
 5459SOL     OW17275   2.178   3.048   5.221
 5459SOL    HW117276   2.156   2.981   5.292
 5459SOL    HW217277   2.275   3.039   5.196
 5460SOL     OW17278   0.491   0.576   0.909
 5460SOL    HW117279   0.563   0.529   0.961
 5460SOL    HW217280   0.455   0.652   0.964
 5461SOL     OW17281   6.112   1.246   6.652
 5461SOL    HW117282   6.059   1.161   6.648
 5461SOL    HW217283   6.179   1.240   6.726
 5462SOL     OW17284   4.931   5.322   6.331
 5462SOL    HW117285   4.961   5.233   6.365
 5462SOL    HW217286   4.986   5.394   6.373
 5463SOL     OW17287   1.750   5.033   5.810
 5463SOL    HW117288   1.817   5.014   5.882
 5463SOL    HW217289   1.691   5.108   5.839
 5464SOL     OW17290   2.059   5.231   4.650
 5464SOL    HW117291   2.148   5.187   4.636
 5464SOL    HW217292   2.046   5.251   4.747
 5465SOL     OW17293   0.303   0.216   5.282
 5465SOL    HW117294   0.337   0.153   5.352
 5465SOL    HW217295   0.380   0.261   5.237
 5466SOL     OW17296   4.919   2.297   4.936
 5466SOL    HW117297   4.982   2.373   4.951
 5466SOL    HW217298   4.968   2.220   4.894
 5467SOL     OW17299   5.723   3.214   4.145
 5467SOL    HW117300   5.780   3.138   4.112
 5467SOL    HW217301   5.764   3.301   4.115
 5468SOL     OW17302   6.891   2.798   1.534
 5468SOL    HW117303   6.983   2.770   1.562
 5468SOL    HW217304   6.870   2.888   1.571
 5469SOL     OW17305   4.160   1.906   3.805
 5469SOL    HW117306   4.073   1.952   3.783
 5469SOL    HW217307   4.141   1.827   3.863
 5470SOL     OW17308   3.337   5.154   3.213
 5470SOL    HW117309   3.423   5.205   3.209
 5470SOL    HW217310   3.353   5.059   3.185
 5471SOL     OW17311   5.748   0.875   2.998
 5471SOL    HW117312   5.751   0.975   2.993
 5471SOL    HW217313   5.806   0.836   2.927
 5472SOL     OW17314   2.559   3.672   6.821
 5472SOL    HW117315   2.469   3.713   6.836
 5472SOL    HW217316   2.624   3.707   6.889
 5473SOL     OW17317   2.918   4.759   2.259
 5473SOL    HW117318   2.965   4.686   2.310
 5473SOL    HW217319   2.875   4.720   2.177
 5474SOL     OW17320   1.171   4.747   1.968
 5474SOL    HW117321   1.184   4.700   2.056
 5474SOL    HW217322   1.171   4.846   1.983
 5475SOL     OW17323   1.654   1.306   5.573
 5475SOL    HW117324   1.747   1.268   5.570
 5475SOL    HW217325   1.589   1.238   5.540
 5476SOL     OW17326   2.233   0.841   4.933
 5476SOL    HW117327   2.234   0.875   5.027
 5476SOL    HW217328   2.177   0.902   4.876
 5477SOL     OW17329   2.253   2.985   2.978
 5477SOL    HW117330   2.240   3.082   2.955
 5477SOL    HW217331   2.202   2.964   3.061
 5478SOL     OW17332   5.952   4.085   5.740
 5478SOL    HW117333   6.043   4.125   5.727
 5478SOL    HW217334   5.891   4.153   5.781
 5479SOL     OW17335   5.666   3.261   4.399
 5479SOL    HW117336   5.692   3.232   4.307
 5479SOL    HW217337   5.705   3.351   4.418
 5480SOL     OW17338   1.207   3.743   4.892
 5480SOL    HW117339   1.114   3.706   4.897
 5480SOL    HW217340   1.227   3.794   4.976
 5481SOL     OW17341   3.472   1.497   6.435
 5481SOL    HW117342   3.561   1.481   6.390
 5481SOL    HW217343   3.398   1.475   6.371
 5482SOL     OW17344   5.613   3.658   2.014
 5482SOL    HW117345   5.528   3.614   2.041
 5482SOL    HW217346   5.623   3.651   1.914
 5483SOL     OW17347   6.565   3.001   0.189
 5483SOL    HW117348   6.531   3.059   0.115
 5483SOL    HW217349   6.559   2.905   0.161
 5484SOL     OW17350   6.463   0.232   5.290
 5484SOL    HW117351   6.461   0.133   5.296
 5484SOL    HW217352   6.489   0.260   5.197
 5485SOL     OW17353   3.293   0.558   4.574
 5485SOL    HW117354   3.206   0.516   4.601
 5485SOL    HW217355   3.366   0.491   4.582
 5486SOL     OW17356   1.273   0.079   3.587
 5486SOL    HW117357   1.223   0.149   3.536
 5486SOL    HW217358   1.272   0.101   3.684
 5487SOL     OW17359   4.074   5.367   1.353
 5487SOL    HW117360   4.060   5.427   1.275
 5487SOL    HW217361   4.037   5.409   1.436
 5488SOL     OW17362   4.606   1.488   5.569
 5488SOL    HW117363   4.527   1.511   5.625
 5488SOL    HW217364   4.578   1.428   5.494
 5489SOL     OW17365   6.298   4.340   2.382
 5489SOL    HW117366   6.379   4.387   2.417
 5489SOL    HW217367   6.325   4.257   2.335
 5490SOL     OW17368   2.228   2.095   6.438
 5490SOL    HW117369   2.241   2.192   6.418
 5490SOL    HW217370   2.229   2.082   6.537
 5491SOL     OW17371   0.301   5.951   2.518
 5491SOL    HW117372   0.304   6.040   2.564
 5491SOL    HW217373   0.210   5.911   2.530
 5492SOL     OW17374   1.151   1.558   4.529
 5492SOL    HW117375   1.155   1.463   4.500
 5492SOL    HW217376   1.240   1.601   4.514
 5493SOL     OW17377   2.913   1.521   0.764
 5493SOL    HW117378   2.826   1.531   0.812
 5493SOL    HW217379   2.936   1.607   0.719
 5494SOL     OW17380   5.937   2.951   2.453
 5494SOL    HW117381   5.846   2.919   2.427
 5494SOL    HW217382   5.967   3.023   2.389
 5495SOL     OW17383   3.780   2.976   3.949
 5495SOL    HW117384   3.712   3.002   4.017
 5495SOL    HW217385   3.736   2.962   3.860
 5496SOL     OW17386   4.729   4.928   1.992
 5496SOL    HW117387   4.754   4.902   2.085
 5496SOL    HW217388   4.636   4.898   1.972
 5497SOL     OW17389   5.660   6.908   1.177
 5497SOL    HW117390   5.621   6.924   1.087
 5497SOL    HW217391   5.740   6.966   1.190
 5498SOL     OW17392   4.104   0.892   4.551
 5498SOL    HW117393   4.004   0.891   4.548
 5498SOL    HW217394   4.134   0.898   4.646
 5499SOL     OW17395   0.559   1.304   5.526
 5499SOL    HW117396   0.612   1.238   5.580
 5499SOL    HW217397   0.552   1.390   5.577
 5500SOL     OW17398   1.866   6.313   0.823
 5500SOL    HW117399   1.887   6.359   0.909
 5500SOL    HW217400   1.887   6.374   0.746
 5501SOL     OW17401   2.962   0.731   2.605
 5501SOL    HW117402   2.863   0.713   2.604
 5501SOL    HW217403   2.985   0.791   2.529
 5502SOL     OW17404   4.605   3.125   0.318
 5502SOL    HW117405   4.595   3.216   0.357
 5502SOL    HW217406   4.517   3.079   0.316
 5503SOL     OW17407   0.426   6.494   5.045
 5503SOL    HW117408   0.510   6.443   5.024
 5503SOL    HW217409   0.443   6.554   5.123
 5504SOL     OW17410   3.044   1.990   4.424
 5504SOL    HW117411   3.045   1.891   4.409
 5504SOL    HW217412   2.951   2.024   4.416
 5505SOL     OW17413   3.721   4.456   6.715
 5505SOL    HW117414   3.650   4.493   6.776
 5505SOL    HW217415   3.768   4.381   6.761
 5506SOL     OW17416   0.147   6.590   5.958
 5506SOL    HW117417   0.211   6.571   6.032
 5506SOL    HW217418   0.055   6.562   5.985
 5507SOL     OW17419   3.474   5.854   4.556
 5507SOL    HW117420   3.519   5.896   4.635
 5507SOL    HW217421   3.385   5.896   4.541
 5508SOL     OW17422   1.532   0.347   5.845
 5508SOL    HW117423   1.578   0.417   5.901
 5508SOL    HW217424   1.521   0.382   5.752
 5509SOL     OW17425   6.069   0.195   6.550
 5509SOL    HW117426   6.091   0.098   6.557
 5509SOL    HW217427   6.108   0.232   6.466
 5510SOL     OW17428   5.972   0.496   6.275
 5510SOL    HW117429   5.917   0.444   6.210
 5510SOL    HW217430   5.912   0.550   6.334
 5511SOL     OW17431   6.771   2.573   1.424
 5511SOL    HW117432   6.834   2.496   1.410
 5511SOL    HW217433   6.813   2.639   1.487
 5512SOL     OW17434   0.333   0.574   0.399
 5512SOL    HW117435   0.237   0.545   0.388
 5512SOL    HW217436   0.383   0.504   0.451
 5513SOL     OW17437   2.946   6.034   5.009
 5513SOL    HW117438   2.932   6.107   4.942
 5513SOL    HW217439   2.865   5.975   5.010
 5514SOL     OW17440   5.735   5.558   3.767
 5514SOL    HW117441   5.812   5.593   3.820
 5514SOL    HW217442   5.670   5.631   3.749
 5515SOL     OW17443   6.511   3.778   3.125
 5515SOL    HW117444   6.442   3.712   3.152
 5515SOL    HW217445   6.602   3.735   3.127
 5516SOL     OW17446   1.075   3.055   6.612
 5516SOL    HW117447   1.134   2.976   6.596
 5516SOL    HW217448   1.073   3.111   6.529
 5517SOL     OW17449   2.747   0.982   2.171
 5517SOL    HW117450   2.648   0.989   2.182
 5517SOL    HW217451   2.786   1.074   2.161
 5518SOL     OW17452   5.406   4.700   5.327
 5518SOL    HW117453   5.448   4.725   5.414
 5518SOL    HW217454   5.466   4.638   5.276
 5519SOL     OW17455   5.197   3.665   3.065
 5519SOL    HW117456   5.196   3.603   2.986
 5519SOL    HW217457   5.185   3.759   3.034
 5520SOL     OW17458   1.917   2.806   0.929
 5520SOL    HW117459   1.869   2.893   0.922
 5520SOL    HW217460   1.949   2.794   1.023
 5521SOL     OW17461   4.997   5.431   0.898
 5521SOL    HW117462   4.910   5.454   0.942
 5521SOL    HW217463   5.000   5.333   0.880
 5522SOL     OW17464   1.830   3.029   2.213
 5522SOL    HW117465   1.904   2.993   2.270
 5522SOL    HW217466   1.848   3.006   2.117
 5523SOL     OW17467   3.438   0.689   1.666
 5523SOL    HW117468   3.397   0.679   1.757
 5523SOL    HW217469   3.511   0.757   1.670
 5524SOL     OW17470   5.775   5.947   5.660
 5524SOL    HW117471   5.807   5.853   5.672
 5524SOL    HW217472   5.822   6.006   5.726
 5525SOL     OW17473   6.592   5.626   4.115
 5525SOL    HW117474   6.561   5.699   4.055
 5525SOL    HW217475   6.655   5.566   4.066
 5526SOL     OW17476   5.535   3.156   4.621
 5526SOL    HW117477   5.569   3.174   4.529
 5526SOL    HW217478   5.464   3.085   4.617
 5527SOL     OW17479   2.060   3.141   0.324
 5527SOL    HW117480   2.108   3.192   0.252
 5527SOL    HW217481   2.048   3.046   0.294
 5528SOL     OW17482   6.536   3.388   2.986
 5528SOL    HW117483   6.540   3.477   2.940
 5528SOL    HW217484   6.627   3.363   3.020
 5529SOL     OW17485   0.731   1.144   4.496
 5529SOL    HW117486   0.679   1.207   4.438
 5529SOL    HW217487   0.676   1.063   4.515
 5530SOL     OW17488   0.242   3.123   6.784
 5530SOL    HW117489   0.233   3.189   6.710
 5530SOL    HW217490   0.227   3.031   6.749
 5531SOL     OW17491   1.329   2.866   6.653
 5531SOL    HW117492   1.300   2.792   6.714
 5531SOL    HW217493   1.419   2.845   6.616
 5532SOL     OW17494   2.116   2.129   1.577
 5532SOL    HW117495   2.040   2.067   1.601
 5532SOL    HW217496   2.080   2.207   1.526
 5533SOL     OW17497   3.452   0.233   0.535
 5533SOL    HW117498   3.450   0.136   0.509
 5533SOL    HW217499   3.542   0.256   0.571
 5534SOL     OW17500   6.985   4.430   5.196
 5534SOL    HW117501   0.024   4.373   5.147
 5534SOL    HW217502   7.020   4.523   5.204
 5535SOL     OW17503   6.218   3.314   3.969
 5535SOL    HW117504   6.181   3.237   4.021
 5535SOL    HW217505   6.293   3.356   4.020
 5536SOL     OW17506   2.822   0.442   3.987
 5536SOL    HW117507   2.763   0.504   4.039
 5536SOL    HW217508   2.774   0.356   3.972
 5537SOL     OW17509   4.240   1.663   4.749
 5537SOL    HW117510   4.303   1.592   4.720
 5537SOL    HW217511   4.152   1.652   4.703
 5538SOL     OW17512   5.224   2.587   2.046
 5538SOL    HW117513   5.156   2.541   2.103
 5538SOL    HW217514   5.274   2.519   1.993
 5539SOL     OW17515   2.668   0.022   0.284
 5539SOL    HW117516   2.751   6.994   0.300
 5539SOL    HW217517   2.654   0.084   0.361
 5540SOL     OW17518   5.036   0.262   5.672
 5540SOL    HW117519   4.992   0.319   5.603
 5540SOL    HW217520   5.009   0.167   5.660
 5541SOL     OW17521   4.648   3.173   0.025
 5541SOL    HW117522   4.672   3.159   0.121
 5541SOL    HW217523   4.558   3.214   0.019
 5542SOL     OW17524   4.502   4.349   0.189
 5542SOL    HW117525   4.581   4.309   0.144
 5542SOL    HW217526   4.505   4.327   0.287
 5543SOL     OW17527   1.732   0.527   6.681
 5543SOL    HW117528   1.685   0.440   6.697
 5543SOL    HW217529   1.805   0.539   6.749
 5544SOL     OW17530   3.684   4.870   0.122
 5544SOL    HW117531   3.601   4.897   0.074
 5544SOL    HW217532   3.681   4.907   0.215
 5545SOL     OW17533   5.056   1.057   4.402
 5545SOL    HW117534   5.131   1.023   4.347
 5545SOL    HW217535   5.015   1.137   4.358
 5546SOL     OW17536   0.429   5.213   4.313
 5546SOL    HW117537   0.357   5.158   4.270
 5546SOL    HW217538   0.420   5.209   4.412
 5547SOL     OW17539   4.993   2.063   4.832
 5547SOL    HW117540   5.090   2.056   4.851
 5547SOL    HW217541   4.951   1.972   4.838
 5548SOL     OW17542   0.835   4.753   4.748
 5548SOL    HW117543   0.805   4.796   4.663
 5548SOL    HW217544   0.860   4.823   4.815
 5549SOL     OW17545   4.261   2.590   0.764
 5549SOL    HW117546   4.331   2.623   0.701
 5549SOL    HW217547   4.304   2.568   0.852
 5550SOL     OW17548   2.114   4.233   1.688
 5550SOL    HW117549   2.142   4.152   1.740
 5550SOL    HW217550   2.026   4.266   1.722
 5551SOL     OW17551   2.023   5.605   2.759
 5551SOL    HW117552   2.052   5.548   2.682
 5551SOL    HW217553   2.022   5.551   2.843
 5552SOL     OW17554   0.982   6.494   0.182
 5552SOL    HW117555   0.978   6.594   0.172
 5552SOL    HW217556   1.077   6.464   0.170
 5553SOL     OW17557   5.287   0.707   0.438
 5553SOL    HW117558   5.250   0.639   0.501
 5553SOL    HW217559   5.251   0.798   0.462
 5554SOL     OW17560   6.525   1.635   1.568
 5554SOL    HW117561   6.530   1.537   1.585
 5554SOL    HW217562   6.596   1.661   1.502
 5555SOL     OW17563   1.455   4.920   3.063
 5555SOL    HW117564   1.360   4.942   3.040
 5555SOL    HW217565   1.469   4.821   3.056
 5556SOL     OW17566   0.091   0.805   4.443
 5556SOL    HW117567   0.148   0.841   4.517
 5556SOL    HW217568   0.146   0.743   4.386
 5557SOL     OW17569   3.683   5.989   3.321
 5557SOL    HW117570   3.607   5.957   3.264
 5557SOL    HW217571   3.769   5.981   3.271
 5558SOL     OW17572   4.489   4.158   6.714
 5558SOL    HW117573   4.483   4.077   6.657
 5558SOL    HW217574   4.445   4.235   6.668
 5559SOL     OW17575   3.383   1.169   2.795
 5559SOL    HW117576   3.319   1.094   2.781
 5559SOL    HW217577   3.332   1.251   2.823
 5560SOL     OW17578   0.797   5.399   3.873
 5560SOL    HW117579   0.767   5.354   3.957
 5560SOL    HW217580   0.750   5.358   3.794
 5561SOL     OW17581   3.525   6.212   2.980
 5561SOL    HW117582   3.587   6.186   2.907
 5561SOL    HW217583   3.560   6.292   3.027
 5562SOL     OW17584   3.587   3.809   0.950
 5562SOL    HW117585   3.615   3.714   0.967
 5562SOL    HW217586   3.577   3.824   0.852
 5563SOL     OW17587   2.132   4.443   2.454
 5563SOL    HW117588   2.149   4.471   2.360
 5563SOL    HW217589   2.128   4.525   2.513
 5564SOL     OW17590   5.105   0.386   6.207
 5564SOL    HW117591   5.048   0.306   6.225
 5564SOL    HW217592   5.100   0.409   6.110
 5565SOL     OW17593   3.250   1.638   6.129
 5565SOL    HW117594   3.253   1.644   6.029
 5565SOL    HW217595   3.190   1.709   6.165
 5566SOL     OW17596   1.393   3.903   6.818
 5566SOL    HW117597   1.405   3.946   6.907
 5566SOL    HW217598   1.458   3.943   6.753
 5567SOL     OW17599   0.212   3.622   0.619
 5567SOL    HW117600   0.141   3.665   0.563
 5567SOL    HW217601   0.260   3.693   0.671
 5568SOL     OW17602   4.757   4.854   1.281
 5568SOL    HW117603   4.708   4.921   1.225
 5568SOL    HW217604   4.776   4.894   1.371
 5569SOL     OW17605   2.288   2.833   2.746
 5569SOL    HW117606   2.366   2.773   2.732
 5569SOL    HW217607   2.301   2.887   2.830
 5570SOL     OW17608   6.759   3.759   2.152
 5570SOL    HW117609   6.813   3.837   2.184
 5570SOL    HW217610   6.753   3.761   2.052
 5571SOL     OW17611   6.432   4.770   1.032
 5571SOL    HW117612   6.520   4.766   0.984
 5571SOL    HW217613   6.446   4.810   1.123
 5572SOL     OW17614   1.932   4.219   5.004
 5572SOL    HW117615   1.852   4.160   5.018
 5572SOL    HW217616   1.929   4.259   4.912
 5573SOL     OW17617   3.192   5.174   3.650
 5573SOL    HW117618   3.147   5.263   3.645
 5573SOL    HW217619   3.207   5.139   3.557
 5574SOL     OW17620   0.414   2.270   5.741
 5574SOL    HW117621   0.353   2.346   5.719
 5574SOL    HW217622   0.481   2.258   5.668
 5575SOL     OW17623   0.137   0.285   1.345
 5575SOL    HW117624   0.133   0.187   1.366
 5575SOL    HW217625   0.100   0.337   1.421
 5576SOL     OW17626   1.447   5.299   2.930
 5576SOL    HW117627   1.500   5.343   3.003
 5576SOL    HW217628   1.437   5.202   2.951
 5577SOL     OW17629   2.338   2.880   5.563
 5577SOL    HW117630   2.359   2.977   5.552
 5577SOL    HW217631   2.339   2.857   5.660
 5578SOL     OW17632   3.577   4.149   3.574
 5578SOL    HW117633   3.676   4.148   3.588
 5578SOL    HW217634   3.531   4.130   3.661
 5579SOL     OW17635   6.903   3.161   2.270
 5579SOL    HW117636   6.944   3.189   2.183
 5579SOL    HW217637   6.837   3.230   2.299
 5580SOL     OW17638   5.412   2.285   5.701
 5580SOL    HW117639   5.375   2.341   5.627
 5580SOL    HW217640   5.351   2.209   5.720
 5581SOL     OW17641   1.200   2.625   6.765
 5581SOL    HW117642   1.172   2.650   6.672
 5581SOL    HW217643   1.203   2.526   6.774
 5582SOL     OW17644   2.456   3.261   6.364
 5582SOL    HW117645   2.406   3.176   6.350
 5582SOL    HW217646   2.506   3.257   6.450
 5583SOL     OW17647   5.456   0.162   1.389
 5583SOL    HW117648   5.431   0.174   1.293
 5583SOL    HW217649   5.488   0.248   1.427
 5584SOL     OW17650   1.483   3.260   4.397
 5584SOL    HW117651   1.485   3.257   4.496
 5584SOL    HW217652   1.467   3.169   4.360
 5585SOL     OW17653   5.092   4.773   1.925
 5585SOL    HW117654   5.092   4.854   1.984
 5585SOL    HW217655   5.046   4.698   1.971
 5586SOL     OW17656   6.814   3.870   0.419
 5586SOL    HW117657   6.875   3.855   0.341
 5586SOL    HW217658   6.850   3.823   0.500
 5587SOL     OW17659   6.049   1.110   6.034
 5587SOL    HW117660   6.003   1.132   6.120
 5587SOL    HW217661   6.051   1.011   6.020
 5588SOL     OW17662   4.075   6.581   0.878
 5588SOL    HW117663   4.007   6.653   0.895
 5588SOL    HW217664   4.151   6.592   0.942
 5589SOL     OW17665   5.720   5.004   5.990
 5589SOL    HW117666   5.706   5.024   5.893
 5589SOL    HW217667   5.766   4.916   5.999
 5590SOL     OW17668   6.239   5.849   3.567
 5590SOL    HW117669   6.234   5.901   3.481
 5590SOL    HW217670   6.323   5.873   3.615
 5591SOL     OW17671   5.820   0.984   1.786
 5591SOL    HW117672   5.874   0.971   1.703
 5591SOL    HW217673   5.880   1.012   1.861
 5592SOL     OW17674   1.306   3.965   3.329
 5592SOL    HW117675   1.219   3.967   3.280
 5592SOL    HW217676   1.293   3.922   3.419
 5593SOL     OW17677   0.065   3.576   0.285
 5593SOL    HW117678   0.043   3.668   0.253
 5593SOL    HW217679   0.164   3.570   0.300
 5594SOL     OW17680   6.375   1.932   6.427
 5594SOL    HW117681   6.304   1.903   6.491
 5594SOL    HW217682   6.379   2.031   6.424
 5595SOL     OW17683   1.114   2.821   5.853
 5595SOL    HW117684   1.175   2.804   5.930
 5595SOL    HW217685   1.147   2.772   5.772
 5596SOL     OW17686   3.247   6.201   2.984
 5596SOL    HW117687   3.337   6.191   3.026
 5596SOL    HW217688   3.193   6.267   3.036
 5597SOL     OW17689   5.172   3.073   2.447
 5597SOL    HW117690   5.227   3.132   2.388
 5597SOL    HW217691   5.232   3.019   2.506
 5598SOL     OW17692   5.085   1.772   4.859
 5598SOL    HW117693   5.044   1.727   4.938
 5598SOL    HW217694   5.134   1.854   4.888
 5599SOL     OW17695   0.955   0.430   3.736
 5599SOL    HW117696   0.918   0.505   3.681
 5599SOL    HW217697   1.051   0.449   3.757
 5600SOL     OW17698   1.367   2.075   4.560
 5600SOL    HW117699   1.427   1.995   4.570
 5600SOL    HW217700   1.324   2.094   4.649
 5601SOL     OW17701   2.370   0.516   6.335
 5601SOL    HW117702   2.335   0.426   6.312
 5601SOL    HW217703   2.460   0.507   6.379
 5602SOL     OW17704   1.698   1.340   7.024
 5602SOL    HW117705   1.616   1.355   6.968
 5602SOL    HW217706   1.708   1.242   0.014
 5603SOL     OW17707   5.796   4.490   6.516
 5603SOL    HW117708   5.748   4.407   6.547
 5603SOL    HW217709   5.735   4.568   6.525
 5604SOL     OW17710   6.188   1.645   6.051
 5604SOL    HW117711   6.114   1.603   6.104
 5604SOL    HW217712   6.216   1.582   5.979
 5605SOL     OW17713   1.299   2.759   6.058
 5605SOL    HW117714   1.329   2.829   6.124
 5605SOL    HW217715   1.232   2.699   6.101
 5606SOL     OW17716   5.401   0.064   3.018
 5606SOL    HW117717   5.462   0.061   2.939
 5606SOL    HW217718   5.454   0.082   3.101
 5607SOL     OW17719   6.121   0.744   1.239
 5607SOL    HW117720   6.073   0.662   1.270
 5607SOL    HW217721   6.121   0.747   1.139
 5608SOL     OW17722   4.368   6.680   4.796
 5608SOL    HW117723   4.408   6.764   4.760
 5608SOL    HW217724   4.280   6.663   4.751
 5609SOL     OW17725   2.147   5.629   5.418
 5609SOL    HW117726   2.176   5.667   5.506
 5609SOL    HW217727   2.179   5.534   5.411
 5610SOL     OW17728   4.355   0.134   6.486
 5610SOL    HW117729   4.406   0.169   6.564
 5610SOL    HW217730   4.341   0.207   6.419
 5611SOL     OW17731   1.982   4.595   3.677
 5611SOL    HW117732   1.959   4.679   3.727
 5611SOL    HW217733   2.010   4.619   3.583
 5612SOL     OW17734   2.229   0.539   5.271
 5612SOL    HW117735   2.193   0.515   5.181
 5612SOL    HW217736   2.190   0.478   5.341
 5613SOL     OW17737   3.868   4.867   1.615
 5613SOL    HW117738   3.967   4.860   1.610
 5613SOL    HW217739   3.835   4.930   1.545
 5614SOL     OW17740   5.011   2.419   3.560
 5614SOL    HW117741   4.945   2.401   3.633
 5614SOL    HW217742   5.033   2.517   3.559
 5615SOL     OW17743   1.371   1.547   1.138
 5615SOL    HW117744   1.468   1.523   1.136
 5615SOL    HW217745   1.356   1.624   1.200
 5616SOL     OW17746   2.554   0.294   4.695
 5616SOL    HW117747   2.526   0.251   4.609
 5616SOL    HW217748   2.496   0.259   4.769
 5617SOL     OW17749   1.150   0.913   4.980
 5617SOL    HW117750   1.097   0.856   5.043
 5617SOL    HW217751   1.133   1.009   4.999
 5618SOL     OW17752   6.588   4.575   2.814
 5618SOL    HW117753   6.585   4.572   2.914
 5618SOL    HW217754   6.584   4.670   2.783
 5619SOL     OW17755   1.923   3.628   4.836
 5619SOL    HW117756   2.011   3.582   4.839
 5619SOL    HW217757   1.935   3.726   4.851
 5620SOL     OW17758   3.598   2.304   6.524
 5620SOL    HW117759   3.646   2.387   6.495
 5620SOL    HW217760   3.522   2.329   6.585
 5621SOL     OW17761   1.833   2.137   6.636
 5621SOL    HW117762   1.874   2.196   6.567
 5621SOL    HW217763   1.736   2.160   6.647
 5622SOL     OW17764   5.831   0.846   5.346
 5622SOL    HW117765   5.914   0.832   5.400
 5622SOL    HW217766   5.856   0.884   5.257
 5623SOL     OW17767   0.557   5.834   6.636
 5623SOL    HW117768   0.505   5.897   6.693
 5623SOL    HW217769   0.549   5.861   6.540
 5624SOL     OW17770   1.330   4.259   2.890
 5624SOL    HW117771   1.355   4.163   2.879
 5624SOL    HW217772   1.294   4.295   2.803
 5625SOL     OW17773   6.479   2.255   5.670
 5625SOL    HW117774   6.398   2.221   5.621
 5625SOL    HW217775   6.506   2.343   5.633
 5626SOL     OW17776   4.644   0.131   4.183
 5626SOL    HW117777   4.721   0.069   4.200
 5626SOL    HW217778   4.594   0.100   4.102
 5627SOL     OW17779   1.318   6.130   1.044
 5627SOL    HW117780   1.262   6.173   0.973
 5627SOL    HW217781   1.336   6.035   1.019
 5628SOL     OW17782   0.991   1.107   4.537
 5628SOL    HW117783   0.893   1.122   4.525
 5628SOL    HW217784   1.038   1.194   4.547
 5629SOL     OW17785   3.636   3.307   2.790
 5629SOL    HW117786   3.647   3.338   2.695
 5629SOL    HW217787   3.588   3.219   2.791
 5630SOL     OW17788   0.135   4.547   1.672
 5630SOL    HW117789   0.232   4.540   1.698
 5630SOL    HW217790   0.083   4.583   1.749
 5631SOL     OW17791   4.608   0.729   6.757
 5631SOL    HW117792   4.702   0.697   6.745
 5631SOL    HW217793   4.545   0.659   6.724
 5632SOL     OW17794   2.923   3.262   0.247
 5632SOL    HW117795   2.887   3.335   0.188
 5632SOL    HW217796   3.003   3.221   0.205
 5633SOL     OW17797   6.241   2.785   4.944
 5633SOL    HW117798   6.174   2.848   4.982
 5633SOL    HW217799   6.220   2.768   4.847
 5634SOL     OW17800   4.683   5.629   4.510
 5634SOL    HW117801   4.595   5.657   4.550
 5634SOL    HW217802   4.705   5.690   4.434
 5635SOL     OW17803   3.209   2.123   5.318
 5635SOL    HW117804   3.219   2.192   5.247
 5635SOL    HW217805   3.151   2.048   5.284
 5636SOL     OW17806   4.016   6.026   3.923
 5636SOL    HW117807   4.071   6.091   3.870
 5636SOL    HW217808   3.925   6.064   3.938
 5637SOL     OW17809   5.890   0.194   3.217
 5637SOL    HW117810   5.853   0.111   3.259
 5637SOL    HW217811   5.965   0.169   3.156
 5638SOL     OW17812   4.883   3.953   6.583
 5638SOL    HW117813   4.976   3.984   6.563
 5638SOL    HW217814   4.836   3.930   6.497
 5639SOL     OW17815   3.004   0.346   6.819
 5639SOL    HW117816   3.027   0.258   6.860
 5639SOL    HW217817   3.085   0.387   6.777
 5640SOL     OW17818   2.301   7.026   3.225
 5640SOL    HW117819   2.249   7.024   3.139
 5640SOL    HW217820   2.341   6.936   3.242
 5641SOL     OW17821   6.005   5.868   4.557
 5641SOL    HW117822   6.011   5.861   4.458
 5641SOL    HW217823   6.030   5.780   4.598
 5642SOL     OW17824   1.800   1.965   6.938
 5642SOL    HW117825   1.788   1.869   6.961
 5642SOL    HW217826   1.773   1.981   6.844
 5643SOL     OW17827   5.618   2.033   5.030
 5643SOL    HW117828   5.689   2.032   5.100
 5643SOL    HW217829   5.605   1.941   4.994
 5644SOL     OW17830   2.879   6.974   6.386
 5644SOL    HW117831   2.962   7.022   6.358
 5644SOL    HW217832   2.849   6.913   6.313
 5645SOL     OW17833   5.074   3.699   4.600
 5645SOL    HW117834   5.046   3.640   4.524
 5645SOL    HW217835   5.172   3.686   4.617
 5646SOL     OW17836   1.642   4.178   3.108
 5646SOL    HW117837   1.640   4.119   3.028
 5646SOL    HW217838   1.589   4.261   3.090
 5647SOL     OW17839   6.478   6.756   2.426
 5647SOL    HW117840   6.444   6.690   2.359
 5647SOL    HW217841   6.412   6.765   2.500
 5648SOL     OW17842   4.744   6.337   3.248
 5648SOL    HW117843   4.717   6.421   3.201
 5648SOL    HW217844   4.736   6.350   3.347
 5649SOL     OW17845   0.965   6.721   4.528
 5649SOL    HW117846   0.983   6.686   4.620
 5649SOL    HW217847   1.033   6.685   4.465
 5650SOL     OW17848   6.672   4.113   6.881
 5650SOL    HW117849   6.676   4.157   6.791
 5650SOL    HW217850   6.680   4.014   6.869
 5651SOL     OW17851   3.122   0.747   1.154
 5651SOL    HW117852   3.121   0.832   1.208
 5651SOL    HW217853   3.101   0.670   1.214
 5652SOL     OW17854   0.756   5.799   1.568
 5652SOL    HW117855   0.849   5.814   1.535
 5652SOL    HW217856   0.695   5.784   1.491
 5653SOL     OW17857   0.088   0.238   1.624
 5653SOL    HW117858   0.171   0.267   1.670
 5653SOL    HW217859   0.009   0.278   1.670
 5654SOL     OW17860   3.419   5.597   4.457
 5654SOL    HW117861   3.408   5.519   4.519
 5654SOL    HW217862   3.430   5.680   4.511
 5655SOL     OW17863   5.739   2.609   5.169
 5655SOL    HW117864   5.816   2.643   5.224
 5655SOL    HW217865   5.664   2.583   5.229
 5656SOL     OW17866   6.746   3.366   0.162
 5656SOL    HW117867   6.819   3.332   0.222
 5656SOL    HW217868   6.658   3.361   0.210
 5657SOL     OW17869   5.395   5.758   4.736
 5657SOL    HW117870   5.384   5.659   4.726
 5657SOL    HW217871   5.327   5.792   4.801
 5658SOL     OW17872   2.264   2.861   5.861
 5658SOL    HW117873   2.255   2.956   5.832
 5658SOL    HW217874   2.175   2.826   5.889
 5659SOL     OW17875   2.748   3.873   7.009
 5659SOL    HW117876   2.807   3.881   0.062
 5659SOL    HW217877   2.704   3.961   6.992
 5660SOL     OW17878   4.590   0.773   5.820
 5660SOL    HW117879   4.532   0.738   5.894
 5660SOL    HW217880   4.678   0.725   5.821
 5661SOL     OW17881   1.478   5.555   5.867
 5661SOL    HW117882   1.558   5.503   5.838
 5661SOL    HW217883   1.504   5.651   5.880
 5662SOL     OW17884   3.318   6.422   0.840
 5662SOL    HW117885   3.265   6.355   0.892
 5662SOL    HW217886   3.278   6.513   0.854
 5663SOL     OW17887   1.767   3.500   6.210
 5663SOL    HW117888   1.819   3.465   6.132
 5663SOL    HW217889   1.723   3.425   6.258
 5664SOL     OW17890   4.739   4.350   4.714
 5664SOL    HW117891   4.755   4.418   4.787
 5664SOL    HW217892   4.642   4.328   4.709
 5665SOL     OW17893   1.684   1.750   0.923
 5665SOL    HW117894   1.614   1.679   0.912
 5665SOL    HW217895   1.675   1.817   0.850
 5666SOL     OW17896   5.831   2.312   5.114
 5666SOL    HW117897   5.828   2.273   5.021
 5666SOL    HW217898   5.800   2.407   5.111
 5667SOL     OW17899   2.616   4.597   4.270
 5667SOL    HW117900   2.531   4.543   4.267
 5667SOL    HW217901   2.640   4.615   4.365
 5668SOL     OW17902   4.812   3.981   3.537
 5668SOL    HW117903   4.776   4.031   3.616
 5668SOL    HW217904   4.765   4.009   3.454
 5669SOL     OW17905   5.578   4.241   5.993
 5669SOL    HW117906   5.510   4.176   6.029
 5669SOL    HW217907   5.537   4.332   5.990
 5670SOL     OW17908   1.421   2.429   3.482
 5670SOL    HW117909   1.494   2.481   3.438
 5670SOL    HW217910   1.437   2.425   3.581
 5671SOL     OW17911   0.427   6.286   3.850
 5671SOL    HW117912   0.490   6.235   3.792
 5671SOL    HW217913   0.417   6.240   3.938
 5672SOL     OW17914   5.386   3.390   4.449
 5672SOL    HW117915   5.486   3.386   4.450
 5672SOL    HW217916   5.348   3.298   4.455
 5673SOL     OW17917   0.947   1.422   0.695
 5673SOL    HW117918   0.898   1.353   0.643
 5673SOL    HW217919   0.893   1.448   0.775
 5674SOL     OW17920   2.423   4.986   4.841
 5674SOL    HW117921   2.423   4.940   4.930
 5674SOL    HW217922   2.514   4.984   4.802
 5675SOL     OW17923   2.774   1.359   1.087
 5675SOL    HW117924   2.854   1.316   1.047
 5675SOL    HW217925   2.708   1.381   1.015
 5676SOL     OW17926   3.241   1.122   1.785
 5676SOL    HW117927   3.166   1.187   1.799
 5676SOL    HW217928   3.314   1.141   1.851
 5677SOL     OW17929   0.003   1.585   6.845
 5677SOL    HW117930   0.048   1.673   6.825
 5677SOL    HW217931   7.022   1.532   6.761
 5678SOL     OW17932   3.440   2.084   2.033
 5678SOL    HW117933   3.367   2.099   2.100
 5678SOL    HW217934   3.520   2.139   2.057
 5679SOL     OW17935   6.420   3.472   5.136
 5679SOL    HW117936   6.396   3.486   5.040
 5679SOL    HW217937   6.387   3.550   5.190
 5680SOL     OW17938   0.831   5.728   5.009
 5680SOL    HW117939   0.882   5.809   4.981
 5680SOL    HW217940   0.870   5.647   4.966
 5681SOL     OW17941   1.146   3.485   3.954
 5681SOL    HW117942   1.171   3.389   3.951
 5681SOL    HW217943   1.168   3.529   3.867
 5682SOL     OW17944   2.205   4.789   1.423
 5682SOL    HW117945   2.138   4.721   1.453
 5682SOL    HW217946   2.172   4.881   1.445
 5683SOL     OW17947   6.543   0.583   5.883
 5683SOL    HW117948   6.547   0.655   5.814
 5683SOL    HW217949   6.582   0.617   5.969
 5684SOL     OW17950   2.370   2.746   4.939
 5684SOL    HW117951   2.414   2.687   5.007
 5684SOL    HW217952   2.370   2.840   4.972
 5685SOL     OW17953   2.415   1.950   2.325
 5685SOL    HW117954   2.363   2.035   2.337
 5685SOL    HW217955   2.478   1.960   2.248
 5686SOL     OW17956   4.533   5.787   5.874
 5686SOL    HW117957   4.457   5.724   5.859
 5686SOL    HW217958   4.542   5.805   5.972
 5687SOL     OW17959   1.692   6.153   6.256
 5687SOL    HW117960   1.600   6.141   6.219
 5687SOL    HW217961   1.694   6.234   6.315
 5688SOL     OW17962   1.804   1.982   2.702
 5688SOL    HW117963   1.900   1.962   2.718
 5688SOL    HW217964   1.779   1.953   2.609
 5689SOL     OW17965   0.012   2.418   1.450
 5689SOL    HW117966   7.005   2.378   1.536
 5689SOL    HW217967   0.104   2.386   1.433
 5690SOL     OW17968   2.091   4.762   6.672
 5690SOL    HW117969   2.044   4.674   6.674
 5690SOL    HW217970   2.190   4.747   6.675
 5691SOL     OW17971   4.122   1.650   3.060
 5691SOL    HW117972   4.115   1.616   2.967
 5691SOL    HW217973   4.217   1.643   3.092
 5692SOL     OW17974   5.703   4.705   2.074
 5692SOL    HW117975   5.755   4.622   2.094
 5692SOL    HW217976   5.682   4.752   2.159
 5693SOL     OW17977   4.112   0.303   1.378
 5693SOL    HW117978   4.137   0.261   1.290
 5693SOL    HW217979   4.093   0.231   1.445
 5694SOL     OW17980   0.907   0.001   1.669
 5694SOL    HW117981   0.913   0.043   1.579
 5694SOL    HW217982   0.997   6.998   1.698
 5695SOL     OW17983   2.670   0.771   1.979
 5695SOL    HW117984   2.666   0.813   1.889
 5695SOL    HW217985   2.732   0.824   2.038
 5696SOL     OW17986   1.333   0.433   4.190
 5696SOL    HW117987   1.413   0.455   4.134
 5696SOL    HW217988   1.263   0.389   4.132
 5697SOL     OW17989   6.229   2.601   0.525
 5697SOL    HW117990   6.225   2.665   0.602
 5697SOL    HW217991   6.206   2.648   0.440
 5698SOL     OW17992   2.861   1.790   4.531
 5698SOL    HW117993   2.822   1.718   4.588
 5698SOL    HW217994   2.943   1.757   4.485
 5699SOL     OW17995   1.859   2.688   2.455
 5699SOL    HW117996   1.879   2.592   2.469
 5699SOL    HW217997   1.910   2.743   2.521
 5700SOL     OW17998   6.351   0.564   3.080
 5700SOL    HW117999   6.358   0.663   3.075
 5700SOL    HW218000   6.441   0.523   3.067
 5701SOL     OW18001   0.303   0.792   0.573
 5701SOL    HW118002   0.349   0.726   0.513
 5701SOL    HW218003   0.239   0.744   0.633
 5702SOL     OW18004   2.227   0.291   4.823
 5702SOL    HW118005   2.140   0.247   4.798
 5702SOL    HW218006   2.215   0.390   4.825
 5703SOL     OW18007   0.744   3.309   6.232
 5703SOL    HW118008   0.797   3.225   6.242
 5703SOL    HW218009   0.647   3.285   6.221
 5704SOL     OW18010   3.997   5.791   4.072
 5704SOL    HW118011   3.954   5.709   4.036
 5704SOL    HW218012   3.970   5.871   4.018
 5705SOL     OW18013   6.047   0.596   5.629
 5705SOL    HW118014   5.961   0.599   5.680
 5705SOL    HW218015   6.053   0.677   5.570
 5706SOL     OW18016   4.632   1.746   0.488
 5706SOL    HW118017   4.593   1.832   0.456
 5706SOL    HW218018   4.730   1.744   0.470
 5707SOL     OW18019   5.866   5.188   1.660
 5707SOL    HW118020   5.773   5.155   1.674
 5707SOL    HW218021   5.931   5.115   1.680
 5708SOL     OW18022   5.562   6.492   2.374
 5708SOL    HW118023   5.600   6.403   2.397
 5708SOL    HW218024   5.488   6.481   2.307
 5709SOL     OW18025   6.929   2.526   2.533
 5709SOL    HW118026   7.026   2.549   2.526
 5709SOL    HW218027   6.911   2.490   2.625
 5710SOL     OW18028   3.879   1.836   0.495
 5710SOL    HW118029   3.887   1.895   0.414
 5710SOL    HW218030   3.828   1.884   0.566
 5711SOL     OW18031   5.335   2.068   3.099
 5711SOL    HW118032   5.396   2.010   3.045
 5711SOL    HW218033   5.258   2.014   3.132
 5712SOL     OW18034   6.481   0.194   0.485
 5712SOL    HW118035   6.443   0.109   0.521
 5712SOL    HW218036   6.431   0.221   0.403
 5713SOL     OW18037   1.936   0.994   0.550
 5713SOL    HW118038   1.945   0.907   0.598
 5713SOL    HW218039   2.026   1.039   0.546
 5714SOL     OW18040   6.153   0.299   0.362
 5714SOL    HW118041   6.240   0.334   0.327
 5714SOL    HW218042   6.078   0.355   0.328
 5715SOL     OW18043   0.337   0.047   2.102
 5715SOL    HW118044   0.367   0.042   2.198
 5715SOL    HW218045   0.265   0.115   2.093
 5716SOL     OW18046   6.293   4.370   5.313
 5716SOL    HW118047   6.202   4.371   5.352
 5716SOL    HW218048   6.288   4.343   5.217
 5717SOL     OW18049   1.356   5.251   3.517
 5717SOL    HW118050   1.290   5.302   3.463
 5717SOL    HW218051   1.310   5.173   3.560
 5718SOL     OW18052   0.885   3.126   6.842
 5718SOL    HW118053   0.935   3.083   6.767
 5718SOL    HW218054   0.858   3.218   6.815
 5719SOL     OW18055   2.346   3.153   0.722
 5719SOL    HW118056   2.348   3.126   0.626
 5719SOL    HW218057   2.439   3.172   0.753
 5720SOL     OW18058   3.043   4.930   5.843
 5720SOL    HW118059   2.965   4.969   5.892
 5720SOL    HW218060   3.073   4.847   5.889
 5721SOL     OW18061   1.682   2.830   7.013
 5721SOL    HW118062   1.631   2.849   0.070
 5721SOL    HW218063   1.699   2.916   6.965
 5722SOL     OW18064   1.365   0.175   0.054
 5722SOL    HW118065   1.391   0.271   0.040
 5722SOL    HW218066   1.445   0.122   0.083
 5723SOL     OW18067   3.964   3.322   0.526
 5723SOL    HW118068   4.014   3.248   0.571
 5723SOL    HW218069   4.025   3.400   0.511
 5724SOL     OW18070   5.285   2.031   5.733
 5724SOL    HW118071   5.207   2.015   5.794
 5724SOL    HW218072   5.370   2.009   5.781
 5725SOL     OW18073   0.157   4.379   4.923
 5725SOL    HW118074   0.226   4.408   4.989
 5725SOL    HW218075   0.155   4.279   4.917
 5726SOL     OW18076   5.347   4.035   2.406
 5726SOL    HW118077   5.282   4.063   2.477
 5726SOL    HW218078   5.346   3.936   2.398
 5727SOL     OW18079   0.767   2.668   5.266
 5727SOL    HW118080   0.776   2.595   5.197
 5727SOL    HW218081   0.747   2.754   5.220
 5728SOL     OW18082   4.242   0.296   4.908
 5728SOL    HW118083   4.292   0.217   4.943
 5728SOL    HW218084   4.143   0.277   4.913
 5729SOL     OW18085   2.622   2.034   4.888
 5729SOL    HW118086   2.688   2.018   4.814
 5729SOL    HW218087   2.598   1.947   4.930
 5730SOL     OW18088   6.924   4.389   4.712
 5730SOL    HW118089   6.994   4.424   4.774
 5730SOL    HW218090   6.836   4.431   4.734
 5731SOL     OW18091   0.715   6.865   2.931
 5731SOL    HW118092   0.800   6.820   2.906
 5731SOL    HW218093   0.723   6.902   3.024
 5732SOL     OW18094   0.295   0.694   3.660
 5732SOL    HW118095   0.254   0.708   3.571
 5732SOL    HW218096   0.361   0.767   3.679
 5733SOL     OW18097   3.251   0.432   5.314
 5733SOL    HW118098   3.275   0.528   5.324
 5733SOL    HW218099   3.320   0.386   5.258
 5734SOL     OW18100   1.739   6.729   3.807
 5734SOL    HW118101   1.794   6.646   3.798
 5734SOL    HW218102   1.723   6.768   3.716
 5735SOL     OW18103   3.325   0.790   1.912
 5735SOL    HW118104   3.369   0.730   1.978
 5735SOL    HW218105   3.348   0.885   1.933
 5736SOL     OW18106   1.679   5.578   6.784
 5736SOL    HW118107   1.729   5.585   6.870
 5736SOL    HW218108   1.591   5.533   6.800
 5737SOL     OW18109   5.550   4.439   0.166
 5737SOL    HW118110   5.483   4.379   0.211
 5737SOL    HW218111   5.581   4.509   0.231
 5738SOL     OW18112   1.122   4.473   5.233
 5738SOL    HW118113   1.208   4.426   5.249
 5738SOL    HW218114   1.098   4.468   5.135
 5739SOL     OW18115   1.045   2.248   1.819
 5739SOL    HW118116   1.065   2.150   1.822
 5739SOL    HW218117   1.109   2.297   1.879
 5740SOL     OW18118   3.705   5.680   6.838
 5740SOL    HW118119   3.780   5.614   6.829
 5740SOL    HW218120   3.623   5.642   6.796
 5741SOL     OW18121   7.003   4.676   1.849
 5741SOL    HW118122   6.919   4.659   1.798
 5741SOL    HW218123   7.000   4.767   1.890
 5742SOL     OW18124   0.277   5.720   4.294
 5742SOL    HW118125   0.216   5.796   4.314
 5742SOL    HW218126   0.372   5.749   4.305
 5743SOL     OW18127   1.728   6.169   4.385
 5743SOL    HW118128   1.680   6.256   4.379
 5743SOL    HW218129   1.669   6.096   4.351
 5744SOL     OW18130   6.027   0.244   1.994
 5744SOL    HW118131   6.097   0.193   1.945
 5744SOL    HW218132   6.039   0.342   1.976
 5745SOL     OW18133   1.091   2.406   3.173
 5745SOL    HW118134   1.116   2.372   3.082
 5745SOL    HW218135   1.166   2.462   3.209
 5746SOL     OW18136   6.495   4.609   0.036
 5746SOL    HW118137   6.558   4.653   6.999
 5746SOL    HW218138   6.541   4.595   0.124
 5747SOL     OW18139   0.450   6.400   3.152
 5747SOL    HW118140   0.481   6.475   3.094
 5747SOL    HW218141   0.426   6.321   3.095
 5748SOL     OW18142   2.140   6.903   3.603
 5748SOL    HW118143   2.127   6.998   3.630
 5748SOL    HW218144   2.093   6.886   3.517
 5749SOL     OW18145   2.038   0.921   3.164
 5749SOL    HW118146   2.108   0.982   3.127
 5749SOL    HW218147   2.080   0.861   3.232
 5750SOL     OW18148   6.079   5.827   2.420
 5750SOL    HW118149   6.021   5.801   2.498
 5750SOL    HW218150   6.029   5.811   2.335
 5751SOL     OW18151   1.172   3.142   6.298
 5751SOL    HW118152   1.164   3.159   6.200
 5751SOL    HW218153   1.191   3.228   6.345
 5752SOL     OW18154   0.879   1.276   6.454
 5752SOL    HW118155   0.965   1.225   6.451
 5752SOL    HW218156   0.854   1.293   6.549
 5753SOL     OW18157   4.330   1.689   0.336
 5753SOL    HW118158   4.405   1.682   0.270
 5753SOL    HW218159   4.342   1.620   0.407
 5754SOL     OW18160   6.395   5.216   0.489
 5754SOL    HW118161   6.487   5.182   0.469
 5754SOL    HW218162   6.391   5.244   0.585
 5755SOL     OW18163   3.406   3.749   1.456
 5755SOL    HW118164   3.416   3.801   1.541
 5755SOL    HW218165   3.471   3.673   1.457
 5756SOL     OW18166   7.025   6.606   4.331
 5756SOL    HW118167   0.033   6.591   4.239
 5756SOL    HW218168   6.941   6.661   4.326
 5757SOL     OW18169   0.139   6.440   2.178
 5757SOL    HW118170   0.152   6.341   2.182
 5757SOL    HW218171   0.227   6.486   2.196
 5758SOL     OW18172   2.427   1.539   5.570
 5758SOL    HW118173   2.341   1.523   5.620
 5758SOL    HW218174   2.479   1.610   5.617
 5759SOL     OW18175   0.150   2.090   5.575
 5759SOL    HW118176   0.068   2.034   5.563
 5759SOL    HW218177   0.213   2.043   5.637
 5760SOL     OW18178   1.274   5.110   1.561
 5760SOL    HW118179   1.366   5.091   1.595
 5760SOL    HW218180   1.221   5.156   1.632
 5761SOL     OW18181   5.603   0.409   4.550
 5761SOL    HW118182   5.683   0.433   4.605
 5761SOL    HW218183   5.573   0.488   4.498
 5762SOL     OW18184   5.730   6.331   1.542
 5762SOL    HW118185   5.787   6.296   1.467
 5762SOL    HW218186   5.674   6.257   1.579
 5763SOL     OW18187   1.763   1.349   0.764
 5763SOL    HW118188   1.745   1.261   0.807
 5763SOL    HW218189   1.779   1.336   0.666
 5764SOL     OW18190   4.509   2.894   6.456
 5764SOL    HW118191   4.482   2.833   6.381
 5764SOL    HW218192   4.608   2.887   6.471
 5765SOL     OW18193   6.475   5.738   0.464
 5765SOL    HW118194   6.495   5.748   0.366
 5765SOL    HW218195   6.437   5.647   0.480
 5766SOL     OW18196   3.238   1.298   3.157
 5766SOL    HW118197   3.220   1.309   3.059
 5766SOL    HW218198   3.162   1.251   3.200
 5767SOL     OW18199   5.738   0.465   0.823
 5767SOL    HW118200   5.837   0.463   0.806
 5767SOL    HW218201   5.695   0.532   0.762
 5768SOL     OW18202   6.431   0.996   2.591
 5768SOL    HW118203   6.364   1.002   2.517
 5768SOL    HW218204   6.518   0.963   2.554
 5769SOL     OW18205   2.044   5.371   3.475
 5769SOL    HW118206   1.948   5.367   3.503
 5769SOL    HW218207   2.057   5.314   3.394
 5770SOL     OW18208   5.761   2.265   1.569
 5770SOL    HW118209   5.686   2.293   1.628
 5770SOL    HW218210   5.730   2.193   1.507
 5771SOL     OW18211   0.432   0.979   0.754
 5771SOL    HW118212   0.410   0.907   0.688
 5771SOL    HW218213   0.530   1.000   0.750
 5772SOL     OW18214   6.477   4.297   6.620
 5772SOL    HW118215   6.424   4.265   6.698
 5772SOL    HW218216   6.430   4.273   6.535
 5773SOL     OW18217   4.867   5.965   5.043
 5773SOL    HW118218   4.857   6.059   5.011
 5773SOL    HW218219   4.794   5.945   5.109
 5774SOL     OW18220   2.318   4.853   2.769
 5774SOL    HW118221   2.398   4.810   2.810
 5774SOL    HW218222   2.345   4.901   2.685
 5775SOL     OW18223   0.707   0.723   0.454
 5775SOL    HW118224   0.677   0.661   0.526
 5775SOL    HW218225   0.635   0.733   0.386
 5776SOL     OW18226   4.314   1.386   5.950
 5776SOL    HW118227   4.231   1.377   6.004
 5776SOL    HW218228   4.375   1.452   5.994
 5777SOL     OW18229   5.742   0.380   5.218
 5777SOL    HW118230   5.814   0.341   5.277
 5777SOL    HW218231   5.762   0.477   5.202
 5778SOL     OW18232   2.611   6.395   3.972
 5778SOL    HW118233   2.581   6.469   4.032
 5778SOL    HW218234   2.710   6.401   3.958
 5779SOL     OW18235   4.324   0.154   0.861
 5779SOL    HW118236   4.259   0.226   0.886
 5779SOL    HW218237   4.355   0.169   0.767
 5780SOL     OW18238   6.010   3.932   0.603
 5780SOL    HW118239   5.913   3.958   0.601
 5780SOL    HW218240   6.028   3.866   0.531
 5781SOL     OW18241   3.140   4.644   5.252
 5781SOL    HW118242   3.049   4.606   5.232
 5781SOL    HW218243   3.130   4.725   5.309
 5782SOL     OW18244   4.413   1.727   3.547
 5782SOL    HW118245   4.418   1.820   3.583
 5782SOL    HW218246   4.412   1.730   3.447
 5783SOL     OW18247   2.290   6.837   2.191
 5783SOL    HW118248   2.387   6.845   2.166
 5783SOL    HW218249   2.283   6.786   2.277
 5784SOL     OW18250   1.399   5.958   6.723
 5784SOL    HW118251   1.413   6.028   6.653
 5784SOL    HW218252   1.451   5.876   6.698
 5785SOL     OW18253   2.035   2.176   6.829
 5785SOL    HW118254   2.114   2.119   6.807
 5785SOL    HW218255   1.958   2.149   6.771
 5786SOL     OW18256   0.377   2.531   6.076
 5786SOL    HW118257   0.325   2.604   6.034
 5786SOL    HW218258   0.474   2.540   6.051
 5787SOL     OW18259   0.439   2.960   5.163
 5787SOL    HW118260   0.405   3.043   5.208
 5787SOL    HW218261   0.400   2.879   5.208
 5788SOL     OW18262   0.370   1.860   2.000
 5788SOL    HW118263   0.387   1.959   2.005
 5788SOL    HW218264   0.385   1.829   1.906
 5789SOL     OW18265   3.170   5.218   6.947
 5789SOL    HW118266   3.171   5.199   6.849
 5789SOL    HW218267   3.127   5.141   6.995
 5790SOL     OW18268   6.570   6.417   2.500
 5790SOL    HW118269   6.645   6.356   2.472
 5790SOL    HW218270   6.484   6.384   2.462
 5791SOL     OW18271   3.927   0.927   1.073
 5791SOL    HW118272   3.854   0.872   1.115
 5791SOL    HW218273   3.898   0.954   0.981
 5792SOL     OW18274   4.674   2.114   2.298
 5792SOL    HW118275   4.576   2.113   2.280
 5792SOL    HW218276   4.724   2.117   2.211
 5793SOL     OW18277   3.309   1.847   0.088
 5793SOL    HW118278   3.297   1.756   0.128
 5793SOL    HW218279   3.230   1.904   0.110
 5794SOL     OW18280   3.306   5.848   6.899
 5794SOL    HW118281   3.341   5.762   6.863
 5794SOL    HW218282   3.241   5.829   6.972
 5795SOL     OW18283   1.119   0.160   0.931
 5795SOL    HW118284   1.127   0.259   0.937
 5795SOL    HW218285   1.049   0.136   0.863
 5796SOL     OW18286   5.013   0.828   6.137
 5796SOL    HW118287   5.008   0.771   6.055
 5796SOL    HW218288   5.087   0.794   6.196
 5797SOL     OW18289   0.272   2.493   6.876
 5797SOL    HW118290   0.371   2.507   6.875
 5797SOL    HW218291   0.240   2.488   6.971
 5798SOL     OW18292   2.100   2.656   4.482
 5798SOL    HW118293   2.197   2.671   4.464
 5798SOL    HW218294   2.052   2.744   4.480
 5799SOL     OW18295   2.661   0.164   3.679
 5799SOL    HW118296   2.634   0.143   3.585
 5799SOL    HW218297   2.630   0.256   3.703
 5800SOL     OW18298   1.229   6.309   2.346
 5800SOL    HW118299   1.323   6.276   2.347
 5800SOL    HW218300   1.170   6.242   2.301
 5801SOL     OW18301   1.818   1.709   2.899
 5801SOL    HW118302   1.744   1.765   2.862
 5801SOL    HW218303   1.857   1.653   2.826
 5802SOL     OW18304   0.642   0.287   2.993
 5802SOL    HW118305   0.641   0.201   3.044
 5802SOL    HW218306   0.600   0.274   2.904
 5803SOL     OW18307   0.303   6.887   4.330
 5803SOL    HW118308   0.288   6.797   4.371
 5803SOL    HW218309   0.401   6.904   4.321
 5804SOL     OW18310   6.677   2.367   3.387
 5804SOL    HW118311   6.712   2.277   3.360
 5804SOL    HW218312   6.612   2.399   3.318
 5805SOL     OW18313   0.999   2.547   1.807
 5805SOL    HW118314   1.026   2.452   1.793
 5805SOL    HW218315   0.903   2.551   1.835
 5806SOL     OW18316   6.458   3.703   2.181
 5806SOL    HW118317   6.521   3.780   2.183
 5806SOL    HW218318   6.449   3.669   2.088
 5807SOL     OW18319   0.889   1.526   2.209
 5807SOL    HW118320   0.920   1.432   2.192
 5807SOL    HW218321   0.846   1.562   2.127
 5808SOL     OW18322   0.180   0.705   5.622
 5808SOL    HW118323   0.180   0.712   5.722
 5808SOL    HW218324   0.086   0.698   5.589
 5809SOL     OW18325   7.000   3.627   4.322
 5809SOL    HW118326   6.974   3.629   4.225
 5809SOL    HW218327   0.043   3.558   4.336
 5810SOL     OW18328   2.091   6.682   5.477
 5810SOL    HW118329   2.019   6.742   5.513
 5810SOL    HW218330   2.054   6.628   5.402
 5811SOL     OW18331   3.972   4.996   6.834
 5811SOL    HW118332   4.069   5.021   6.842
 5811SOL    HW218333   3.950   4.978   6.738
 5812SOL     OW18334   6.246   3.806   6.295
 5812SOL    HW118335   6.155   3.803   6.252
 5812SOL    HW218336   6.262   3.898   6.330
 5813SOL     OW18337   5.596   4.324   0.505
 5813SOL    HW118338   5.632   4.409   0.545
 5813SOL    HW218339   5.667   4.282   0.447
 5814SOL     OW18340   6.012   1.162   2.644
 5814SOL    HW118341   6.085   1.222   2.676
 5814SOL    HW218342   5.923   1.204   2.664
 5815SOL     OW18343   6.482   3.950   5.034
 5815SOL    HW118344   6.502   4.043   5.064
 5815SOL    HW218345   6.559   3.916   4.980
 5816SOL     OW18346   6.658   4.109   1.078
 5816SOL    HW118347   6.731   4.067   1.024
 5816SOL    HW218348   6.599   4.163   1.017
 5817SOL     OW18349   6.861   2.727   3.857
 5817SOL    HW118350   6.827   2.776   3.777
 5817SOL    HW218351   6.913   2.646   3.828
 5818SOL     OW18352   2.556   0.122   4.452
 5818SOL    HW118353   2.555   0.028   4.487
 5818SOL    HW218354   2.650   0.156   4.449
 5819SOL     OW18355   4.533   4.099   1.256
 5819SOL    HW118356   4.508   4.162   1.183
 5819SOL    HW218357   4.477   4.017   1.251
 5820SOL     OW18358   0.105   6.943   2.728
 5820SOL    HW118359   0.161   7.008   2.780
 5820SOL    HW218360   0.078   6.867   2.788
 5821SOL     OW18361   6.408   6.699   2.119
 5821SOL    HW118362   6.470   6.621   2.126
 5821SOL    HW218363   6.368   6.701   2.028
 5822SOL     OW18364   0.484   3.870   2.461
 5822SOL    HW118365   0.437   3.860   2.549
 5822SOL    HW218366   0.449   3.951   2.414
 5823SOL     OW18367   2.643   6.754   5.054
 5823SOL    HW118368   2.557   6.803   5.073
 5823SOL    HW218369   2.623   6.670   5.003
 5824SOL     OW18370   1.997   6.091   2.207
 5824SOL    HW118371   1.950   6.021   2.261
 5824SOL    HW218372   1.984   6.071   2.110
 5825SOL     OW18373   4.251   1.750   4.995
 5825SOL    HW118374   4.177   1.816   5.005
 5825SOL    HW218375   4.260   1.724   4.899
 5826SOL     OW18376   1.478   6.316   4.540
 5826SOL    HW118377   1.399   6.273   4.494
 5826SOL    HW218378   1.484   6.282   4.634
 5827SOL     OW18379   2.079   3.795   3.152
 5827SOL    HW118380   2.087   3.703   3.112
 5827SOL    HW218381   2.142   3.803   3.229
 5828SOL     OW18382   4.752   6.784   5.584
 5828SOL    HW118383   4.799   6.700   5.557
 5828SOL    HW218384   4.733   6.839   5.503
 5829SOL     OW18385   2.058   0.187   2.830
 5829SOL    HW118386   2.121   0.172   2.754
 5829SOL    HW218387   1.965   0.169   2.799
 5830SOL     OW18388   4.421   5.463   4.395
 5830SOL    HW118389   4.449   5.525   4.469
 5830SOL    HW218390   4.340   5.413   4.423
 5831SOL     OW18391   2.412   2.198   4.314
 5831SOL    HW118392   2.367   2.116   4.277
 5831SOL    HW218393   2.383   2.212   4.408
 5832SOL     OW18394   2.601   5.470   3.898
 5832SOL    HW118395   2.626   5.566   3.893
 5832SOL    HW218396   2.643   5.420   3.822
 5833SOL     OW18397   3.055   4.898   0.644
 5833SOL    HW118398   3.131   4.963   0.650
 5833SOL    HW218399   3.088   4.806   0.661
 5834SOL     OW18400   6.446   2.183   6.416
 5834SOL    HW118401   6.387   2.232   6.480
 5834SOL    HW218402   6.530   2.156   6.463
 5835SOL     OW18403   4.380   1.379   3.251
 5835SOL    HW118404   4.411   1.383   3.346
 5835SOL    HW218405   4.362   1.471   3.218
 5836SOL     OW18406   4.534   5.489   1.189
 5836SOL    HW118407   4.542   5.587   1.168
 5836SOL    HW218408   4.473   5.477   1.267
 5837SOL     OW18409   2.811   4.118   0.390
 5837SOL    HW118410   2.837   4.214   0.398
 5837SOL    HW218411   2.712   4.109   0.396
 5838SOL     OW18412   3.125   3.284   0.041
 5838SOL    HW118413   3.208   3.326   0.004
 5838SOL    HW218414   3.143   3.187   0.061
 5839SOL     OW18415   1.973   1.511   0.412
 5839SOL    HW118416   1.876   1.489   0.402
 5839SOL    HW218417   2.028   1.428   0.404
 5840SOL     OW18418   0.625   3.639   2.731
 5840SOL    HW118419   0.579   3.602   2.651
 5840SOL    HW218420   0.681   3.567   2.773
 5841SOL     OW18421   5.101   1.653   0.591
 5841SOL    HW118422   5.145   1.715   0.656
 5841SOL    HW218423   5.036   1.705   0.534
 5842SOL     OW18424   3.253   2.092   2.243
 5842SOL    HW118425   3.270   2.096   2.342
 5842SOL    HW218426   3.154   2.092   2.227
 5843SOL     OW18427   3.157   3.262   0.801
 5843SOL    HW118428   3.144   3.264   0.702
 5843SOL    HW218429   3.224   3.192   0.825
 5844SOL     OW18430   0.765   5.309   5.281
 5844SOL    HW118431   0.864   5.321   5.279
 5844SOL    HW218432   0.737   5.278   5.372
 5845SOL     OW18433   1.817   6.660   2.624
 5845SOL    HW118434   1.833   6.747   2.670
 5845SOL    HW218435   1.728   6.624   2.653
 5846SOL     OW18436   0.769   4.877   5.807
 5846SOL    HW118437   0.699   4.809   5.785
 5846SOL    HW218438   0.853   4.831   5.836
 5847SOL     OW18439   1.524   4.386   6.289
 5847SOL    HW118440   1.446   4.418   6.235
 5847SOL    HW218441   1.581   4.464   6.314
 5848SOL     OW18442   2.388   6.673   1.608
 5848SOL    HW118443   2.326   6.595   1.617
 5848SOL    HW218444   2.468   6.659   1.667
 5849SOL     OW18445   2.581   5.582   6.560
 5849SOL    HW118446   2.641   5.653   6.523
 5849SOL    HW218447   2.579   5.588   6.659
 5850SOL     OW18448   6.315   1.436   1.733
 5850SOL    HW118449   6.404   1.416   1.692
 5850SOL    HW218450   6.322   1.516   1.792
 5851SOL     OW18451   0.264   3.997   5.079
 5851SOL    HW118452   0.305   3.906   5.070
 5851SOL    HW218453   0.325   4.056   5.131
 5852SOL     OW18454   5.012   4.016   2.815
 5852SOL    HW118455   5.046   4.096   2.864
 5852SOL    HW218456   4.995   4.040   2.719
 5853SOL     OW18457   4.768   5.064   0.360
 5853SOL    HW118458   4.673   5.067   0.328
 5853SOL    HW218459   4.787   4.977   0.404
 5854SOL     OW18460   2.931   4.460   5.434
 5854SOL    HW118461   2.908   4.535   5.495
 5854SOL    HW218462   2.912   4.487   5.339
 5855SOL     OW18463   2.032   2.535   4.246
 5855SOL    HW118464   2.064   2.443   4.227
 5855SOL    HW218465   2.062   2.563   4.337
 5856SOL     OW18466   0.524   0.634   2.857
 5856SOL    HW118467   0.533   0.734   2.867
 5856SOL    HW218468   0.554   0.590   2.942
 5857SOL     OW18469   5.608   5.163   7.020
 5857SOL    HW118470   5.574   5.078   0.032
 5857SOL    HW218471   5.607   5.156   6.920
 5858SOL     OW18472   2.142   1.530   2.516
 5858SOL    HW118473   2.178   1.614   2.477
 5858SOL    HW218474   2.216   1.463   2.527
 5859SOL     OW18475   5.364   5.278   1.999
 5859SOL    HW118476   5.437   5.328   1.954
 5859SOL    HW218477   5.368   5.296   2.098
 5860SOL     OW18478   1.707   3.134   2.616
 5860SOL    HW118479   1.651   3.076   2.556
 5860SOL    HW218480   1.756   3.076   2.681
 5861SOL     OW18481   5.882   0.628   5.159
 5861SOL    HW118482   5.977   0.629   5.190
 5861SOL    HW218483   5.826   0.681   5.223
 5862SOL     OW18484   6.800   5.058   3.069
 5862SOL    HW118485   6.781   4.976   3.016
 5862SOL    HW218486   6.724   5.123   3.059
 5863SOL     OW18487   4.055   0.071   5.811
 5863SOL    HW118488   4.100   0.144   5.863
 5863SOL    HW218489   3.991   0.112   5.746
 5864SOL     OW18490   3.900   3.075   2.618
 5864SOL    HW118491   3.828   3.017   2.656
 5864SOL    HW218492   3.901   3.068   2.518
 5865SOL     OW18493   6.400   6.967   1.587
 5865SOL    HW118494   6.349   7.015   1.516
 5865SOL    HW218495   6.337   6.919   1.647
 5866SOL     OW18496   3.667   3.221   3.232
 5866SOL    HW118497   3.694   3.309   3.271
 5866SOL    HW218498   3.748   3.167   3.210
 5867SOL     OW18499   3.684   1.377   1.425
 5867SOL    HW118500   3.641   1.423   1.502
 5867SOL    HW218501   3.632   1.296   1.400
 5868SOL     OW18502   1.583   0.402   0.699
 5868SOL    HW118503   1.571   0.497   0.670
 5868SOL    HW218504   1.626   0.350   0.625
 5869SOL     OW18505   1.651   5.877   2.545
 5869SOL    HW118506   1.615   5.959   2.588
 5869SOL    HW218507   1.716   5.832   2.606
 5870SOL     OW18508   4.628   0.493   3.389
 5870SOL    HW118509   4.559   0.502   3.461
 5870SOL    HW218510   4.634   0.579   3.338
 5871SOL     OW18511   3.865   3.253   3.681
 5871SOL    HW118512   3.798   3.299   3.739
 5871SOL    HW218513   3.945   3.228   3.735
 5872SOL     OW18514   4.074   6.370   1.131
 5872SOL    HW118515   4.069   6.469   1.119
 5872SOL    HW218516   3.982   6.331   1.129
 5873SOL     OW18517   4.083   6.303   2.257
 5873SOL    HW118518   4.080   6.204   2.246
 5873SOL    HW218519   4.102   6.326   2.352
 5874SOL     OW18520   0.290   4.755   5.006
 5874SOL    HW118521   0.210   4.732   4.951
 5874SOL    HW218522   0.367   4.775   4.945
 5875SOL     OW18523   4.098   2.228   1.330
 5875SOL    HW118524   4.096   2.304   1.264
 5875SOL    HW218525   4.070   2.262   1.420
 5876SOL     OW18526   3.082   3.275   1.772
 5876SOL    HW118527   3.036   3.330   1.702
 5876SOL    HW218528   3.168   3.319   1.796
 5877SOL     OW18529   5.195   4.280   1.591
 5877SOL    HW118530   5.188   4.369   1.545
 5877SOL    HW218531   5.110   4.229   1.577
 5878SOL     OW18532   1.641   3.832   2.554
 5878SOL    HW118533   1.712   3.810   2.488
 5878SOL    HW218534   1.682   3.877   2.633
 5879SOL     OW18535   1.825   3.402   4.123
 5879SOL    HW118536   1.901   3.374   4.064
 5879SOL    HW218537   1.831   3.354   4.211
 5880SOL     OW18538   3.066   5.878   0.016
 5880SOL    HW118539   3.059   5.808   0.088
 5880SOL    HW218540   2.993   5.865   6.976
 5881SOL     OW18541   1.709   6.469   4.468
 5881SOL    HW118542   1.629   6.418   4.499
 5881SOL    HW218543   1.750   6.517   4.545
 5882SOL     OW18544   5.515   0.097   3.274
 5882SOL    HW118545   5.586   0.131   3.336
 5882SOL    HW218546   5.425   0.124   3.309
 5883SOL     OW18547   0.510   3.179   4.652
 5883SOL    HW118548   0.502   3.182   4.552
 5883SOL    HW218549   0.576   3.248   4.682
 5884SOL     OW18550   0.623   0.909   2.869
 5884SOL    HW118551   0.616   0.973   2.945
 5884SOL    HW218552   0.595   0.955   2.784
 5885SOL     OW18553   5.631   6.349   1.127
 5885SOL    HW118554   5.607   6.446   1.137
 5885SOL    HW218555   5.704   6.326   1.191
 5886SOL     OW18556   5.916   1.885   6.364
 5886SOL    HW118557   5.844   1.952   6.384
 5886SOL    HW218558   6.003   1.932   6.350
 5887SOL     OW18559   4.026   5.773   2.695
 5887SOL    HW118560   3.974   5.722   2.764
 5887SOL    HW218561   3.965   5.797   2.619
 5888SOL     OW18562   6.871   0.209   2.045
 5888SOL    HW118563   6.833   0.118   2.028
 5888SOL    HW218564   6.843   0.240   2.136
 5889SOL     OW18565   2.413   6.811   6.759
 5889SOL    HW118566   2.415   6.819   6.660
 5889SOL    HW218567   2.384   6.898   6.800
 5890SOL     OW18568   3.932   5.117   6.059
 5890SOL    HW118569   3.999   5.047   6.081
 5890SOL    HW218570   3.865   5.081   5.995
 5891SOL     OW18571   2.245   3.857   6.261
 5891SOL    HW118572   2.233   3.912   6.343
 5891SOL    HW218573   2.158   3.818   6.233
 5892SOL     OW18574   2.225   6.329   2.627
 5892SOL    HW118575   2.257   6.296   2.715
 5892SOL    HW218576   2.144   6.385   2.639
 5893SOL     OW18577   1.374   2.058   3.474
 5893SOL    HW118578   1.293   2.040   3.530
 5893SOL    HW218579   1.355   2.133   3.411
 5894SOL     OW18580   1.307   3.860   3.865
 5894SOL    HW118581   1.349   3.804   3.937
 5894SOL    HW218582   1.208   3.848   3.867
 5895SOL     OW18583   5.711   3.775   3.305
 5895SOL    HW118584   5.688   3.698   3.247
 5895SOL    HW218585   5.672   3.859   3.266
 5896SOL     OW18586   5.311   3.415   6.308
 5896SOL    HW118587   5.249   3.445   6.235
 5896SOL    HW218588   5.343   3.322   6.289
 5897SOL     OW18589   4.581   4.991   1.092
 5897SOL    HW118590   4.502   4.943   1.130
 5897SOL    HW218591   4.576   5.088   1.118
 5898SOL     OW18592   3.053   6.394   3.092
 5898SOL    HW118593   3.066   6.493   3.095
 5898SOL    HW218594   3.026   6.361   3.182
 5899SOL     OW18595   5.910   0.268   3.889
 5899SOL    HW118596   5.987   0.204   3.882
 5899SOL    HW218597   5.897   0.295   3.984
 5900SOL     OW18598   3.859   4.949   1.942
 5900SOL    HW118599   3.826   5.021   1.881
 5900SOL    HW218600   3.807   4.865   1.926
 5901SOL     OW18601   3.130   6.393   4.732
 5901SOL    HW118602   3.199   6.461   4.758
 5901SOL    HW218603   3.126   6.388   4.632
 5902SOL     OW18604   5.921   2.289   0.002
 5902SOL    HW118605   6.013   2.325   7.019
 5902SOL    HW218606   5.924   2.189   0.010
 5903SOL     OW18607   0.558   3.075   6.014
 5903SOL    HW118608   0.539   3.027   6.100
 5903SOL    HW218609   0.483   3.139   5.995
 5904SOL     OW18610   1.391   3.176   2.680
 5904SOL    HW118611   1.340   3.094   2.706
 5904SOL    HW218612   1.448   3.157   2.601
 5905SOL     OW18613   0.055   4.690   2.891
 5905SOL    HW118614   0.098   4.674   2.802
 5905SOL    HW218615   7.012   4.620   2.906
 5906SOL     OW18616   1.380   1.330   2.530
 5906SOL    HW118617   1.288   1.364   2.551
 5906SOL    HW218618   1.432   1.401   2.483
 5907SOL     OW18619   2.105   0.742   2.441
 5907SOL    HW118620   2.076   0.818   2.499
 5907SOL    HW218621   2.025   0.697   2.402
 5908SOL     OW18622   1.026   3.076   5.819
 5908SOL    HW118623   1.032   3.119   5.729
 5908SOL    HW218624   1.069   2.986   5.815
 5909SOL     OW18625   6.671   4.476   0.248
 5909SOL    HW118626   6.709   4.514   0.333
 5909SOL    HW218627   6.712   4.386   0.230
 5910SOL     OW18628   1.515   1.772   2.843
 5910SOL    HW118629   1.497   1.855   2.895
 5910SOL    HW218630   1.523   1.694   2.905
 5911SOL     OW18631   6.270   5.752   6.543
 5911SOL    HW118632   6.205   5.781   6.613
 5911SOL    HW218633   6.225   5.689   6.480
 5912SOL     OW18634   0.088   0.057   3.734
 5912SOL    HW118635   0.144   7.004   3.714
 5912SOL    HW218636   0.144   0.126   3.781
 5913SOL     OW18637   6.592   2.208   0.930
 5913SOL    HW118638   6.650   2.288   0.947
 5913SOL    HW218639   6.518   2.234   0.867
 5914SOL     OW18640   0.907   6.593   0.499
 5914SOL    HW118641   0.928   6.518   0.562
 5914SOL    HW218642   0.825   6.569   0.447
 5915SOL     OW18643   4.222   0.656   5.882
 5915SOL    HW118644   4.141   0.682   5.829
 5915SOL    HW218645   4.284   0.604   5.824
 5916SOL     OW18646   1.076   0.106   2.081
 5916SOL    HW118647   1.037   0.149   1.999
 5916SOL    HW218648   1.176   0.109   2.075
 5917SOL     OW18649   3.154   3.020   0.150
 5917SOL    HW118650   3.199   2.967   0.078
 5917SOL    HW218651   3.200   3.005   0.237
 5918SOL     OW18652   3.411   6.919   4.419
 5918SOL    HW118653   3.463   6.994   4.377
 5918SOL    HW218654   3.373   6.950   4.506
 5919SOL     OW18655   3.253   3.166   4.678
 5919SOL    HW118656   3.285   3.081   4.636
 5919SOL    HW218657   3.153   3.163   4.688
 5920SOL     OW18658   0.489   0.271   5.979
 5920SOL    HW118659   0.424   0.346   5.995
 5920SOL    HW218660   0.445   0.184   6.002
 5921SOL     OW18661   2.609   4.397   0.039
 5921SOL    HW118662   2.543   4.454   7.017
 5921SOL    HW218663   2.699   4.440   0.038
 5922SOL     OW18664   5.361   2.895   2.545
 5922SOL    HW118665   5.402   2.811   2.510
 5922SOL    HW218666   5.281   2.873   2.600
 5923SOL     OW18667   6.008   0.926   3.394
 5923SOL    HW118668   6.080   0.857   3.385
 5923SOL    HW218669   6.044   1.015   3.368
 5924SOL     OW18670   5.822   6.491   3.672
 5924SOL    HW118671   5.789   6.397   3.675
 5924SOL    HW218672   5.919   6.494   3.696
 5925SOL     OW18673   4.307   1.410   1.031
 5925SOL    HW118674   4.275   1.392   0.939
 5925SOL    HW218675   4.265   1.346   1.095
 5926SOL     OW18676   5.316   3.736   3.310
 5926SOL    HW118677   5.281   3.694   3.227
 5926SOL    HW218678   5.369   3.669   3.362
 5927SOL     OW18679   0.773   5.063   1.828
 5927SOL    HW118680   0.784   5.153   1.870
 5927SOL    HW218681   0.806   5.067   1.733
 5928SOL     OW18682   2.756   7.016   6.913
 5928SOL    HW118683   2.707   6.937   6.950
 5928SOL    HW218684   2.775   7.000   6.816
 5929SOL     OW18685   1.111   0.772   0.589
 5929SOL    HW118686   1.187   0.767   0.525
 5929SOL    HW218687   1.039   0.829   0.551
 5930SOL     OW18688   1.752   3.801   2.212
 5930SOL    HW118689   1.830   3.812   2.274
 5930SOL    HW218690   1.753   3.709   2.173
 5931SOL     OW18691   5.115   6.303   3.070
 5931SOL    HW118692   5.021   6.301   3.036
 5931SOL    HW218693   5.166   6.374   3.022
 5932SOL     OW18694   3.194   6.600   0.554
 5932SOL    HW118695   3.153   6.514   0.523
 5932SOL    HW218696   3.175   6.612   0.652
 5933SOL     OW18697   5.987   5.795   4.293
 5933SOL    HW118698   6.066   5.744   4.258
 5933SOL    HW218699   5.907   5.775   4.236
 5934SOL     OW18700   2.855   3.425   0.585
 5934SOL    HW118701   2.921   3.500   0.583
 5934SOL    HW218702   2.826   3.409   0.679
 5935SOL     OW18703   1.096   0.358   5.335
 5935SOL    HW118704   1.095   0.450   5.375
 5935SOL    HW218705   1.125   0.292   5.404
 5936SOL     OW18706   3.457   2.844   1.585
 5936SOL    HW118707   3.438   2.931   1.631
 5936SOL    HW218708   3.528   2.857   1.516
 5937SOL     OW18709   0.462   2.368   0.795
 5937SOL    HW118710   0.500   2.320   0.716
 5937SOL    HW218711   0.460   2.305   0.873
 5938SOL     OW18712   0.132   4.145   3.950
 5938SOL    HW118713   0.216   4.156   3.896
 5938SOL    HW218714   0.053   4.173   3.895
 5939SOL     OW18715   4.295   1.207   5.590
 5939SOL    HW118716   4.363   1.213   5.663
 5939SOL    HW218717   4.211   1.252   5.618
 5940SOL     OW18718   4.672   5.286   1.663
 5940SOL    HW118719   4.626   5.267   1.750
 5940SOL    HW218720   4.705   5.380   1.662
 5941SOL     OW18721   0.091   1.886   3.070
 5941SOL    HW118722   0.019   1.836   3.022
 5941SOL    HW218723   0.072   1.984   3.067
 5942SOL     OW18724   5.215   2.650   6.422
 5942SOL    HW118725   5.134   2.649   6.364
 5942SOL    HW218726   5.276   2.576   6.396
 5943SOL     OW18727   1.936   4.883   1.189
 5943SOL    HW118728   1.906   4.972   1.154
 5943SOL    HW218729   2.035   4.879   1.190
 5944SOL     OW18730   6.277   3.538   5.977
 5944SOL    HW118731   6.324   3.556   5.890
 5944SOL    HW218732   6.178   3.545   5.963
 5945SOL     OW18733   6.679   6.581   4.930
 5945SOL    HW118734   6.749   6.646   4.898
 5945SOL    HW218735   6.608   6.573   4.861
 5946SOL     OW18736   1.942   3.202   6.735
 5946SOL    HW118737   2.030   3.177   6.774
 5946SOL    HW218738   1.956   3.240   6.643
 5947SOL     OW18739   3.336   3.697   4.649
 5947SOL    HW118740   3.301   3.606   4.624
 5947SOL    HW218741   3.436   3.696   4.648
 5948SOL     OW18742   4.772   3.561   1.252
 5948SOL    HW118743   4.797   3.639   1.309
 5948SOL    HW218744   4.792   3.583   1.156
 5949SOL     OW18745   0.545   4.188   2.914
 5949SOL    HW118746   0.550   4.218   3.009
 5949SOL    HW218747   0.614   4.117   2.898
 5950SOL     OW18748   3.017   0.000   4.517
 5950SOL    HW118749   3.101   6.999   4.563
 5950SOL    HW218750   2.937   6.998   4.571
 5951SOL     OW18751   0.101   4.105   6.837
 5951SOL    HW118752   0.118   4.007   6.827
 5951SOL    HW218753   0.058   4.140   6.754
 5952SOL     OW18754   3.837   4.023   1.678
 5952SOL    HW118755   3.786   4.073   1.748
 5952SOL    HW218756   3.807   4.052   1.587
 5953SOL     OW18757   6.767   3.585   5.863
 5953SOL    HW118758   6.702   3.658   5.884
 5953SOL    HW218759   6.718   3.505   5.830
 5954SOL     OW18760   1.887   5.549   3.825
 5954SOL    HW118761   1.873   5.564   3.923
 5954SOL    HW218762   1.979   5.514   3.809
 5955SOL     OW18763   5.065   2.648   0.515
 5955SOL    HW118764   5.118   2.582   0.568
 5955SOL    HW218765   5.045   2.728   0.572
 5956SOL     OW18766   4.906   2.841   5.415
 5956SOL    HW118767   4.956   2.893   5.484
 5956SOL    HW218768   4.813   2.824   5.446
 5957SOL     OW18769   6.608   1.777   3.714
 5957SOL    HW118770   6.643   1.794   3.805
 5957SOL    HW218771   6.676   1.803   3.646
 5958SOL     OW18772   2.813   6.872   3.532
 5958SOL    HW118773   2.798   6.778   3.564
 5958SOL    HW218774   2.770   6.936   3.595
 5959SOL     OW18775   5.451   2.935   2.971
 5959SOL    HW118776   5.484   2.863   2.910
 5959SOL    HW218777   5.502   3.019   2.953
 5960SOL     OW18778   4.866   1.056   6.162
 5960SOL    HW118779   4.907   1.098   6.243
 5960SOL    HW218780   4.912   0.969   6.143
 5961SOL     OW18781   2.656   2.423   3.699
 5961SOL    HW118782   2.629   2.480   3.621
 5961SOL    HW218783   2.743   2.379   3.680
 5962SOL     OW18784   4.647   4.757   0.628
 5962SOL    HW118785   4.639   4.657   0.637
 5962SOL    HW218786   4.732   4.779   0.579
 5963SOL     OW18787   2.075   3.880   0.791
 5963SOL    HW118788   2.141   3.953   0.771
 5963SOL    HW218789   2.117   3.791   0.774
 5964SOL     OW18790   1.891   7.016   3.343
 5964SOL    HW118791   1.878   6.998   3.246
 5964SOL    HW218792   1.930   0.081   3.355
 5965SOL     OW18793   2.498   0.399   0.990
 5965SOL    HW118794   2.406   0.391   1.030
 5965SOL    HW218795   2.533   0.308   0.967
 5966SOL     OW18796   2.975   1.945   5.267
 5966SOL    HW118797   2.915   2.025   5.270
 5966SOL    HW218798   2.930   1.868   5.311
 5967SOL     OW18799   4.824   2.396   5.263
 5967SOL    HW118800   4.794   2.318   5.207
 5967SOL    HW218801   4.881   2.363   5.338
 5968SOL     OW18802   6.018   2.255   2.559
 5968SOL    HW118803   6.049   2.172   2.605
 5968SOL    HW218804   5.977   2.317   2.626
 5969SOL     OW18805   4.666   0.127   0.750
 5969SOL    HW118806   4.621   0.136   0.661
 5969SOL    HW218807   4.716   0.211   0.771
 5970SOL     OW18808   6.673   2.934   0.833
 5970SOL    HW118809   6.580   2.898   0.841
 5970SOL    HW218810   6.702   2.972   0.921
 5971SOL     OW18811   0.149   5.517   3.665
 5971SOL    HW118812   0.218   5.482   3.601
 5971SOL    HW218813   0.101   5.594   3.623
 5972SOL     OW18814   5.817   5.253   0.549
 5972SOL    HW118815   5.879   5.289   0.480
 5972SOL    HW218816   5.775   5.328   0.600
 5973SOL     OW18817   2.814   1.327   2.365
 5973SOL    HW118818   2.868   1.308   2.284
 5973SOL    HW218819   2.782   1.422   2.362
 5974SOL     OW18820   6.003   1.835   4.537
 5974SOL    HW118821   5.948   1.870   4.461
 5974SOL    HW218822   5.959   1.861   4.624
 5975SOL     OW18823   4.021   5.536   1.591
 5975SOL    HW118824   4.100   5.588   1.624
 5975SOL    HW218825   3.941   5.595   1.589
 5976SOL     OW18826   1.680   4.260   5.512
 5976SOL    HW118827   1.596   4.213   5.539
 5976SOL    HW218828   1.660   4.325   5.439
 5977SOL     OW18829   6.814   5.374   1.014
 5977SOL    HW118830   6.822   5.285   0.970
 5977SOL    HW218831   6.743   5.427   0.968
 5978SOL     OW18832   3.001   3.742   6.918
 5978SOL    HW118833   2.979   3.649   6.948
 5978SOL    HW218834   2.917   3.796   6.913
 5979SOL     OW18835   6.251   0.106   1.418
 5979SOL    HW118836   6.230   0.176   1.350
 5979SOL    HW218837   6.177   0.102   1.485
 5980SOL     OW18838   2.951   2.467   0.977
 5980SOL    HW118839   2.955   2.557   0.934
 5980SOL    HW218840   2.862   2.425   0.958
 5981SOL     OW18841   2.862   1.990   1.219
 5981SOL    HW118842   2.879   2.020   1.313
 5981SOL    HW218843   2.814   2.062   1.168
 5982SOL     OW18844   5.414   2.833   1.755
 5982SOL    HW118845   5.352   2.898   1.798
 5982SOL    HW218846   5.439   2.865   1.664
 5983SOL     OW18847   0.076   0.892   3.758
 5983SOL    HW118848   0.112   0.808   3.718
 5983SOL    HW218849   0.046   0.874   3.852
 5984SOL     OW18850   6.218   6.088   3.364
 5984SOL    HW118851   6.259   6.171   3.403
 5984SOL    HW218852   6.178   6.110   3.275
 5985SOL     OW18853   6.623   3.719   2.439
 5985SOL    HW118854   6.553   3.789   2.427
 5985SOL    HW218855   6.703   3.741   2.383
 5986SOL     OW18856   3.850   3.935   3.641
 5986SOL    HW118857   3.828   3.922   3.737
 5986SOL    HW218858   3.771   3.911   3.584
 5987SOL     OW18859   0.155   5.793   5.167
 5987SOL    HW118860   0.127   5.830   5.078
 5987SOL    HW218861   0.247   5.825   5.189
 5988SOL     OW18862   0.956   2.719   6.877
 5988SOL    HW118863   1.045   2.691   6.839
 5988SOL    HW218864   0.967   2.745   6.973
 5989SOL     OW18865   1.235   6.591   5.404
 5989SOL    HW118866   1.235   6.515   5.469
 5989SOL    HW218867   1.142   6.622   5.389
 5990SOL     OW18868   2.746   4.555   1.645
 5990SOL    HW118869   2.771   4.466   1.607
 5990SOL    HW218870   2.788   4.567   1.735
 5991SOL     OW18871   5.226   1.069   1.154
 5991SOL    HW118872   5.156   1.004   1.182
 5991SOL    HW218873   5.186   1.139   1.094
 5992SOL     OW18874   3.527   5.456   3.026
 5992SOL    HW118875   3.589   5.396   3.077
 5992SOL    HW218876   3.456   5.401   2.982
 5993SOL     OW18877   5.883   2.209   0.327
 5993SOL    HW118878   5.967   2.209   0.273
 5993SOL    HW218879   5.868   2.119   0.367
 5994SOL     OW18880   6.782   3.604   7.015
 5994SOL    HW118881   6.868   3.599   6.965
 5994SOL    HW218882   6.785   3.543   0.068
 5995SOL     OW18883   5.065   3.368   1.131
 5995SOL    HW118884   5.149   3.327   1.094
 5995SOL    HW218885   5.082   3.401   1.224
 5996SOL     OW18886   2.498   6.745   1.360
 5996SOL    HW118887   2.474   6.710   1.451
 5996SOL    HW218888   2.591   6.783   1.362
 5997SOL     OW18889   6.288   0.644   3.954
 5997SOL    HW118890   6.212   0.699   3.920
 5997SOL    HW218891   6.375   0.687   3.929
 5998SOL     OW18892   0.052   6.093   6.797
 5998SOL    HW118893   0.078   6.142   6.714
 5998SOL    HW218894   0.084   6.143   6.878
 5999SOL     OW18895   4.768   3.313   1.374
 5999SOL    HW118896   4.720   3.327   1.460
 5999SOL    HW218897   4.784   3.401   1.330
 6000SOL     OW18898   0.721   4.279   1.012
 6000SOL    HW118899   0.793   4.315   1.072
 6000SOL    HW218900   0.676   4.355   0.965
 6001SOL     OW18901   5.850   5.406   5.949
 6001SOL    HW118902   5.765   5.394   6.001
 6001SOL    HW218903   5.928   5.390   6.010
 6002SOL     OW18904   5.294   5.055   5.480
 6002SOL    HW118905   5.194   5.065   5.478
 6002SOL    HW218906   5.328   5.044   5.387
 6003SOL     OW18907   2.355   2.048   5.107
 6003SOL    HW118908   2.332   2.011   5.017
 6003SOL    HW218909   2.439   2.005   5.140
 6004SOL     OW18910   5.271   3.308   5.310
 6004SOL    HW118911   5.284   3.209   5.303
 6004SOL    HW218912   5.209   3.328   5.385
 6005SOL     OW18913   4.054   4.251   6.954
 6005SOL    HW118914   4.007   4.339   6.956
 6005SOL    HW218915   4.146   4.262   6.992
 6006SOL     OW18916   3.169   5.954   6.583
 6006SOL    HW118917   3.239   5.996   6.526
 6006SOL    HW218918   3.169   5.996   6.673
 6007SOL     OW18919   2.261   6.481   4.875
 6007SOL    HW118920   2.360   6.474   4.885
 6007SOL    HW218921   2.216   6.435   4.952
 6008SOL     OW18922   2.457   4.229   6.268
 6008SOL    HW118923   2.507   4.306   6.229
 6008SOL    HW218924   2.363   4.229   6.232
 6009SOL     OW18925   4.152   5.058   2.524
 6009SOL    HW118926   4.209   5.056   2.442
 6009SOL    HW218927   4.127   4.965   2.551
 6010SOL     OW18928   0.558   4.708   4.891
 6010SOL    HW118929   0.589   4.613   4.905
 6010SOL    HW218930   0.620   4.755   4.829
 6011SOL     OW18931   5.763   1.487   3.257
 6011SOL    HW118932   5.731   1.441   3.174
 6011SOL    HW218933   5.703   1.564   3.278
 6012SOL     OW18934   6.461   0.359   5.775
 6012SOL    HW118935   6.494   0.435   5.832
 6012SOL    HW218936   6.515   0.356   5.691
 6013SOL     OW18937   5.838   1.808   1.970
 6013SOL    HW118938   5.886   1.737   1.918
 6013SOL    HW218939   5.896   1.889   1.977
 6014SOL     OW18940   3.160   3.058   3.990
 6014SOL    HW118941   3.153   3.052   4.090
 6014SOL    HW218942   3.089   3.119   3.955
 6015SOL     OW18943   6.225   0.162   4.087
 6015SOL    HW118944   6.198   0.116   4.002
 6015SOL    HW218945   6.212   0.261   4.077
 6016SOL     OW18946   4.047   2.199   4.312
 6016SOL    HW118947   3.949   2.196   4.334
 6016SOL    HW218948   4.058   2.214   4.214
 6017SOL     OW18949   1.242   1.643   5.883
 6017SOL    HW118950   1.286   1.583   5.949
 6017SOL    HW218951   1.310   1.703   5.841
 6018SOL     OW18952   2.607   1.186   3.822
 6018SOL    HW118953   2.598   1.218   3.917
 6018SOL    HW218954   2.591   1.087   3.819
 6019SOL     OW18955   6.432   4.722   6.425
 6019SOL    HW118956   6.406   4.801   6.480
 6019SOL    HW218957   6.453   4.645   6.485
 6020SOL     OW18958   0.933   5.339   6.063
 6020SOL    HW118959   1.000   5.310   5.994
 6020SOL    HW218960   0.894   5.258   6.106
 6021SOL     OW18961   5.475   6.666   3.434
 6021SOL    HW118962   5.570   6.634   3.431
 6021SOL    HW218963   5.427   6.635   3.352
 6022SOL     OW18964   6.281   2.936   1.781
 6022SOL    HW118965   6.187   2.903   1.787
 6022SOL    HW218966   6.282   3.036   1.790
 6023SOL     OW18967   4.622   0.011   2.370
 6023SOL    HW118968   4.527   7.009   2.363
 6023SOL    HW218969   4.654   0.000   2.464
 6024SOL     OW18970   0.935   6.385   6.308
 6024SOL    HW118971   0.934   6.333   6.393
 6024SOL    HW218972   0.895   6.476   6.324
 6025SOL     OW18973   2.589   0.395   5.191
 6025SOL    HW118974   2.522   0.468   5.203
 6025SOL    HW218975   2.676   0.423   5.232
 6026SOL     OW18976   5.884   6.135   3.909
 6026SOL    HW118977   5.943   6.117   3.831
 6026SOL    HW218978   5.791   6.107   3.888
 6027SOL     OW18979   5.479   5.346   6.114
 6027SOL    HW118980   5.552   5.290   6.153
 6027SOL    HW218981   5.390   5.310   6.143
 6028SOL     OW18982   5.695   5.737   6.171
 6028SOL    HW118983   5.599   5.713   6.153
 6028SOL    HW218984   5.698   5.810   6.239
 6029SOL     OW18985   3.270   1.401   2.897
 6029SOL    HW118986   3.368   1.421   2.891
 6029SOL    HW218987   3.219   1.472   2.848
 6030SOL     OW18988   6.080   3.306   4.412
 6030SOL    HW118989   6.095   3.377   4.343
 6030SOL    HW218990   6.166   3.258   4.430
 6031SOL     OW18991   0.141   6.383   5.054
 6031SOL    HW118992   0.055   6.372   5.004
 6031SOL    HW218993   0.201   6.446   5.004
 6032SOL     OW18994   3.377   6.516   3.305
 6032SOL    HW118995   3.414   6.518   3.212
 6032SOL    HW218996   3.277   6.523   3.302
 6033SOL     OW18997   0.445   1.522   2.569
 6033SOL    HW118998   0.533   1.538   2.524
 6033SOL    HW218999   0.459   1.512   2.667
 6034SOL     OW19000   0.206   6.927   0.610
 6034SOL    HW119001   0.111   6.949   0.630
 6034SOL    HW219002   0.231   6.842   0.656
 6035SOL     OW19003   2.857   0.455   2.400
 6035SOL    HW119004   2.798   0.447   2.320
 6035SOL    HW219005   2.827   0.389   2.470
 6036SOL     OW19006   6.336   3.368   0.485
 6036SOL    HW119007   6.360   3.341   0.392
 6036SOL    HW219008   6.413   3.417   0.526
 6037SOL     OW19009   4.540   1.498   6.062
 6037SOL    HW119010   4.608   1.562   6.026
 6037SOL    HW219011   4.571   1.462   6.150
 6038SOL     OW19012   1.222   1.371   6.142
 6038SOL    HW119013   1.186   1.360   6.234
 6038SOL    HW219014   1.176   1.307   6.080
 6039SOL     OW19015   4.151   3.550   3.868
 6039SOL    HW119016   4.207   3.520   3.791
 6039SOL    HW219017   4.108   3.637   3.846
 6040SOL     OW19018   0.521   2.078   0.396
 6040SOL    HW119019   0.434   2.045   0.434
 6040SOL    HW219020   0.580   1.999   0.377
 6041SOL     OW19021   1.217   3.507   5.503
 6041SOL    HW119022   1.264   3.454   5.433
 6041SOL    HW219023   1.236   3.467   5.593
 6042SOL     OW19024   3.240   5.902   3.775
 6042SOL    HW119025   3.193   5.911   3.863
 6042SOL    HW219026   3.328   5.856   3.790
 6043SOL     OW19027   2.375   0.285   2.880
 6043SOL    HW119028   2.431   0.241   2.950
 6043SOL    HW219029   2.427   0.358   2.835
 6044SOL     OW19030   0.589   3.170   0.885
 6044SOL    HW119031   0.622   3.162   0.979
 6044SOL    HW219032   0.525   3.096   0.866
 6045SOL     OW19033   5.856   1.394   3.528
 6045SOL    HW119034   5.803   1.424   3.449
 6045SOL    HW219035   5.889   1.301   3.514
 6046SOL     OW19036   3.345   3.267   2.741
 6046SOL    HW119037   3.403   3.226   2.671
 6046SOL    HW219038   3.256   3.289   2.702
 6047SOL     OW19039   6.934   1.338   0.209
 6047SOL    HW119040   0.002   1.315   0.188
 6047SOL    HW219041   6.930   1.392   0.293
 6048SOL     OW19042   5.843   6.054   3.119
 6048SOL    HW119043   5.745   6.037   3.130
 6048SOL    HW219044   5.889   5.968   3.094
 6049SOL     OW19045   4.465   5.273   6.806
 6049SOL    HW119046   4.475   5.310   6.898
 6049SOL    HW219047   4.430   5.344   6.745
 6050SOL     OW19048   2.880   5.389   2.400
 6050SOL    HW119049   2.926   5.397   2.488
 6050SOL    HW219050   2.943   5.349   2.333
 6051SOL     OW19051   0.565   1.531   3.273
 6051SOL    HW119052   0.480   1.508   3.321
 6051SOL    HW219053   0.545   1.548   3.177
 6052SOL     OW19054   5.281   5.647   0.479
 6052SOL    HW119055   5.350   5.661   0.550
 6052SOL    HW219056   5.205   5.594   0.515
 6053SOL     OW19057   4.460   2.489   6.590
 6053SOL    HW119058   4.552   2.525   6.602
 6053SOL    HW219059   4.411   2.491   6.677
 6054SOL     OW19060   4.024   3.618   1.013
 6054SOL    HW119061   3.989   3.606   1.106
 6054SOL    HW219062   4.088   3.544   0.992
 6055SOL     OW19063   2.756   3.637   1.413
 6055SOL    HW119064   2.723   3.558   1.465
 6055SOL    HW219065   2.702   3.718   1.439
 6056SOL     OW19066   5.067   6.039   3.348
 6056SOL    HW119067   5.092   6.123   3.395
 6056SOL    HW219068   4.985   6.055   3.292
 6057SOL     OW19069   5.512   0.554   4.135
 6057SOL    HW119070   5.561   0.500   4.066
 6057SOL    HW219071   5.549   0.534   4.226
 6058SOL     OW19072   6.974   2.545   5.907
 6058SOL    HW119073   6.935   2.499   5.828
 6058SOL    HW219074   0.008   2.482   5.956
 6059SOL     OW19075   4.472   2.658   7.009
 6059SOL    HW119076   4.545   2.653   6.940
 6059SOL    HW219077   4.495   2.729   0.048
 6060SOL     OW19078   2.036   2.412   0.454
 6060SOL    HW119079   2.045   2.482   0.525
 6060SOL    HW219080   2.049   2.454   0.364
 6061SOL     OW19081   3.711   3.963   6.937
 6061SOL    HW119082   3.643   3.977   7.009
 6061SOL    HW219083   3.703   3.870   6.900
 6062SOL     OW19084   1.958   2.117   6.322
 6062SOL    HW119085   1.943   2.204   6.368
 6062SOL    HW219086   2.056   2.094   6.325
 6063SOL     OW19087   4.640   4.018   7.011
 6063SOL    HW119088   4.699   4.091   0.019
 6063SOL    HW219089   4.657   3.935   0.036
 6064SOL     OW19090   6.312   6.244   0.957
 6064SOL    HW119091   6.316   6.305   0.877
 6064SOL    HW219092   6.234   6.182   0.948
 6065SOL     OW19093   2.445   6.328   1.550
 6065SOL    HW119094   2.386   6.253   1.520
 6065SOL    HW219095   2.395   6.386   1.614
 6066SOL     OW19096   5.271   5.791   2.821
 6066SOL    HW119097   5.265   5.823   2.916
 6066SOL    HW219098   5.274   5.870   2.760
 6067SOL     OW19099   0.095   6.177   5.778
 6067SOL    HW119100   0.163   6.249   5.784
 6067SOL    HW219101   0.009   6.209   5.819
 6068SOL     OW19102   5.119   2.201   4.156
 6068SOL    HW119103   5.218   2.207   4.156
 6068SOL    HW219104   5.080   2.288   4.128
 6069SOL     OW19105   6.994   4.686   6.269
 6069SOL    HW119106   6.935   4.721   6.341
 6069SOL    HW219107   6.961   4.719   6.180
 6070SOL     OW19108   2.456   1.500   0.886
 6070SOL    HW119109   2.539   1.552   0.904
 6070SOL    HW219110   2.416   1.469   0.973
 6071SOL     OW19111   5.661   1.070   5.889
 6071SOL    HW119112   5.633   1.166   5.892
 6071SOL    HW219113   5.716   1.054   5.808
 6072SOL     OW19114   6.764   3.471   6.695
 6072SOL    HW119115   6.702   3.418   6.753
 6072SOL    HW219116   6.752   3.444   6.600
 6073SOL     OW19117   5.095   3.682   0.141
 6073SOL    HW119118   5.167   3.673   0.209
 6073SOL    HW219119   5.125   3.744   0.069
 6074SOL     OW19120   1.222   6.787   1.997
 6074SOL    HW119121   1.195   6.691   1.992
 6074SOL    HW219122   1.287   6.799   2.072
 6075SOL     OW19123   5.802   0.654   6.960
 6075SOL    HW119124   5.792   0.722   6.888
 6075SOL    HW219125   5.784   0.563   6.923
 6076SOL     OW19126   0.729   5.915   2.789
 6076SOL    HW119127   0.725   5.986   2.719
 6076SOL    HW219128   0.811   5.928   2.845
 6077SOL     OW19129   5.307   6.016   2.681
 6077SOL    HW119130   5.247   6.069   2.740
 6077SOL    HW219131   5.347   6.076   2.612
 6078SOL     OW19132   4.942   3.846   0.344
 6078SOL    HW119133   4.957   3.933   0.297
 6078SOL    HW219134   4.992   3.774   0.296
 6079SOL     OW19135   3.098   2.104   6.924
 6079SOL    HW119136   3.000   2.111   6.942
 6079SOL    HW219137   3.146   2.087   7.010
 6080SOL     OW19138   6.562   3.789   5.936
 6080SOL    HW119139   6.494   3.785   5.863
 6080SOL    HW219140   6.516   3.779   6.025
 6081SOL     OW19141   1.562   3.063   3.654
 6081SOL    HW119142   1.514   3.129   3.712
 6081SOL    HW219143   1.616   3.001   3.711
 6082SOL     OW19144   5.005   1.248   1.544
 6082SOL    HW119145   5.068   1.173   1.563
 6082SOL    HW219146   5.037   1.330   1.591
 6083SOL     OW19147   4.696   0.352   6.627
 6083SOL    HW119148   4.745   0.385   6.708
 6083SOL    HW219149   4.748   0.377   6.545
 6084SOL     OW19150   6.395   5.564   2.992
 6084SOL    HW119151   6.399   5.468   3.019
 6084SOL    HW219152   6.299   5.593   2.984
 6085SOL     OW19153   0.745   6.398   0.312
 6085SOL    HW119154   0.786   6.317   0.355
 6085SOL    HW219155   0.812   6.440   0.251
 6086SOL     OW19156   3.496   3.969   0.095
 6086SOL    HW119157   3.417   4.010   0.048
 6086SOL    HW219158   3.464   3.902   0.162
 6087SOL     OW19159   4.429   0.220   0.568
 6087SOL    HW119160   4.336   0.228   0.531
 6087SOL    HW219161   4.485   0.295   0.535
 6088SOL     OW19162   4.627   5.315   2.939
 6088SOL    HW119163   4.659   5.407   2.958
 6088SOL    HW219164   4.646   5.256   3.017
 6089SOL     OW19165   6.165   3.686   3.375
 6089SOL    HW119166   6.114   3.768   3.350
 6089SOL    HW219167   6.227   3.661   3.300
 6090SOL     OW19168   3.758   5.372   4.099
 6090SOL    HW119169   3.800   5.290   4.138
 6090SOL    HW219170   3.702   5.417   4.168
 6091SOL     OW19171   0.826   1.197   1.105
 6091SOL    HW119172   0.732   1.164   1.094
 6091SOL    HW219173   0.890   1.122   1.087
 6092SOL     OW19174   2.667   0.020   1.540
 6092SOL    HW119175   2.577   7.023   1.576
 6092SOL    HW219176   2.711   6.964   1.504
 6093SOL     OW19177   2.492   2.556   2.309
 6093SOL    HW119178   2.474   2.654   2.320
 6093SOL    HW219179   2.497   2.534   2.212
 6094SOL     OW19180   0.816   6.101   5.567
 6094SOL    HW119181   0.823   6.014   5.518
 6094SOL    HW219182   0.720   6.119   5.590
 6095SOL     OW19183   4.994   4.914   1.672
 6095SOL    HW119184   5.076   4.876   1.631
 6095SOL    HW219185   4.990   4.889   1.769
 6096SOL     OW19186   5.057   5.708   3.238
 6096SOL    HW119187   5.055   5.743   3.332
 6096SOL    HW219188   4.977   5.649   3.223
 6097SOL     OW19189   2.275   5.044   2.212
 6097SOL    HW119190   2.321   4.955   2.212
 6097SOL    HW219191   2.186   5.036   2.167
 6098SOL     OW19192   6.571   0.370   5.059
 6098SOL    HW119193   6.650   0.316   5.030
 6098SOL    HW219194   6.603   0.458   5.096
 6099SOL     OW19195   3.878   0.162   5.580
 6099SOL    HW119196   3.788   0.166   5.623
 6099SOL    HW219197   3.910   0.256   5.562
 6100SOL     OW19198   0.977   5.622   5.331
 6100SOL    HW119199   0.925   5.538   5.313
 6100SOL    HW219200   1.059   5.623   5.273
 6101SOL     OW19201   0.061   3.400   1.700
 6101SOL    HW119202   0.088   3.432   1.609
 6101SOL    HW219203   0.112   3.318   1.723
 6102SOL     OW19204   3.674   7.016   2.681
 6102SOL    HW119205   3.616   7.013   2.599
 6102SOL    HW219206   3.769   7.003   2.655
 6103SOL     OW19207   6.247   1.846   2.331
 6103SOL    HW119208   6.265   1.935   2.289
 6103SOL    HW219209   6.148   1.834   2.344
 6104SOL     OW19210   6.907   0.760   4.936
 6104SOL    HW119211   6.901   0.832   4.867
 6104SOL    HW219212   6.848   0.684   4.909
 6105SOL     OW19213   3.678   4.461   6.309
 6105SOL    HW119214   3.633   4.518   6.241
 6105SOL    HW219215   3.611   4.428   6.375
 6106SOL     OW19216   6.020   5.114   5.388
 6106SOL    HW119217   5.953   5.078   5.453
 6106SOL    HW219218   6.072   5.187   5.432
 6107SOL     OW19219   5.721   5.085   5.314
 6107SOL    HW119220   5.809   5.054   5.278
 6107SOL    HW219221   5.714   5.059   5.410
 6108SOL     OW19222   2.016   1.223   6.789
 6108SOL    HW119223   2.073   1.148   6.755
 6108SOL    HW219224   2.064   1.269   6.865
 6109SOL     OW19225   6.945   6.636   3.861
 6109SOL    HW119226   6.859   6.664   3.904
 6109SOL    HW219227   6.943   6.660   3.764
 6110SOL     OW19228   1.749   1.336   4.512
 6110SOL    HW119229   1.777   1.294   4.599
 6110SOL    HW219230   1.829   1.347   4.453
 6111SOL     OW19231   2.226   3.654   0.860
 6111SOL    HW119232   2.204   3.557   0.851
 6111SOL    HW219233   2.265   3.672   0.950
 6112SOL     OW19234   4.982   6.746   3.643
 6112SOL    HW119235   5.077   6.771   3.621
 6112SOL    HW219236   4.963   6.767   3.739
 6113SOL     OW19237   1.985   5.493   0.920
 6113SOL    HW119238   1.982   5.420   0.851
 6113SOL    HW219239   1.953   5.579   0.880
 6114SOL     OW19240   5.274   2.434   1.120
 6114SOL    HW119241   5.361   2.442   1.072
 6114SOL    HW219242   5.290   2.392   1.209
 6115SOL     OW19243   1.119   1.083   6.202
 6115SOL    HW119244   1.090   0.988   6.215
 6115SOL    HW219245   1.054   1.131   6.144
 6116SOL     OW19246   5.793   3.772   6.887
 6116SOL    HW119247   5.698   3.802   6.873
 6116SOL    HW219248   5.855   3.837   6.844
 6117SOL     OW19249   1.638   2.159   1.520
 6117SOL    HW119250   1.604   2.101   1.594
 6117SOL    HW219251   1.671   2.245   1.557
 6118SOL     OW19252   5.736   1.574   2.076
 6118SOL    HW119253   5.776   1.653   2.029
 6118SOL    HW219254   5.725   1.499   2.010
 6119SOL     OW19255   6.350   1.435   6.947
 6119SOL    HW119256   6.431   1.493   6.941
 6119SOL    HW219257   6.289   1.471   7.018
 6120SOL     OW19258   3.169   0.732   4.186
 6120SOL    HW119259   3.123   0.820   4.192
 6120SOL    HW219260   3.120   0.672   4.122
 6121SOL     OW19261   1.958   2.100   4.924
 6121SOL    HW119262   2.017   2.040   4.978
 6121SOL    HW219263   1.999   2.192   4.920
 6122SOL     OW19264   5.435   5.025   5.230
 6122SOL    HW119265   5.404   4.936   5.196
 6122SOL    HW219266   5.535   5.027   5.233
 6123SOL     OW19267   5.894   1.650   5.462
 6123SOL    HW119268   5.986   1.628   5.494
 6123SOL    HW219269   5.870   1.592   5.384
 6124SOL     OW19270   2.479   5.946   4.146
 6124SOL    HW119271   2.503   6.027   4.092
 6124SOL    HW219272   2.554   5.924   4.208
 6125SOL     OW19273   2.879   1.742   6.375
 6125SOL    HW119274   2.906   1.749   6.472
 6125SOL    HW219275   2.852   1.648   6.355
 6126SOL     OW19276   5.984   2.927   6.047
 6126SOL    HW119277   6.079   2.900   6.027
 6126SOL    HW219278   5.977   3.027   6.044
 6127SOL     OW19279   4.896   2.113   2.832
 6127SOL    HW119280   4.991   2.087   2.814
 6127SOL    HW219281   4.836   2.060   2.772
 6128SOL     OW19282   5.649   5.538   6.747
 6128SOL    HW119283   5.659   5.473   6.671
 6128SOL    HW219284   5.699   5.622   6.726
 6129SOL     OW19285   2.551   5.715   2.151
 6129SOL    HW119286   2.577   5.619   2.140
 6129SOL    HW219287   2.540   5.736   2.248
 6130SOL     OW19288   5.871   2.960   0.292
 6130SOL    HW119289   5.833   2.883   0.343
 6130SOL    HW219290   5.971   2.959   0.299
 6131SOL     OW19291   6.368   2.265   3.086
 6131SOL    HW119292   6.313   2.252   3.004
 6131SOL    HW219293   6.372   2.179   3.137
 6132SOL     OW19294   4.224   0.502   6.208
 6132SOL    HW119295   4.241   0.551   6.293
 6132SOL    HW219296   4.125   0.496   6.192
 6133SOL     OW19297   0.516   2.182   3.080
 6133SOL    HW119298   0.547   2.250   3.146
 6133SOL    HW219299   0.518   2.091   3.123
 6134SOL     OW19300   0.482   6.406   5.414
 6134SOL    HW119301   0.516   6.331   5.356
 6134SOL    HW219302   0.386   6.389   5.436
 6135SOL     OW19303   0.073   6.722   0.419
 6135SOL    HW119304   0.099   6.782   0.495
 6135SOL    HW219305   0.051   6.779   0.339
 6136SOL     OW19306   0.949   2.652   3.169
 6136SOL    HW119307   0.944   2.553   3.157
 6136SOL    HW219308   1.039   2.676   3.205
 6137SOL     OW19309   0.089   4.199   1.205
 6137SOL    HW119310   0.086   4.178   1.303
 6137SOL    HW219311   0.001   4.236   1.176
 6138SOL     OW19312   4.821   0.522   2.250
 6138SOL    HW119313   4.847   0.448   2.188
 6138SOL    HW219314   4.794   0.484   2.338
 6139SOL     OW19315   1.604   0.820   5.101
 6139SOL    HW119316   1.645   0.833   5.192
 6139SOL    HW219317   1.535   0.890   5.085
 6140SOL     OW19318   1.280   0.031   2.870
 6140SOL    HW119319   1.343   0.062   2.799
 6140SOL    HW219320   1.328   0.026   2.958
 6141SOL     OW19321   1.003   0.831   6.194
 6141SOL    HW119322   1.005   0.758   6.262
 6141SOL    HW219323   0.954   0.801   6.113
 6142SOL     OW19324   6.491   0.728   1.680
 6142SOL    HW119325   6.462   0.823   1.692
 6142SOL    HW219326   6.591   0.723   1.687
 6143SOL     OW19327   0.097   3.418   5.377
 6143SOL    HW119328   0.145   3.353   5.436
 6143SOL    HW219329   7.026   3.413   5.396
 6144SOL     OW19330   4.130   5.109   2.808
 6144SOL    HW119331   4.032   5.124   2.821
 6144SOL    HW219332   4.150   5.100   2.710
 6145SOL     OW19333   4.938   3.660   3.869
 6145SOL    HW119334   4.926   3.634   3.773
 6145SOL    HW219335   4.935   3.760   3.876
 6146SOL     OW19336   5.683   0.128   5.141
 6146SOL    HW119337   5.743   0.072   5.198
 6146SOL    HW219338   5.678   0.220   5.178
 6147SOL     OW19339   1.206   2.746   5.123
 6147SOL    HW119340   1.186   2.817   5.056
 6147SOL    HW219341   1.139   2.672   5.116
 6148SOL     OW19342   3.764   5.196   6.999
 6148SOL    HW119343   3.802   5.140   6.924
 6148SOL    HW219344   3.672   5.227   6.974
 6149SOL     OW19345   3.625   0.919   1.344
 6149SOL    HW119346   3.530   0.944   1.327
 6149SOL    HW219347   3.649   0.838   1.291
 6150SOL     OW19348   1.092   4.046   5.161
 6150SOL    HW119349   1.141   4.022   5.244
 6150SOL    HW219350   1.149   4.106   5.104
 6151SOL     OW19351   4.397   5.097   3.192
 6151SOL    HW119352   4.384   5.138   3.282
 6151SOL    HW219353   4.493   5.104   3.166
 6152SOL     OW19354   1.718   4.374   3.931
 6152SOL    HW119355   1.793   4.309   3.945
 6152SOL    HW219356   1.704   4.389   3.833
 6153SOL     OW19357   4.980   5.717   0.988
 6153SOL    HW119358   5.042   5.669   0.925
 6153SOL    HW219359   4.982   5.670   1.077
 6154SOL     OW19360   5.211   3.703   2.355
 6154SOL    HW119361   5.284   3.637   2.374
 6154SOL    HW219362   5.201   3.715   2.257
 6155SOL     OW19363   1.958   1.716   3.324
 6155SOL    HW119364   2.019   1.745   3.398
 6155SOL    HW219365   1.968   1.778   3.246
 6156SOL     OW19366   5.498   4.568   1.284
 6156SOL    HW119367   5.411   4.520   1.266
 6156SOL    HW219368   5.536   4.535   1.370
 6157SOL     OW19369   0.576   2.714   1.811
 6157SOL    HW119370   0.625   2.627   1.812
 6157SOL    HW219371   0.641   2.790   1.807
 6158SOL     OW19372   3.032   2.138   4.832
 6158SOL    HW119373   2.958   2.176   4.778
 6158SOL    HW219374   3.040   2.189   4.918
 6159SOL     OW19375   6.300   2.445   0.271
 6159SOL    HW119376   6.239   2.513   0.230
 6159SOL    HW219377   6.246   2.380   0.325
 6160SOL     OW19378   1.103   0.368   1.215
 6160SOL    HW119379   1.187   0.369   1.269
 6160SOL    HW219380   1.122   0.407   1.124
 6161SOL     OW19381   4.316   3.549   6.665
 6161SOL    HW119382   4.299   3.580   6.572
 6161SOL    HW219383   4.267   3.608   6.729
 6162SOL     OW19384   6.069   5.428   1.922
 6162SOL    HW119385   6.156   5.477   1.930
 6162SOL    HW219386   6.007   5.478   1.862
 6163SOL     OW19387   6.224   6.362   2.738
 6163SOL    HW119388   6.146   6.416   2.706
 6163SOL    HW219389   6.194   6.294   2.805
 6164SOL     OW19390   3.035   3.838   4.428
 6164SOL    HW119391   3.070   3.914   4.482
 6164SOL    HW219392   3.105   3.809   4.362
 6165SOL     OW19393   3.411   1.548   0.422
 6165SOL    HW119394   3.420   1.573   0.518
 6165SOL    HW219395   3.467   1.609   0.366
 6166SOL     OW19396   2.333   2.434   6.773
 6166SOL    HW119397   2.351   2.350   6.723
 6166SOL    HW219398   2.238   2.433   6.807
 6167SOL     OW19399   1.830   3.381   2.662
 6167SOL    HW119400   1.920   3.347   2.637
 6167SOL    HW219401   1.760   3.317   2.629
 6168SOL     OW19402   0.282   3.925   3.442
 6168SOL    HW119403   0.262   3.986   3.519
 6168SOL    HW219404   0.195   3.893   3.402
 6169SOL     OW19405   2.154   0.558   6.706
 6169SOL    HW119406   2.220   0.490   6.675
 6169SOL    HW219407   2.202   0.641   6.735
 6170SOL     OW19408   2.767   3.769   0.899
 6170SOL    HW119409   2.710   3.851   0.893
 6170SOL    HW219410   2.758   3.729   0.990
 6171SOL     OW19411   2.170   3.939   2.152
 6171SOL    HW119412   2.138   3.848   2.179
 6171SOL    HW219413   2.137   4.007   2.217
 6172SOL     OW19414   2.669   5.430   2.232
 6172SOL    HW119415   2.717   5.440   2.145
 6172SOL    HW219416   2.736   5.418   2.306
 6173SOL     OW19417   1.398   5.825   1.983
 6173SOL    HW119418   1.492   5.796   1.999
 6173SOL    HW219419   1.395   5.885   1.903
 6174SOL     OW19420   5.866   4.844   2.291
 6174SOL    HW119421   5.909   4.808   2.374
 6174SOL    HW219422   5.767   4.837   2.299
 6175SOL     OW19423   5.190   0.152   3.257
 6175SOL    HW119424   5.198   0.135   3.355
 6175SOL    HW219425   5.152   0.243   3.243
 6176SOL     OW19426   6.000   3.161   6.429
 6176SOL    HW119427   5.976   3.064   6.424
 6176SOL    HW219428   6.076   3.181   6.368
 6177SOL     OW19429   6.902   2.846   1.271
 6177SOL    HW119430   6.877   2.824   1.365
 6177SOL    HW219431   6.819   2.861   1.217
 6178SOL     OW19432   6.092   3.446   1.562
 6178SOL    HW119433   6.147   3.412   1.639
 6178SOL    HW219434   6.052   3.535   1.586
 6179SOL     OW19435   0.676   2.149   5.632
 6179SOL    HW119436   0.759   2.186   5.675
 6179SOL    HW219437   0.701   2.073   5.572
 6180SOL     OW19438   3.311   6.906   6.476
 6180SOL    HW119439   3.396   6.873   6.435
 6180SOL    HW219440   3.261   6.961   6.410
 6181SOL     OW19441   5.184   5.889   0.085
 6181SOL    HW119442   5.211   5.817   0.148
 6181SOL    HW219443   5.224   5.871   7.022
 6182SOL     OW19444   4.671   6.554   6.758
 6182SOL    HW119445   4.743   6.624   6.760
 6182SOL    HW219446   4.585   6.594   6.791
 6183SOL     OW19447   2.993   0.900   3.132
 6183SOL    HW119448   2.971   0.996   3.115
 6183SOL    HW219449   3.088   0.882   3.105
 6184SOL     OW19450   6.314   0.550   6.534
 6184SOL    HW119451   6.260   0.492   6.473
 6184SOL    HW219452   6.370   0.613   6.480
 6185SOL     OW19453   0.808   3.831   6.203
 6185SOL    HW119454   0.717   3.861   6.174
 6185SOL    HW219455   0.878   3.885   6.154
 6186SOL     OW19456   5.803   0.156   4.748
 6186SOL    HW119457   5.798   0.066   4.791
 6186SOL    HW219458   5.854   0.149   4.662
 6187SOL     OW19459   3.350   5.184   4.365
 6187SOL    HW119460   3.320   5.089   4.360
 6187SOL    HW219461   3.448   5.188   4.342
 6188SOL     OW19462   2.581   0.225   1.984
 6188SOL    HW119463   2.589   0.134   1.943
 6188SOL    HW219464   2.636   0.290   1.932
 6189SOL     OW19465   6.024   5.119   3.475
 6189SOL    HW119466   5.984   5.072   3.396
 6189SOL    HW219467   5.970   5.201   3.496
 6190SOL     OW19468   5.095   2.881   6.546
 6190SOL    HW119469   5.147   2.963   6.570
 6190SOL    HW219470   5.154   2.817   6.497
 6191SOL     OW19471   6.783   1.983   6.964
 6191SOL    HW119472   6.771   1.928   6.881
 6191SOL    HW219473   6.814   2.074   6.939
 6192SOL     OW19474   3.200   2.627   0.416
 6192SOL    HW119475   3.260   2.548   0.424
 6192SOL    HW219476   3.244   2.697   0.360
 6193SOL     OW19477   5.603   0.345   1.059
 6193SOL    HW119478   5.654   0.378   0.979
 6193SOL    HW219479   5.612   0.412   1.133
 6194SOL     OW19480   1.974   0.611   0.533
 6194SOL    HW119481   1.906   0.622   0.459
 6194SOL    HW219482   1.927   0.588   0.618
 6195SOL     OW19483   2.827   6.818   6.178
 6195SOL    HW119484   2.763   6.748   6.210
 6195SOL    HW219485   2.919   6.781   6.174
 6196SOL     OW19486   0.277   1.057   6.425
 6196SOL    HW119487   0.333   1.121   6.478
 6196SOL    HW219488   0.206   1.018   6.484
 6197SOL     OW19489   2.203   2.841   0.470
 6197SOL    HW119490   2.141   2.849   0.548
 6197SOL    HW219491   2.152   2.855   0.386
 6198SOL     OW19492   4.047   4.878   2.194
 6198SOL    HW119493   3.949   4.856   2.198
 6198SOL    HW219494   4.078   4.875   2.100
 6199SOL     OW19495   1.281   0.654   6.266
 6199SOL    HW119496   1.296   0.634   6.169
 6199SOL    HW219497   1.292   0.571   6.320
 6200SOL     OW19498   3.408   0.281   5.965
 6200SOL    HW119499   3.394   0.353   6.032
 6200SOL    HW219500   3.425   0.321   5.875
 6201SOL     OW19501   2.341   4.208   4.046
 6201SOL    HW119502   2.356   4.258   3.961
 6201SOL    HW219503   2.335   4.110   4.026
 6202SOL     OW19504   3.124   2.442   1.239
 6202SOL    HW119505   3.156   2.400   1.324
 6202SOL    HW219506   3.167   2.397   1.161
 6203SOL     OW19507   4.684   1.835   5.313
 6203SOL    HW119508   4.598   1.786   5.327
 6203SOL    HW219509   4.721   1.811   5.223
 6204SOL     OW19510   1.525   6.487   5.868
 6204SOL    HW119511   1.492   6.578   5.892
 6204SOL    HW219512   1.558   6.487   5.774
 6205SOL     OW19513   5.572   5.759   0.138
 6205SOL    HW119514   5.603   5.691   0.072
 6205SOL    HW219515   5.479   5.736   0.168
 6206SOL     OW19516   5.079   6.977   3.141
 6206SOL    HW119517   5.119   6.895   3.180
 6206SOL    HW219518   5.119   0.031   3.185
 6207SOL     OW19519   1.550   3.998   4.572
 6207SOL    HW119520   1.504   4.083   4.596
 6207SOL    HW219521   1.570   3.947   4.656
 6208SOL     OW19522   5.428   6.291   6.287
 6208SOL    HW119523   5.376   6.343   6.218
 6208SOL    HW219524   5.422   6.194   6.266
 6209SOL     OW19525   3.264   5.376   0.727
 6209SOL    HW119526   3.347   5.386   0.781
 6209SOL    HW219527   3.193   5.437   0.763
 6210SOL     OW19528   6.119   4.695   3.432
 6210SOL    HW119529   6.100   4.604   3.470
 6210SOL    HW219530   6.101   4.695   3.334
 6211SOL     OW19531   2.506   0.845   4.888
 6211SOL    HW119532   2.408   0.837   4.903
 6211SOL    HW219533   2.550   0.880   4.971
 6212SOL     OW19534   6.795   6.448   3.676
 6212SOL    HW119535   6.833   6.381   3.740
 6212SOL    HW219536   6.865   6.515   3.653
 6213SOL     OW19537   0.134   6.376   6.262
 6213SOL    HW119538   0.221   6.397   6.218
 6213SOL    HW219539   0.147   6.302   6.329
 6214SOL     OW19540   6.435   5.021   2.518
 6214SOL    HW119541   6.365   4.969   2.469
 6214SOL    HW219542   6.505   5.051   2.453
 6215SOL     OW19543   2.704   4.488   1.222
 6215SOL    HW119544   2.797   4.525   1.229
 6215SOL    HW219545   2.687   4.459   1.128
 6216SOL     OW19546   6.363   1.963   2.895
 6216SOL    HW119547   6.459   1.956   2.869
 6216SOL    HW219548   6.309   1.992   2.815
 6217SOL     OW19549   5.395   3.046   2.108
 6217SOL    HW119550   5.381   2.949   2.127
 6217SOL    HW219551   5.358   3.069   2.018
 6218SOL     OW19552   3.569   4.925   4.508
 6218SOL    HW119553   3.480   4.909   4.466
 6218SOL    HW219554   3.632   4.964   4.441
 6219SOL     OW19555   0.721   1.738   4.583
 6219SOL    HW119556   0.731   1.828   4.541
 6219SOL    HW219557   0.624   1.713   4.587
 6220SOL     OW19558   1.440   4.079   5.457
 6220SOL    HW119559   1.487   4.043   5.377
 6220SOL    HW219560   1.383   4.156   5.430
 6221SOL     OW19561   4.334   4.889   4.647
 6221SOL    HW119562   4.412   4.945   4.674
 6221SOL    HW219563   4.286   4.933   4.571
 6222SOL     OW19564   0.011   1.533   1.107
 6222SOL    HW119565   0.086   1.492   1.158
 6222SOL    HW219566   0.040   1.622   1.070
 6223SOL     OW19567   5.243   3.898   4.941
 6223SOL    HW119568   5.226   3.847   4.857
 6223SOL    HW219569   5.160   3.948   4.966
 6224SOL     OW19570   2.811   0.767   5.078
 6224SOL    HW119571   2.806   0.706   5.157
 6224SOL    HW219572   2.728   0.822   5.073
 6225SOL     OW19573   4.549   2.259   6.765
 6225SOL    HW119574   4.634   2.261   6.712
 6225SOL    HW219575   4.571   2.270   6.862
 6226SOL     OW19576   6.391   6.762   4.723
 6226SOL    HW119577   6.404   6.684   4.785
 6226SOL    HW219578   6.381   6.845   4.777
 6227SOL     OW19579   2.994   4.501   6.327
 6227SOL    HW119580   3.060   4.448   6.381
 6227SOL    HW219581   3.000   4.472   6.231
 6228SOL     OW19582   0.118   0.583   2.816
 6228SOL    HW119583   0.047   0.516   2.838
 6228SOL    HW219584   0.190   0.579   2.886
 6229SOL     OW19585   1.798   2.699   1.997
 6229SOL    HW119586   1.859   2.777   1.990
 6229SOL    HW219587   1.851   2.616   2.014
 6230SOL     OW19588   2.109   1.986   3.270
 6230SOL    HW119589   2.055   2.047   3.327
 6230SOL    HW219590   2.066   1.977   3.180
 6231SOL     OW19591   0.144   5.372   1.574
 6231SOL    HW119592   0.088   5.454   1.561
 6231SOL    HW219593   0.223   5.376   1.512
 6232SOL     OW19594   1.176   1.445   6.410
 6232SOL    HW119595   1.182   1.544   6.422
 6232SOL    HW219596   1.080   1.417   6.416
 6233SOL     OW19597   4.592   1.979   0.300
 6233SOL    HW119598   4.615   1.915   0.226
 6233SOL    HW219599   4.517   2.038   0.270
 6234SOL     OW19600   2.360   2.308   3.488
 6234SOL    HW119601   2.375   2.235   3.421
 6234SOL    HW219602   2.382   2.396   3.447
 6235SOL     OW19603   2.594   6.298   3.619
 6235SOL    HW119604   2.539   6.220   3.590
 6235SOL    HW219605   2.581   6.314   3.717
 6236SOL     OW19606   7.002   3.831   0.215
 6236SOL    HW119607   0.038   3.907   0.232
 6236SOL    HW219608   6.961   3.841   0.125
 6237SOL     OW19609   4.307   6.887   0.420
 6237SOL    HW119610   4.353   6.908   0.507
 6237SOL    HW219611   4.218   6.931   0.418
 6238SOL     OW19612   5.037   4.251   1.116
 6238SOL    HW119613   5.050   4.190   1.194
 6238SOL    HW219614   5.046   4.198   1.031
 6239SOL     OW19615   2.390   1.027   3.555
 6239SOL    HW119616   2.298   0.988   3.565
 6239SOL    HW219617   2.443   0.971   3.491
 6240SOL     OW19618   2.404   3.560   0.627
 6240SOL    HW119619   2.349   3.534   0.548
 6240SOL    HW219620   2.345   3.567   0.708
 6241SOL     OW19621   4.601   0.113   1.931
 6241SOL    HW119622   4.593   0.155   1.840
 6241SOL    HW219623   4.517   0.129   1.982
 6242SOL     OW19624   3.902   1.972   3.719
 6242SOL    HW119625   3.876   1.875   3.726
 6242SOL    HW219626   3.863   2.022   3.796
 6243SOL     OW19627   5.612   5.322   3.307
 6243SOL    HW119628   5.567   5.248   3.358
 6243SOL    HW219629   5.607   5.303   3.209
 6244SOL     OW19630   2.038   2.204   2.072
 6244SOL    HW119631   2.049   2.278   2.138
 6244SOL    HW219632   2.106   2.133   2.091
 6245SOL     OW19633   2.191   4.092   0.678
 6245SOL    HW119634   2.180   4.190   0.661
 6245SOL    HW219635   2.175   4.041   0.593
 6246SOL     OW19636   3.436   1.210   6.366
 6246SOL    HW119637   3.363   1.279   6.358
 6246SOL    HW219638   3.398   1.127   6.407
 6247SOL     OW19639   6.474   6.182   2.794
 6247SOL    HW119640   6.545   6.194   2.864
 6247SOL    HW219641   6.462   6.268   2.744
 6248SOL     OW19642   0.979   4.723   0.998
 6248SOL    HW119643   0.881   4.706   0.997
 6248SOL    HW219644   1.003   4.775   1.080
 6249SOL     OW19645   5.421   4.077   6.130
 6249SOL    HW119646   5.424   3.977   6.133
 6249SOL    HW219647   5.326   4.107   6.121
 6250SOL     OW19648   5.200   5.217   6.113
 6250SOL    HW119649   5.169   5.127   6.145
 6250SOL    HW219650   5.209   5.215   6.013
 6251SOL     OW19651   4.574   2.082   0.999
 6251SOL    HW119652   4.667   2.075   0.964
 6251SOL    HW219653   4.542   1.991   1.027
 6252SOL     OW19654   2.146   6.439   5.141
 6252SOL    HW119655   2.217   6.369   5.152
 6252SOL    HW219656   2.179   6.527   5.175
 6253SOL     OW19657   1.547   3.666   1.201
 6253SOL    HW119658   1.475   3.598   1.187
 6253SOL    HW219659   1.542   3.735   1.129
 6254SOL     OW19660   5.125   0.527   0.580
 6254SOL    HW119661   5.087   0.608   0.624
 6254SOL    HW219662   5.155   0.461   0.649
 6255SOL     OW19663   0.072   1.421   2.239
 6255SOL    HW119664   0.136   1.483   2.285
 6255SOL    HW219665   0.068   1.444   2.141
 6256SOL     OW19666   2.831   4.891   3.293
 6256SOL    HW119667   2.891   4.871   3.370
 6256SOL    HW219668   2.772   4.812   3.275
 6257SOL     OW19669   4.400   2.937   6.909
 6257SOL    HW119670   4.453   2.963   6.990
 6257SOL    HW219671   4.307   2.973   6.917
 6258SOL     OW19672   5.089   2.352   2.942
 6258SOL    HW119673   5.137   2.404   2.872
 6258SOL    HW219674   5.004   2.315   2.905
 6259SOL     OW19675   3.019   2.338   1.697
 6259SOL    HW119676   2.976   2.409   1.753
 6259SOL    HW219677   3.067   2.273   1.757
 6260SOL     OW19678   3.380   3.380   0.212
 6260SOL    HW119679   3.453   3.315   0.233
 6260SOL    HW219680   3.370   3.389   0.113
 6261SOL     OW19681   4.504   0.612   6.988
 6261SOL    HW119682   4.515   0.707   6.957
 6261SOL    HW219683   4.426   0.571   6.941
 6262SOL     OW19684   0.320   5.649   5.513
 6262SOL    HW119685   0.268   5.727   5.548
 6262SOL    HW219686   0.257   5.585   5.469
 6263SOL     OW19687   6.085   0.689   0.939
 6263SOL    HW119688   6.159   0.628   0.968
 6263SOL    HW219689   6.123   0.766   0.888
 6264SOL     OW19690   2.197   1.366   6.981
 6264SOL    HW119691   2.234   1.457   6.959
 6264SOL    HW219692   2.236   1.334   0.040
 6265SOL     OW19693   4.434   2.944   1.218
 6265SOL    HW119694   4.458   2.865   1.274
 6265SOL    HW219695   4.514   3.003   1.206
 6266SOL     OW19696   2.220   0.136   2.620
 6266SOL    HW119697   2.316   0.112   2.635
 6266SOL    HW219698   2.214   0.215   2.559
 6267SOL     OW19699   2.312   6.602   6.897
 6267SOL    HW119700   2.216   6.621   6.917
 6267SOL    HW219701   2.352   6.678   6.847
 6268SOL     OW19702   3.045   4.962   2.773
 6268SOL    HW119703   3.009   4.988   2.863
 6268SOL    HW219704   2.983   4.896   2.730
 6269SOL     OW19705   6.351   4.875   0.629
 6269SOL    HW119706   6.300   4.953   0.666
 6269SOL    HW219707   6.340   4.871   0.530
 6270SOL     OW19708   0.522   1.420   4.628
 6270SOL    HW119709   0.498   1.511   4.661
 6270SOL    HW219710   0.488   1.408   4.535
 6271SOL     OW19711   6.100   1.174   0.913
 6271SOL    HW119712   6.024   1.146   0.972
 6271SOL    HW219713   6.075   1.160   0.817
 6272SOL     OW19714   1.511   2.361   3.748
 6272SOL    HW119715   1.532   2.373   3.845
 6272SOL    HW219716   1.571   2.290   3.710
 6273SOL     OW19717   4.058   0.192   1.609
 6273SOL    HW119718   4.003   0.259   1.658
 6273SOL    HW219719   4.075   0.113   1.669
 6274SOL     OW19720   3.324   6.501   5.980
 6274SOL    HW119721   3.403   6.448   5.949
 6274SOL    HW219722   3.247   6.440   5.995
 6275SOL     OW19723   2.126   0.436   4.379
 6275SOL    HW119724   2.112   0.503   4.306
 6275SOL    HW219725   2.188   0.365   4.348
 6276SOL     OW19726   1.456   5.178   4.187
 6276SOL    HW119727   1.437   5.084   4.214
 6276SOL    HW219728   1.531   5.214   4.243
 6277SOL     OW19729   5.483   3.063   3.501
 6277SOL    HW119730   5.463   2.993   3.569
 6277SOL    HW219731   5.552   3.030   3.437
 6278SOL     OW19732   5.546   0.671   4.410
 6278SOL    HW119733   5.643   0.694   4.414
 6278SOL    HW219734   5.494   0.741   4.459
 6279SOL     OW19735   4.747   1.565   6.866
 6279SOL    HW119736   4.648   1.568   6.877
 6279SOL    HW219737   4.776   1.640   6.807
 6280SOL     OW19738   0.610   5.204   5.991
 6280SOL    HW119739   0.680   5.164   6.050
 6280SOL    HW219740   0.528   5.223   6.044
 6281SOL     OW19741   2.892   6.757   5.126
 6281SOL    HW119742   2.941   6.694   5.066
 6281SOL    HW219743   2.796   6.760   5.100
 6282SOL     OW19744   1.755   6.877   3.570
 6282SOL    HW119745   1.829   6.909   3.512
 6282SOL    HW219746   1.714   6.954   3.619
 6283SOL     OW19747   0.294   2.797   5.296
 6283SOL    HW119748   0.299   2.744   5.381
 6283SOL    HW219749   0.215   2.858   5.298
 6284SOL     OW19750   2.628   4.433   6.103
 6284SOL    HW119751   2.706   4.438   6.166
 6284SOL    HW219752   2.636   4.351   6.047
 6285SOL     OW19753   1.699   4.818   2.851
 6285SOL    HW119754   1.734   4.754   2.782
 6285SOL    HW219755   1.599   4.822   2.844
 6286SOL     OW19756   5.737   6.866   4.749
 6286SOL    HW119757   5.834   6.842   4.758
 6286SOL    HW219758   5.709   6.856   4.653
 6287SOL     OW19759   4.693   4.512   1.991
 6287SOL    HW119760   4.741   4.542   2.073
 6287SOL    HW219761   4.632   4.436   2.013
 6288SOL     OW19762   5.086   3.575   0.927
 6288SOL    HW119763   5.066   3.478   0.945
 6288SOL    HW219764   5.138   3.583   0.842
 6289SOL     OW19765   1.454   0.725   2.320
 6289SOL    HW119766   1.507   0.646   2.350
 6289SOL    HW219767   1.357   0.701   2.317
 6290SOL     OW19768   6.008   3.296   3.166
 6290SOL    HW119769   5.982   3.364   3.234
 6290SOL    HW219770   6.084   3.241   3.201
 6291SOL     OW19771   4.037   3.748   3.080
 6291SOL    HW119772   4.069   3.682   3.148
 6291SOL    HW219773   3.997   3.827   3.127
 6292SOL     OW19774   0.233   1.568   2.022
 6292SOL    HW119775   0.229   1.651   2.078
 6292SOL    HW219776   0.317   1.518   2.042
 6293SOL     OW19777   4.832   6.008   0.739
 6293SOL    HW119778   4.812   5.936   0.805
 6293SOL    HW219779   4.821   6.097   0.784
 6294SOL     OW19780   3.910   5.241   2.435
 6294SOL    HW119781   3.987   5.185   2.464
 6294SOL    HW219782   3.907   5.243   2.335
 6295SOL     OW19783   6.330   6.260   6.027
 6295SOL    HW119784   6.250   6.203   6.047
 6295SOL    HW219785   6.365   6.239   5.936
 6296SOL     OW19786   6.397   1.304   2.246
 6296SOL    HW119787   6.396   1.400   2.273
 6296SOL    HW219788   6.359   1.295   2.153
 6297SOL     OW19789   5.523   0.589   5.708
 6297SOL    HW119790   5.459   0.610   5.782
 6297SOL    HW219791   5.473   0.548   5.632
 6298SOL     OW19792   0.745   2.018   4.479
 6298SOL    HW119793   0.818   2.041   4.543
 6298SOL    HW219794   0.739   2.088   4.409
 6299SOL     OW19795   6.568   2.992   0.490
 6299SOL    HW119796   6.622   3.057   0.435
 6299SOL    HW219797   6.555   2.908   0.438
 6300SOL     OW19798   5.230   0.963   4.204
 6300SOL    HW119799   5.301   0.906   4.163
 6300SOL    HW219800   5.241   1.057   4.174
 6301SOL     OW19801   3.054   0.092   0.629
 6301SOL    HW119802   3.097   0.060   0.545
 6301SOL    HW219803   3.002   0.175   0.611
 6302SOL     OW19804   0.355   1.205   3.229
 6302SOL    HW119805   0.315   1.124   3.271
 6302SOL    HW219806   0.291   1.242   3.161
 6303SOL     OW19807   2.427   6.004   5.626
 6303SOL    HW119808   2.343   6.019   5.574
 6303SOL    HW219809   2.407   5.948   5.706
 6304SOL     OW19810   3.440   1.221   5.986
 6304SOL    HW119811   3.428   1.218   6.086
 6304SOL    HW219812   3.528   1.181   5.962
 6305SOL     OW19813   5.574   1.359   1.991
 6305SOL    HW119814   5.523   1.361   2.077
 6305SOL    HW219815   5.589   1.264   1.963
 6306SOL     OW19816   5.840   2.822   4.553
 6306SOL    HW119817   5.752   2.832   4.598
 6306SOL    HW219818   5.867   2.910   4.512
 6307SOL     OW19819   2.649   4.730   0.554
 6307SOL    HW119820   2.628   4.635   0.530
 6307SOL    HW219821   2.729   4.733   0.614
 6308SOL     OW19822   3.063   2.028   5.645
 6308SOL    HW119823   2.980   1.975   5.628
 6308SOL    HW219824   3.142   1.979   5.608
 6309SOL     OW19825   5.793   2.174   4.870
 6309SOL    HW119826   5.755   2.236   4.802
 6309SOL    HW219827   5.722   2.112   4.903
 6310SOL     OW19828   1.192   4.838   4.818
 6310SOL    HW119829   1.224   4.751   4.855
 6310SOL    HW219830   1.124   4.878   4.880
 6311SOL     OW19831   6.334   6.269   4.377
 6311SOL    HW119832   6.283   6.354   4.359
 6311SOL    HW219833   6.288   6.192   4.333
 6312SOL     OW19834   4.959   4.622   6.179
 6312SOL    HW119835   4.941   4.658   6.088
 6312SOL    HW219836   4.912   4.678   6.247
 6313SOL     OW19837   2.367   5.286   3.287
 6313SOL    HW119838   2.277   5.286   3.243
 6313SOL    HW219839   2.357   5.309   3.384
 6314SOL     OW19840   2.985   6.680   3.755
 6314SOL    HW119841   3.015   6.769   3.722
 6314SOL    HW219842   3.010   6.670   3.851
 6315SOL     OW19843   2.250   3.487   0.415
 6315SOL    HW119844   2.194   3.544   0.355
 6315SOL    HW219845   2.272   3.402   0.369
 6316SOL     OW19846   4.696   1.939   5.844
 6316SOL    HW119847   4.778   1.989   5.818
 6316SOL    HW219848   4.678   1.951   5.942
 6317SOL     OW19849   6.288   5.619   3.960
 6317SOL    HW119850   6.308   5.527   3.927
 6317SOL    HW219851   6.288   5.620   4.060
 6318SOL     OW19852   2.037   1.978   4.659
 6318SOL    HW119853   1.961   2.042   4.644
 6318SOL    HW219854   2.093   2.010   4.736
 6319SOL     OW19855   0.433   1.404   2.829
 6319SOL    HW119856   0.440   1.485   2.887
 6319SOL    HW219857   0.345   1.359   2.845
 6320SOL     OW19858   6.995   2.328   3.433
 6320SOL    HW119859   6.916   2.364   3.383
 6320SOL    HW219860   0.007   2.251   3.382
 6321SOL     OW19861   2.625   3.551   6.422
 6321SOL    HW119862   2.576   3.583   6.342
 6321SOL    HW219863   2.687   3.622   6.454
 6322SOL     OW19864   0.961   0.870   0.082
 6322SOL    HW119865   0.932   0.805   0.152
 6322SOL    HW219866   1.014   0.822   0.012
 6323SOL     OW19867   3.929   1.401   1.337
 6323SOL    HW119868   3.988   1.325   1.364
 6323SOL    HW219869   3.834   1.380   1.364
 6324SOL     OW19870   4.412   1.860   6.923
 6324SOL    HW119871   4.377   1.930   6.861
 6324SOL    HW219872   4.348   1.847   6.998
 6325SOL     OW19873   1.228   2.550   2.388
 6325SOL    HW119874   1.180   2.633   2.360
 6325SOL    HW219875   1.295   2.524   2.318
 6326SOL     OW19876   4.793   5.925   1.298
 6326SOL    HW119877   4.773   5.838   1.343
 6326SOL    HW219878   4.869   5.912   1.235
 6327SOL     OW19879   4.137   5.416   5.769
 6327SOL    HW119880   4.058   5.418   5.830
 6327SOL    HW219881   4.221   5.418   5.824
 6328SOL     OW19882   3.147   4.359   6.543
 6328SOL    HW119883   3.215   4.286   6.538
 6328SOL    HW219884   3.091   4.348   6.625
 6329SOL     OW19885   1.336   1.824   2.634
 6329SOL    HW119886   1.415   1.827   2.694
 6329SOL    HW219887   1.334   1.906   2.577
 6330SOL     OW19888   3.432   0.829   0.257
 6330SOL    HW119889   3.412   0.788   0.169
 6330SOL    HW219890   3.531   0.846   0.264
 6331SOL     OW19891   5.674   2.863   2.446
 6331SOL    HW119892   5.676   2.824   2.354
 6331SOL    HW219893   5.626   2.800   2.508
 6332SOL     OW19894   5.329   6.402   2.230
 6332SOL    HW119895   5.368   6.330   2.171
 6332SOL    HW219896   5.256   6.363   2.286
 6333SOL     OW19897   2.309   5.697   2.807
 6333SOL    HW119898   2.211   5.715   2.803
 6333SOL    HW219899   2.327   5.623   2.872
 6334SOL     OW19900   2.602   1.489   2.583
 6334SOL    HW119901   2.590   1.392   2.601
 6334SOL    HW219902   2.547   1.542   2.648
 6335SOL     OW19903   0.320   1.447   6.717
 6335SOL    HW119904   0.377   1.497   6.782
 6335SOL    HW219905   0.370   1.366   6.684
 6336SOL     OW19906   0.340   3.192   5.301
 6336SOL    HW119907   0.338   3.146   5.390
 6336SOL    HW219908   0.248   3.224   5.277
 6337SOL     OW19909   6.763   4.572   5.532
 6337SOL    HW119910   6.777   4.486   5.482
 6337SOL    HW219911   6.847   4.627   5.527
 6338SOL     OW19912   3.495   1.269   4.050
 6338SOL    HW119913   3.446   1.217   4.120
 6338SOL    HW219914   3.549   1.206   3.994
 6339SOL     OW19915   0.091   2.522   5.024
 6339SOL    HW119916   0.161   2.488   4.961
 6339SOL    HW219917   0.133   2.539   5.114
 6340SOL     OW19918   2.224   5.342   4.213
 6340SOL    HW119919   2.252   5.247   4.221
 6340SOL    HW219920   2.300   5.396   4.177
 6341SOL     OW19921   6.579   4.836   2.691
 6341SOL    HW119922   6.512   4.847   2.765
 6341SOL    HW219923   6.571   4.912   2.626
 6342SOL     OW19924   1.646   3.149   1.194
 6342SOL    HW119925   1.720   3.203   1.236
 6342SOL    HW219926   1.558   3.190   1.217
 6343SOL     OW19927   4.111   0.831   0.328
 6343SOL    HW119928   4.120   0.890   0.409
 6343SOL    HW219929   4.105   0.888   0.246
 6344SOL     OW19930   0.180   4.603   4.502
 6344SOL    HW119931   0.194   4.519   4.553
 6344SOL    HW219932   0.100   4.594   4.443
 6345SOL     OW19933   2.731   2.328   2.264
 6345SOL    HW119934   2.696   2.422   2.262
 6345SOL    HW219935   2.823   2.326   2.224
 6346SOL     OW19936   0.878   5.637   3.992
 6346SOL    HW119937   0.935   5.705   3.947
 6346SOL    HW219938   0.871   5.556   3.934
 6347SOL     OW19939   3.350   0.114   1.530
 6347SOL    HW119940   3.259   0.137   1.564
 6347SOL    HW219941   3.370   0.166   1.447
 6348SOL     OW19942   1.248   2.231   5.114
 6348SOL    HW119943   1.300   2.182   5.184
 6348SOL    HW219944   1.253   2.330   5.132
 6349SOL     OW19945   2.500   0.284   0.248
 6349SOL    HW119946   2.486   0.380   0.271
 6349SOL    HW219947   2.414   0.244   0.219
 6350SOL     OW19948   1.203   6.133   2.695
 6350SOL    HW119949   1.177   6.053   2.749
 6350SOL    HW219950   1.135   6.150   2.625
 6351SOL     OW19951   0.190   1.525   3.093
 6351SOL    HW119952   0.158   1.459   3.025
 6351SOL    HW219953   0.218   1.609   3.048
 6352SOL     OW19954   0.021   6.164   2.323
 6352SOL    HW119955   7.020   6.098   2.392
 6352SOL    HW219956   0.121   6.168   2.319
 6353SOL     OW19957   6.902   6.499   2.140
 6353SOL    HW119958   6.853   6.548   2.212
 6353SOL    HW219959   6.996   6.482   2.170
 6354SOL     OW19960   0.266   6.642   4.430
 6354SOL    HW119961   0.172   6.615   4.410
 6354SOL    HW219962   0.306   6.575   4.493
 6355SOL     OW19963   1.233   2.346   1.992
 6355SOL    HW119964   1.248   2.261   2.044
 6355SOL    HW219965   1.310   2.360   1.930
 6356SOL     OW19966   2.958   2.980   0.903
 6356SOL    HW119967   2.881   2.936   0.948
 6356SOL    HW219968   2.999   3.047   0.965
 6357SOL     OW19969   4.412   2.120   0.606
 6357SOL    HW119970   4.332   2.142   0.662
 6357SOL    HW219971   4.407   2.023   0.578
 6358SOL     OW19972   0.599   2.817   4.015
 6358SOL    HW119973   0.620   2.879   4.090
 6358SOL    HW219974   0.664   2.831   3.941
 6359SOL     OW19975   6.862   0.891   6.680
 6359SOL    HW119976   6.867   0.946   6.597
 6359SOL    HW219977   6.766   0.869   6.700
 6360SOL     OW19978   3.085   6.102   4.436
 6360SOL    HW119979   3.043   6.055   4.359
 6360SOL    HW219980   3.064   6.200   4.430
 6361SOL     OW19981   3.833   6.007   5.925
 6361SOL    HW119982   3.802   6.072   5.855
 6361SOL    HW219983   3.763   6.000   5.996
 6362SOL     OW19984   6.328   5.514   6.223
 6362SOL    HW119985   6.316   5.441   6.155
 6362SOL    HW219986   6.404   5.491   6.284
 6363SOL     OW19987   0.939   6.055   3.942
 6363SOL    HW119988   0.970   5.988   3.874
 6363SOL    HW219989   0.863   6.017   3.994
 6364SOL     OW19990   2.050   2.733   5.990
 6364SOL    HW119991   2.115   2.715   6.064
 6364SOL    HW219992   1.975   2.789   6.024
 6365SOL     OW19993   4.862   5.552   2.553
 6365SOL    HW119994   4.862   5.562   2.652
 6365SOL    HW219995   4.824   5.462   2.528
 6366SOL     OW19996   0.129   4.670   5.758
 6366SOL    HW119997   0.139   4.619   5.672
 6366SOL    HW219998   0.202   4.643   5.821
 6367SOL     OW19999   5.873   5.746   2.569
 6367SOL    HW120000   5.833   5.707   2.652
 6367SOL    HW220001   5.849   5.689   2.490
 6368SOL     OW20002   3.286   0.465   3.582
 6368SOL    HW120003   3.272   0.563   3.571
 6368SOL    HW220004   3.200   0.422   3.607
 6369SOL     OW20005   2.411   5.212   5.338
 6369SOL    HW120006   2.461   5.149   5.279
 6369SOL    HW220007   2.444   5.305   5.324
 6370SOL     OW20008   5.898   2.527   2.228
 6370SOL    HW120009   5.899   2.626   2.214
 6370SOL    HW220010   5.990   2.496   2.251
 6371SOL     OW20011   4.843   2.093   3.340
 6371SOL    HW120012   4.901   2.175   3.333
 6371SOL    HW220013   4.884   2.029   3.405
 6372SOL     OW20014   2.924   6.148   2.200
 6372SOL    HW120015   2.972   6.062   2.219
 6372SOL    HW220016   2.987   6.225   2.212
 6373SOL     OW20017   3.598   4.504   0.011
 6373SOL    HW120018   3.589   4.407   0.033
 6373SOL    HW220019   3.661   4.547   0.076
 6374SOL     OW20020   2.925   3.573   2.845
 6374SOL    HW120021   2.954   3.665   2.818
 6374SOL    HW220022   2.915   3.515   2.764
 6375SOL     OW20023   1.851   6.226   2.484
 6375SOL    HW120024   1.877   6.255   2.392
 6375SOL    HW220025   1.759   6.259   2.505
 6376SOL     OW20026   0.394   2.601   5.782
 6376SOL    HW120027   0.379   2.670   5.853
 6376SOL    HW220028   0.487   2.565   5.790
 6377SOL     OW20029   0.590   1.412   4.154
 6377SOL    HW120030   0.579   1.359   4.069
 6377SOL    HW220031   0.684   1.448   4.158
 6378SOL     OW20032   4.605   4.901   3.798
 6378SOL    HW120033   4.619   4.955   3.881
 6378SOL    HW220034   4.574   4.809   3.823
 6379SOL     OW20035   2.418   5.029   2.493
 6379SOL    HW120036   2.456   4.978   2.416
 6379SOL    HW220037   2.416   5.126   2.471
 6380SOL     OW20038   0.859   0.763   5.965
 6380SOL    HW120039   0.834   0.852   5.927
 6380SOL    HW220040   0.827   0.691   5.904
 6381SOL     OW20041   2.735   3.287   1.784
 6381SOL    HW120042   2.657   3.251   1.734
 6381SOL    HW220043   2.810   3.221   1.782
 6382SOL     OW20044   1.214   4.473   4.929
 6382SOL    HW120045   1.114   4.471   4.936
 6382SOL    HW220046   1.240   4.522   4.846
 6383SOL     OW20047   4.221   1.251   3.940
 6383SOL    HW120048   4.186   1.199   3.862
 6383SOL    HW220049   4.316   1.224   3.958
 6384SOL     OW20050   6.116   4.399   2.563
 6384SOL    HW120051   6.165   4.429   2.645
 6384SOL    HW220052   6.181   4.361   2.498
 6385SOL     OW20053   0.510   6.210   4.603
 6385SOL    HW120054   0.512   6.146   4.526
 6385SOL    HW220055   0.568   6.288   4.582
 6386SOL     OW20056   2.836   5.634   1.670
 6386SOL    HW120057   2.816   5.725   1.709
 6386SOL    HW220058   2.764   5.570   1.697
 6387SOL     OW20059   6.741   1.849   5.137
 6387SOL    HW120060   6.840   1.859   5.145
 6387SOL    HW220061   6.720   1.757   5.106
 6388SOL     OW20062   2.089   4.931   3.225
 6388SOL    HW120063   2.179   4.888   3.218
 6388SOL    HW220064   2.023   4.880   3.171
 6389SOL     OW20065   0.716   4.482   1.672
 6389SOL    HW120066   0.668   4.556   1.626
 6389SOL    HW220067   0.739   4.410   1.606
 6390SOL     OW20068   0.181   3.895   4.069
 6390SOL    HW120069   0.119   3.831   4.023
 6390SOL    HW220070   0.156   3.989   4.045
 6391SOL     OW20071   3.635   1.075   6.699
 6391SOL    HW120072   3.625   0.995   6.640
 6391SOL    HW220073   3.545   1.112   6.721
 6392SOL     OW20074   1.482   6.458   4.155
 6392SOL    HW120075   1.461   6.523   4.083
 6392SOL    HW220076   1.452   6.494   4.243
 6393SOL     OW20077   5.117   1.144   0.745
 6393SOL    HW120078   5.087   1.216   0.807
 6393SOL    HW220079   5.181   1.182   0.678
 6394SOL     OW20080   3.171   4.936   1.550
 6394SOL    HW120081   3.231   4.887   1.614
 6394SOL    HW220082   3.093   4.878   1.527
 6395SOL     OW20083   5.741   1.286   1.161
 6395SOL    HW120084   5.774   1.381   1.163
 6395SOL    HW220085   5.645   1.284   1.190
 6396SOL     OW20086   5.609   3.724   5.627
 6396SOL    HW120087   5.655   3.653   5.574
 6396SOL    HW220088   5.515   3.734   5.595
 6397SOL     OW20089   0.162   0.569   6.935
 6397SOL    HW120090   0.095   0.558   6.862
 6397SOL    HW220091   0.185   0.666   6.945
 6398SOL     OW20092   4.043   0.540   1.512
 6398SOL    HW120093   4.083   0.453   1.483
 6398SOL    HW220094   4.111   0.612   1.501
 6399SOL     OW20095   2.421   5.829   6.658
 6399SOL    HW120096   2.328   5.865   6.649
 6399SOL    HW220097   2.432   5.749   6.598
 6400SOL     OW20098   2.827   5.308   3.989
 6400SOL    HW120099   2.798   5.390   4.038
 6400SOL    HW220100   2.757   5.237   3.999
 6401SOL     OW20101   1.509   4.314   4.352
 6401SOL    HW120102   1.589   4.258   4.331
 6401SOL    HW220103   1.507   4.394   4.292
 6402SOL     OW20104   1.796   2.317   3.252
 6402SOL    HW120105   1.723   2.348   3.192
 6402SOL    HW220106   1.776   2.226   3.286
 6403SOL     OW20107   0.954   5.935   1.363
 6403SOL    HW120108   0.966   6.028   1.396
 6403SOL    HW220109   1.021   5.875   1.406
 6404SOL     OW20110   5.144   1.197   3.462
 6404SOL    HW120111   5.101   1.255   3.531
 6404SOL    HW220112   5.079   1.181   3.388
 6405SOL     OW20113   2.599   1.354   1.759
 6405SOL    HW120114   2.526   1.410   1.720
 6405SOL    HW220115   2.656   1.411   1.818
 6406SOL     OW20116   2.923   2.281   3.240
 6406SOL    HW120117   2.970   2.365   3.265
 6406SOL    HW220118   2.833   2.278   3.284
 6407SOL     OW20119   4.471   5.208   6.200
 6407SOL    HW120120   4.520   5.128   6.165
 6407SOL    HW220121   4.375   5.205   6.173
 6408SOL     OW20122   6.411   1.631   0.468
 6408SOL    HW120123   6.367   1.567   0.405
 6408SOL    HW220124   6.437   1.714   0.418
 6409SOL     OW20125   1.200   4.176   2.180
 6409SOL    HW120126   1.153   4.214   2.260
 6409SOL    HW220127   1.290   4.216   2.171
 6410SOL     OW20128   1.212   1.413   1.928
 6410SOL    HW120129   1.303   1.377   1.948
 6410SOL    HW220130   1.219   1.506   1.894
 6411SOL     OW20131   2.149   0.907   3.581
 6411SOL    HW120132   2.079   0.977   3.596
 6411SOL    HW220133   2.129   0.856   3.497
 6412SOL     OW20134   0.133   2.105   4.940
 6412SOL    HW120135   0.226   2.075   4.921
 6412SOL    HW220136   0.098   2.159   4.863
 6413SOL     OW20137   0.311   4.508   0.555
 6413SOL    HW120138   0.364   4.589   0.532
 6413SOL    HW220139   0.373   4.433   0.579
 6414SOL     OW20140   6.546   6.569   2.751
 6414SOL    HW120141   6.633   6.620   2.751
 6414SOL    HW220142   6.538   6.518   2.665
 6415SOL     OW20143   1.955   1.559   2.011
 6415SOL    HW120144   1.868   1.526   2.047
 6415SOL    HW220145   2.026   1.548   2.080
 6416SOL     OW20146   2.269   6.271   6.282
 6416SOL    HW120147   2.255   6.367   6.307
 6416SOL    HW220148   2.211   6.249   6.203
 6417SOL     OW20149   0.322   6.786   3.050
 6417SOL    HW120150   0.236   6.792   2.999
 6417SOL    HW220151   0.375   6.709   3.016
 6418SOL     OW20152   6.741   5.986   2.535
 6418SOL    HW120153   6.686   5.947   2.608
 6418SOL    HW220154   6.830   6.014   2.571
 6419SOL     OW20155   2.597   3.878   1.454
 6419SOL    HW120156   2.562   3.944   1.387
 6419SOL    HW220157   2.615   3.924   1.541
 6420SOL     OW20158   0.688   3.299   0.044
 6420SOL    HW120159   0.770   3.251   0.075
 6420SOL    HW220160   0.704   3.336   6.980
 6421SOL     OW20161   5.889   1.916   1.276
 6421SOL    HW120162   5.953   1.969   1.333
 6421SOL    HW220163   5.941   1.866   1.207
 6422SOL     OW20164   6.182   2.046   3.651
 6422SOL    HW120165   6.237   1.963   3.648
 6422SOL    HW220166   6.085   2.021   3.653
 6423SOL     OW20167   4.923   4.100   0.826
 6423SOL    HW120168   4.929   4.080   0.728
 6423SOL    HW220169   4.828   4.094   0.855
 6424SOL     OW20170   6.391   4.748   4.903
 6424SOL    HW120171   6.338   4.825   4.940
 6424SOL    HW220172   6.457   4.782   4.837
 6425SOL     OW20173   0.539   4.837   1.104
 6425SOL    HW120174   0.563   4.926   1.064
 6425SOL    HW220175   0.580   4.764   1.050
 6426SOL     OW20176   6.631   2.416   3.911
 6426SOL    HW120177   6.723   2.440   3.882
 6426SOL    HW220178   6.577   2.389   3.832
 6427SOL     OW20179   1.178   3.187   6.034
 6427SOL    HW120180   1.107   3.139   5.983
 6427SOL    HW220181   1.207   3.268   5.983
 6428SOL     OW20182   6.809   3.259   3.422
 6428SOL    HW120183   6.824   3.355   3.443
 6428SOL    HW220184   6.731   3.225   3.474
 6429SOL     OW20185   0.850   0.692   4.467
 6429SOL    HW120186   0.939   0.663   4.503
 6429SOL    HW220187   0.777   0.651   4.522
 6430SOL     OW20188   6.296   3.659   0.042
 6430SOL    HW120189   6.304   3.728   0.114
 6430SOL    HW220190   6.316   3.569   0.080
 6431SOL     OW20191   5.525   0.807   3.440
 6431SOL    HW120192   5.497   0.903   3.436
 6431SOL    HW220193   5.610   0.795   3.390
 6432SOL     OW20194   6.057   3.344   0.228
 6432SOL    HW120195   6.017   3.406   0.296
 6432SOL    HW220196   5.990   3.327   0.155
 6433SOL     OW20197   2.572   3.731   1.738
 6433SOL    HW120198   2.668   3.715   1.761
 6433SOL    HW220199   2.560   3.827   1.713
 6434SOL     OW20200   2.209   5.466   0.302
 6434SOL    HW120201   2.178   5.524   0.226
 6434SOL    HW220202   2.182   5.507   0.389
 6435SOL     OW20203   4.406   4.121   0.531
 6435SOL    HW120204   4.356   4.089   0.611
 6435SOL    HW220205   4.450   4.044   0.485
 6436SOL     OW20206   1.402   2.769   2.607
 6436SOL    HW120207   1.481   2.826   2.583
 6436SOL    HW220208   1.411   2.680   2.563
 6437SOL     OW20209   0.188   0.871   6.650
 6437SOL    HW120210   0.102   0.825   6.672
 6437SOL    HW220211   0.251   0.806   6.608
 6438SOL     OW20212   1.038   3.773   3.934
 6438SOL    HW120213   0.955   3.816   3.899
 6438SOL    HW220214   1.065   3.697   3.874
 6439SOL     OW20215   0.038   6.528   1.781
 6439SOL    HW120216   0.046   6.500   1.877
 6439SOL    HW220217   0.110   6.593   1.759
 6440SOL     OW20218   0.601   0.770   1.945
 6440SOL    HW120219   0.512   0.725   1.944
 6440SOL    HW220220   0.669   0.710   1.903
 6441SOL     OW20221   3.811   1.457   3.418
 6441SOL    HW120222   3.893   1.402   3.437
 6441SOL    HW220223   3.830   1.553   3.438
 6442SOL     OW20224   3.741   0.504   3.688
 6442SOL    HW120225   3.703   0.521   3.597
 6442SOL    HW220226   3.823   0.560   3.700
 6443SOL     OW20227   2.349   1.033   0.226
 6443SOL    HW120228   2.442   1.004   0.248
 6443SOL    HW220229   2.313   0.978   0.151
 6444SOL     OW20230   0.892   0.629   3.546
 6444SOL    HW120231   0.970   0.683   3.513
 6444SOL    HW220232   0.826   0.618   3.472
 6445SOL     OW20233   3.682   3.663   5.543
 6445SOL    HW120234   3.735   3.583   5.516
 6445SOL    HW220235   3.598   3.634   5.588
 6446SOL     OW20236   6.630   1.756   1.026
 6446SOL    HW120237   6.700   1.827   1.022
 6446SOL    HW220238   6.664   1.674   0.981
 6447SOL     OW20239   1.467   6.796   2.800
 6447SOL    HW120240   1.474   6.857   2.721
 6447SOL    HW220241   1.506   6.840   2.880
 6448SOL     OW20242   6.539   2.250   2.732
 6448SOL    HW120243   6.482   2.330   2.753
 6448SOL    HW220244   6.501   2.202   2.653
 6449SOL     OW20245   3.353   2.873   1.225
 6449SOL    HW120246   3.405   2.936   1.282
 6449SOL    HW220247   3.255   2.893   1.235
 6450SOL     OW20248   6.618   3.270   6.545
 6450SOL    HW120249   6.596   3.327   6.466
 6450SOL    HW220250   6.631   3.175   6.514
 6451SOL     OW20251   2.109   6.743   4.064
 6451SOL    HW120252   2.135   6.674   3.997
 6451SOL    HW220253   2.154   6.723   4.151
 6452SOL     OW20254   3.999   6.492   3.548
 6452SOL    HW120255   4.097   6.511   3.541
 6452SOL    HW220256   3.950   6.543   3.478
 6453SOL     OW20257   2.183   4.242   6.240
 6453SOL    HW120258   2.168   4.336   6.272
 6453SOL    HW220259   2.097   4.193   6.239
 6454SOL     OW20260   2.909   1.536   4.996
 6454SOL    HW120261   2.875   1.459   5.050
 6454SOL    HW220262   2.994   1.571   5.036
 6455SOL     OW20263   6.263   2.578   5.701
 6455SOL    HW120264   6.356   2.581   5.738
 6455SOL    HW220265   6.258   2.632   5.618
 6456SOL     OW20266   6.773   0.562   4.767
 6456SOL    HW120267   6.676   0.576   4.751
 6456SOL    HW220268   6.826   0.602   4.691
 6457SOL     OW20269   6.324   3.330   2.582
 6457SOL    HW120270   6.282   3.262   2.522
 6457SOL    HW220271   6.411   3.360   2.543
 6458SOL     OW20272   1.414   6.312   3.159
 6458SOL    HW120273   1.506   6.285   3.187
 6458SOL    HW220274   1.380   6.247   3.090
 6459SOL     OW20275   5.667   4.786   0.491
 6459SOL    HW120276   5.729   4.720   0.448
 6459SOL    HW220277   5.575   4.749   0.494
 6460SOL     OW20278   2.898   4.905   0.290
 6460SOL    HW120279   2.988   4.902   0.334
 6460SOL    HW220280   2.850   4.988   0.319
 6461SOL     OW20281   3.658   5.908   4.776
 6461SOL    HW120282   3.669   5.819   4.818
 6461SOL    HW220283   3.620   5.973   4.842
 6462SOL     OW20284   2.132   2.834   3.282
 6462SOL    HW120285   2.111   2.770   3.355
 6462SOL    HW220286   2.151   2.924   3.320
 6463SOL     OW20287   1.093   4.741   5.302
 6463SOL    HW120288   1.127   4.659   5.256
 6463SOL    HW220289   1.067   4.718   5.396
 6464SOL     OW20290   1.123   5.448   2.483
 6464SOL    HW120291   1.180   5.366   2.495
 6464SOL    HW220292   1.144   5.490   2.395
 6465SOL     OW20293   6.657   1.092   3.006
 6465SOL    HW120294   6.656   1.083   3.105
 6465SOL    HW220295   6.733   1.039   2.969
 6466SOL     OW20296   0.681   3.212   5.502
 6466SOL    HW120297   0.623   3.147   5.551
 6466SOL    HW220298   0.712   3.172   5.416
 6467SOL     OW20299   2.569   1.190   6.451
 6467SOL    HW120300   2.528   1.110   6.406
 6467SOL    HW220301   2.565   1.178   6.550
 6468SOL     OW20302   4.645   4.162   0.857
 6468SOL    HW120303   4.666   4.196   0.765
 6468SOL    HW220304   4.600   4.234   0.909
 6469SOL     OW20305   6.397   1.091   6.176
 6469SOL    HW120306   6.341   1.128   6.251
 6469SOL    HW220307   6.365   1.129   6.090
 6470SOL     OW20308   6.541   6.119   5.349
 6470SOL    HW120309   6.507   6.213   5.342
 6470SOL    HW220310   6.625   6.110   5.295
 6471SOL     OW20311   5.422   5.572   5.701
 6471SOL    HW120312   5.403   5.507   5.774
 6471SOL    HW220313   5.375   5.658   5.720
 6472SOL     OW20314   1.462   5.599   1.033
 6472SOL    HW120315   1.463   5.625   0.937
 6472SOL    HW220316   1.368   5.602   1.067
 6473SOL     OW20317   2.632   1.368   5.549
 6473SOL    HW120318   2.588   1.281   5.527
 6473SOL    HW220319   2.562   1.438   5.561
 6474SOL     OW20320   2.608   3.640   5.580
 6474SOL    HW120321   2.564   3.723   5.545
 6474SOL    HW220322   2.707   3.653   5.583
 6475SOL     OW20323   4.452   6.026   4.030
 6475SOL    HW120324   4.492   6.110   4.068
 6475SOL    HW220325   4.398   6.048   3.950
 6476SOL     OW20326   5.247   4.941   2.592
 6476SOL    HW120327   5.345   4.955   2.581
 6476SOL    HW220328   5.213   5.001   2.664
 6477SOL     OW20329   0.028   6.666   6.875
 6477SOL    HW120330   0.025   6.743   6.810
 6477SOL    HW220331   6.977   6.672   6.936
 6478SOL     OW20332   4.846   6.351   0.916
 6478SOL    HW120333   4.907   6.429   0.928
 6478SOL    HW220334   4.797   6.360   0.829
 6479SOL     OW20335   4.302   5.854   2.642
 6479SOL    HW120336   4.219   5.799   2.644
 6479SOL    HW220337   4.353   5.840   2.727
 6480SOL     OW20338   2.580   1.250   0.812
 6480SOL    HW120339   2.522   1.183   0.859
 6480SOL    HW220340   2.552   1.342   0.839
 6481SOL     OW20341   4.539   0.750   1.611
 6481SOL    HW120342   4.601   0.825   1.587
 6481SOL    HW220343   4.584   0.688   1.675
 6482SOL     OW20344   0.484   0.515   6.743
 6482SOL    HW120345   0.443   0.493   6.832
 6482SOL    HW220346   0.433   0.591   6.701
 6483SOL     OW20347   2.236   5.841   1.854
 6483SOL    HW120348   2.279   5.875   1.938
 6483SOL    HW220349   2.139   5.862   1.855
 6484SOL     OW20350   5.568   6.074   3.204
 6484SOL    HW120351   5.473   6.084   3.175
 6484SOL    HW220352   5.596   6.156   3.255
 6485SOL     OW20353   0.873   3.229   3.312
 6485SOL    HW120354   0.833   3.288   3.241
 6485SOL    HW220355   0.857   3.269   3.402
 6486SOL     OW20356   2.064   3.254   2.928
 6486SOL    HW120357   2.042   3.331   2.988
 6486SOL    HW220358   2.083   3.287   2.836
 6487SOL     OW20359   5.685   5.617   3.062
 6487SOL    HW120360   5.618   5.688   3.084
 6487SOL    HW220361   5.672   5.540   3.125
 6488SOL     OW20362   3.317   5.029   5.718
 6488SOL    HW120363   3.254   5.091   5.765
 6488SOL    HW220364   3.399   5.080   5.690
 6489SOL     OW20365   2.321   2.115   5.535
 6489SOL    HW120366   2.343   2.204   5.575
 6489SOL    HW220367   2.398   2.082   5.481
 6490SOL     OW20368   4.125   1.286   0.753
 6490SOL    HW120369   4.060   1.310   0.825
 6490SOL    HW220370   4.180   1.207   0.783
 6491SOL     OW20371   4.099   1.117   6.064
 6491SOL    HW120372   4.158   1.057   6.118
 6491SOL    HW220373   4.098   1.208   6.104
 6492SOL     OW20374   5.612   5.988   6.616
 6492SOL    HW120375   5.583   6.066   6.672
 6492SOL    HW220376   5.691   5.944   6.658
 6493SOL     OW20377   1.246   5.882   5.664
 6493SOL    HW120378   1.205   5.878   5.755
 6493SOL    HW220379   1.237   5.792   5.620
 6494SOL     OW20380   1.644   0.051   3.705
 6494SOL    HW120381   1.620   0.113   3.630
 6494SOL    HW220382   1.660   0.104   3.788
 6495SOL     OW20383   5.126   5.369   2.376
 6495SOL    HW120384   5.170   5.362   2.465
 6495SOL    HW220385   5.053   5.301   2.368
 6496SOL     OW20386   1.021   6.958   2.734
 6496SOL    HW120387   1.098   7.002   2.779
 6496SOL    HW220388   1.003   6.869   2.777
 6497SOL     OW20389   0.220   5.594   0.081
 6497SOL    HW120390   0.178   5.504   0.066
 6497SOL    HW220391   0.156   5.653   0.130
 6498SOL     OW20392   1.622   4.138   3.732
 6498SOL    HW120393   1.542   4.197   3.743
 6498SOL    HW220394   1.705   4.194   3.729
 6499SOL     OW20395   5.950   0.983   4.168
 6499SOL    HW120396   5.915   1.038   4.092
 6499SOL    HW220397   5.891   0.997   4.248
 6500SOL     OW20398   5.229   4.843   3.665
 6500SOL    HW120399   5.188   4.775   3.727
 6500SOL    HW220400   5.328   4.843   3.677
 6501SOL     OW20401   7.017   3.619   0.893
 6501SOL    HW120402   7.002   3.536   0.840
 6501SOL    HW220403   0.059   3.602   0.963
 6502SOL     OW20404   1.204   4.538   2.347
 6502SOL    HW120405   1.149   4.454   2.345
 6502SOL    HW220406   1.287   4.524   2.293
 6503SOL     OW20407   4.595   0.501   4.453
 6503SOL    HW120408   4.677   0.558   4.458
 6503SOL    HW220409   4.605   0.424   4.516
 6504SOL     OW20410   2.061   1.272   0.368
 6504SOL    HW120411   2.110   1.278   0.281
 6504SOL    HW220412   2.111   1.213   0.431
 6505SOL     OW20413   5.260   5.535   0.982
 6505SOL    HW120414   5.329   5.581   1.038
 6505SOL    HW220415   5.189   5.498   1.041
 6506SOL     OW20416   1.849   2.064   0.826
 6506SOL    HW120417   1.750   2.067   0.811
 6506SOL    HW220418   1.895   2.124   0.760
 6507SOL     OW20419   3.326   0.733   2.320
 6507SOL    HW120420   3.284   0.816   2.283
 6507SOL    HW220421   3.339   0.744   2.419
 6508SOL     OW20422   2.588   1.502   2.039
 6508SOL    HW120423   2.675   1.453   2.038
 6508SOL    HW220424   2.593   1.581   1.978
 6509SOL     OW20425   0.914   2.826   4.354
 6509SOL    HW120426   0.916   2.811   4.452
 6509SOL    HW220427   0.837   2.886   4.330
 6510SOL     OW20428   5.481   5.216   6.617
 6510SOL    HW120429   5.434   5.252   6.697
 6510SOL    HW220430   5.459   5.272   6.537
 6511SOL     OW20431   6.193   6.007   5.446
 6511SOL    HW120432   6.190   6.032   5.542
 6511SOL    HW220433   6.100   5.989   5.413
 6512SOL     OW20434   5.111   6.414   3.887
 6512SOL    HW120435   5.180   6.476   3.849
 6512SOL    HW220436   5.124   6.407   3.986
 6513SOL     OW20437   2.537   6.893   2.928
 6513SOL    HW120438   2.619   6.942   2.959
 6513SOL    HW220439   2.483   6.954   2.869
 6514SOL     OW20440   3.194   6.754   3.429
 6514SOL    HW120441   3.183   6.660   3.460
 6514SOL    HW220442   3.217   6.812   3.506
 6515SOL     OW20443   0.584   0.896   4.433
 6515SOL    HW120444   0.651   0.830   4.401
 6515SOL    HW220445   0.539   0.861   4.516
 6516SOL     OW20446   1.691   1.523   5.751
 6516SOL    HW120447   1.688   1.452   5.681
 6516SOL    HW220448   1.613   1.513   5.813
 6517SOL     OW20449   1.341   2.079   0.337
 6517SOL    HW120450   1.398   2.039   0.265
 6517SOL    HW220451   1.394   2.148   0.386
 6518SOL     OW20452   5.839   6.289   0.106
 6518SOL    HW120453   5.904   6.286   0.030
 6518SOL    HW220454   5.854   6.372   0.159
 6519SOL     OW20455   1.593   1.841   3.462
 6519SOL    HW120456   1.517   1.897   3.429
 6519SOL    HW220457   1.610   1.767   3.396
 6520SOL     OW20458   6.114   4.999   1.730
 6520SOL    HW120459   6.172   5.032   1.655
 6520SOL    HW220460   6.151   5.030   1.818
 6521SOL     OW20461   1.373   1.784   5.496
 6521SOL    HW120462   1.431   1.704   5.513
 6521SOL    HW220463   1.424   1.867   5.518
 6522SOL     OW20464   2.717   5.772   4.652
 6522SOL    HW120465   2.643   5.802   4.712
 6522SOL    HW220466   2.716   5.672   4.646
 6523SOL     OW20467   1.720   2.321   6.885
 6523SOL    HW120468   1.650   2.282   6.826
 6523SOL    HW220469   1.757   2.249   6.944
 6524SOL     OW20470   3.592   4.196   4.704
 6524SOL    HW120471   3.539   4.120   4.666
 6524SOL    HW220472   3.540   4.281   4.695
 6525SOL     OW20473   0.459   2.510   4.586
 6525SOL    HW120474   0.369   2.494   4.546
 6525SOL    HW220475   0.525   2.525   4.513
 6526SOL     OW20476   1.714   5.871   4.451
 6526SOL    HW120477   1.681   5.886   4.358
 6526SOL    HW220478   1.813   5.856   4.450
 6527SOL     OW20479   2.372   1.093   3.979
 6527SOL    HW120480   2.398   1.058   4.069
 6527SOL    HW220481   2.428   1.048   3.909
 6528SOL     OW20482   6.890   6.840   3.364
 6528SOL    HW120483   6.792   6.850   3.386
 6528SOL    HW220484   6.936   6.927   3.381
 6529SOL     OW20485   6.511   2.576   1.465
 6529SOL    HW120486   6.498   2.662   1.514
 6529SOL    HW220487   6.607   2.568   1.436
 6530SOL     OW20488   0.094   1.931   0.602
 6530SOL    HW120489   0.008   1.883   0.584
 6530SOL    HW220490   0.082   2.028   0.582
 6531SOL     OW20491   5.110   2.911   4.369
 6531SOL    HW120492   5.018   2.932   4.402
 6531SOL    HW220493   5.115   2.814   4.346
 6532SOL     OW20494   1.356   2.425   6.625
 6532SOL    HW120495   1.294   2.462   6.556
 6532SOL    HW220496   1.451   2.441   6.597
 6533SOL     OW20497   4.541   0.961   1.218
 6533SOL    HW120498   4.446   0.949   1.189
 6533SOL    HW220499   4.544   1.018   1.300
 6534SOL     OW20500   1.781   3.008   0.456
 6534SOL    HW120501   1.867   3.012   0.507
 6534SOL    HW220502   1.724   3.086   0.480
 6535SOL     OW20503   2.192   3.298   5.622
 6535SOL    HW120504   2.248   3.268   5.545
 6535SOL    HW220505   2.133   3.373   5.594
 6536SOL     OW20506   6.726   2.452   6.958
 6536SOL    HW120507   6.643   2.471   7.010
 6536SOL    HW220508   6.706   2.390   6.883
 6537SOL     OW20509   1.188   0.010   0.185
 6537SOL    HW120510   1.261   0.064   0.143
 6537SOL    HW220511   1.162   6.962   0.124
 6538SOL     OW20512   2.181   3.305   6.267
 6538SOL    HW120513   2.150   3.235   6.203
 6538SOL    HW220514   2.234   3.374   6.218
 6539SOL     OW20515   2.414   1.653   6.609
 6539SOL    HW120516   2.437   1.741   6.569
 6539SOL    HW220517   2.341   1.610   6.555
 6540SOL     OW20518   3.284   1.711   4.015
 6540SOL    HW120519   3.376   1.742   3.992
 6540SOL    HW220520   3.251   1.647   3.945
 6541SOL     OW20521   2.894   2.705   5.356
 6541SOL    HW120522   2.961   2.649   5.404
 6541SOL    HW220523   2.938   2.787   5.319
 6542SOL     OW20524   6.090   4.454   3.568
 6542SOL    HW120525   6.036   4.409   3.639
 6542SOL    HW220526   6.174   4.401   3.551
 6543SOL     OW20527   0.637   5.523   6.617
 6543SOL    HW120528   0.635   5.611   6.664
 6543SOL    HW220529   0.609   5.451   6.680
 6544SOL     OW20530   6.508   6.028   3.395
 6544SOL    HW120531   6.467   5.951   3.346
 6544SOL    HW220532   6.441   6.101   3.405
 6545SOL     OW20533   5.057   3.084   6.022
 6545SOL    HW120534   5.063   3.030   5.938
 6545SOL    HW220535   5.142   3.075   6.073
 6546SOL     OW20536   3.613   4.748   5.701
 6546SOL    HW120537   3.569   4.722   5.615
 6546SOL    HW220538   3.692   4.689   5.716
 6547SOL     OW20539   5.193   1.509   6.921
 6547SOL    HW120540   5.184   1.412   6.943
 6547SOL    HW220541   5.148   1.529   6.834
 6548SOL     OW20542   6.331   4.668   5.307
 6548SOL    HW120543   6.331   4.568   5.320
 6548SOL    HW220544   6.259   4.693   5.242
 6549SOL     OW20545   3.204   1.174   2.128
 6549SOL    HW120546   3.272   1.190   2.056
 6549SOL    HW220547   3.190   1.258   2.181
 6550SOL     OW20548   0.997   5.601   3.640
 6550SOL    HW120549   1.026   5.541   3.714
 6550SOL    HW220550   0.978   5.692   3.677
 6551SOL     OW20551   2.580   5.022   1.921
 6551SOL    HW120552   2.621   4.943   1.875
 6551SOL    HW220553   2.515   4.989   1.990
 6552SOL     OW20554   4.586   5.150   6.595
 6552SOL    HW120555   4.547   5.201   6.518
 6552SOL    HW220556   4.538   5.174   6.679
 6553SOL     OW20557   6.711   3.035   2.631
 6553SOL    HW120558   6.768   2.978   2.691
 6553SOL    HW220559   6.620   2.996   2.625
 6554SOL     OW20560   0.006   3.602   5.140
 6554SOL    HW120561   6.964   3.640   5.201
 6554SOL    HW220562   0.072   3.549   5.194
 6555SOL     OW20563   0.439   1.258   1.880
 6555SOL    HW120564   0.447   1.315   1.962
 6555SOL    HW220565   0.354   1.206   1.883
 6556SOL     OW20566   3.310   0.470   3.939
 6556SOL    HW120567   3.226   0.469   3.884
 6556SOL    HW220568   3.389   0.451   3.880
 6557SOL     OW20569   5.867   6.208   1.314
 6557SOL    HW120570   5.952   6.170   1.348
 6557SOL    HW220571   5.809   6.134   1.278
 6558SOL     OW20572   7.023   5.911   6.291
 6558SOL    HW120573   6.953   5.840   6.302
 6558SOL    HW220574   0.062   5.904   6.366
 6559SOL     OW20575   3.436   2.855   0.947
 6559SOL    HW120576   3.391   2.777   0.905
 6559SOL    HW220577   3.420   2.854   1.046
 6560SOL     OW20578   3.691   1.736   0.855
 6560SOL    HW120579   3.770   1.675   0.853
 6560SOL    HW220580   3.618   1.699   0.798
 6561SOL     OW20581   3.787   4.106   4.194
 6561SOL    HW120582   3.846   4.025   4.191
 6561SOL    HW220583   3.814   4.163   4.271
 6562SOL     OW20584   5.705   3.542   5.453
 6562SOL    HW120585   5.631   3.530   5.387
 6562SOL    HW220586   5.768   3.465   5.448
 6563SOL     OW20587   1.270   5.043   2.917
 6563SOL    HW120588   1.339   5.047   2.844
 6563SOL    HW220589   1.181   5.022   2.877
 6564SOL     OW20590   1.201   6.472   3.212
 6564SOL    HW120591   1.184   6.472   3.311
 6564SOL    HW220592   1.267   6.400   3.190
 6565SOL     OW20593   6.518   3.853   5.306
 6565SOL    HW120594   6.536   3.863   5.208
 6565SOL    HW220595   6.596   3.807   5.349
 6566SOL     OW20596   3.671   6.691   0.806
 6566SOL    HW120597   3.760   6.699   0.852
 6566SOL    HW220598   3.627   6.606   0.833
 6567SOL     OW20599   6.445   3.401   1.307
 6567SOL    HW120600   6.368   3.338   1.295
 6567SOL    HW220601   6.413   3.484   1.353
 6568SOL     OW20602   4.042   4.000   1.173
 6568SOL    HW120603   4.044   3.909   1.215
 6568SOL    HW220604   4.049   4.070   1.244
 6569SOL     OW20605   0.550   4.615   6.553
 6569SOL    HW120606   0.594   4.697   6.589
 6569SOL    HW220607   0.463   4.600   6.600
 6570SOL     OW20608   6.189   3.327   1.320
 6570SOL    HW120609   6.169   3.379   1.237
 6570SOL    HW220610   6.141   3.369   1.397
 6571SOL     OW20611   2.863   6.432   3.818
 6571SOL    HW120612   2.864   6.368   3.741
 6571SOL    HW220613   2.867   6.526   3.783
 6572SOL     OW20614   1.056   4.190   6.836
 6572SOL    HW120615   1.095   4.123   6.773
 6572SOL    HW220616   1.106   4.277   6.827
 6573SOL     OW20617   1.783   1.846   2.114
 6573SOL    HW120618   1.852   1.858   2.185
 6573SOL    HW220619   1.692   1.854   2.154
 6574SOL     OW20620   1.873   4.857   3.843
 6574SOL    HW120621   1.905   4.803   3.920
 6574SOL    HW220622   1.935   4.935   3.829
 6575SOL     OW20623   2.077   0.985   2.555
 6575SOL    HW120624   2.058   1.007   2.651
 6575SOL    HW220625   2.030   1.051   2.496
 6576SOL     OW20626   1.373   6.534   4.399
 6576SOL    HW120627   1.419   6.467   4.458
 6576SOL    HW220628   1.320   6.597   4.455
 6577SOL     OW20629   6.564   2.541   4.684
 6577SOL    HW120630   6.513   2.626   4.674
 6577SOL    HW220631   6.568   2.515   4.780
 6578SOL     OW20632   6.670   5.452   3.077
 6578SOL    HW120633   6.604   5.516   3.038
 6578SOL    HW220634   6.737   5.425   3.008
 6579SOL     OW20635   0.848   4.084   2.739
 6579SOL    HW120636   0.795   4.127   2.667
 6579SOL    HW220637   0.911   4.151   2.779
 6580SOL     OW20638   5.770   2.717   1.583
 6580SOL    HW120639   5.695   2.666   1.540
 6580SOL    HW220640   5.826   2.654   1.636
 6581SOL     OW20641   2.352   2.547   5.421
 6581SOL    HW120642   2.269   2.573   5.472
 6581SOL    HW220643   2.395   2.629   5.383
 6582SOL     OW20644   0.089   0.211   2.203
 6582SOL    HW120645   0.015   0.167   2.152
 6582SOL    HW220646   0.077   0.192   2.301
 6583SOL     OW20647   5.249   2.224   5.297
 6583SOL    HW120648   5.224   2.255   5.206
 6583SOL    HW220649   5.271   2.126   5.294
 6584SOL     OW20650   5.777   2.042   6.742
 6584SOL    HW120651   5.745   2.133   6.716
 6584SOL    HW220652   5.741   2.018   6.833
 6585SOL     OW20653   1.852   0.826   0.755
 6585SOL    HW120654   1.769   0.860   0.712
 6585SOL    HW220655   1.868   0.874   0.840
 6586SOL     OW20656   0.216   1.283   6.950
 6586SOL    HW120657   0.218   1.363   6.890
 6586SOL    HW220658   0.217   1.200   6.895
 6587SOL     OW20659   1.945   6.882   2.745
 6587SOL    HW120660   1.884   6.936   2.803
 6587SOL    HW220661   1.983   6.939   2.673
 6588SOL     OW20662   2.036   2.887   0.217
 6588SOL    HW120663   2.069   2.943   0.141
 6588SOL    HW220664   1.967   2.823   0.184
 6589SOL     OW20665   5.245   1.526   5.608
 6589SOL    HW120666   5.279   1.501   5.698
 6589SOL    HW220667   5.211   1.445   5.561
 6590SOL     OW20668   6.349   0.987   5.734
 6590SOL    HW120669   6.319   1.022   5.646
 6590SOL    HW220670   6.367   1.063   5.797
 6591SOL     OW20671   5.527   1.010   2.851
 6591SOL    HW120672   5.548   0.933   2.791
 6591SOL    HW220673   5.529   0.980   2.947
 6592SOL     OW20674   5.559   5.880   4.578
 6592SOL    HW120675   5.610   5.812   4.525
 6592SOL    HW220676   5.505   5.833   4.648
 6593SOL     OW20677   4.285   0.865   2.782
 6593SOL    HW120678   4.257   0.953   2.742
 6593SOL    HW220679   4.349   0.819   2.721
 6594SOL     OW20680   5.898   1.094   6.840
 6594SOL    HW120681   5.867   1.038   6.917
 6594SOL    HW220682   5.964   1.043   6.786
 6595SOL     OW20683   1.600   3.565   0.282
 6595SOL    HW120684   1.550   3.607   0.358
 6595SOL    HW220685   1.695   3.550   0.309
 6596SOL     OW20686   3.483   6.560   5.083
 6596SOL    HW120687   3.550   6.521   5.145
 6596SOL    HW220688   3.413   6.609   5.136
 6597SOL     OW20689   6.543   4.556   6.611
 6597SOL    HW120690   6.506   4.463   6.612
 6597SOL    HW220691   6.612   4.565   6.683
 6598SOL     OW20692   2.102   5.580   4.948
 6598SOL    HW120693   2.077   5.651   5.014
 6598SOL    HW220694   2.120   5.622   4.859
 6599SOL     OW20695   4.739   3.579   5.637
 6599SOL    HW120696   4.663   3.515   5.645
 6599SOL    HW220697   4.824   3.528   5.618
 6600SOL     OW20698   4.234   5.683   4.160
 6600SOL    HW120699   4.248   5.584   4.165
 6600SOL    HW220700   4.153   5.702   4.104
 6601SOL     OW20701   0.914   0.141   1.238
 6601SOL    HW120702   0.834   0.163   1.294
 6601SOL    HW220703   0.977   0.219   1.237
 6602SOL     OW20704   6.085   1.562   1.646
 6602SOL    HW120705   6.014   1.497   1.619
 6602SOL    HW220706   6.166   1.512   1.677
 6603SOL     OW20707   2.345   2.121   2.625
 6603SOL    HW120708   2.341   2.028   2.663
 6603SOL    HW220709   2.406   2.121   2.545
 6604SOL     OW20710   3.942   5.939   3.220
 6604SOL    HW120711   3.980   6.006   3.156
 6604SOL    HW220712   4.011   5.915   3.289
 6605SOL     OW20713   6.032   6.579   6.939
 6605SOL    HW120714   5.938   6.611   6.950
 6605SOL    HW220715   6.054   6.573   6.841
 6606SOL     OW20716   6.303   1.441   2.496
 6606SOL    HW120717   6.203   1.431   2.494
 6606SOL    HW220718   6.327   1.537   2.488
 6607SOL     OW20719   1.053   1.944   3.329
 6607SOL    HW120720   0.984   1.872   3.337
 6607SOL    HW220721   1.090   1.966   3.420
 6608SOL     OW20722   5.808   4.197   4.953
 6608SOL    HW120723   5.715   4.223   4.926
 6608SOL    HW220724   5.833   4.246   5.036
 6609SOL     OW20725   5.632   1.028   7.006
 6609SOL    HW120726   5.593   1.034   6.914
 6609SOL    HW220727   5.590   1.097   0.037
 6610SOL     OW20728   2.941   0.813   0.644
 6610SOL    HW120729   2.876   0.855   0.708
 6610SOL    HW220730   3.020   0.874   0.633
 6611SOL     OW20731   5.186   3.088   2.946
 6611SOL    HW120732   5.138   3.058   3.028
 6611SOL    HW220733   5.273   3.040   2.939
 6612SOL     OW20734   1.209   5.825   6.289
 6612SOL    HW120735   1.133   5.785   6.237
 6612SOL    HW220736   1.217   5.922   6.267
 6613SOL     OW20737   5.023   4.983   1.158
 6613SOL    HW120738   5.082   5.065   1.155
 6613SOL    HW220739   4.970   4.984   1.243
 6614SOL     OW20740   4.888   5.355   5.778
 6614SOL    HW120741   4.811   5.407   5.741
 6614SOL    HW220742   4.883   5.353   5.877
 6615SOL     OW20743   0.909   4.435   5.406
 6615SOL    HW120744   0.986   4.424   5.344
 6615SOL    HW220745   0.925   4.514   5.465
 6616SOL     OW20746   4.798   0.667   4.504
 6616SOL    HW120747   4.840   0.621   4.426
 6616SOL    HW220748   4.800   0.766   4.491
 6617SOL     OW20749   4.544   6.933   5.111
 6617SOL    HW120750   4.489   6.912   5.192
 6617SOL    HW220751   4.639   6.950   5.139
 6618SOL     OW20752   0.738   5.207   1.146
 6618SOL    HW120753   0.702   5.144   1.214
 6618SOL    HW220754   0.664   5.268   1.115
 6619SOL     OW20755   6.516   6.261   1.845
 6619SOL    HW120756   6.557   6.212   1.922
 6619SOL    HW220757   6.420   6.281   1.865
 6620SOL     OW20758   4.040   3.120   5.787
 6620SOL    HW120759   4.105   3.143   5.860
 6620SOL    HW220760   3.973   3.055   5.822
 6621SOL     OW20761   2.677   3.752   0.309
 6621SOL    HW120762   2.732   3.825   0.267
 6621SOL    HW220763   2.681   3.671   0.251
 6622SOL     OW20764   6.244   6.613   0.526
 6622SOL    HW120765   6.146   6.623   0.510
 6622SOL    HW220766   6.275   6.682   0.591
 6623SOL     OW20767   3.454   3.750   2.348
 6623SOL    HW120768   3.541   3.789   2.377
 6623SOL    HW220769   3.469   3.679   2.279
 6624SOL     OW20770   4.550   5.324   3.779
 6624SOL    HW120771   4.483   5.393   3.753
 6624SOL    HW220772   4.608   5.360   3.852
 6625SOL     OW20773   5.501   0.191   6.680
 6625SOL    HW120774   5.495   0.151   6.772
 6625SOL    HW220775   5.473   0.287   6.685
 6626SOL     OW20776   3.093   5.451   3.553
 6626SOL    HW120777   3.021   5.459   3.621
 6626SOL    HW220778   3.073   5.511   3.476
 6627SOL     OW20779   2.013   6.118   1.712
 6627SOL    HW120780   2.035   6.180   1.787
 6627SOL    HW220781   2.093   6.104   1.655
 6628SOL     OW20782   3.993   6.241   3.635
 6628SOL    HW120783   3.979   6.336   3.606
 6628SOL    HW220784   3.914   6.211   3.689
 6629SOL     OW20785   3.624   3.708   0.517
 6629SOL    HW120786   3.715   3.728   0.480
 6629SOL    HW220787   3.620   3.612   0.546
 6630SOL     OW20788   2.784   1.864   5.929
 6630SOL    HW120789   2.844   1.811   5.870
 6630SOL    HW220790   2.833   1.945   5.963
 6631SOL     OW20791   4.215   0.596   1.873
 6631SOL    HW120792   4.272   0.656   1.928
 6631SOL    HW220793   4.263   0.572   1.789
 6632SOL     OW20794   6.537   2.884   2.469
 6632SOL    HW120795   6.535   2.939   2.386
 6632SOL    HW220796   6.445   2.877   2.507
 6633SOL     OW20797   0.379   0.314   1.235
 6633SOL    HW120798   0.294   0.299   1.286
 6633SOL    HW220799   0.442   0.367   1.290
 6634SOL     OW20800   6.955   2.797   5.768
 6634SOL    HW120801   6.895   2.858   5.820
 6634SOL    HW220802   6.969   2.712   5.820
 6635SOL     OW20803   4.451   4.761   2.877
 6635SOL    HW120804   4.543   4.725   2.893
 6635SOL    HW220805   4.426   4.747   2.781
 6636SOL     OW20806   1.715   2.881   3.782
 6636SOL    HW120807   1.716   2.832   3.870
 6636SOL    HW220808   1.759   2.824   3.712
 6637SOL     OW20809   6.543   1.361   1.627
 6637SOL    HW120810   6.535   1.312   1.714
 6637SOL    HW220811   6.612   1.317   1.570
 6638SOL     OW20812   2.507   6.510   6.072
 6638SOL    HW120813   2.488   6.413   6.087
 6638SOL    HW220814   2.493   6.532   5.975
 6639SOL     OW20815   5.229   5.647   6.500
 6639SOL    HW120816   5.281   5.704   6.564
 6639SOL    HW220817   5.185   5.573   6.551
 6640SOL     OW20818   5.689   2.861   3.921
 6640SOL    HW120819   5.682   2.768   3.958
 6640SOL    HW220820   5.710   2.856   3.824
 6641SOL     OW20821   2.233   4.652   0.024
 6641SOL    HW120822   2.224   4.618   0.117
 6641SOL    HW220823   2.159   4.616   6.994
 6642SOL     OW20824   6.596   6.726   0.208
 6642SOL    HW120825   6.644   6.811   0.229
 6642SOL    HW220826   6.564   6.685   0.293
 6643SOL     OW20827   4.047   5.929   7.009
 6643SOL    HW120828   3.978   5.928   6.936
 6643SOL    HW220829   4.121   5.992   6.984
 6644SOL     OW20830   2.448   4.427   2.226
 6644SOL    HW120831   2.490   4.342   2.259
 6644SOL    HW220832   2.509   4.504   2.246
 6645SOL     OW20833   6.627   4.635   5.060
 6645SOL    HW120834   6.716   4.677   5.074
 6645SOL    HW220835   6.555   4.704   5.069
 6646SOL     OW20836   1.761   6.432   3.571
 6646SOL    HW120837   1.831   6.437   3.499
 6646SOL    HW220838   1.691   6.502   3.553
 6647SOL     OW20839   4.094   1.918   2.371
 6647SOL    HW120840   4.073   2.008   2.333
 6647SOL    HW220841   4.119   1.856   2.296
 6648SOL     OW20842   4.631   5.886   1.956
 6648SOL    HW120843   4.653   5.982   1.941
 6648SOL    HW220844   4.705   5.842   2.008
 6649SOL     OW20845   3.907   2.257   6.442
 6649SOL    HW120846   3.890   2.199   6.363
 6649SOL    HW220847   3.821   2.275   6.490
 6650SOL     OW20848   2.984   2.142   3.035
 6650SOL    HW120849   2.996   2.053   3.080
 6650SOL    HW220850   2.967   2.211   3.105
 6651SOL     OW20851   1.402   2.496   6.999
 6651SOL    HW120852   1.433   2.408   6.962
 6651SOL    HW220853   1.372   2.555   6.924
 6652SOL     OW20854   0.676   5.881   3.212
 6652SOL    HW120855   0.665   5.952   3.282
 6652SOL    HW220856   0.671   5.791   3.255
 6653SOL     OW20857   3.440   3.471   3.502
 6653SOL    HW120858   3.391   3.395   3.544
 6653SOL    HW220859   3.375   3.526   3.448
 6654SOL     OW20860   2.156   3.265   1.717
 6654SOL    HW120861   2.117   3.236   1.805
 6654SOL    HW220862   2.219   3.342   1.732
 6655SOL     OW20863   2.248   0.175   0.851
 6655SOL    HW120864   2.236   0.259   0.905
 6655SOL    HW220865   2.163   0.154   0.804
 6656SOL     OW20866   6.630   2.194   1.381
 6656SOL    HW120867   6.678   2.135   1.316
 6656SOL    HW220868   6.551   2.235   1.336
 6657SOL     OW20869   3.175   5.136   6.096
 6657SOL    HW120870   3.209   5.051   6.055
 6657SOL    HW220871   3.210   5.214   6.045
 6658SOL     OW20872   5.303   0.305   5.617
 6658SOL    HW120873   5.207   0.285   5.636
 6658SOL    HW220874   5.343   0.230   5.564
 6659SOL     OW20875   1.464   3.064   6.827
 6659SOL    HW120876   1.402   3.095   6.899
 6659SOL    HW220877   1.412   3.039   6.746
 6660SOL     OW20878   0.587   0.184   2.687
 6660SOL    HW120879   0.620   0.236   2.609
 6660SOL    HW220880   0.587   0.087   2.666
 6661SOL     OW20881   0.320   5.879   3.435
 6661SOL    HW120882   0.268   5.889   3.350
 6661SOL    HW220883   0.393   5.812   3.421
 6662SOL     OW20884   1.087   3.774   5.971
 6662SOL    HW120885   1.027   3.714   5.919
 6662SOL    HW220886   1.160   3.720   6.014
 6663SOL     OW20887   0.346   5.136   2.187
 6663SOL    HW120888   0.377   5.042   2.199
 6663SOL    HW220889   0.249   5.136   2.164
 6664SOL     OW20890   0.417   1.842   3.338
 6664SOL    HW120891   0.447   1.938   3.333
 6664SOL    HW220892   0.485   1.790   3.390
 6665SOL     OW20893   2.765   6.654   2.435
 6665SOL    HW120894   2.859   6.670   2.462
 6665SOL    HW220895   2.759   6.569   2.383
 6666SOL     OW20896   6.033   0.103   0.537
 6666SOL    HW120897   6.058   0.180   0.480
 6666SOL    HW220898   6.055   0.123   0.633
 6667SOL     OW20899   6.773   5.162   4.257
 6667SOL    HW120900   6.830   5.243   4.273
 6667SOL    HW220901   6.832   5.082   4.247
 6668SOL     OW20902   0.446   6.441   1.439
 6668SOL    HW120903   0.524   6.433   1.501
 6668SOL    HW220904   0.378   6.372   1.462
 6669SOL     OW20905   1.780   5.412   2.931
 6669SOL    HW120906   1.719   5.479   2.974
 6669SOL    HW220907   1.760   5.407   2.833
 6670SOL     OW20908   3.301   4.520   0.276
 6670SOL    HW120909   3.278   4.433   0.233
 6670SOL    HW220910   3.325   4.587   0.205
 6671SOL     OW20911   0.590   2.802   5.456
 6671SOL    HW120912   0.494   2.774   5.454
 6671SOL    HW220913   0.648   2.726   5.426
 6672SOL     OW20914   1.060   0.435   5.694
 6672SOL    HW120915   1.061   0.469   5.601
 6672SOL    HW220916   1.142   0.466   5.742
 6673SOL     OW20917   5.330   4.972   1.530
 6673SOL    HW120918   5.281   5.010   1.609
 6673SOL    HW220919   5.299   4.878   1.513
 6674SOL     OW20920   0.915   0.254   4.680
 6674SOL    HW120921   0.966   0.249   4.766
 6674SOL    HW220922   0.952   0.327   4.623
 6675SOL     OW20923   6.997   6.062   0.551
 6675SOL    HW120924   0.000   6.145   0.599
 6675SOL    HW220925   0.007   6.061   0.458
 6676SOL     OW20926   0.945   2.073   6.764
 6676SOL    HW120927   0.944   2.146   6.832
 6676SOL    HW220928   0.853   2.037   6.752
 6677SOL     OW20929   6.700   3.845   6.926
 6677SOL    HW120930   6.694   3.750   6.958
 6677SOL    HW220931   6.795   3.876   6.933
 6678SOL     OW20932   0.879   2.817   4.661
 6678SOL    HW120933   0.954   2.763   4.699
 6678SOL    HW220934   0.885   2.911   4.695
 6679SOL     OW20935   1.657   1.256   4.247
 6679SOL    HW120936   1.698   1.339   4.209
 6679SOL    HW220937   1.670   1.255   4.346
 6680SOL     OW20938   2.042   6.648   5.901
 6680SOL    HW120939   2.066   6.579   5.833
 6680SOL    HW220940   2.117   6.712   5.912
 6681SOL     OW20941   5.755   5.578   0.389
 6681SOL    HW120942   5.796   5.488   0.372
 6681SOL    HW220943   5.784   5.641   0.317
 6682SOL     OW20944   6.985   5.590   2.610
 6682SOL    HW120945   0.010   5.545   2.682
 6682SOL    HW220946   6.984   5.533   2.528
 6683SOL     OW20947   5.342   1.637   4.225
 6683SOL    HW120948   5.267   1.678   4.174
 6683SOL    HW220949   5.412   1.603   4.162
 6684SOL     OW20950   2.173   0.526   2.163
 6684SOL    HW120951   2.211   0.456   2.222
 6684SOL    HW220952   2.084   0.555   2.197
 6685SOL     OW20953   5.310   3.786   6.207
 6685SOL    HW120954   5.354   3.790   6.297
 6685SOL    HW220955   5.214   3.813   6.216
 6686SOL     OW20956   5.163   4.098   3.934
 6686SOL    HW120957   5.252   4.054   3.947
 6686SOL    HW220958   5.175   4.187   3.891
 6687SOL     OW20959   1.132   1.481   0.072
 6687SOL    HW120960   1.084   1.393   0.083
 6687SOL    HW220961   1.178   1.482   7.010
 6688SOL     OW20962   0.734   5.234   3.376
 6688SOL    HW120963   0.786   5.315   3.403
 6688SOL    HW220964   0.797   5.164   3.343
 6689SOL     OW20965   4.473   4.951   0.209
 6689SOL    HW120966   4.480   4.873   0.271
 6689SOL    HW220967   4.380   4.957   0.174
 6690SOL     OW20968   1.258   2.094   0.711
 6690SOL    HW120969   1.328   2.042   0.662
 6690SOL    HW220970   1.278   2.092   0.809
 6691SOL     OW20971   1.557   5.402   1.171
 6691SOL    HW120972   1.652   5.412   1.202
 6691SOL    HW220973   1.530   5.484   1.120
 6692SOL     OW20974   3.525   4.160   6.001
 6692SOL    HW120975   3.500   4.068   6.034
 6692SOL    HW220976   3.524   4.224   6.078
 6693SOL     OW20977   3.992   3.847   4.888
 6693SOL    HW120978   3.970   3.890   4.801
 6693SOL    HW220979   4.029   3.755   4.872
 6694SOL     OW20980   2.992   6.239   0.234
 6694SOL    HW120981   2.932   6.234   0.155
 6694SOL    HW220982   2.986   6.154   0.287
 6695SOL     OW20983   1.528   1.538   6.615
 6695SOL    HW120984   1.515   1.477   6.536
 6695SOL    HW220985   1.538   1.484   6.698
 6696SOL     OW20986   2.084   3.289   2.007
 6696SOL    HW120987   2.124   3.381   2.005
 6696SOL    HW220988   2.056   3.267   2.101
 6697SOL     OW20989   5.523   2.100   3.295
 6697SOL    HW120990   5.612   2.061   3.272
 6697SOL    HW220991   5.461   2.089   3.217
 6698SOL     OW20992   3.511   4.127   0.469
 6698SOL    HW120993   3.427   4.111   0.521
 6698SOL    HW220994   3.522   4.225   0.454
 6699SOL     OW20995   1.432   3.462   6.727
 6699SOL    HW120996   1.347   3.429   6.770
 6699SOL    HW220997   1.410   3.530   6.658
 6700SOL     OW20998   6.296   6.665   6.696
 6700SOL    HW120999   6.296   6.599   6.771
 6700SOL    HW221000   6.319   6.618   6.611
 6701SOL     OW21001   0.774   2.295   0.908
 6701SOL    HW121002   0.844   2.360   0.937
 6701SOL    HW221003   0.713   2.275   0.985
 6702SOL     OW21004   1.654   2.878   1.188
 6702SOL    HW121005   1.639   2.973   1.213
 6702SOL    HW221006   1.648   2.820   1.269
 6703SOL     OW21007   0.226   2.209   6.880
 6703SOL    HW121008   0.246   2.234   6.975
 6703SOL    HW221009   0.291   2.254   6.820
 6704SOL     OW21010   5.161   1.849   3.169
 6704SOL    HW121011   5.150   1.795   3.253
 6704SOL    HW221012   5.071   1.883   3.139
 6705SOL     OW21013   6.362   0.908   0.616
 6705SOL    HW121014   6.440   0.856   0.651
 6705SOL    HW221015   6.353   0.893   0.518
 6706SOL     OW21016   0.877   5.217   6.832
 6706SOL    HW121017   0.778   5.220   6.844
 6706SOL    HW221018   0.915   5.308   6.845
 6707SOL     OW21019   0.980   5.688   2.554
 6707SOL    HW121020   0.994   5.744   2.473
 6707SOL    HW221021   1.055   5.621   2.562
 6708SOL     OW21022   2.726   5.845   1.462
 6708SOL    HW121023   2.768   5.849   1.553
 6708SOL    HW221024   2.666   5.765   1.456
 6709SOL     OW21025   5.930   1.521   2.788
 6709SOL    HW121026   5.934   1.592   2.718
 6709SOL    HW221027   6.003   1.536   2.855
 6710SOL     OW21028   2.215   2.060   1.163
 6710SOL    HW121029   2.302   2.013   1.176
 6710SOL    HW221030   2.153   2.002   1.110
 6711SOL     OW21031   4.156   3.519   0.518
 6711SOL    HW121032   4.223   3.471   0.575
 6711SOL    HW221033   4.186   3.516   0.422
 6712SOL     OW21034   3.276   6.317   1.254
 6712SOL    HW121035   3.301   6.408   1.224
 6712SOL    HW221036   3.256   6.259   1.175
 6713SOL     OW21037   1.999   1.522   2.289
 6713SOL    HW121038   1.916   1.573   2.314
 6713SOL    HW221039   2.055   1.508   2.370
 6714SOL     OW21040   6.923   0.511   3.324
 6714SOL    HW121041   6.948   0.589   3.266
 6714SOL    HW221042   6.968   0.520   3.412
 6715SOL     OW21043   0.121   1.765   0.979
 6715SOL    HW121044   0.043   1.827   0.974
 6715SOL    HW221045   0.146   1.734   0.887
 6716SOL     OW21046   2.837   5.550   0.178
 6716SOL    HW121047   2.839   5.544   0.078
 6716SOL    HW221048   2.747   5.584   0.207
 6717SOL     OW21049   3.928   1.668   6.521
 6717SOL    HW121050   3.862   1.742   6.504
 6717SOL    HW221051   3.928   1.645   6.618
 6718SOL     OW21052   3.423   6.763   6.907
 6718SOL    HW121053   3.373   6.781   6.822
 6718SOL    HW221054   3.369   6.795   6.985
 6719SOL     OW21055   0.603   0.405   5.709
 6719SOL    HW121056   0.609   0.328   5.773
 6719SOL    HW221057   0.544   0.476   5.747
 6720SOL     OW21058   1.748   4.566   1.558
 6720SOL    HW121059   1.660   4.552   1.603
 6720SOL    HW221060   1.754   4.660   1.524
 6721SOL     OW21061   6.341   6.260   3.113
 6721SOL    HW121062   6.266   6.308   3.158
 6721SOL    HW221063   6.426   6.312   3.126
 6722SOL     OW21064   5.093   4.551   6.675
 6722SOL    HW121065   5.114   4.455   6.693
 6722SOL    HW221066   5.004   4.559   6.632
 6723SOL     OW21067   4.362   0.566   2.931
 6723SOL    HW121068   4.342   0.584   3.027
 6723SOL    HW221069   4.339   0.471   2.910
 6724SOL     OW21070   3.258   4.847   5.406
 6724SOL    HW121071   3.269   4.916   5.477
 6724SOL    HW221072   3.344   4.799   5.392
 6725SOL     OW21073   0.213   5.051   1.847
 6725SOL    HW121074   0.188   5.011   1.935
 6725SOL    HW221075   0.303   5.094   1.855
 6726SOL     OW21076   2.476   2.535   2.027
 6726SOL    HW121077   2.429   2.469   1.969
 6726SOL    HW221078   2.422   2.619   2.032
 6727SOL     OW21079   3.838   3.792   0.384
 6727SOL    HW121080   3.828   3.889   0.407
 6727SOL    HW221081   3.891   3.784   0.299
 6728SOL     OW21082   4.795   1.580   4.316
 6728SOL    HW121083   4.764   1.572   4.221
 6728SOL    HW221084   4.718   1.607   4.374
 6729SOL     OW21085   5.702   6.178   2.903
 6729SOL    HW121086   5.780   6.157   2.845
 6729SOL    HW221087   5.732   6.187   2.998
 6730SOL     OW21088   1.113   0.320   1.569
 6730SOL    HW121089   1.160   0.374   1.639
 6730SOL    HW221090   1.014   0.332   1.579
 6731SOL     OW21091   2.374   4.179   1.986
 6731SOL    HW121092   2.370   4.082   2.011
 6731SOL    HW221093   2.318   4.232   2.049
 6732SOL     OW21094   1.948   4.815   0.857
 6732SOL    HW121095   1.895   4.892   0.892
 6732SOL    HW221096   2.023   4.849   0.801
 6733SOL     OW21097   6.076   5.645   4.674
 6733SOL    HW121098   6.174   5.634   4.691
 6733SOL    HW221099   6.031   5.556   4.684
 6734SOL     OW21100   2.792   3.509   5.289
 6734SOL    HW121101   2.764   3.465   5.374
 6734SOL    HW221102   2.740   3.593   5.277
 6735SOL     OW21103   6.933   5.648   6.399
 6735SOL    HW121104   7.003   5.600   6.346
 6735SOL    HW221105   6.897   5.586   6.469
 6736SOL     OW21106   2.150   3.737   2.682
 6736SOL    HW121107   2.159   3.837   2.691
 6736SOL    HW221108   2.092   3.716   2.604
 6737SOL     OW21109   1.900   0.227   1.344
 6737SOL    HW121110   1.915   0.200   1.249
 6737SOL    HW221111   1.934   0.156   1.405
 6738SOL     OW21112   4.160   1.384   1.628
 6738SOL    HW121113   4.170   1.480   1.601
 6738SOL    HW221114   4.063   1.360   1.633
 6739SOL     OW21115   4.780   0.638   4.786
 6739SOL    HW121116   4.730   0.564   4.831
 6739SOL    HW221117   4.791   0.617   4.689
 6740SOL     OW21118   5.882   3.335   5.357
 6740SOL    HW121119   5.914   3.311   5.448
 6740SOL    HW221120   5.822   3.263   5.322
 6741SOL     OW21121   6.862   6.877   5.741
 6741SOL    HW121122   6.936   6.810   5.737
 6741SOL    HW221123   6.775   6.830   5.756
 6742SOL     OW21124   6.183   5.948   4.995
 6742SOL    HW121125   6.244   5.944   5.074
 6742SOL    HW221126   6.094   5.984   5.023
 6743SOL     OW21127   5.109   2.510   0.784
 6743SOL    HW121128   5.164   2.562   0.848
 6743SOL    HW221129   5.012   2.532   0.798
 6744SOL     OW21130   5.163   5.339   5.284
 6744SOL    HW121131   5.261   5.346   5.265
 6744SOL    HW221132   5.135   5.417   5.340
 6745SOL     OW21133   0.869   3.668   2.999
 6745SOL    HW121134   0.966   3.670   2.976
 6745SOL    HW221135   0.829   3.582   2.966
 6746SOL     OW21136   0.024   1.039   0.926
 6746SOL    HW121137   0.046   1.037   0.829
 6746SOL    HW221138   0.075   0.968   0.973
 6747SOL     OW21139   4.944   6.589   6.909
 6747SOL    HW121140   4.914   6.533   6.832
 6747SOL    HW221141   4.983   6.531   6.980
 6748SOL     OW21142   0.439   6.519   1.844
 6748SOL    HW121143   0.534   6.550   1.832
 6748SOL    HW221144   0.435   6.420   1.832
 6749SOL     OW21145   3.590   6.001   1.049
 6749SOL    HW121146   3.625   6.060   0.976
 6749SOL    HW221147   3.543   5.922   1.009
 6750SOL     OW21148   2.406   3.156   5.424
 6750SOL    HW121149   2.448   3.242   5.394
 6750SOL    HW221150   2.403   3.092   5.348
 6751SOL     OW21151   3.276   1.940   5.969
 6751SOL    HW121152   3.280   1.953   6.068
 6751SOL    HW221153   3.196   1.985   5.931
 6752SOL     OW21154   6.127   1.984   0.909
 6752SOL    HW121155   6.065   1.939   0.846
 6752SOL    HW221156   6.187   1.916   0.951
 6753SOL     OW21157   5.666   1.419   6.158
 6753SOL    HW121158   5.741   1.436   6.094
 6753SOL    HW221159   5.601   1.356   6.117
 6754SOL     OW21160   4.834   1.482   0.082
 6754SOL    HW121161   4.917   1.535   0.102
 6754SOL    HW221162   4.799   1.508   7.019
 6755SOL     OW21163   5.194   1.772   3.408
 6755SOL    HW121164   5.247   1.856   3.409
 6755SOL    HW221165   5.145   1.763   3.495
 6756SOL     OW21166   4.919   4.423   3.701
 6756SOL    HW121167   4.910   4.424   3.800
 6756SOL    HW221168   4.883   4.508   3.663
 6757SOL     OW21169   5.844   4.897   1.824
 6757SOL    HW121170   5.755   4.854   1.811
 6757SOL    HW221171   5.898   4.888   1.740
 6758SOL     OW21172   6.143   1.503   2.959
 6758SOL    HW121173   6.213   1.452   2.908
 6758SOL    HW221174   6.125   1.457   3.046
 6759SOL     OW21175   1.131   4.373   3.625
 6759SOL    HW121176   1.116   4.468   3.652
 6759SOL    HW221177   1.188   4.370   3.543
 6760SOL     OW21178   0.536   4.095   5.619
 6760SOL    HW121179   0.461   4.098   5.685
 6760SOL    HW221180   0.556   4.001   5.594
 6761SOL     OW21181   6.187   3.301   6.287
 6761SOL    HW121182   6.169   3.390   6.329
 6761SOL    HW221183   6.283   3.277   6.299
 6762SOL     OW21184   6.314   4.307   3.298
 6762SOL    HW121185   6.370   4.307   3.216
 6762SOL    HW221186   6.225   4.266   3.278
 6763SOL     OW21187   6.701   6.379   5.110
 6763SOL    HW121188   6.616   6.366   5.160
 6763SOL    HW221189   6.695   6.460   5.053
 6764SOL     OW21190   1.712   3.148   6.896
 6764SOL    HW121191   1.772   3.189   6.827
 6764SOL    HW221192   1.617   3.158   6.866
 6765SOL     OW21193   5.080   5.081   2.763
 6765SOL    HW121194   4.981   5.079   2.746
 6765SOL    HW221195   5.116   5.170   2.736
 6766SOL     OW21196   1.794   1.914   5.730
 6766SOL    HW121197   1.865   1.870   5.785
 6766SOL    HW221198   1.800   1.881   5.636
 6767SOL     OW21199   0.862   2.722   5.993
 6767SOL    HW121200   0.916   2.776   5.928
 6767SOL    HW221201   0.916   2.708   6.077
 6768SOL     OW21202   6.865   1.183   5.707
 6768SOL    HW121203   6.862   1.188   5.807
 6768SOL    HW221204   6.861   1.276   5.669
 6769SOL     OW21205   0.978   2.300   6.884
 6769SOL    HW121206   1.016   2.383   6.924
 6769SOL    HW221207   0.943   2.320   6.792
 6770SOL     OW21208   6.720   1.292   4.863
 6770SOL    HW121209   6.671   1.326   4.783
 6770SOL    HW221210   6.687   1.338   4.945
 6771SOL     OW21211   5.409   1.981   2.369
 6771SOL    HW121212   5.427   1.912   2.300
 6771SOL    HW221213   5.428   1.943   2.460
 6772SOL     OW21214   0.975   0.670   1.620
 6772SOL    HW121215   0.975   0.735   1.696
 6772SOL    HW221216   1.031   0.591   1.644
 6773SOL     OW21217   1.452   0.322   1.875
 6773SOL    HW121218   1.535   0.293   1.923
 6773SOL    HW221219   1.474   0.393   1.809
 6774SOL     OW21220   3.450   1.507   5.961
 6774SOL    HW121221   3.397   1.584   5.998
 6774SOL    HW221222   3.411   1.421   5.994
 6775SOL     OW21223   1.256   3.115   4.795
 6775SOL    HW121224   1.207   3.125   4.881
 6775SOL    HW221225   1.320   3.038   4.802
 6776SOL     OW21226   2.974   3.521   3.852
 6776SOL    HW121227   3.059   3.522   3.799
 6776SOL    HW221228   2.966   3.606   3.904
 6777SOL     OW21229   0.691   6.962   6.184
 6777SOL    HW121230   0.713   6.896   6.112
 6777SOL    HW221231   0.628   6.920   6.250
 6778SOL     OW21232   6.751   6.208   2.318
 6778SOL    HW121233   6.749   6.113   2.349
 6778SOL    HW221234   6.841   6.247   2.335
 6779SOL     OW21235   4.161   4.693   6.689
 6779SOL    HW121236   4.232   4.756   6.656
 6779SOL    HW221237   4.147   4.705   6.787
 6780SOL     OW21238   3.979   0.379   2.933
 6780SOL    HW121239   4.028   0.347   3.014
 6780SOL    HW221240   4.019   0.464   2.900
 6781SOL     OW21241   6.497   3.192   3.237
 6781SOL    HW121242   6.558   3.220   3.163
 6781SOL    HW221243   6.543   3.124   3.294
 6782SOL     OW21244   0.534   1.478   3.769
 6782SOL    HW121245   0.484   1.548   3.821
 6782SOL    HW221246   0.472   1.434   3.705
 6783SOL     OW21247   0.729   6.170   5.891
 6783SOL    HW121248   0.747   6.155   5.989
 6783SOL    HW221249   0.815   6.191   5.845
 6784SOL     OW21250   1.585   4.693   0.810
 6784SOL    HW121251   1.647   4.749   0.756
 6784SOL    HW221252   1.611   4.696   0.906
 6785SOL     OW21253   5.448   4.650   2.380
 6785SOL    HW121254   5.480   4.567   2.334
 6785SOL    HW221255   5.364   4.629   2.430
 6786SOL     OW21256   6.474   1.980   5.452
 6786SOL    HW121257   6.502   1.896   5.406
 6786SOL    HW221258   6.498   2.059   5.395
 6787SOL     OW21259   3.189   1.158   0.693
 6787SOL    HW121260   3.103   1.180   0.648
 6787SOL    HW221261   3.174   1.150   0.792
 6788SOL     OW21262   0.711   4.061   1.489
 6788SOL    HW121263   0.615   4.087   1.474
 6788SOL    HW221264   0.718   3.961   1.489
 6789SOL     OW21265   5.687   4.211   2.533
 6789SOL    HW121266   5.696   4.156   2.450
 6789SOL    HW221267   5.694   4.308   2.511
 6790SOL     OW21268   0.963   5.872   0.872
 6790SOL    HW121269   0.887   5.935   0.861
 6790SOL    HW221270   1.043   5.907   0.823
 6791SOL     OW21271   2.981   6.375   4.097
 6791SOL    HW121272   3.016   6.458   4.141
 6791SOL    HW221273   2.937   6.400   4.010
 6792SOL     OW21274   3.387   6.093   6.477
 6792SOL    HW121275   3.420   6.155   6.548
 6792SOL    HW221276   3.458   6.083   6.407
 6793SOL     OW21277   2.909   4.070   6.656
 6793SOL    HW121278   2.865   4.154   6.687
 6793SOL    HW221279   2.839   4.006   6.624
 6794SOL     OW21280   5.335   2.536   4.277
 6794SOL    HW121281   5.359   2.521   4.373
 6794SOL    HW221282   5.310   2.632   4.264
 6795SOL     OW21283   0.640   0.693   1.621
 6795SOL    HW121284   0.675   0.676   1.712
 6795SOL    HW221285   0.557   0.749   1.627
 6796SOL     OW21286   6.665   2.642   2.475
 6796SOL    HW121287   6.758   2.665   2.504
 6796SOL    HW221288   6.611   2.726   2.468
 6797SOL     OW21289   1.884   3.394   1.143
 6797SOL    HW121290   1.880   3.464   1.215
 6797SOL    HW221291   1.844   3.431   1.059
 6798SOL     OW21292   5.099   0.989   2.143
 6798SOL    HW121293   5.098   1.077   2.096
 6798SOL    HW221294   5.098   0.915   2.076
 6799SOL     OW21295   5.958   0.017   2.779
 6799SOL    HW121296   5.898   6.975   2.738
 6799SOL    HW221297   5.903   0.085   2.827
 6800SOL     OW21298   6.625   3.149   2.363
 6800SOL    HW121299   6.656   3.125   2.455
 6800SOL    HW221300   6.668   3.235   2.334
 6801SOL     OW21301   1.741   5.198   5.431
 6801SOL    HW121302   1.791   5.246   5.503
 6801SOL    HW221303   1.780   5.106   5.419
 6802SOL     OW21304   2.729   4.810   1.868
 6802SOL    HW121305   2.776   4.800   1.781
 6802SOL    HW221306   2.774   4.754   1.937
 6803SOL     OW21307   5.340   5.369   6.811
 6803SOL    HW121308   5.272   5.313   6.858
 6803SOL    HW221309   5.401   5.411   6.879
 6804SOL     OW21310   3.119   5.303   1.824
 6804SOL    HW121311   3.202   5.275   1.874
 6804SOL    HW221312   3.095   5.396   1.850
 6805SOL     OW21313   0.780   4.645   3.693
 6805SOL    HW121314   0.721   4.714   3.736
 6805SOL    HW221315   0.744   4.624   3.602
 6806SOL     OW21316   5.782   3.708   2.627
 6806SOL    HW121317   5.757   3.620   2.587
 6806SOL    HW221318   5.744   3.714   2.720
 6807SOL     OW21319   3.262   3.960   2.301
 6807SOL    HW121320   3.281   3.863   2.317
 6807SOL    HW221321   3.164   3.974   2.296
 6808SOL     OW21322   3.208   0.080   3.109
 6808SOL    HW121323   3.282   0.017   3.084
 6808SOL    HW221324   3.221   0.108   3.204
 6809SOL     OW21325   5.695   2.199   0.853
 6809SOL    HW121326   5.706   2.213   0.755
 6809SOL    HW221327   5.784   2.202   0.898
 6810SOL     OW21328   2.419   0.533   4.349
 6810SOL    HW121329   2.481   0.456   4.362
 6810SOL    HW221330   2.337   0.502   4.301
 6811SOL     OW21331   6.632   0.949   0.875
 6811SOL    HW121332   6.714   0.923   0.926
 6811SOL    HW221333   6.611   0.879   0.807
 6812SOL     OW21334   3.332   4.498   5.433
 6812SOL    HW121335   3.280   4.530   5.353
 6812SOL    HW221336   3.268   4.459   5.500
 6813SOL     OW21337   0.292   4.049   1.959
 6813SOL    HW121338   0.361   4.055   2.031
 6813SOL    HW221339   0.239   3.965   1.970
 6814SOL     OW21340   4.865   1.629   1.871
 6814SOL    HW121341   4.944   1.623   1.811
 6814SOL    HW221342   4.894   1.622   1.967
 6815SOL     OW21343   0.704   6.235   6.676
 6815SOL    HW121344   0.613   6.230   6.635
 6815SOL    HW221345   0.698   6.283   6.764
 6816SOL     OW21346   6.456   0.315   3.613
 6816SOL    HW121347   6.469   0.398   3.558
 6816SOL    HW221348   6.400   0.336   3.693
 6817SOL     OW21349   5.309   1.060   1.842
 6817SOL    HW121350   5.399   1.099   1.823
 6817SOL    HW221351   5.320   0.967   1.878
 6818SOL     OW21352   1.048   0.601   5.484
 6818SOL    HW121353   0.953   0.632   5.473
 6818SOL    HW221354   1.110   0.678   5.468
 6819SOL     OW21355   5.066   4.022   1.278
 6819SOL    HW121356   5.107   4.056   1.363
 6819SOL    HW221357   5.071   3.922   1.277
 6820SOL     OW21358   2.578   4.336   1.423
 6820SOL    HW121359   2.530   4.380   1.499
 6820SOL    HW221360   2.619   4.405   1.364
 6821SOL     OW21361   3.234   3.079   6.098
 6821SOL    HW121362   3.154   3.042   6.053
 6821SOL    HW221363   3.269   3.012   6.165
 6822SOL     OW21364   5.908   3.732   5.370
 6822SOL    HW121365   5.903   3.782   5.456
 6822SOL    HW221366   5.831   3.669   5.363
 6823SOL     OW21367   0.297   2.976   5.840
 6823SOL    HW121368   0.199   2.981   5.822
 6823SOL    HW221369   0.317   2.892   5.890
 6824SOL     OW21370   1.229   0.699   4.325
 6824SOL    HW121371   1.198   0.728   4.235
 6824SOL    HW221372   1.272   0.609   4.319
 6825SOL     OW21373   4.343   4.578   1.248
 6825SOL    HW121374   4.418   4.558   1.310
 6825SOL    HW221375   4.256   4.574   1.298
 6826SOL     OW21376   5.505   0.692   3.706
 6826SOL    HW121377   5.594   0.648   3.707
 6826SOL    HW221378   5.471   0.696   3.612
 6827SOL     OW21379   4.702   5.998   5.777
 6827SOL    HW121380   4.772   5.971   5.711
 6827SOL    HW221381   4.658   5.917   5.814
 6828SOL     OW21382   2.823   2.284   2.595
 6828SOL    HW121383   2.843   2.205   2.538
 6828SOL    HW221384   2.785   2.357   2.538
 6829SOL     OW21385   5.347   5.916   4.374
 6829SOL    HW121386   5.428   5.867   4.406
 6829SOL    HW221387   5.374   5.985   4.306
 6830SOL     OW21388   3.782   6.043   2.274
 6830SOL    HW121389   3.734   6.124   2.306
 6830SOL    HW221390   3.735   6.007   2.193
 6831SOL     OW21391   1.563   1.191   6.692
 6831SOL    HW121392   1.544   1.094   6.712
 6831SOL    HW221393   1.628   1.196   6.616
 6832SOL     OW21394   2.642   3.219   0.140
 6832SOL    HW121395   2.602   3.145   0.196
 6832SOL    HW221396   2.741   3.218   0.150
 6833SOL     OW21397   4.821   4.727   0.179
 6833SOL    HW121398   4.834   4.753   0.084
 6833SOL    HW221399   4.730   4.687   0.191
 6834SOL     OW21400   5.998   5.674   5.030
 6834SOL    HW121401   6.062   5.698   5.104
 6834SOL    HW221402   6.003   5.744   4.959
 6835SOL     OW21403   3.524   0.294   3.309
 6835SOL    HW121404   3.614   0.326   3.337
 6835SOL    HW221405   3.461   0.371   3.305
 6836SOL     OW21406   0.159   4.482   6.954
 6836SOL    HW121407   0.174   4.580   6.941
 6836SOL    HW221408   0.069   4.457   6.918
 6837SOL     OW21409   6.196   1.094   2.044
 6837SOL    HW121410   6.102   1.074   2.070
 6837SOL    HW221411   6.216   1.191   2.059
 6838SOL     OW21412   3.059   3.955   6.005
 6838SOL    HW121413   2.971   3.977   5.962
 6838SOL    HW221414   3.127   4.021   5.974
 6839SOL     OW21415   6.038   2.730   5.643
 6839SOL    HW121416   6.124   2.728   5.694
 6839SOL    HW221417   5.966   2.685   5.697
 6840SOL     OW21418   3.100   6.400   4.430
 6840SOL    HW121419   3.147   6.434   4.349
 6840SOL    HW221420   3.012   6.448   4.440
 6841SOL     OW21421   4.908   0.001   0.829
 6841SOL    HW121422   4.825   0.054   0.812
 6841SOL    HW221423   4.961   0.044   0.902
 6842SOL     OW21424   0.420   3.634   3.314
 6842SOL    HW121425   0.369   3.715   3.341
 6842SOL    HW221426   0.494   3.660   3.252
 6843SOL     OW21427   4.716   2.792   2.253
 6843SOL    HW121428   4.699   2.859   2.181
 6843SOL    HW221429   4.768   2.835   2.326
 6844SOL     OW21430   3.781   0.014   4.444
 6844SOL    HW121431   3.788   0.111   4.424
 6844SOL    HW221432   3.831   7.020   4.529
 6845SOL     OW21433   4.175   4.100   0.355
 6845SOL    HW121434   4.199   4.007   0.327
 6845SOL    HW221435   4.238   4.131   0.426
 6846SOL     OW21436   4.068   3.600   3.297
 6846SOL    HW121437   4.095   3.504   3.303
 6846SOL    HW221438   4.011   3.622   3.377
 6847SOL     OW21439   6.315   3.086   2.261
 6847SOL    HW121440   6.326   3.106   2.164
 6847SOL    HW221441   6.393   3.125   2.312
 6848SOL     OW21442   0.496   5.883   4.165
 6848SOL    HW121443   0.414   5.926   4.129
 6848SOL    HW221444   0.531   5.816   4.099
 6849SOL     OW21445   3.327   0.020   5.084
 6849SOL    HW121446   3.371   6.990   5.154
 6849SOL    HW221447   3.231   7.020   5.075
 6850SOL     OW21448   5.468   3.907   1.771
 6850SOL    HW121449   5.567   3.910   1.783
 6850SOL    HW221450   5.441   3.973   1.700
 6851SOL     OW21451   1.600   5.663   5.508
 6851SOL    HW121452   1.684   5.674   5.455
 6851SOL    HW221453   1.608   5.711   5.594
 6852SOL     OW21454   6.404   5.236   2.204
 6852SOL    HW121455   6.438   5.328   2.185
 6852SOL    HW221456   6.334   5.241   2.276
 6853SOL     OW21457   6.683   4.480   4.837
 6853SOL    HW121458   6.609   4.412   4.840
 6853SOL    HW221459   6.669   4.547   4.910
 6854SOL     OW21460   6.450   1.661   6.346
 6854SOL    HW121461   6.530   1.659   6.405
 6854SOL    HW221462   6.424   1.756   6.327
 6855SOL     OW21463   3.112   6.627   2.166
 6855SOL    HW121464   3.179   6.605   2.095
 6855SOL    HW221465   3.070   6.716   2.147
 6856SOL     OW21466   0.527   5.164   5.733
 6856SOL    HW121467   0.476   5.250   5.734
 6856SOL    HW221468   0.576   5.154   5.820
 6857SOL     OW21469   4.495   1.611   6.372
 6857SOL    HW121470   4.470   1.680   6.440
 6857SOL    HW221471   4.589   1.624   6.344
 6858SOL     OW21472   3.890   2.805   6.621
 6858SOL    HW121473   3.835   2.840   6.697
 6858SOL    HW221474   3.978   2.853   6.618
 6859SOL     OW21475   3.242   0.792   0.431
 6859SOL    HW121476   3.189   0.875   0.450
 6859SOL    HW221477   3.316   0.814   0.368
 6860SOL     OW21478   4.532   3.790   6.535
 6860SOL    HW121479   4.488   3.813   6.622
 6860SOL    HW221480   4.462   3.765   6.468
 6861SOL     OW21481   5.251   3.964   0.967
 6861SOL    HW121482   5.241   4.038   0.900
 6861SOL    HW221483   5.283   4.002   1.054
 6862SOL     OW21484   2.728   5.511   4.189
 6862SOL    HW121485   2.688   5.452   4.259
 6862SOL    HW221486   2.656   5.541   4.126
 6863SOL     OW21487   1.188   3.016   3.506
 6863SOL    HW121488   1.229   3.091   3.455
 6863SOL    HW221489   1.207   3.027   3.603
 6864SOL     OW21490   4.491   5.579   6.488
 6864SOL    HW121491   4.449   5.641   6.422
 6864SOL    HW221492   4.575   5.620   6.523
 6865SOL     OW21493   0.130   3.546   4.883
 6865SOL    HW121494   0.120   3.573   4.979
 6865SOL    HW221495   0.197   3.472   4.876
 6866SOL     OW21496   0.785   3.469   2.321
 6866SOL    HW121497   0.797   3.564   2.346
 6866SOL    HW221498   0.700   3.458   2.269
 6867SOL     OW21499   2.099   5.467   2.993
 6867SOL    HW121500   2.198   5.474   2.986
 6867SOL    HW221501   2.069   5.498   3.083
 6868SOL     OW21502   1.954   5.566   4.656
 6868SOL    HW121503   1.993   5.602   4.571
 6868SOL    HW221504   2.021   5.509   4.702
 6869SOL     OW21505   6.865   3.452   4.906
 6869SOL    HW121506   6.857   3.356   4.933
 6869SOL    HW221507   6.942   3.493   4.955
 6870SOL     OW21508   5.744   3.402   2.477
 6870SOL    HW121509   5.828   3.400   2.531
 6870SOL    HW221510   5.766   3.419   2.381
 6871SOL     OW21511   5.001   6.239   2.075
 6871SOL    HW121512   4.965   6.184   2.000
 6871SOL    HW221513   4.947   6.222   2.157
 6872SOL     OW21514   3.471   3.872   0.696
 6872SOL    HW121515   3.395   3.807   0.697
 6872SOL    HW221516   3.550   3.831   0.650
 6873SOL     OW21517   5.638   4.599   5.196
 6873SOL    HW121518   5.588   4.618   5.112
 6873SOL    HW221519   5.605   4.513   5.236
 6874SOL     OW21520   1.528   2.011   5.531
 6874SOL    HW121521   1.620   1.994   5.496
 6874SOL    HW221522   1.532   2.026   5.629
 6875SOL     OW21523   3.782   1.718   4.201
 6875SOL    HW121524   3.715   1.657   4.160
 6875SOL    HW221525   3.848   1.747   4.132
 6876SOL     OW21526   4.085   6.083   4.228
 6876SOL    HW121527   4.093   6.056   4.132
 6876SOL    HW221528   4.034   6.013   4.278
 6877SOL     OW21529   1.674   3.925   6.203
 6877SOL    HW121530   1.621   3.890   6.281
 6877SOL    HW221531   1.689   4.023   6.215
 6878SOL     OW21532   1.550   2.282   4.526
 6878SOL    HW121533   1.635   2.240   4.558
 6878SOL    HW221534   1.473   2.222   4.550
 6879SOL     OW21535   0.306   1.218   5.438
 6879SOL    HW121536   0.390   1.247   5.483
 6879SOL    HW221537   0.269   1.138   5.485
 6880SOL     OW21538   2.135   3.500   4.344
 6880SOL    HW121539   2.162   3.404   4.338
 6880SOL    HW221540   2.143   3.543   4.254
 6881SOL     OW21541   5.457   5.825   1.605
 6881SOL    HW121542   5.454   5.728   1.631
 6881SOL    HW221543   5.365   5.855   1.579
 6882SOL     OW21544   2.588   6.242   5.295
 6882SOL    HW121545   2.554   6.304   5.365
 6882SOL    HW221546   2.666   6.190   5.332
 6883SOL     OW21547   3.254   6.077   1.664
 6883SOL    HW121548   3.234   6.113   1.754
 6883SOL    HW221549   3.176   6.023   1.631
 6884SOL     OW21550   2.286   5.175   2.933
 6884SOL    HW121551   2.188   5.175   2.911
 6884SOL    HW221552   2.334   5.237   2.871
 6885SOL     OW21553   4.256   5.620   4.854
 6885SOL    HW121554   4.240   5.708   4.898
 6885SOL    HW221555   4.189   5.554   4.887
 6886SOL     OW21556   5.207   1.523   2.595
 6886SOL    HW121557   5.295   1.485   2.568
 6886SOL    HW221558   5.133   1.469   2.554
 6887SOL     OW21559   5.185   0.748   5.636
 6887SOL    HW121560   5.240   0.696   5.701
 6887SOL    HW221561   5.212   0.725   5.543
 6888SOL     OW21562   6.389   7.008   4.863
 6888SOL    HW121563   6.306   0.008   4.814
 6888SOL    HW221564   6.459   0.052   4.852
 6889SOL     OW21565   1.523   4.417   5.832
 6889SOL    HW121566   1.464   4.340   5.811
 6889SOL    HW221567   1.520   4.484   5.757
 6890SOL     OW21568   1.900   0.250   0.998
 6890SOL    HW121569   1.926   0.205   0.913
 6890SOL    HW221570   1.831   0.196   1.045
 6891SOL     OW21571   3.315   5.225   5.274
 6891SOL    HW121572   3.397   5.168   5.274
 6891SOL    HW221573   3.263   5.209   5.191
 6892SOL     OW21574   3.203   1.670   4.833
 6892SOL    HW121575   3.186   1.712   4.922
 6892SOL    HW221576   3.299   1.679   4.808
 6893SOL     OW21577   5.947   0.854   1.551
 6893SOL    HW121578   6.047   0.857   1.544
 6893SOL    HW221579   5.913   0.772   1.506
 6894SOL     OW21580   5.945   4.868   6.710
 6894SOL    HW121581   5.983   4.956   6.684
 6894SOL    HW221582   6.010   4.795   6.689
 6895SOL     OW21583   4.344   5.506   6.722
 6895SOL    HW121584   4.264   5.566   6.728
 6895SOL    HW221585   4.393   5.525   6.637
 6896SOL     OW21586   4.392   0.897   3.031
 6896SOL    HW121587   4.315   0.867   3.089
 6896SOL    HW221588   4.366   0.887   2.935
 6897SOL     OW21589   3.586   1.122   0.933
 6897SOL    HW121590   3.544   1.213   0.938
 6897SOL    HW221591   3.537   1.066   0.867
 6898SOL     OW21592   3.640   1.434   2.627
 6898SOL    HW121593   3.690   1.424   2.541
 6898SOL    HW221594   3.705   1.434   2.703
 6899SOL     OW21595   5.696   6.242   6.300
 6899SOL    HW121596   5.600   6.270   6.306
 6899SOL    HW221597   5.718   6.221   6.205
 6900SOL     OW21598   4.137   1.852   6.421
 6900SOL    HW121599   4.217   1.816   6.373
 6900SOL    HW221600   4.080   1.776   6.450
 6901SOL     OW21601   1.213   1.241   0.414
 6901SOL    HW121602   1.235   1.171   0.482
 6901SOL    HW221603   1.132   1.213   0.362
 6902SOL     OW21604   6.289   5.566   2.007
 6902SOL    HW121605   6.263   5.577   2.102
 6902SOL    HW221606   6.388   5.549   2.001
 6903SOL     OW21607   4.497   4.364   0.483
 6903SOL    HW121608   4.470   4.431   0.552
 6903SOL    HW221609   4.453   4.277   0.502
 6904SOL     OW21610   0.715   1.748   2.908
 6904SOL    HW121611   0.747   1.673   2.851
 6904SOL    HW221612   0.793   1.806   2.933
 6905SOL     OW21613   3.816   5.133   1.506
 6905SOL    HW121614   3.722   5.162   1.528
 6905SOL    HW221615   3.859   5.201   1.447
 6906SOL     OW21616   6.148   6.397   3.412
 6906SOL    HW121617   6.070   6.347   3.376
 6906SOL    HW221618   6.137   6.411   3.510
 6907SOL     OW21619   3.662   0.708   1.149
 6907SOL    HW121620   3.673   0.717   1.050
 6907SOL    HW221621   3.604   0.629   1.169
 6908SOL     OW21622   5.904   0.361   6.918
 6908SOL    HW121623   5.806   0.359   6.940
 6908SOL    HW221624   5.953   0.304   6.984
 6909SOL     OW21625   2.969   2.717   6.750
 6909SOL    HW121626   2.914   2.752   6.674
 6909SOL    HW221627   2.976   2.787   6.822
 6910SOL     OW21628   5.894   0.502   1.629
 6910SOL    HW121629   5.863   0.408   1.621
 6910SOL    HW221630   5.816   0.564   1.629
 6911SOL     OW21631   4.137   0.817   4.872
 6911SOL    HW121632   4.061   0.755   4.891
 6911SOL    HW221633   4.116   0.907   4.910
 6912SOL     OW21634   4.345   4.484   1.830
 6912SOL    HW121635   4.373   4.389   1.843
 6912SOL    HW221636   4.425   4.539   1.806
 6913SOL     OW21637   4.351   5.476   5.903
 6913SOL    HW121638   4.442   5.466   5.943
 6913SOL    HW221639   4.290   5.517   5.971
 6914SOL     OW21640   6.383   4.899   6.640
 6914SOL    HW121641   6.464   4.857   6.683
 6914SOL    HW221642   6.320   4.929   6.711
 6915SOL     OW21643   1.086   5.636   0.783
 6915SOL    HW121644   1.072   5.710   0.716
 6915SOL    HW221645   1.068   5.671   0.875
 6916SOL     OW21646   6.320   0.533   5.629
 6916SOL    HW121647   6.369   0.476   5.695
 6916SOL    HW221648   6.226   0.548   5.662
 6917SOL     OW21649   3.928   0.050   6.711
 6917SOL    HW121650   3.960   0.085   6.623
 6917SOL    HW221651   3.947   6.979   6.716
 6918SOL     OW21652   2.228   2.942   3.776
 6918SOL    HW121653   2.229   2.921   3.874
 6918SOL    HW221654   2.248   3.039   3.762
 6919SOL     OW21655   0.706   6.681   3.604
 6919SOL    HW121656   0.760   6.736   3.667
 6919SOL    HW221657   0.627   6.642   3.652
 6920SOL     OW21658   5.134   6.001   4.653
 6920SOL    HW121659   5.100   6.095   4.651
 6920SOL    HW221660   5.233   6.001   4.638
 6921SOL     OW21661   1.416   6.372   3.435
 6921SOL    HW121662   1.454   6.463   3.448
 6921SOL    HW221663   1.395   6.358   3.338
 6922SOL     OW21664   1.963   6.472   0.590
 6922SOL    HW121665   1.988   6.569   0.596
 6922SOL    HW221666   2.043   6.416   0.615
 6923SOL     OW21667   4.559   6.264   4.146
 6923SOL    HW121668   4.518   6.349   4.176
 6923SOL    HW221669   4.632   6.284   4.080
 6924SOL     OW21670   6.690   5.946   1.616
 6924SOL    HW121671   6.593   5.971   1.614
 6924SOL    HW221672   6.700   5.853   1.653
 6925SOL     OW21673   5.695   5.599   2.759
 6925SOL    HW121674   5.606   5.598   2.713
 6925SOL    HW221675   5.684   5.628   2.854
 6926SOL     OW21676   3.208   4.116   5.410
 6926SOL    HW121677   3.189   4.031   5.460
 6926SOL    HW221678   3.131   4.137   5.350
 6927SOL     OW21679   4.120   2.862   0.782
 6927SOL    HW121680   4.170   2.872   0.867
 6927SOL    HW221681   4.130   2.769   0.747
 6928SOL     OW21682   6.612   0.433   6.362
 6928SOL    HW121683   6.592   0.530   6.379
 6928SOL    HW221684   6.656   0.394   6.443
 6929SOL     OW21685   2.942   4.603   1.125
 6929SOL    HW121686   2.917   4.696   1.099
 6929SOL    HW221687   3.014   4.569   1.064
 6930SOL     OW21688   0.983   0.853   3.023
 6930SOL    HW121689   0.998   0.769   2.971
 6930SOL    HW221690   0.939   0.830   3.110
 6931SOL     OW21691   1.938   0.085   0.766
 6931SOL    HW121692   1.869   0.080   0.693
 6931SOL    HW221693   1.981   7.022   0.777
 6932SOL     OW21694   2.719   2.726   0.312
 6932SOL    HW121695   2.688   2.643   0.266
 6932SOL    HW221696   2.779   2.700   0.389
 6933SOL     OW21697   2.767   6.113   5.845
 6933SOL    HW121698   2.781   6.107   5.746
 6933SOL    HW221699   2.749   6.022   5.881
 6934SOL     OW21700   5.533   4.861   6.120
 6934SOL    HW121701   5.594   4.801   6.172
 6934SOL    HW221702   5.586   4.935   6.079
 6935SOL     OW21703   4.300   5.728   3.114
 6935SOL    HW121704   4.254   5.777   3.188
 6935SOL    HW221705   4.233   5.674   3.063
 6936SOL     OW21706   0.532   4.672   0.647
 6936SOL    HW121707   0.616   4.667   0.593
 6936SOL    HW221708   0.536   4.752   0.708
 6937SOL     OW21709   4.325   6.483   5.650
 6937SOL    HW121710   4.237   6.492   5.697
 6937SOL    HW221711   4.399   6.487   5.717
 6938SOL     OW21712   5.599   2.453   4.977
 6938SOL    HW121713   5.578   2.476   5.072
 6938SOL    HW221714   5.685   2.497   4.950
 6939SOL     OW21715   6.875   4.860   2.058
 6939SOL    HW121716   6.834   4.882   1.969
 6939SOL    HW221717   6.802   4.843   2.124
 6940SOL     OW21718   4.381   0.729   4.766
 6940SOL    HW121719   4.344   0.654   4.712
 6940SOL    HW221720   4.308   0.772   4.818
 6941SOL     OW21721   3.979   3.191   4.337
 6941SOL    HW121722   3.936   3.103   4.319
 6941SOL    HW221723   4.009   3.232   4.250
 6942SOL     OW21724   6.874   1.525   0.017
 6942SOL    HW121725   6.934   1.536   6.965
 6942SOL    HW221726   6.924   1.481   0.092
 6943SOL     OW21727   6.465   6.077   0.126
 6943SOL    HW121728   6.503   5.987   0.106
 6943SOL    HW221729   6.529   6.129   0.182
 6944SOL     OW21730   1.330   6.198   6.309
 6944SOL    HW121731   1.329   6.286   6.261
 6944SOL    HW221732   1.239   6.179   6.345
 6945SOL     OW21733   4.340   1.980   5.579
 6945SOL    HW121734   4.398   2.058   5.605
 6945SOL    HW221735   4.336   1.974   5.479
 6946SOL     OW21736   5.845   3.428   3.356
 6946SOL    HW121737   5.902   3.450   3.435
 6946SOL    HW221738   5.761   3.383   3.387
 6947SOL     OW21739   3.361   0.039   2.046
 6947SOL    HW121740   3.343   0.062   1.950
 6947SOL    HW221741   3.284   0.068   2.102
 6948SOL     OW21742   3.778   1.992   4.804
 6948SOL    HW121743   3.750   1.899   4.825
 6948SOL    HW221744   3.869   1.991   4.763
 6949SOL     OW21745   4.943   1.195   2.729
 6949SOL    HW121746   5.023   1.148   2.694
 6949SOL    HW221747   4.895   1.135   2.794
 6950SOL     OW21748   2.800   1.616   3.629
 6950SOL    HW121749   2.714   1.568   3.613
 6950SOL    HW221750   2.824   1.670   3.549
 6951SOL     OW21751   4.631   5.160   4.990
 6951SOL    HW121752   4.570   5.084   4.968
 6951SOL    HW221753   4.721   5.143   4.949
 6952SOL     OW21754   0.018   4.943   5.439
 6952SOL    HW121755   0.010   5.034   5.398
 6952SOL    HW221756   0.069   4.951   5.525
 6953SOL     OW21757   5.506   2.486   5.248
 6953SOL    HW121758   5.482   2.390   5.264
 6953SOL    HW221759   5.427   2.533   5.209
 6954SOL     OW21760   0.892   4.677   2.535
 6954SOL    HW121761   0.798   4.665   2.502
 6954SOL    HW221762   0.947   4.718   2.462
 6955SOL     OW21763   6.792   6.707   2.805
 6955SOL    HW121764   6.805   6.736   2.900
 6955SOL    HW221765   6.875   6.662   2.772
 6956SOL     OW21766   2.979   4.489   0.866
 6956SOL    HW121767   2.879   4.492   0.868
 6956SOL    HW221768   3.010   4.395   0.879
 6957SOL     OW21769   0.994   3.826   0.236
 6957SOL    HW121770   1.065   3.770   0.279
 6957SOL    HW221771   0.952   3.773   0.162
 6958SOL     OW21772   2.213   3.976   6.493
 6958SOL    HW121773   2.164   3.922   6.562
 6958SOL    HW221774   2.173   4.067   6.488
 6959SOL     OW21775   3.589   1.300   3.681
 6959SOL    HW121776   3.551   1.371   3.622
 6959SOL    HW221777   3.636   1.231   3.626
 6960SOL     OW21778   0.564   4.681   0.257
 6960SOL    HW121779   0.620   4.735   0.320
 6960SOL    HW221780   0.562   4.586   0.287
 6961SOL     OW21781   6.906   1.738   2.955
 6961SOL    HW121782   6.907   1.642   2.982
 6961SOL    HW221783   6.879   1.747   2.860
 6962SOL     OW21784   3.450   3.397   0.727
 6962SOL    HW121785   3.541   3.438   0.727
 6962SOL    HW221786   3.457   3.302   0.757
 6963SOL     OW21787   6.215   6.161   2.262
 6963SOL    HW121788   6.232   6.239   2.203
 6963SOL    HW221789   6.152   6.098   2.216
 6964SOL     OW21790   3.866   5.925   5.069
 6964SOL    HW121791   3.791   5.986   5.042
 6964SOL    HW221792   3.850   5.834   5.030
 6965SOL     OW21793   6.251   1.965   5.634
 6965SOL    HW121794   6.332   1.962   5.575
 6965SOL    HW221795   6.242   1.879   5.684
 6966SOL     OW21796   4.867   2.756   4.129
 6966SOL    HW121797   4.832   2.671   4.089
 6966SOL    HW221798   4.891   2.741   4.224
 6967SOL     OW21799   2.046   2.427   6.284
 6967SOL    HW121800   2.077   2.521   6.276
 6967SOL    HW221801   1.997   2.400   6.202
 6968SOL     OW21802   4.133   0.354   3.161
 6968SOL    HW121803   4.063   0.309   3.217
 6968SOL    HW221804   4.158   0.441   3.203
 6969SOL     OW21805   2.864   2.629   1.184
 6969SOL    HW121806   2.892   2.563   1.114
 6969SOL    HW221807   2.942   2.650   1.243
 6970SOL     OW21808   4.277   3.948   0.756
 6970SOL    HW121809   4.320   3.939   0.845
 6970SOL    HW221810   4.182   3.916   0.762
 6971SOL     OW21811   5.904   1.088   2.056
 6971SOL    HW121812   5.840   1.093   2.133
 6971SOL    HW221813   5.910   1.177   2.011
 6972SOL     OW21814   5.651   5.140   4.790
 6972SOL    HW121815   5.559   5.176   4.777
 6972SOL    HW221816   5.647   5.057   4.846
 6973SOL     OW21817   1.503   4.156   3.348
 6973SOL    HW121818   1.441   4.077   3.351
 6973SOL    HW221819   1.553   4.156   3.262
 6974SOL     OW21820   3.342   4.089   5.013
 6974SOL    HW121821   3.254   4.065   4.971
 6974SOL    HW221822   3.327   4.155   5.086
 6975SOL     OW21823   3.260   0.731   5.986
 6975SOL    HW121824   3.326   0.728   6.061
 6975SOL    HW221825   3.229   0.825   5.972
 6976SOL     OW21826   1.407   6.263   0.677
 6976SOL    HW121827   1.493   6.239   0.722
 6976SOL    HW221828   1.380   6.355   0.703
 6977SOL     OW21829   4.602   2.678   2.808
 6977SOL    HW121830   4.562   2.587   2.805
 6977SOL    HW221831   4.552   2.734   2.874
 6978SOL     OW21832   5.383   1.514   3.119
 6978SOL    HW121833   5.346   1.585   3.059
 6978SOL    HW221834   5.347   1.525   3.211
 6979SOL     OW21835   0.709   4.931   3.661
 6979SOL    HW121836   0.646   4.912   3.586
 6979SOL    HW221837   0.660   4.976   3.736
 6980SOL     OW21838   3.989   1.518   4.355
 6980SOL    HW121839   3.904   1.569   4.362
 6980SOL    HW221840   4.000   1.484   4.261
 6981SOL     OW21841   3.412   4.418   6.823
 6981SOL    HW121842   3.314   4.427   6.843
 6981SOL    HW221843   3.464   4.468   6.892
 6982SOL     OW21844   0.562   6.906   4.454
 6982SOL    HW121845   0.522   6.970   4.520
 6982SOL    HW221846   0.590   6.955   4.372
 6983SOL     OW21847   6.672   0.367   3.319
 6983SOL    HW121848   6.752   0.424   3.303
 6983SOL    HW221849   6.700   0.280   3.357
 6984SOL     OW21850   2.560   1.071   5.482
 6984SOL    HW121851   2.538   0.973   5.488
 6984SOL    HW221852   2.564   1.098   5.385
 6985SOL     OW21853   5.467   6.521   3.183
 6985SOL    HW121854   5.566   6.509   3.181
 6985SOL    HW221855   5.426   6.452   3.243
 6986SOL     OW21856   2.086   0.026   5.259
 6986SOL    HW121857   2.051   0.117   5.281
 6986SOL    HW221858   2.089   0.014   5.160
 6987SOL     OW21859   6.518   3.746   6.531
 6987SOL    HW121860   6.516   3.676   6.603
 6987SOL    HW221861   6.567   3.710   6.452
 6988SOL     OW21862   5.624   1.393   5.606
 6988SOL    HW121863   5.702   1.339   5.573
 6988SOL    HW221864   5.539   1.344   5.586
 6989SOL     OW21865   1.841   3.198   3.499
 6989SOL    HW121866   1.824   3.139   3.578
 6989SOL    HW221867   1.927   3.246   3.511
 6990SOL     OW21868   4.333   3.230   0.820
 6990SOL    HW121869   4.368   3.184   0.738
 6990SOL    HW221870   4.243   3.193   0.842
 6991SOL     OW21871   4.461   4.528   5.458
 6991SOL    HW121872   4.466   4.609   5.517
 6991SOL    HW221873   4.392   4.465   5.494
 6992SOL     OW21874   5.830   6.553   4.967
 6992SOL    HW121875   5.779   6.635   4.994
 6992SOL    HW221876   5.859   6.503   5.049
 6993SOL     OW21877   0.367   6.207   3.442
 6993SOL    HW121878   0.294   6.228   3.377
 6993SOL    HW221879   0.394   6.111   3.433
 6994SOL     OW21880   1.389   3.146   0.191
 6994SOL    HW121881   1.480   3.171   0.159
 6994SOL    HW221882   1.322   3.208   0.151
 6995SOL     OW21883   1.069   4.628   3.669
 6995SOL    HW121884   0.974   4.635   3.696
 6995SOL    HW221885   1.124   4.695   3.720
 6996SOL     OW21886   2.176   6.906   6.200
 6996SOL    HW121887   2.115   6.963   6.145
 6996SOL    HW221888   2.160   6.810   6.179
 6997SOL     OW21889   5.055   6.867   4.367
 6997SOL    HW121890   5.041   6.888   4.464
 6997SOL    HW221891   4.990   6.920   4.312
 6998SOL     OW21892   2.069   2.424   2.868
 6998SOL    HW121893   2.047   2.369   2.948
 6998SOL    HW221894   2.047   2.520   2.886
 6999SOL     OW21895   5.140   1.876   6.935
 6999SOL    HW121896   5.051   1.891   6.977
 6999SOL    HW221897   5.129   1.822   6.852
 7000SOL     OW21898   6.325   0.011   0.931
 7000SOL    HW121899   6.400   0.045   0.873
 7000SOL    HW221900   6.361   7.016   1.022
 7001SOL     OW21901   2.541   1.782   5.899
 7001SOL    HW121902   2.637   1.809   5.908
 7001SOL    HW221903   2.524   1.702   5.958
 7002SOL     OW21904   1.943   4.896   2.281
 7002SOL    HW121905   1.944   4.964   2.207
 7002SOL    HW221906   1.960   4.806   2.243
 7003SOL     OW21907   1.620   6.436   6.113
 7003SOL    HW121908   1.719   6.440   6.106
 7003SOL    HW221909   1.580   6.429   6.022
 7004SOL     OW21910   1.380   4.035   0.032
 7004SOL    HW121911   1.414   3.965   0.095
 7004SOL    HW221912   1.290   4.065   0.062
 7005SOL     OW21913   6.011   6.799   6.091
 7005SOL    HW121914   5.964   6.813   6.178
 7005SOL    HW221915   6.088   6.736   6.105
 7006SOL     OW21916   4.923   5.393   4.406
 7006SOL    HW121917   4.972   5.315   4.446
 7006SOL    HW221918   4.968   5.478   4.434
 7007SOL     OW21919   4.690   5.043   2.417
 7007SOL    HW121920   4.680   4.998   2.506
 7007SOL    HW221921   4.697   5.142   2.431
 7008SOL     OW21922   1.246   4.312   4.484
 7008SOL    HW121923   1.204   4.221   4.484
 7008SOL    HW221924   1.328   4.311   4.427
 7009SOL     OW21925   0.450   4.299   2.569
 7009SOL    HW121926   0.444   4.393   2.602
 7009SOL    HW221927   0.502   4.244   2.635
 7010SOL     OW21928   4.335   4.865   6.537
 7010SOL    HW121929   4.426   4.898   6.514
 7010SOL    HW221930   4.271   4.942   6.540
 7011SOL     OW21931   1.237   1.380   5.674
 7011SOL    HW121932   1.190   1.363   5.587
 7011SOL    HW221933   1.169   1.398   5.746
 7012SOL     OW21934   1.475   1.548   1.539
 7012SOL    HW121935   1.391   1.497   1.555
 7012SOL    HW221936   1.506   1.531   1.446
 7013SOL     OW21937   7.006   1.343   1.639
 7013SOL    HW121938   6.916   1.299   1.649
 7013SOL    HW221939   7.001   1.412   1.567
 7014SOL     OW21940   2.123   4.862   0.390
 7014SOL    HW121941   2.188   4.887   0.318
 7014SOL    HW221942   2.162   4.788   0.445
 7015SOL     OW21943   5.835   1.959   2.534
 7015SOL    HW121944   5.831   2.040   2.476
 7015SOL    HW221945   5.799   1.982   2.625
 7016SOL     OW21946   3.965   4.421   1.481
 7016SOL    HW121947   3.894   4.387   1.420
 7016SOL    HW221948   4.014   4.343   1.521
 7017SOL     OW21949   4.806   2.119   4.630
 7017SOL    HW121950   4.860   2.121   4.546
 7017SOL    HW221951   4.866   2.103   4.708
 7018SOL     OW21952   0.386   4.140   3.255
 7018SOL    HW121953   0.334   4.143   3.169
 7018SOL    HW221954   0.341   4.080   3.320
 7019SOL     OW21955   1.795   5.958   1.129
 7019SOL    HW121956   1.803   6.057   1.118
 7019SOL    HW221957   1.699   5.933   1.142
 7020SOL     OW21958   0.311   6.192   6.071
 7020SOL    HW121959   0.254   6.235   6.000
 7020SOL    HW221960   0.382   6.138   6.028
 7021SOL     OW21961   3.793   6.623   5.486
 7021SOL    HW121962   3.891   6.603   5.490
 7021SOL    HW221963   3.769   6.689   5.558
 7022SOL     OW21964   4.829   5.464   6.691
 7022SOL    HW121965   4.781   5.478   6.778
 7022SOL    HW221966   4.782   5.513   6.618
 7023SOL     OW21967   5.800   3.988   2.691
 7023SOL    HW121968   5.772   4.060   2.627
 7023SOL    HW221969   5.832   3.908   2.640
 7024SOL     OW21970   0.359   6.165   1.576
 7024SOL    HW121971   0.446   6.138   1.536
 7024SOL    HW221972   0.284   6.118   1.530
 7025SOL     OW21973   2.296   7.002   6.961
 7025SOL    HW121974   2.365   0.020   6.905
 7025SOL    HW221975   2.337   6.973   0.021
 7026SOL     OW21976   3.427   1.358   1.023
 7026SOL    HW121977   3.494   1.430   1.040
 7026SOL    HW221978   3.352   1.366   1.088
 7027SOL     OW21979   4.879   6.498   4.230
 7027SOL    HW121980   4.832   6.584   4.247
 7027SOL    HW221981   4.863   6.468   4.136
 7028SOL     OW21982   2.813   0.200   4.412
 7028SOL    HW121983   2.905   0.161   4.418
 7028SOL    HW221984   2.820   0.299   4.403
 7029SOL     OW21985   4.003   1.299   4.733
 7029SOL    HW121986   3.906   1.285   4.753
 7029SOL    HW221987   4.017   1.302   4.634
 7030SOL     OW21988   2.155   3.452   3.735
 7030SOL    HW121989   2.188   3.371   3.687
 7030SOL    HW221990   2.181   3.535   3.684
 7031SOL     OW21991   1.604   0.668   4.637
 7031SOL    HW121992   1.623   0.677   4.734
 7031SOL    HW221993   1.527   0.605   4.624
 7032SOL     OW21994   5.879   1.972   3.626
 7032SOL    HW121995   5.853   2.068   3.629
 7032SOL    HW221996   5.858   1.934   3.536
 7033SOL     OW21997   0.181   0.160   4.512
 7033SOL    HW121998   0.091   0.169   4.555
 7033SOL    HW221999   0.181   0.079   4.453
 7034SOL     OW22000   0.264   5.694   2.756
 7034SOL    HW122001   0.321   5.715   2.677
 7034SOL    HW222002   0.311   5.630   2.816
 7035SOL     OW22003   6.619   5.123   2.355
 7035SOL    HW122004   6.690   5.187   2.384
 7035SOL    HW222005   6.550   5.172   2.301
 7036SOL     OW22006   6.817   4.772   0.394
 7036SOL    HW122007   6.900   4.809   0.434
 7036SOL    HW222008   6.807   4.676   0.421
 7037SOL     OW22009   0.903   0.217   6.667
 7037SOL    HW122010   0.923   0.166   6.751
 7037SOL    HW222011   0.861   0.155   6.601
 7038SOL     OW22012   2.237   3.116   4.076
 7038SOL    HW122013   2.304   3.074   4.138
 7038SOL    HW222014   2.167   3.049   4.053
 7039SOL     OW22015   3.627   2.390   5.903
 7039SOL    HW122016   3.618   2.359   5.998
 7039SOL    HW222017   3.540   2.431   5.873
 7040SOL     OW22018   5.684   2.762   6.809
 7040SOL    HW122019   5.674   2.843   6.865
 7040SOL    HW222020   5.663   2.681   6.863
 7041SOL     OW22021   2.936   1.431   3.037
 7041SOL    HW122022   2.862   1.470   2.982
 7041SOL    HW222023   2.949   1.486   3.120
 7042SOL     OW22024   1.717   0.358   6.170
 7042SOL    HW122025   1.736   0.412   6.252
 7042SOL    HW222026   1.669   0.274   6.195
 7043SOL     OW22027   0.977   2.883   2.741
 7043SOL    HW122028   1.069   2.916   2.760
 7043SOL    HW222029   0.944   2.830   2.819
 7044SOL     OW22030   5.275   5.943   1.901
 7044SOL    HW122031   5.209   5.870   1.882
 7044SOL    HW222032   5.232   6.014   1.956
 7045SOL     OW22033   6.768   4.529   0.508
 7045SOL    HW122034   6.785   4.430   0.506
 7045SOL    HW222035   6.691   4.548   0.568
 7046SOL     OW22036   2.542   1.438   4.025
 7046SOL    HW122037   2.553   1.487   4.112
 7046SOL    HW222038   2.619   1.458   3.965
 7047SOL     OW22039   1.431   1.089   2.643
 7047SOL    HW122040   1.415   1.184   2.617
 7047SOL    HW222041   1.361   1.031   2.600
 7048SOL     OW22042   0.021   5.700   0.779
 7048SOL    HW122043   6.994   5.724   0.860
 7048SOL    HW222044   7.011   5.616   0.738
 7049SOL     OW22045   1.708   0.861   6.695
 7049SOL    HW122046   1.749   0.779   6.656
 7049SOL    HW222047   1.608   0.852   6.695
 7050SOL     OW22048   3.885   3.896   4.639
 7050SOL    HW122049   3.807   3.853   4.685
 7050SOL    HW222050   3.931   3.828   4.582
 7051SOL     OW22051   0.138   6.514   2.947
 7051SOL    HW122052   0.214   6.501   2.883
 7051SOL    HW222053   0.174   6.522   3.040
 7052SOL     OW22054   6.890   0.746   3.997
 7052SOL    HW122055   6.980   0.791   3.993
 7052SOL    HW222056   6.819   0.816   3.995
 7053SOL     OW22057   6.641   4.390   5.874
 7053SOL    HW122058   6.622   4.340   5.790
 7053SOL    HW222059   6.655   4.487   5.852
 7054SOL     OW22060   6.415   1.015   1.621
 7054SOL    HW122061   6.455   1.042   1.534
 7054SOL    HW222062   6.422   1.091   1.686
 7055SOL     OW22063   4.087   1.277   4.474
 7055SOL    HW122064   4.078   1.376   4.469
 7055SOL    HW222065   4.183   1.251   4.466
 7056SOL     OW22066   4.254   5.388   3.840
 7056SOL    HW122067   4.206   5.442   3.770
 7056SOL    HW222068   4.261   5.293   3.809
 7057SOL     OW22069   0.455   6.481   3.467
 7057SOL    HW122070   0.546   6.497   3.429
 7057SOL    HW222071   0.438   6.383   3.473
 7058SOL     OW22072   0.547   4.078   5.196
 7058SOL    HW122073   0.646   4.084   5.210
 7058SOL    HW222074   0.519   4.140   5.123
 7059SOL     OW22075   2.148   0.431   2.720
 7059SOL    HW122076   2.181   0.370   2.793
 7059SOL    HW222077   2.213   0.506   2.708
 7060SOL     OW22078   2.836   6.858   1.040
 7060SOL    HW122079   2.752   6.912   1.046
 7060SOL    HW222080   2.891   6.889   0.962
 7061SOL     OW22081   0.051   1.073   3.409
 7061SOL    HW122082   0.139   1.026   3.400
 7061SOL    HW222083   7.004   1.006   3.402
 7062SOL     OW22084   6.736   0.941   5.620
 7062SOL    HW122085   6.664   0.889   5.667
 7062SOL    HW222086   6.763   1.019   5.677
 7063SOL     OW22087   2.255   0.089   2.157
 7063SOL    HW122088   2.289   7.025   2.178
 7063SOL    HW222089   2.262   0.107   2.059
 7064SOL     OW22090   4.178   2.113   0.825
 7064SOL    HW122091   4.175   2.035   0.888
 7064SOL    HW222092   4.102   2.107   0.761
 7065SOL     OW22093   3.778   3.629   2.155
 7065SOL    HW122094   3.777   3.689   2.235
 7065SOL    HW222095   3.810   3.538   2.183
 7066SOL     OW22096   2.913   5.874   1.126
 7066SOL    HW122097   2.874   5.956   1.168
 7066SOL    HW222098   2.862   5.794   1.156
 7067SOL     OW22099   0.244   3.830   4.359
 7067SOL    HW122100   0.202   3.745   4.391
 7067SOL    HW222101   0.250   3.830   4.260
 7068SOL     OW22102   1.337   0.685   2.593
 7068SOL    HW122103   1.239   0.697   2.582
 7068SOL    HW222104   1.385   0.718   2.512
 7069SOL     OW22105   1.617   4.452   5.324
 7069SOL    HW122106   1.692   4.506   5.362
 7069SOL    HW222107   1.614   4.465   5.224
 7070SOL     OW22108   5.240   5.387   3.947
 7070SOL    HW122109   5.257   5.399   4.045
 7070SOL    HW222110   5.180   5.460   3.914
 7071SOL     OW22111   1.184   6.948   5.011
 7071SOL    HW122112   1.155   6.947   4.916
 7071SOL    HW222113   1.120   7.004   5.065
 7072SOL     OW22114   0.092   6.262   6.552
 7072SOL    HW122115   0.085   6.360   6.569
 7072SOL    HW222116   0.001   6.222   6.547
 7073SOL     OW22117   1.575   1.817   6.558
 7073SOL    HW122118   1.521   1.847   6.479
 7073SOL    HW222119   1.538   1.731   6.592
 7074SOL     OW22120   2.785   0.999   0.975
 7074SOL    HW122121   2.844   0.925   0.942
 7074SOL    HW222122   2.842   1.072   1.015
 7075SOL     OW22123   1.142   5.879   2.746
 7075SOL    HW122124   1.239   5.852   2.747
 7075SOL    HW222125   1.087   5.802   2.714
 7076SOL     OW22126   3.145   2.276   6.309
 7076SOL    HW122127   3.209   2.335   6.261
 7076SOL    HW222128   3.148   2.295   6.407
 7077SOL     OW22129   1.946   5.021   6.038
 7077SOL    HW122130   1.903   5.111   6.034
 7077SOL    HW222131   2.023   5.023   6.101
 7078SOL     OW22132   6.711   0.978   2.531
 7078SOL    HW122133   6.705   0.907   2.601
 7078SOL    HW222134   6.721   0.936   2.441
 7079SOL     OW22135   4.853   5.835   5.616
 7079SOL    HW122136   4.887   5.748   5.651
 7079SOL    HW222137   4.881   5.847   5.521
 7080SOL     OW22138   5.650   6.840   4.208
 7080SOL    HW122139   5.657   6.938   4.189
 7080SOL    HW222140   5.740   6.798   4.198
 7081SOL     OW22141   4.057   1.148   5.370
 7081SOL    HW122142   4.113   1.223   5.336
 7081SOL    HW222143   4.099   1.108   5.452
 7082SOL     OW22144   4.742   1.698   6.291
 7082SOL    HW122145   4.734   1.727   6.195
 7082SOL    HW222146   4.766   1.602   6.296
 7083SOL     OW22147   3.179   0.003   5.957
 7083SOL    HW122148   3.251   0.057   5.913
 7083SOL    HW222149   3.105   0.063   5.985
 7084SOL     OW22150   6.861   6.333   0.372
 7084SOL    HW122151   6.904   6.366   0.288
 7084SOL    HW222152   6.863   6.405   0.441
 7085SOL     OW22153   3.285   1.823   0.771
 7085SOL    HW122154   3.257   1.810   0.676
 7085SOL    HW222155   3.330   1.739   0.804
 7086SOL     OW22156   0.298   0.977   6.173
 7086SOL    HW122157   0.283   0.999   6.269
 7086SOL    HW222158   0.265   1.053   6.116
 7087SOL     OW22159   2.460   2.542   5.084
 7087SOL    HW122160   2.527   2.477   5.120
 7087SOL    HW222161   2.371   2.496   5.076
 7088SOL     OW22162   0.601   1.939   5.939
 7088SOL    HW122163   0.701   1.939   5.934
 7088SOL    HW222164   0.563   1.916   5.849
 7089SOL     OW22165   2.343   1.194   1.240
 7089SOL    HW122166   2.298   1.210   1.328
 7089SOL    HW222167   2.377   1.100   1.237
 7090SOL     OW22168   2.574   2.378   4.793
 7090SOL    HW122169   2.585   2.355   4.890
 7090SOL    HW222170   2.652   2.342   4.742
 7091SOL     OW22171   6.988   6.617   0.880
 7091SOL    HW122172   6.893   6.616   0.910
 7091SOL    HW222173   6.993   6.637   0.782
 7092SOL     OW22174   2.904   2.933   6.929
 7092SOL    HW122175   2.879   3.028   6.946
 7092SOL    HW222176   2.906   2.883   7.016
 7093SOL     OW22177   4.189   3.173   6.012
 7093SOL    HW122178   4.221   3.110   6.082
 7093SOL    HW222179   4.096   3.204   6.034
 7094SOL     OW22180   6.519   0.708   6.404
 7094SOL    HW122181   6.479   0.773   6.469
 7094SOL    HW222182   6.554   0.758   6.324
 7095SOL     OW22183   0.360   4.344   6.813
 7095SOL    HW122184   0.304   4.395   6.879
 7095SOL    HW222185   0.322   4.356   6.721
 7096SOL     OW22186   5.002   0.766   2.954
 7096SOL    HW122187   4.912   0.782   2.995
 7096SOL    HW222188   5.053   0.851   2.951
 7097SOL     OW22189   1.680   0.767   2.156
 7097SOL    HW122190   1.684   0.781   2.255
 7097SOL    HW222191   1.769   0.791   2.116
 7098SOL     OW22192   1.657   6.921   5.930
 7098SOL    HW122193   1.708   6.846   5.888
 7098SOL    HW222194   1.575   6.939   5.878
 7099SOL     OW22195   0.576   0.949   6.100
 7099SOL    HW122196   0.619   0.919   6.185
 7099SOL    HW222197   0.483   0.981   6.119
 7100SOL     OW22198   5.503   2.022   0.899
 7100SOL    HW122199   5.476   1.972   0.817
 7100SOL    HW222200   5.559   2.101   0.872
 7101SOL     OW22201   1.830   0.780   4.246
 7101SOL    HW122202   1.907   0.832   4.211
 7101SOL    HW222203   1.803   0.712   4.178
 7102SOL     OW22204   4.898   3.174   0.973
 7102SOL    HW122205   4.924   3.268   0.997
 7102SOL    HW222206   4.817   3.176   0.915
 7103SOL     OW22207   2.427   6.581   6.478
 7103SOL    HW122208   2.490   6.508   6.451
 7103SOL    HW222209   2.434   6.597   6.576
 7104SOL     OW22210   0.187   1.999   1.675
 7104SOL    HW122211   0.276   2.028   1.640
 7104SOL    HW222212   0.156   1.919   1.625
 7105SOL     OW22213   2.526   4.162   5.342
 7105SOL    HW122214   2.624   4.181   5.344
 7105SOL    HW222215   2.509   4.085   5.281
 7106SOL     OW22216   3.261   2.592   5.328
 7106SOL    HW122217   3.287   2.663   5.263
 7106SOL    HW222218   3.266   2.503   5.283
 7107SOL     OW22219   2.263   0.790   6.804
 7107SOL    HW122220   2.326   0.835   6.867
 7107SOL    HW222221   2.170   0.798   6.839
 7108SOL     OW22222   4.506   6.702   2.281
 7108SOL    HW122223   4.462   6.659   2.361
 7108SOL    HW222224   4.604   6.709   2.297
 7109SOL     OW22225   3.643   6.332   6.201
 7109SOL    HW122226   3.645   6.237   6.233
 7109SOL    HW222227   3.593   6.389   6.267
 7110SOL     OW22228   3.120   5.213   3.030
 7110SOL    HW122229   3.159   5.170   3.111
 7110SOL    HW222230   3.038   5.163   3.002
 7111SOL     OW22231   1.307   2.113   4.087
 7111SOL    HW122232   1.372   2.105   4.011
 7111SOL    HW222233   1.228   2.167   4.058
 7112SOL     OW22234   1.499   6.547   2.296
 7112SOL    HW122235   1.467   6.475   2.234
 7112SOL    HW222236   1.598   6.539   2.308
 7113SOL     OW22237   3.595   3.966   4.922
 7113SOL    HW122238   3.517   4.012   4.964
 7113SOL    HW222239   3.592   3.979   4.823
 7114SOL     OW22240   4.144   6.923   0.731
 7114SOL    HW122241   4.148   7.023   0.739
 7114SOL    HW222242   4.049   6.893   0.735
 7115SOL     OW22243   4.339   1.611   1.419
 7115SOL    HW122244   4.373   1.693   1.465
 7115SOL    HW222245   4.257   1.578   1.466
 7116SOL     OW22246   6.557   4.047   3.109
 7116SOL    HW122247   6.535   3.950   3.100
 7116SOL    HW222248   6.556   4.072   3.206
 7117SOL     OW22249   6.644   6.892   2.089
 7117SOL    HW122250   6.723   6.838   2.062
 7117SOL    HW222251   6.566   6.832   2.107
 7118SOL     OW22252   6.213   2.814   2.268
 7118SOL    HW122253   6.271   2.815   2.186
 7118SOL    HW222254   6.207   2.907   2.305
 7119SOL     OW22255   0.219   2.086   2.672
 7119SOL    HW122256   0.123   2.076   2.646
 7119SOL    HW222257   0.268   2.001   2.653
 7120SOL     OW22258   4.713   6.636   3.190
 7120SOL    HW122259   4.747   6.619   3.098
 7120SOL    HW222260   4.780   6.691   3.241
 7121SOL     OW22261   3.573   6.632   2.089
 7121SOL    HW122262   3.577   6.679   2.001
 7121SOL    HW222263   3.540   6.538   2.076
 7122SOL     OW22264   6.644   6.954   6.810
 7122SOL    HW122265   6.646   6.918   6.717
 7122SOL    HW222266   6.684   0.018   6.812
 7123SOL     OW22267   2.491   5.434   0.306
 7123SOL    HW122268   2.403   5.445   0.259
 7123SOL    HW222269   2.553   5.507   0.278
 7124SOL     OW22270   0.844   5.369   1.540
 7124SOL    HW122271   0.851   5.398   1.444
 7124SOL    HW222272   0.914   5.416   1.594
 7125SOL     OW22273   6.906   6.376   2.560
 7125SOL    HW122274   6.838   6.377   2.633
 7125SOL    HW222275   6.975   6.446   2.578
 7126SOL     OW22276   1.169   4.421   0.569
 7126SOL    HW122277   1.259   4.460   0.588
 7126SOL    HW222278   1.179   4.347   0.502
 7127SOL     OW22279   3.177   0.231   4.555
 7127SOL    HW122280   3.124   0.150   4.529
 7127SOL    HW222281   3.116   0.311   4.560
 7128SOL     OW22282   3.324   4.391   1.616
 7128SOL    HW122283   3.230   4.389   1.649
 7128SOL    HW222284   3.338   4.315   1.552
 7129SOL     OW22285   2.651   1.575   1.367
 7129SOL    HW122286   2.553   1.583   1.385
 7129SOL    HW222287   2.678   1.478   1.366
 7130SOL     OW22288   2.553   6.574   2.160
 7130SOL    HW122289   2.603   6.547   2.079
 7130SOL    HW222290   2.593   6.531   2.241
 7131SOL     OW22291   2.924   1.365   3.675
 7131SOL    HW122292   3.014   1.336   3.706
 7131SOL    HW222293   2.889   1.437   3.736
 7132SOL     OW22294   3.477   3.926   3.229
 7132SOL    HW122295   3.443   3.832   3.232
 7132SOL    HW222296   3.404   3.987   3.197
 7133SOL     OW22297   5.596   4.849   2.320
 7133SOL    HW122298   5.553   4.763   2.348
 7133SOL    HW222299   5.529   4.905   2.271
 7134SOL     OW22300   5.304   4.388   3.355
 7134SOL    HW122301   5.370   4.461   3.374
 7134SOL    HW222302   5.267   4.353   3.441
 7135SOL     OW22303   1.371   2.155   5.349
 7135SOL    HW122304   1.402   2.246   5.373
 7135SOL    HW222305   1.390   2.091   5.424
 7136SOL     OW22306   2.245   2.022   6.706
 7136SOL    HW122307   2.342   1.999   6.706
 7136SOL    HW222308   2.193   1.946   6.746
 7137SOL     OW22309   4.034   1.532   4.873
 7137SOL    HW122310   4.028   1.443   4.829
 7137SOL    HW222311   4.116   1.580   4.841
 7138SOL     OW22312   2.481   4.002   6.457
 7138SOL    HW122313   2.382   3.992   6.453
 7138SOL    HW222314   2.516   4.029   6.367
 7139SOL     OW22315   3.119   1.998   0.162
 7139SOL    HW122316   3.181   2.053   0.218
 7139SOL    HW222317   3.027   2.001   0.203
 7140SOL     OW22318   6.094   3.514   5.212
 7140SOL    HW122319   6.060   3.602   5.244
 7140SOL    HW222320   6.033   3.441   5.243
 7141SOL     OW22321   1.650   6.798   1.232
 7141SOL    HW122322   1.705   6.740   1.172
 7141SOL    HW222323   1.568   6.828   1.184
 7142SOL     OW22324   4.128   6.877   3.977
 7142SOL    HW122325   4.066   6.928   4.037
 7142SOL    HW222326   4.087   6.870   3.886
 7143SOL     OW22327   2.012   2.929   3.988
 7143SOL    HW122328   1.935   2.948   4.049
 7143SOL    HW222329   2.057   2.845   4.018
 7144SOL     OW22330   1.228   3.360   3.614
 7144SOL    HW122331   1.296   3.336   3.683
 7144SOL    HW222332   1.246   3.308   3.530
 7145SOL     OW22333   4.388   6.565   6.276
 7145SOL    HW122334   4.402   6.647   6.220
 7145SOL    HW222335   4.426   6.580   6.367
 7146SOL     OW22336   3.013   4.750   1.443
 7146SOL    HW122337   2.917   4.754   1.417
 7146SOL    HW222338   3.068   4.720   1.365
 7147SOL     OW22339   0.626   0.810   3.931
 7147SOL    HW122340   0.625   0.909   3.916
 7147SOL    HW222341   0.688   0.767   3.867
 7148SOL     OW22342   0.785   1.774   0.596
 7148SOL    HW122343   0.803   1.816   0.685
 7148SOL    HW222344   0.870   1.738   0.559
 7149SOL     OW22345   6.707   0.757   3.665
 7149SOL    HW122346   6.719   0.856   3.678
 7149SOL    HW222347   6.634   0.741   3.598
 7150SOL     OW22348   5.612   3.978   0.142
 7150SOL    HW122349   5.570   4.059   0.182
 7150SOL    HW222350   5.711   3.981   0.153
 7151SOL     OW22351   1.796   6.283   1.290
 7151SOL    HW122352   1.733   6.353   1.256
 7151SOL    HW222353   1.744   6.207   1.330
 7152SOL     OW22354   1.593   2.344   4.007
 7152SOL    HW122355   1.595   2.248   4.038
 7152SOL    HW222356   1.555   2.401   4.080
 7153SOL     OW22357   3.419   1.716   3.106
 7153SOL    HW122358   3.487   1.740   3.176
 7153SOL    HW222359   3.460   1.653   3.040
 7154SOL     OW22360   4.592   6.239   4.450
 7154SOL    HW122361   4.548   6.249   4.360
 7154SOL    HW222362   4.610   6.142   4.467
 7155SOL     OW22363   1.913   0.477   2.608
 7155SOL    HW122364   1.889   0.395   2.557
 7155SOL    HW222365   1.991   0.459   2.667
 7156SOL     OW22366   1.183   5.814   4.758
 7156SOL    HW122367   1.247   5.818   4.834
 7156SOL    HW222368   1.115   5.742   4.774
 7157SOL     OW22369   5.334   4.247   1.104
 7157SOL    HW122370   5.245   4.287   1.124
 7157SOL    HW222371   5.378   4.299   1.030
 7158SOL     OW22372   4.855   0.101   4.464
 7158SOL    HW122373   4.933   0.120   4.523
 7158SOL    HW222374   4.885   0.100   4.368
 7159SOL     OW22375   1.046   5.245   0.139
 7159SOL    HW122376   1.094   5.256   0.226
 7159SOL    HW222377   0.948   5.252   0.154
 7160SOL     OW22378   6.504   1.001   2.142
 7160SOL    HW122379   6.459   1.014   2.230
 7160SOL    HW222380   6.438   1.010   2.068
 7161SOL     OW22381   3.499   4.103   4.283
 7161SOL    HW122382   3.566   4.142   4.220
 7161SOL    HW222383   3.544   4.038   4.344
 7162SOL     OW22384   2.836   4.787   3.596
 7162SOL    HW122385   2.767   4.845   3.639
 7162SOL    HW222386   2.916   4.843   3.573
 7163SOL     OW22387   2.590   6.640   3.307
 7163SOL    HW122388   2.598   6.640   3.407
 7163SOL    HW222389   2.673   6.678   3.267
 7164SOL     OW22390   2.734   1.970   3.676
 7164SOL    HW122391   2.655   2.023   3.706
 7164SOL    HW222392   2.788   1.942   3.755
 7165SOL     OW22393   5.132   6.934   2.305
 7165SOL    HW122394   5.152   6.845   2.266
 7165SOL    HW222395   5.054   6.975   2.257
 7166SOL     OW22396   5.267   5.064   1.814
 7166SOL    HW122397   5.279   5.145   1.871
 7166SOL    HW222398   5.171   5.037   1.816
 7167SOL     OW22399   5.005   3.022   5.578
 7167SOL    HW122400   5.063   3.103   5.567
 7167SOL    HW222401   4.937   3.039   5.649
 7168SOL     OW22402   0.933   1.885   4.952
 7168SOL    HW122403   0.916   1.958   4.886
 7168SOL    HW222404   1.031   1.879   4.970
 7169SOL     OW22405   1.622   2.781   6.607
 7169SOL    HW122406   1.623   2.701   6.667
 7169SOL    HW222407   1.695   2.843   6.634
 7170SOL     OW22408   6.251   5.159   3.838
 7170SOL    HW122409   6.201   5.079   3.870
 7170SOL    HW222410   6.263   5.153   3.739
 7171SOL     OW22411   4.479   2.488   5.858
 7171SOL    HW122412   4.391   2.527   5.883
 7171SOL    HW222413   4.485   2.394   5.891
 7172SOL     OW22414   0.914   6.924   1.140
 7172SOL    HW122415   0.825   6.880   1.130
 7172SOL    HW222416   0.905   7.005   1.198
 7173SOL     OW22417   6.425   6.377   5.440
 7173SOL    HW122418   6.478   6.359   5.523
 7173SOL    HW222419   6.357   6.448   5.459
 7174SOL     OW22420   0.605   5.414   0.001
 7174SOL    HW122421   0.570   5.345   6.965
 7174SOL    HW222422   0.574   5.505   7.000
 7175SOL     OW22423   6.290   2.727   5.450
 7175SOL    HW122424   6.368   2.681   5.408
 7175SOL    HW222425   6.305   2.826   5.448
 7176SOL     OW22426   6.677   3.655   1.392
 7176SOL    HW122427   6.684   3.601   1.307
 7176SOL    HW222428   6.595   3.627   1.442
 7177SOL     OW22429   0.816   5.405   2.537
 7177SOL    HW122430   0.787   5.429   2.629
 7177SOL    HW222431   0.907   5.443   2.520
 7178SOL     OW22432   0.057   1.887   6.499
 7178SOL    HW122433   7.022   1.820   6.458
 7178SOL    HW222434   0.023   1.912   6.590
 7179SOL     OW22435   2.126   4.519   6.281
 7179SOL    HW122436   2.212   4.527   6.231
 7179SOL    HW222437   2.051   4.505   6.217
 7180SOL     OW22438   0.829   7.013   3.173
 7180SOL    HW122439   0.816   0.052   3.247
 7180SOL    HW222440   0.909   6.956   3.192
 7181SOL     OW22441   5.753   6.891   2.681
 7181SOL    HW122442   5.685   6.882   2.608
 7181SOL    HW222443   5.715   6.856   2.766
 7182SOL     OW22444   3.517   3.602   5.769
 7182SOL    HW122445   3.575   3.526   5.800
 7182SOL    HW222446   3.422   3.585   5.795
 7183SOL     OW22447   1.323   4.653   3.133
 7183SOL    HW122448   1.261   4.579   3.159
 7183SOL    HW222449   1.367   4.690   3.215
 7184SOL     OW22450   2.576   6.172   2.677
 7184SOL    HW122451   2.593   6.264   2.643
 7184SOL    HW222452   2.598   6.168   2.775
 7185SOL     OW22453   4.358   2.444   6.867
 7185SOL    HW122454   4.427   2.373   6.848
 7185SOL    HW222455   4.402   2.521   6.914
 7186SOL     OW22456   0.490   0.128   3.987
 7186SOL    HW122457   0.536   0.215   3.972
 7186SOL    HW222458   0.391   0.144   3.997
 7187SOL     OW22459   2.011   5.500   1.435
 7187SOL    HW122460   2.068   5.561   1.490
 7187SOL    HW222461   2.066   5.423   1.402
 7188SOL     OW22462   5.106   0.443   1.432
 7188SOL    HW122463   5.129   0.497   1.513
 7188SOL    HW222464   5.033   0.489   1.381
 7189SOL     OW22465   0.112   0.329   5.109
 7189SOL    HW122466   0.169   0.307   5.189
 7189SOL    HW222467   0.171   0.346   5.030
 7190SOL     OW22468   4.805   4.937   3.385
 7190SOL    HW122469   4.844   5.021   3.346
 7190SOL    HW222470   4.773   4.878   3.311
 7191SOL     OW22471   0.704   2.962   1.761
 7191SOL    HW122472   0.668   3.022   1.833
 7191SOL    HW222473   0.803   2.951   1.774
 7192SOL     OW22474   3.925   5.524   6.252
 7192SOL    HW122475   3.834   5.542   6.214
 7192SOL    HW222476   3.928   5.552   6.348
 7193SOL     OW22477   5.453   1.754   3.654
 7193SOL    HW122478   5.517   1.698   3.706
 7193SOL    HW222479   5.494   1.843   3.635
 7194SOL     OW22480   3.390   1.269   1.386
 7194SOL    HW122481   3.477   1.242   1.344
 7194SOL    HW222482   3.325   1.295   1.315
 7195SOL     OW22483   0.250   6.132   2.004
 7195SOL    HW122484   0.236   6.035   2.021
 7195SOL    HW222485   0.161   6.178   2.000
 7196SOL     OW22486   3.701   2.549   1.753
 7196SOL    HW122487   3.701   2.452   1.775
 7196SOL    HW222488   3.663   2.563   1.661
 7197SOL     OW22489   1.121   1.865   4.292
 7197SOL    HW122490   1.130   1.960   4.322
 7197SOL    HW222491   1.141   1.804   4.369
 7198SOL     OW22492   0.507   6.465   6.357
 7198SOL    HW122493   0.487   6.378   6.403
 7198SOL    HW222494   0.602   6.490   6.372
 7199SOL     OW22495   5.665   6.797   2.930
 7199SOL    HW122496   5.578   6.800   2.978
 7199SOL    HW222497   5.735   6.844   2.984
 7200SOL     OW22498   1.856   2.038   1.929
 7200SOL    HW122499   1.909   2.083   2.001
 7200SOL    HW222500   1.798   1.968   1.971
 7201SOL     OW22501   2.090   5.210   3.252
 7201SOL    HW122502   2.140   5.125   3.233
 7201SOL    HW222503   2.000   5.206   3.209
 7202SOL     OW22504   3.457   0.179   5.494
 7202SOL    HW122505   3.497   0.271   5.490
 7202SOL    HW222506   3.506   0.125   5.562
 7203SOL     OW22507   6.034   0.431   6.695
 7203SOL    HW122508   5.970   0.418   6.771
 7203SOL    HW222509   6.050   0.344   6.649
 7204SOL     OW22510   6.277   1.936   2.590
 7204SOL    HW122511   6.340   2.012   2.572
 7204SOL    HW222512   6.297   1.861   2.527
 7205SOL     OW22513   1.671   4.945   1.556
 7205SOL    HW122514   1.727   4.999   1.619
 7205SOL    HW222515   1.576   4.945   1.587
 7206SOL     OW22516   5.435   1.593   1.417
 7206SOL    HW122517   5.431   1.685   1.459
 7206SOL    HW222518   5.489   1.597   1.333
 7207SOL     OW22519   4.032   6.593   2.392
 7207SOL    HW122520   4.038   6.691   2.373
 7207SOL    HW222521   4.048   6.542   2.308
 7208SOL     OW22522   3.158   0.178   4.877
 7208SOL    HW122523   3.079   0.198   4.935
 7208SOL    HW222524   3.172   0.080   4.872
 7209SOL     OW22525   4.049   3.226   4.814
 7209SOL    HW122526   4.120   3.156   4.802
 7209SOL    HW222527   4.057   3.265   4.906
 7210SOL     OW22528   4.900   0.568   4.266
 7210SOL    HW122529   4.997   0.586   4.283
 7210SOL    HW222530   4.891   0.500   4.193
 7211SOL     OW22531   1.470   5.071   2.711
 7211SOL    HW122532   1.562   5.086   2.676
 7211SOL    HW222533   1.451   4.972   2.712
 7212SOL     OW22534   4.811   6.976   3.577
 7212SOL    HW122535   4.873   6.905   3.610
 7212SOL    HW222536   4.849   0.039   3.598
 7213SOL     OW22537   5.379   6.873   5.370
 7213SOL    HW122538   5.359   6.777   5.392
 7213SOL    HW222539   5.428   6.878   5.283
 7214SOL     OW22540   0.422   4.942   5.150
 7214SOL    HW122541   0.482   4.917   5.225
 7214SOL    HW222542   0.387   4.860   5.106
 7215SOL     OW22543   0.793   3.240   2.705
 7215SOL    HW122544   0.770   3.151   2.745
 7215SOL    HW222545   0.845   3.227   2.621
 7216SOL     OW22546   2.375   1.510   1.761
 7216SOL    HW122547   2.383   1.607   1.786
 7216SOL    HW222548   2.367   1.454   1.843
 7217SOL     OW22549   1.366   3.123   1.983
 7217SOL    HW122550   1.306   3.134   2.062
 7217SOL    HW222551   1.367   3.027   1.954
 7218SOL     OW22552   6.667   2.290   5.899
 7218SOL    HW122553   6.711   2.213   5.944
 7218SOL    HW222554   6.722   2.320   5.822
 7219SOL     OW22555   3.528   0.472   1.135
 7219SOL    HW122556   3.551   0.377   1.156
 7219SOL    HW222557   3.490   0.477   1.042
 7220SOL     OW22558   0.298   0.975   3.346
 7220SOL    HW122559   0.276   0.886   3.307
 7220SOL    HW222560   0.373   0.964   3.411
 7221SOL     OW22561   5.821   5.011   5.595
 7221SOL    HW122562   5.759   5.068   5.650
 7221SOL    HW222563   5.908   5.002   5.643
 7222SOL     OW22564   5.977   6.648   3.278
 7222SOL    HW122565   6.053   6.705   3.246
 7222SOL    HW222566   5.973   6.564   3.225
 7223SOL     OW22567   4.510   1.177   4.896
 7223SOL    HW122568   4.524   1.083   4.865
 7223SOL    HW222569   4.413   1.199   4.894
 7224SOL     OW22570   5.368   0.835   4.676
 7224SOL    HW122571   5.341   0.740   4.664
 7224SOL    HW222572   5.364   0.882   4.587
 7225SOL     OW22573   2.199   0.607   0.785
 7225SOL    HW122574   2.165   0.536   0.846
 7225SOL    HW222575   2.297   0.617   0.797
 7226SOL     OW22576   5.836   6.812   6.313
 7226SOL    HW122577   5.827   6.912   6.306
 7226SOL    HW222578   5.902   6.790   6.385
 7227SOL     OW22579   6.918   2.144   6.337
 7227SOL    HW122580   6.884   2.147   6.431
 7227SOL    HW222581   6.876   2.067   6.289
 7228SOL     OW22582   2.178   0.744   2.743
 7228SOL    HW122583   2.207   0.756   2.648
 7228SOL    HW222584   2.082   0.718   2.745
 7229SOL     OW22585   0.179   0.259   3.451
 7229SOL    HW122586   0.223   0.224   3.534
 7229SOL    HW222587   0.248   0.294   3.388
 7230SOL     OW22588   6.309   5.433   1.644
 7230SOL    HW122589   6.245   5.505   1.617
 7230SOL    HW222590   6.333   5.377   1.565
 7231SOL     OW22591   6.037   0.947   6.654
 7231SOL    HW122592   6.027   0.951   6.555
 7231SOL    HW222593   6.084   0.862   6.678
 7232SOL     OW22594   3.733   4.106   0.817
 7232SOL    HW122595   3.726   4.064   0.726
 7232SOL    HW222596   3.829   4.119   0.840
 7233SOL     OW22597   0.321   2.250   6.010
 7233SOL    HW122598   0.350   2.234   5.915
 7233SOL    HW222599   0.361   2.336   6.042
 7234SOL     OW22600   5.278   1.724   2.941
 7234SOL    HW122601   5.238   1.775   3.017
 7234SOL    HW222602   5.224   1.741   2.858
 7235SOL     OW22603   6.181   2.874   4.565
 7235SOL    HW122604   6.114   2.902   4.633
 7235SOL    HW222605   6.195   2.948   4.499
 7236SOL     OW22606   2.103   1.490   3.490
 7236SOL    HW122607   2.102   1.582   3.529
 7236SOL    HW222608   2.151   1.492   3.402
 7237SOL     OW22609   6.022   5.225   5.130
 7237SOL    HW122610   6.025   5.162   5.208
 7237SOL    HW222611   5.928   5.237   5.099
 7238SOL     OW22612   1.166   1.042   1.612
 7238SOL    HW122613   1.175   1.077   1.519
 7238SOL    HW222614   1.211   1.106   1.675
 7239SOL     OW22615   4.454   1.186   2.332
 7239SOL    HW122616   4.501   1.231   2.256
 7239SOL    HW222617   4.430   1.253   2.402
 7240SOL     OW22618   3.256   3.162   1.486
 7240SOL    HW122619   3.201   3.079   1.484
 7240SOL    HW222620   3.323   3.159   1.411
 7241SOL     OW22621   5.099   6.892   4.642
 7241SOL    HW122622   5.198   6.879   4.643
 7241SOL    HW222623   5.054   6.812   4.681
 7242SOL     OW22624   5.657   4.873   0.753
 7242SOL    HW122625   5.565   4.848   0.783
 7242SOL    HW222626   5.669   4.847   0.657
 7243SOL     OW22627   0.645   5.709   0.294
 7243SOL    HW122628   0.566   5.688   0.351
 7243SOL    HW222629   0.713   5.637   0.302
 7244SOL     OW22630   5.818   1.994   0.645
 7244SOL    HW122631   5.720   1.993   0.625
 7244SOL    HW222632   5.849   1.900   0.664
 7245SOL     OW22633   6.676   1.795   4.631
 7245SOL    HW122634   6.764   1.781   4.585
 7245SOL    HW222635   6.691   1.830   4.723
 7246SOL     OW22636   1.500   5.424   4.999
 7246SOL    HW122637   1.551   5.340   5.020
 7246SOL    HW222638   1.526   5.496   5.064
 7247SOL     OW22639   4.026   5.661   3.547
 7247SOL    HW122640   4.076   5.682   3.631
 7247SOL    HW222641   3.932   5.696   3.555
 7248SOL     OW22642   3.259   0.823   4.568
 7248SOL    HW122643   3.169   0.866   4.573
 7248SOL    HW222644   3.249   0.724   4.566
 7249SOL     OW22645   5.135   3.904   5.834
 7249SOL    HW122646   5.108   3.888   5.739
 7249SOL    HW222647   5.103   3.994   5.862
 7250SOL     OW22648   3.198   3.300   0.439
 7250SOL    HW122649   3.262   3.347   0.378
 7250SOL    HW222650   3.104   3.317   0.407
 7251SOL     OW22651   5.869   1.215   4.754
 7251SOL    HW122652   5.830   1.128   4.784
 7251SOL    HW222653   5.836   1.289   4.811
 7252SOL     OW22654   4.301   3.727   5.312
 7252SOL    HW122655   4.377   3.662   5.316
 7252SOL    HW222656   4.238   3.700   5.239
 7253SOL     OW22657   5.252   4.939   0.945
 7253SOL    HW122658   5.235   4.992   0.862
 7253SOL    HW222659   5.196   4.975   1.020
 7254SOL     OW22660   5.656   6.442   5.213
 7254SOL    HW122661   5.585   6.491   5.162
 7254SOL    HW222662   5.627   6.430   5.308
 7255SOL     OW22663   4.123   3.521   2.314
 7255SOL    HW122664   4.153   3.613   2.339
 7255SOL    HW222665   4.035   3.502   2.357
 7256SOL     OW22666   3.795   4.988   3.627
 7256SOL    HW122667   3.853   5.031   3.696
 7256SOL    HW222668   3.718   4.943   3.671
 7257SOL     OW22669   6.188   4.069   3.080
 7257SOL    HW122670   6.128   3.991   3.059
 7257SOL    HW222671   6.134   4.143   3.121
 7258SOL     OW22672   2.566   0.377   5.650
 7258SOL    HW122673   2.598   0.394   5.743
 7258SOL    HW222674   2.568   0.279   5.630
 7259SOL     OW22675   2.563   5.147   6.427
 7259SOL    HW122676   2.613   5.173   6.344
 7259SOL    HW222677   2.608   5.189   6.507
 7260SOL     OW22678   4.681   1.515   2.739
 7260SOL    HW122679   4.719   1.572   2.666
 7260SOL    HW222680   4.666   1.570   2.820
 7261SOL     OW22681   1.543   4.887   1.149
 7261SOL    HW122682   1.569   4.983   1.143
 7261SOL    HW222683   1.590   4.845   1.227
 7262SOL     OW22684   6.082   0.813   5.484
 7262SOL    HW122685   6.093   0.901   5.530
 7262SOL    HW222686   6.165   0.792   5.432
 7263SOL     OW22687   5.256   6.089   1.657
 7263SOL    HW122688   5.248   6.153   1.733
 7263SOL    HW222689   5.271   5.997   1.693
 7264SOL     OW22690   1.605   6.903   4.783
 7264SOL    HW122691   1.598   6.946   4.693
 7264SOL    HW222692   1.592   6.972   4.854
 7265SOL     OW22693   4.338   3.469   6.102
 7265SOL    HW122694   4.287   3.401   6.050
 7265SOL    HW222695   4.401   3.518   6.041
 7266SOL     OW22696   3.729   1.639   1.990
 7266SOL    HW122697   3.659   1.711   1.990
 7266SOL    HW222698   3.811   1.672   1.944
 7267SOL     OW22699   6.369   3.114   4.755
 7267SOL    HW122700   6.365   3.209   4.785
 7267SOL    HW222701   6.423   3.061   4.821
 7268SOL     OW22702   3.703   0.532   0.131
 7268SOL    HW122703   3.653   0.471   0.193
 7268SOL    HW222704   3.771   0.479   0.081
 7269SOL     OW22705   1.281   0.134   1.709
 7269SOL    HW122706   1.229   0.186   1.641
 7269SOL    HW222707   1.306   0.194   1.785
 7270SOL     OW22708   3.156   1.406   2.263
 7270SOL    HW122709   3.157   1.462   2.346
 7270SOL    HW222710   3.109   1.457   2.190
 7271SOL     OW22711   6.270   5.107   3.588
 7271SOL    HW122712   6.176   5.122   3.558
 7271SOL    HW222713   6.300   5.016   3.560
 7272SOL     OW22714   6.720   1.952   0.766
 7272SOL    HW122715   6.633   1.902   0.762
 7272SOL    HW222716   6.701   2.051   0.766
 7273SOL     OW22717   5.294   5.802   5.469
 7273SOL    HW122718   5.361   5.842   5.406
 7273SOL    HW222719   5.329   5.806   5.562
 7274SOL     OW22720   6.170   4.748   4.197
 7274SOL    HW122721   6.204   4.804   4.121
 7274SOL    HW222722   6.131   4.807   4.267
 7275SOL     OW22723   5.239   6.262   1.446
 7275SOL    HW122724   5.219   6.193   1.517
 7275SOL    HW222725   5.273   6.345   1.490
 7276SOL     OW22726   2.905   2.225   3.998
 7276SOL    HW122727   2.965   2.200   4.075
 7276SOL    HW222728   2.834   2.287   4.031
 7277SOL     OW22729   5.967   1.316   4.040
 7277SOL    HW122730   5.960   1.336   4.137
 7277SOL    HW222731   5.885   1.347   3.993
 7278SOL     OW22732   2.547   2.139   3.777
 7278SOL    HW122733   2.594   2.220   3.742
 7278SOL    HW222734   2.452   2.164   3.800
 7279SOL     OW22735   4.149   3.847   1.387
 7279SOL    HW122736   4.127   3.751   1.406
 7279SOL    HW222737   4.151   3.898   1.473
 7280SOL     OW22738   6.615   2.322   5.314
 7280SOL    HW122739   6.604   2.226   5.288
 7280SOL    HW222740   6.585   2.381   5.239
 7281SOL     OW22741   3.771   6.427   2.004
 7281SOL    HW122742   3.770   6.447   2.102
 7281SOL    HW222743   3.727   6.339   1.987
 7282SOL     OW22744   0.157   3.494   1.467
 7282SOL    HW122745   0.166   3.524   1.372
 7282SOL    HW222746   0.223   3.544   1.523
 7283SOL     OW22747   3.802   6.133   2.932
 7283SOL    HW122748   3.815   6.196   3.008
 7283SOL    HW222749   3.765   6.046   2.966
 7284SOL     OW22750   0.681   1.304   2.899
 7284SOL    HW122751   0.669   1.258   2.987
 7284SOL    HW222752   0.593   1.333   2.863
 7285SOL     OW22753   5.108   2.893   2.223
 7285SOL    HW122754   5.114   2.918   2.320
 7285SOL    HW222755   5.196   2.856   2.193
 7286SOL     OW22756   6.241   1.390   3.818
 7286SOL    HW122757   6.241   1.390   3.718
 7286SOL    HW222758   6.189   1.469   3.851
 7287SOL     OW22759   3.591   0.829   3.892
 7287SOL    HW122760   3.645   0.785   3.964
 7287SOL    HW222761   3.494   0.823   3.915
 7288SOL     OW22762   3.454   1.562   1.977
 7288SOL    HW122763   3.426   1.658   1.977
 7288SOL    HW222764   3.530   1.550   1.913
 7289SOL     OW22765   6.200   2.559   2.330
 7289SOL    HW122766   6.220   2.657   2.339
 7289SOL    HW222767   6.242   2.509   2.406
 7290SOL     OW22768   3.996   1.672   4.600
 7290SOL    HW122769   3.972   1.769   4.602
 7290SOL    HW222770   3.969   1.634   4.511
 7291SOL     OW22771   1.536   0.986   0.526
 7291SOL    HW122772   1.467   1.035   0.579
 7291SOL    HW222773   1.597   1.053   0.483
 7292SOL     OW22774   3.235   0.840   2.906
 7292SOL    HW122775   3.318   0.848   2.962
 7292SOL    HW222776   3.259   0.842   2.809
 7293SOL     OW22777   6.446   1.223   3.729
 7293SOL    HW122778   6.366   1.272   3.761
 7293SOL    HW222779   6.420   1.161   3.655
 7294SOL     OW22780   3.865   0.305   2.655
 7294SOL    HW122781   3.902   0.348   2.572
 7294SOL    HW222782   3.816   0.374   2.709
 7295SOL     OW22783   5.260   3.674   1.137
 7295SOL    HW122784   5.214   3.647   1.053
 7295SOL    HW222785   5.203   3.652   1.215
 7296SOL     OW22786   3.643   6.177   1.944
 7296SOL    HW122787   3.604   6.166   1.852
 7296SOL    HW222788   3.627   6.094   1.997
 7297SOL     OW22789   4.056   6.635   0.184
 7297SOL    HW122790   4.105   6.550   0.171
 7297SOL    HW222791   4.047   6.654   0.282
 7298SOL     OW22792   4.338   5.470   1.384
 7298SOL    HW122793   4.273   5.394   1.395
 7298SOL    HW222794   4.290   5.557   1.398
 7299SOL     OW22795   0.132   3.763   5.552
 7299SOL    HW122796   0.150   3.833   5.621
 7299SOL    HW222797   0.213   3.753   5.494
 7300SOL     OW22798   0.815   4.427   2.362
 7300SOL    HW122799   0.774   4.442   2.272
 7300SOL    HW222800   0.827   4.514   2.409
 7301SOL     OW22801   4.333   2.086   6.719
 7301SOL    HW122802   4.410   2.150   6.719
 7301SOL    HW222803   4.298   2.076   6.626
 7302SOL     OW22804   5.173   2.440   6.770
 7302SOL    HW122805   5.169   2.540   6.764
 7302SOL    HW222806   5.233   2.415   6.845
 7303SOL     OW22807   2.709   2.020   1.567
 7303SOL    HW122808   2.714   2.098   1.505
 7303SOL    HW222809   2.710   2.051   1.662
 7304SOL     OW22810   2.150   6.301   0.684
 7304SOL    HW122811   2.243   6.313   0.650
 7304SOL    HW222812   2.150   6.299   0.784
 7305SOL     OW22813   6.207   0.364   6.319
 7305SOL    HW122814   6.279   0.407   6.266
 7305SOL    HW222815   6.120   0.410   6.301
 7306SOL     OW22816   1.086   3.164   1.317
 7306SOL    HW122817   1.180   3.147   1.343
 7306SOL    HW222818   1.027   3.163   1.398
 7307SOL     OW22819   2.962   0.499   2.135
 7307SOL    HW122820   3.027   0.490   2.211
 7307SOL    HW222821   2.979   0.427   2.068
 7308SOL     OW22822   3.527   1.388   3.440
 7308SOL    HW122823   3.625   1.400   3.425
 7308SOL    HW222824   3.494   1.312   3.384
 7309SOL     OW22825   2.252   5.724   3.791
 7309SOL    HW122826   2.255   5.690   3.698
 7309SOL    HW222827   2.201   5.810   3.794
 7310SOL     OW22828   2.431   2.950   0.053
 7310SOL    HW122829   2.383   2.904   7.006
 7310SOL    HW222830   2.443   3.047   0.030
 7311SOL     OW22831   0.257   6.389   5.814
 7311SOL    HW122832   0.256   6.471   5.870
 7311SOL    HW222833   0.349   6.375   5.777
 7312SOL     OW22834   6.119   2.305   4.983
 7312SOL    HW122835   6.121   2.354   5.071
 7312SOL    HW222836   6.031   2.259   4.973
 7313SOL     OW22837   3.158   1.027   2.660
 7313SOL    HW122838   3.129   1.094   2.592
 7313SOL    HW222839   3.199   0.948   2.614
 7314SOL     OW22840   2.132   5.044   5.410
 7314SOL    HW122841   2.069   5.004   5.477
 7314SOL    HW222842   2.226   5.023   5.437
 7315SOL     OW22843   3.210   4.878   2.330
 7315SOL    HW122844   3.138   4.858   2.396
 7315SOL    HW222845   3.236   4.974   2.336
 7316SOL     OW22846   3.627   1.496   1.695
 7316SOL    HW122847   3.626   1.400   1.724
 7316SOL    HW222848   3.533   1.528   1.681
 7317SOL     OW22849   4.740   1.799   0.727
 7317SOL    HW122850   4.698   1.759   0.645
 7317SOL    HW222851   4.794   1.729   0.774
 7318SOL     OW22852   5.081   0.120   1.005
 7318SOL    HW122853   5.170   0.081   1.029
 7318SOL    HW222854   5.048   0.176   1.081
 7319SOL     OW22855   5.344   6.206   6.775
 7319SOL    HW122856   5.248   6.227   6.793
 7319SOL    HW222857   5.368   6.238   6.683
 7320SOL     OW22858   0.174   2.806   6.998
 7320SOL    HW122859   0.263   2.768   7.021
 7320SOL    HW222860   0.161   2.893   0.018
 7321SOL     OW22861   2.026   2.263   6.034
 7321SOL    HW122862   2.059   2.281   5.942
 7321SOL    HW222863   2.102   2.233   6.092
 7322SOL     OW22864   1.232   2.302   3.721
 7322SOL    HW122865   1.183   2.260   3.798
 7322SOL    HW222866   1.322   2.262   3.712
 7323SOL     OW22867   1.346   2.440   0.737
 7323SOL    HW122868   1.269   2.442   0.673
 7323SOL    HW222869   1.323   2.381   0.814
 7324SOL     OW22870   5.137   3.988   4.411
 7324SOL    HW122871   5.156   4.051   4.487
 7324SOL    HW222872   5.039   3.965   4.410
 7325SOL     OW22873   3.868   1.584   6.128
 7325SOL    HW122874   3.819   1.598   6.042
 7325SOL    HW222875   3.930   1.661   6.143
 7326SOL     OW22876   4.035   6.744   0.448
 7326SOL    HW122877   4.107   6.706   0.506
 7326SOL    HW222878   3.946   6.732   0.493
 7327SOL     OW22879   1.803   4.329   3.651
 7327SOL    HW122880   1.801   4.309   3.553
 7327SOL    HW222881   1.829   4.425   3.664
 7328SOL     OW22882   4.593   5.061   5.931
 7328SOL    HW122883   4.654   5.139   5.945
 7328SOL    HW222884   4.640   4.990   5.880
 7329SOL     OW22885   2.581   3.511   0.966
 7329SOL    HW122886   2.634   3.494   1.049
 7329SOL    HW222887   2.626   3.467   0.888
 7330SOL     OW22888   2.778   3.265   0.903
 7330SOL    HW122889   2.809   3.194   0.839
 7330SOL    HW222890   2.833   3.347   0.891
 7331SOL     OW22891   5.181   2.253   2.601
 7331SOL    HW122892   5.171   2.163   2.643
 7331SOL    HW222893   5.098   2.306   2.616
 7332SOL     OW22894   2.834   6.494   5.326
 7332SOL    HW122895   2.818   6.591   5.307
 7332SOL    HW222896   2.847   6.480   5.424
 7333SOL     OW22897   6.502   0.688   1.323
 7333SOL    HW122898   6.574   0.626   1.294
 7333SOL    HW222899   6.444   0.641   1.390
 7334SOL     OW22900   1.586   4.409   4.788
 7334SOL    HW122901   1.592   4.379   4.884
 7334SOL    HW222902   1.513   4.359   4.742
 7335SOL     OW22903   0.981   3.647   2.526
 7335SOL    HW122904   0.919   3.705   2.580
 7335SOL    HW222905   0.967   3.665   2.429
 7336SOL     OW22906   2.393   6.827   0.984
 7336SOL    HW122907   2.408   6.743   1.037
 7336SOL    HW222908   2.469   6.891   1.000
 7337SOL     OW22909   3.158   1.546   3.596
 7337SOL    HW122910   3.205   1.634   3.594
 7337SOL    HW222911   3.065   1.557   3.559
 7338SOL     OW22912   4.904   3.782   0.974
 7338SOL    HW122913   4.961   3.858   0.944
 7338SOL    HW222914   4.960   3.700   0.985
 7339SOL     OW22915   0.486   6.166   4.881
 7339SOL    HW122916   0.494   6.188   4.784
 7339SOL    HW222917   0.511   6.070   4.896
 7340SOL     OW22918   2.547   5.782   6.963
 7340SOL    HW122919   2.505   5.823   6.882
 7340SOL    HW222920   2.514   5.828   0.018
 7341SOL     OW22921   6.406   5.380   3.924
 7341SOL    HW122922   6.490   5.399   3.874
 7341SOL    HW222923   6.374   5.288   3.901
 7342SOL     OW22924   1.003   5.181   0.835
 7342SOL    HW122925   1.048   5.201   0.922
 7342SOL    HW222926   1.068   5.133   0.775
 7343SOL     OW22927   6.595   2.672   3.246
 7343SOL    HW122928   6.525   2.742   3.234
 7343SOL    HW222929   6.562   2.602   3.310
 7344SOL     OW22930   2.212   1.053   6.751
 7344SOL    HW122931   2.255   0.964   6.758
 7344SOL    HW222932   2.239   1.096   6.665
 7345SOL     OW22933   2.405   6.275   6.777
 7345SOL    HW122934   2.443   6.366   6.761
 7345SOL    HW222935   2.336   6.280   6.849
 7346SOL     OW22936   3.789   4.898   2.333
 7346SOL    HW122937   3.837   4.849   2.406
 7346SOL    HW222938   3.690   4.892   2.349
 7347SOL     OW22939   6.519   2.978   2.851
 7347SOL    HW122940   6.467   2.915   2.793
 7347SOL    HW222941   6.468   3.063   2.862
 7348SOL     OW22942   6.595   1.213   5.805
 7348SOL    HW122943   6.517   1.221   5.868
 7348SOL    HW222944   6.677   1.249   5.849
 7349SOL     OW22945   3.645   1.514   1.091
 7349SOL    HW122946   3.665   1.475   1.181
 7349SOL    HW222947   3.731   1.534   1.044
 7350SOL     OW22948   2.267   0.995   3.306
 7350SOL    HW122949   2.334   1.024   3.237
 7350SOL    HW222950   2.269   1.059   3.382
 7351SOL     OW22951   4.426   4.531   0.689
 7351SOL    HW122952   4.414   4.533   0.789
 7351SOL    HW222953   4.356   4.586   0.645
 7352SOL     OW22954   6.675   0.649   3.021
 7352SOL    HW122955   6.611   0.716   2.984
 7352SOL    HW222956   6.629   0.560   3.030
 7353SOL     OW22957   5.774   1.376   4.926
 7353SOL    HW122958   5.771   1.473   4.899
 7353SOL    HW222959   5.717   1.363   5.007
 7354SOL     OW22960   6.064   4.601   4.785
 7354SOL    HW122961   5.984   4.585   4.844
 7354SOL    HW222962   6.140   4.544   4.816
 7355SOL     OW22963   0.692   5.679   1.039
 7355SOL    HW122964   0.705   5.690   1.137
 7355SOL    HW222965   0.628   5.748   1.006
 7356SOL     OW22966   0.085   2.381   6.063
 7356SOL    HW122967   0.089   2.387   6.162
 7356SOL    HW222968   0.174   2.353   6.027
 7357SOL     OW22969   0.910   1.587   6.937
 7357SOL    HW122970   0.955   1.499   6.921
 7357SOL    HW222971   0.845   1.577   7.012
 7358SOL     OW22972   3.098   0.891   3.870
 7358SOL    HW122973   3.036   0.861   3.797
 7358SOL    HW222974   3.103   0.991   3.870
 7359SOL     OW22975   3.488   2.948   3.331
 7359SOL    HW122976   3.491   2.934   3.232
 7359SOL    HW222977   3.409   2.899   3.369
 7360SOL     OW22978   0.130   4.453   6.254
 7360SOL    HW122979   0.221   4.493   6.266
 7360SOL    HW222980   0.061   4.524   6.267
 7361SOL     OW22981   4.525   6.637   1.707
 7361SOL    HW122982   4.519   6.732   1.737
 7361SOL    HW222983   4.520   6.633   1.607
 7362SOL     OW22984   1.969   6.361   6.418
 7362SOL    HW122985   2.045   6.400   6.364
 7362SOL    HW222986   1.899   6.431   6.431
 7363SOL     OW22987   4.780   2.914   6.894
 7363SOL    HW122988   4.802   2.979   6.967
 7363SOL    HW222989   4.733   2.961   6.820
 7364SOL     OW22990   4.611   0.362   1.419
 7364SOL    HW122991   4.514   0.355   1.443
 7364SOL    HW222992   4.665   0.370   1.503
 7365SOL     OW22993   4.350   0.359   1.585
 7365SOL    HW122994   4.293   0.286   1.546
 7365SOL    HW222995   4.411   0.321   1.653
 7366SOL     OW22996   1.063   6.749   0.303
 7366SOL    HW122997   1.014   6.678   0.354
 7366SOL    HW222998   1.052   6.837   0.349
 7367SOL     OW22999   4.617   2.522   0.220
 7367SOL    HW123000   4.696   2.564   0.265
 7367SOL    HW223001   4.533   2.556   0.261
 7368SOL     OW23002   3.248   3.008   3.723
 7368SOL    HW123003   3.312   2.931   3.735
 7368SOL    HW223004   3.195   3.021   3.806
 7369SOL     OW23005   5.192   1.203   6.149
 7369SOL    HW123006   5.227   1.279   6.202
 7369SOL    HW223007   5.097   1.184   6.176
 7370SOL     OW23008   1.169   5.682   1.116
 7370SOL    HW123009   1.141   5.777   1.131
 7370SOL    HW223010   1.092   5.621   1.135
 7371SOL     OW23011   1.926   4.811   4.308
 7371SOL    HW123012   1.916   4.848   4.401
 7371SOL    HW223013   1.911   4.883   4.241
 7372SOL     OW23014   3.042   0.093   5.220
 7372SOL    HW123015   3.075   0.175   5.173
 7372SOL    HW223016   2.948   0.075   5.194
 7373SOL     OW23017   3.861   6.910   0.732
 7373SOL    HW123018   3.778   6.872   0.772
 7373SOL    HW223019   3.880   7.000   0.772
 7374SOL     OW23020   2.117   3.573   6.663
 7374SOL    HW123021   2.115   3.594   6.761
 7374SOL    HW223022   2.210   3.551   6.635
 7375SOL     OW23023   2.647   6.451   3.105
 7375SOL    HW123024   2.598   6.498   3.179
 7375SOL    HW223025   2.728   6.406   3.142
 7376SOL     OW23026   3.300   4.146   6.557
 7376SOL    HW123027   3.364   4.121   6.630
 7376SOL    HW223028   3.253   4.063   6.525
 7377SOL     OW23029   5.803   5.697   1.917
 7377SOL    HW123030   5.735   5.757   1.874
 7377SOL    HW223031   5.814   5.615   1.861
 7378SOL     OW23032   0.216   2.730   5.988
 7378SOL    HW123033   0.130   2.692   5.956
 7378SOL    HW223034   0.199   2.816   6.037
 7379SOL     OW23035   4.202   0.923   1.035
 7379SOL    HW123036   4.256   0.867   1.098
 7379SOL    HW223037   4.105   0.903   1.049
 7380SOL     OW23038   6.718   2.739   5.631
 7380SOL    HW123039   6.805   2.752   5.678
 7380SOL    HW223040   6.726   2.775   5.538
 7381SOL     OW23041   4.698   2.175   0.672
 7381SOL    HW123042   4.599   2.184   0.658
 7381SOL    HW223043   4.742   2.263   0.651
 7382SOL     OW23044   1.228   5.736   3.834
 7382SOL    HW123045   1.193   5.817   3.787
 7382SOL    HW223046   1.305   5.699   3.783
 7383SOL     OW23047   0.918   4.894   2.969
 7383SOL    HW123048   0.851   4.892   2.895
 7383SOL    HW223049   0.876   4.857   3.052
 7384SOL     OW23050   6.264   1.681   1.470
 7384SOL    HW123051   6.204   1.635   1.536
 7384SOL    HW223052   6.358   1.681   1.505
 7385SOL     OW23053   4.918   0.825   1.600
 7385SOL    HW123054   4.992   0.780   1.651
 7385SOL    HW223055   4.894   0.769   1.520
 7386SOL     OW23056   0.116   2.359   6.340
 7386SOL    HW123057   0.157   2.363   6.431
 7386SOL    HW223058   0.054   2.281   6.335
 7387SOL     OW23059   5.598   6.553   3.999
 7387SOL    HW123060   5.614   6.589   3.907
 7387SOL    HW223061   5.553   6.623   4.055
 7388SOL     OW23062   5.561   4.287   4.899
 7388SOL    HW123063   5.507   4.275   4.982
 7388SOL    HW223064   5.532   4.371   4.853
 7389SOL     OW23065   0.614   3.825   4.738
 7389SOL    HW123066   0.561   3.874   4.669
 7389SOL    HW223067   0.576   3.733   4.751
 7390SOL     OW23068   3.406   0.556   6.412
 7390SOL    HW123069   3.340   0.617   6.454
 7390SOL    HW223070   3.412   0.471   6.465
 7391SOL     OW23071   0.145   5.033   0.288
 7391SOL    HW123072   0.199   4.959   0.328
 7391SOL    HW223073   0.206   5.101   0.247
 7392SOL     OW23074   2.050   4.655   2.584
 7392SOL    HW123075   2.091   4.736   2.542
 7392SOL    HW223076   2.050   4.666   2.683
 7393SOL     OW23077   0.548   3.782   6.965
 7393SOL    HW123078   0.574   3.809   0.030
 7393SOL    HW223079   0.576   3.852   6.900
 7394SOL     OW23080   2.550   2.756   6.226
 7394SOL    HW123081   2.608   2.675   6.214
 7394SOL    HW223082   2.533   2.797   6.136
 7395SOL     OW23083   2.076   6.912   6.793
 7395SOL    HW123084   2.048   6.834   6.849
 7395SOL    HW223085   2.149   6.962   6.839
 7396SOL     OW23086   6.883   0.337   1.804
 7396SOL    HW123087   6.829   0.280   1.742
 7396SOL    HW223088   6.889   0.293   1.893
 7397SOL     OW23089   6.431   4.391   4.307
 7397SOL    HW123090   6.451   4.366   4.401
 7397SOL    HW223091   6.411   4.489   4.301
 7398SOL     OW23092   4.873   6.879   2.564
 7398SOL    HW123093   4.821   6.895   2.648
 7398SOL    HW223094   4.924   6.962   2.540
 7399SOL     OW23095   5.511   4.506   4.741
 7399SOL    HW123096   5.417   4.508   4.707
 7399SOL    HW223097   5.572   4.544   4.671
 7400SOL     OW23098   2.401   3.769   0.467
 7400SOL    HW123099   2.421   3.748   0.371
 7400SOL    HW223100   2.420   3.689   0.523
 7401SOL     OW23101   5.876   1.909   4.790
 7401SOL    HW123102   5.885   2.007   4.806
 7401SOL    HW223103   5.887   1.860   4.876
 7402SOL     OW23104   2.758   6.209   4.484
 7402SOL    HW123105   2.661   6.201   4.507
 7402SOL    HW223106   2.812   6.149   4.543
 7403SOL     OW23107   2.745   2.861   1.074
 7403SOL    HW123108   2.680   2.918   1.123
 7403SOL    HW223109   2.786   2.795   1.137
 7404SOL     OW23110   0.989   2.047   2.662
 7404SOL    HW123111   0.924   2.103   2.714
 7404SOL    HW223112   1.059   2.107   2.622
 7405SOL     OW23113   4.317   4.913   5.964
 7405SOL    HW123114   4.289   4.891   5.871
 7405SOL    HW223115   4.407   4.958   5.962
 7406SOL     OW23116   0.683   6.562   2.177
 7406SOL    HW123117   0.768   6.615   2.182
 7406SOL    HW223118   0.648   6.564   2.084
 7407SOL     OW23119   2.759   0.357   6.173
 7407SOL    HW123120   2.683   0.332   6.113
 7407SOL    HW223121   2.723   0.400   6.256
 7408SOL     OW23122   0.753   3.588   5.227
 7408SOL    HW123123   0.730   3.677   5.189
 7408SOL    HW223124   0.852   3.577   5.231
 7409SOL     OW23125   2.501   6.667   5.317
 7409SOL    HW123126   2.514   6.568   5.321
 7409SOL    HW223127   2.587   6.710   5.288
 7410SOL     OW23128   5.122   5.460   6.650
 7410SOL    HW123129   5.027   5.483   6.671
 7410SOL    HW223130   5.138   5.363   6.666
 7411SOL     OW23131   5.156   4.835   5.969
 7411SOL    HW123132   5.059   4.850   5.950
 7411SOL    HW223133   5.186   4.899   6.039
 7412SOL     OW23134   1.534   0.834   6.413
 7412SOL    HW123135   1.454   0.894   6.415
 7412SOL    HW223136   1.508   0.743   6.447
 7413SOL     OW23137   6.962   3.607   4.007
 7413SOL    HW123138   6.954   3.699   3.969
 7413SOL    HW223139   6.872   3.562   4.004
 7414SOL     OW23140   0.438   4.873   2.128
 7414SOL    HW123141   0.443   4.873   2.028
 7414SOL    HW223142   0.516   4.823   2.165
 7415SOL     OW23143   3.243   1.797   3.550
 7415SOL    HW123144   3.292   1.834   3.471
 7415SOL    HW223145   3.244   1.864   3.624
 7416SOL     OW23146   6.312   0.241   3.304
 7416SOL    HW123147   6.254   0.282   3.234
 7416SOL    HW223148   6.256   0.187   3.367
 7417SOL     OW23149   0.886   5.378   0.718
 7417SOL    HW123150   0.936   5.304   0.764
 7417SOL    HW223151   0.942   5.461   0.719
 7418SOL     OW23152   0.835   3.676   0.688
 7418SOL    HW123153   0.767   3.679   0.615
 7418SOL    HW223154   0.884   3.763   0.693
 7419SOL     OW23155   5.886   1.951   5.519
 7419SOL    HW123156   5.892   2.037   5.468
 7419SOL    HW223157   5.898   1.874   5.457
 7420SOL     OW23158   6.847   5.770   2.320
 7420SOL    HW123159   6.770   5.820   2.359
 7420SOL    HW223160   6.926   5.777   2.381
 7421SOL     OW23161   4.217   2.015   1.228
 7421SOL    HW123162   4.162   2.093   1.259
 7421SOL    HW223163   4.178   1.979   1.143
 7422SOL     OW23164   0.655   2.116   0.720
 7422SOL    HW123165   0.672   2.183   0.793
 7422SOL    HW223166   0.725   2.125   0.650
 7423SOL     OW23167   2.444   4.547   6.899
 7423SOL    HW123168   2.506   4.617   6.862
 7423SOL    HW223169   2.366   4.592   6.944
 7424SOL     OW23170   5.367   0.192   4.820
 7424SOL    HW123171   5.458   0.219   4.851
 7424SOL    HW223172   5.364   0.195   4.720
 7425SOL     OW23173   3.883   0.675   4.918
 7425SOL    HW123174   3.824   0.647   4.841
 7425SOL    HW223175   3.841   0.753   4.964
 7426SOL     OW23176   0.362   1.548   0.141
 7426SOL    HW123177   0.267   1.550   0.170
 7426SOL    HW223178   0.420   1.517   0.217
 7427SOL     OW23179   5.155   5.948   5.089
 7427SOL    HW123180   5.201   5.865   5.056
 7427SOL    HW223181   5.056   5.936   5.083
 7428SOL     OW23182   3.549   1.210   5.629
 7428SOL    HW123183   3.597   1.278   5.573
 7428SOL    HW223184   3.453   1.237   5.639
 7429SOL     OW23185   6.608   6.384   3.892
 7429SOL    HW123186   6.668   6.423   3.822
 7429SOL    HW223187   6.595   6.451   3.966
 7430SOL     OW23188   0.545   4.357   4.600
 7430SOL    HW123189   0.448   4.342   4.616
 7430SOL    HW223190   0.557   4.421   4.525
 7431SOL     OW23191   0.500   4.141   2.342
 7431SOL    HW123192   0.578   4.132   2.404
 7431SOL    HW223193   0.433   4.204   2.382
 7432SOL     OW23194   1.481   6.604   4.837
 7432SOL    HW123195   1.547   6.679   4.843
 7432SOL    HW223196   1.531   6.517   4.831
 7433SOL     OW23197   0.270   6.255   1.246
 7433SOL    HW123198   0.355   6.259   1.194
 7433SOL    HW223199   0.208   6.327   1.215
 7434SOL     OW23200   4.193   6.912   6.802
 7434SOL    HW123201   4.105   6.866   6.812
 7434SOL    HW223202   4.227   6.897   6.709
 7435SOL     OW23203   1.413   6.095   0.037
 7435SOL    HW123204   1.505   6.080   0.002
 7435SOL    HW223205   1.347   6.045   7.007
 7436SOL     OW23206   4.253   3.463   0.238
 7436SOL    HW123207   4.277   3.371   0.206
 7436SOL    HW223208   4.201   3.510   0.166
 7437SOL     OW23209   0.282   6.128   5.571
 7437SOL    HW123210   0.235   6.161   5.489
 7437SOL    HW223211   0.217   6.080   5.630
 7438SOL     OW23212   5.423   3.780   1.489
 7438SOL    HW123213   5.331   3.742   1.489
 7438SOL    HW223214   5.431   3.849   1.561
 7439SOL     OW23215   0.886   6.528   3.905
 7439SOL    HW123216   0.788   6.510   3.908
 7439SOL    HW223217   0.915   6.568   3.992
 7440SOL     OW23218   0.431   1.736   3.816
 7440SOL    HW123219   0.392   1.712   3.905
 7440SOL    HW223220   0.361   1.778   3.759
 7441SOL     OW23221   6.249   0.072   3.579
 7441SOL    HW123222   6.332   0.127   3.589
 7441SOL    HW223223   6.273   7.010   3.542
 7442SOL     OW23224   1.671   0.556   5.978
 7442SOL    HW123225   1.720   0.643   5.985
 7442SOL    HW223226   1.673   0.509   6.066
 7443SOL     OW23227   6.901   1.766   1.923
 7443SOL    HW123228   6.830   1.836   1.931
 7443SOL    HW223229   6.991   1.809   1.935
 7444SOL     OW23230   0.611   2.312   5.400
 7444SOL    HW123231   0.613   2.265   5.312
 7444SOL    HW223232   0.653   2.253   5.470
 7445SOL     OW23233   5.909   3.185   1.700
 7445SOL    HW123234   5.883   3.279   1.722
 7445SOL    HW223235   5.995   3.163   1.746
 7446SOL     OW23236   6.337   3.198   2.854
 7446SOL    HW123237   6.323   3.219   2.757
 7446SOL    HW223238   6.405   3.262   2.891
 7447SOL     OW23239   0.025   4.215   6.560
 7447SOL    HW123240   6.952   4.215   6.554
 7447SOL    HW223241   0.063   4.178   6.475
 7448SOL     OW23242   0.356   6.547   6.155
 7448SOL    HW123243   0.411   6.499   6.222
 7448SOL    HW223244   0.416   6.587   6.085
 7449SOL     OW23245   4.331   0.235   1.209
 7449SOL    HW123246   4.409   0.202   1.156
 7449SOL    HW223247   4.348   0.329   1.238
 7450SOL     OW23248   3.785   0.492   1.950
 7450SOL    HW123249   3.735   0.576   1.972
 7450SOL    HW223250   3.829   0.502   1.860
 7451SOL     OW23251   1.581   0.438   2.318
 7451SOL    HW123252   1.481   0.445   2.325
 7451SOL    HW223253   1.610   0.469   2.228
 7452SOL     OW23254   1.756   6.764   3.298
 7452SOL    HW123255   1.740   6.839   3.362
 7452SOL    HW223256   1.854   6.746   3.291
 7453SOL     OW23257   6.011   5.413   5.498
 7453SOL    HW123258   5.925   5.402   5.547
 7453SOL    HW223259   5.993   5.422   5.400
 7454SOL     OW23260   0.764   3.024   6.518
 7454SOL    HW123261   0.702   3.054   6.591
 7454SOL    HW223262   0.798   2.932   6.540
 7455SOL     OW23263   5.088   0.928   0.902
 7455SOL    HW123264   5.046   0.950   0.990
 7455SOL    HW223265   5.116   1.013   0.857
 7456SOL     OW23266   0.882   3.587   5.578
 7456SOL    HW123267   0.927   3.606   5.491
 7456SOL    HW223268   0.783   3.592   5.567
 7457SOL     OW23269   6.373   6.754   5.952
 7457SOL    HW123270   6.364   6.853   5.946
 7457SOL    HW223271   6.389   6.717   5.860
 7458SOL     OW23272   2.290   0.300   1.184
 7458SOL    HW123273   2.360   0.335   1.247
 7458SOL    HW223274   2.289   0.200   1.187
 7459SOL     OW23275   4.578   0.040   4.644
 7459SOL    HW123276   4.540   0.055   4.553
 7459SOL    HW223277   4.628   0.121   4.673
 7460SOL     OW23278   0.988   5.764   6.794
 7460SOL    HW123279   0.944   5.754   6.705
 7460SOL    HW223280   1.070   5.707   6.797
 7461SOL     OW23281   3.961   0.982   4.121
 7461SOL    HW123282   3.951   0.889   4.155
 7461SOL    HW223283   3.920   1.046   4.186
 7462SOL     OW23284   1.965   0.659   3.023
 7462SOL    HW123285   1.973   0.679   2.925
 7462SOL    HW223286   1.986   0.741   3.076
 7463SOL     OW23287   3.572   3.850   1.900
 7463SOL    HW123288   3.588   3.932   1.955
 7463SOL    HW223289   3.603   3.770   1.951
 7464SOL     OW23290   4.839   0.189   0.510
 7464SOL    HW123291   4.784   0.107   0.495
 7464SOL    HW223292   4.827   0.220   0.605
 7465SOL     OW23293   3.562   0.561   2.410
 7465SOL    HW123294   3.510   0.644   2.391
 7465SOL    HW223295   3.640   0.555   2.347
 7466SOL     OW23296   6.488   0.361   6.996
 7466SOL    HW123297   6.481   0.459   7.015
 7466SOL    HW223298   6.396   0.322   6.990
 7467SOL     OW23299   4.905   1.625   0.869
 7467SOL    HW123300   4.924   1.526   0.871
 7467SOL    HW223301   4.834   1.646   0.936
 7468SOL     OW23302   6.468   3.825   4.432
 7468SOL    HW123303   6.549   3.769   4.416
 7468SOL    HW223304   6.476   3.871   4.521
 7469SOL     OW23305   5.734   1.130   2.267
 7469SOL    HW123306   5.666   1.064   2.300
 7469SOL    HW223307   5.725   1.215   2.319
 7470SOL     OW23308   0.270   3.850   2.651
 7470SOL    HW123309   0.223   3.836   2.738
 7470SOL    HW223310   0.247   3.940   2.614
 7471SOL     OW23311   6.039   4.701   6.025
 7471SOL    HW123312   6.064   4.795   6.003
 7471SOL    HW223313   6.121   4.651   6.054
 7472SOL     OW23314   4.121   5.082   3.114
 7472SOL    HW123315   4.218   5.073   3.140
 7472SOL    HW223316   4.113   5.152   3.043
 7473SOL     OW23317   0.546   3.305   5.133
 7473SOL    HW123318   0.489   3.249   5.194
 7473SOL    HW223319   0.587   3.246   5.063
 7474SOL     OW23320   3.496   1.881   2.870
 7474SOL    HW123321   3.473   1.815   2.942
 7474SOL    HW223322   3.495   1.973   2.908
 7475SOL     OW23323   4.268   1.465   6.310
 7475SOL    HW123324   4.353   1.514   6.332
 7475SOL    HW223325   4.277   1.370   6.340
 7476SOL     OW23326   2.800   0.382   4.731
 7476SOL    HW123327   2.800   0.405   4.828
 7476SOL    HW223328   2.706   0.367   4.700
 7477SOL     OW23329   4.968   3.941   3.834
 7477SOL    HW123330   5.047   3.983   3.878
 7477SOL    HW223331   4.902   4.012   3.810
 7478SOL     OW23332   1.507   4.348   1.622
 7478SOL    HW123333   1.525   4.256   1.590
 7478SOL    HW223334   1.478   4.405   1.545
 7479SOL     OW23335   4.053   0.748   5.636
 7479SOL    HW123336   4.101   0.836   5.636
 7479SOL    HW223337   4.091   0.690   5.564
 7480SOL     OW23338   6.380   5.306   0.839
 7480SOL    HW123339   6.400   5.221   0.887
 7480SOL    HW223340   6.291   5.340   0.867
 7481SOL     OW23341   6.488   6.194   0.470
 7481SOL    HW123342   6.502   6.121   0.537
 7481SOL    HW223343   6.551   6.182   0.394
 7482SOL     OW23344   5.347   6.824   3.808
 7482SOL    HW123345   5.332   6.835   3.906
 7482SOL    HW223346   5.445   6.829   3.788
 7483SOL     OW23347   3.094   0.493   6.028
 7483SOL    HW123348   3.140   0.571   5.985
 7483SOL    HW223349   3.022   0.460   5.968
 7484SOL     OW23350   3.820   0.454   2.240
 7484SOL    HW123351   3.820   0.442   2.141
 7484SOL    HW223352   3.806   0.365   2.284
 7485SOL     OW23353   1.308   7.006   5.268
 7485SOL    HW123354   1.366   0.060   5.280
 7485SOL    HW223355   1.270   7.006   5.175
 7486SOL     OW23356   1.096   1.517   4.954
 7486SOL    HW123357   1.086   1.500   5.052
 7486SOL    HW223358   1.014   1.564   4.920
 7487SOL     OW23359   3.714   5.631   3.100
 7487SOL    HW123360   3.624   5.600   3.067
 7487SOL    HW223361   3.711   5.643   3.199
 7488SOL     OW23362   3.612   0.944   5.696
 7488SOL    HW123363   3.706   0.955   5.662
 7488SOL    HW223364   3.564   1.031   5.690
 7489SOL     OW23365   6.762   4.141   3.391
 7489SOL    HW123366   6.695   4.108   3.458
 7489SOL    HW223367   6.784   4.236   3.410
 7490SOL     OW23368   5.797   1.182   3.334
 7490SOL    HW123369   5.757   1.191   3.242
 7490SOL    HW223370   5.852   1.098   3.338
 7491SOL     OW23371   0.245   6.533   6.998
 7491SOL    HW123372   0.178   6.574   6.936
 7491SOL    HW223373   0.202   6.519   0.061
 7492SOL     OW23374   2.102   2.338   3.595
 7492SOL    HW123375   2.197   2.341   3.565
 7492SOL    HW223376   2.088   2.401   3.671
 7493SOL     OW23377   5.221   4.929   6.842
 7493SOL    HW123378   5.162   4.856   6.876
 7493SOL    HW223379   5.309   4.891   6.814
 7494SOL     OW23380   5.285   1.984   1.099
 7494SOL    HW123381   5.274   1.886   1.116
 7494SOL    HW223382   5.357   1.998   1.031
 7495SOL     OW23383   0.649   1.615   2.383
 7495SOL    HW123384   0.611   1.700   2.420
 7495SOL    HW223385   0.649   1.619   2.283
 7496SOL     OW23386   0.295   5.552   6.075
 7496SOL    HW123387   0.387   5.544   6.037
 7496SOL    HW223388   0.286   5.640   6.122
 7497SOL     OW23389   1.755   5.017   2.444
 7497SOL    HW123390   1.832   4.971   2.400
 7497SOL    HW223391   1.766   5.010   2.544
 7498SOL     OW23392   5.565   2.056   4.406
 7498SOL    HW123393   5.546   1.958   4.412
 7498SOL    HW223394   5.510   2.105   4.474
 7499SOL     OW23395   4.017   4.823   3.575
 7499SOL    HW123396   4.070   4.795   3.495
 7499SOL    HW223397   3.929   4.860   3.546
 7500SOL     OW23398   4.751   4.109   1.801
 7500SOL    HW123399   4.794   4.093   1.890
 7500SOL    HW223400   4.669   4.164   1.814
 7501SOL     OW23401   0.391   4.757   3.823
 7501SOL    HW123402   0.397   4.657   3.829
 7501SOL    HW223403   0.404   4.785   3.728
 7502SOL     OW23404   1.768   2.127   4.612
 7502SOL    HW123405   1.744   2.138   4.709
 7502SOL    HW223406   1.759   2.031   4.586
 7503SOL     OW23407   2.049   2.800   6.626
 7503SOL    HW123408   2.134   2.750   6.642
 7503SOL    HW223409   2.012   2.776   6.536
 7504SOL     OW23410   3.812   5.422   3.745
 7504SOL    HW123411   3.839   5.436   3.650
 7504SOL    HW223412   3.720   5.459   3.759
 7505SOL     OW23413   1.750   1.524   4.174
 7505SOL    HW123414   1.655   1.550   4.187
 7505SOL    HW223415   1.781   1.555   4.084
 7506SOL     OW23416   3.246   1.277   3.593
 7506SOL    HW123417   3.231   1.367   3.553
 7506SOL    HW223418   3.243   1.207   3.521
 7507SOL     OW23419   1.856   6.243   5.860
 7507SOL    HW123420   1.788   6.246   5.787
 7507SOL    HW223421   1.814   6.272   5.946
 7508SOL     OW23422   4.868   5.533   4.137
 7508SOL    HW123423   4.853   5.626   4.168
 7508SOL    HW223424   4.895   5.476   4.215
 7509SOL     OW23425   4.111   3.718   6.439
 7509SOL    HW123426   4.197   3.769   6.432
 7509SOL    HW223427   4.077   3.698   6.347
 7510SOL     OW23428   3.241   3.754   4.903
 7510SOL    HW123429   3.292   3.708   4.976
 7510SOL    HW223430   3.286   3.737   4.816
 7511SOL     OW23431   1.151   0.508   2.232
 7511SOL    HW123432   1.097   0.448   2.173
 7511SOL    HW223433   1.204   0.452   2.296
 7512SOL     OW23434   2.379   3.034   1.707
 7512SOL    HW123435   2.310   3.018   1.636
 7512SOL    HW223436   2.433   2.951   1.720
 7513SOL     OW23437   1.210   3.396   6.394
 7513SOL    HW123438   1.146   3.433   6.326
 7513SOL    HW223439   1.169   3.401   6.485
 7514SOL     OW23440   2.997   5.651   3.351
 7514SOL    HW123441   3.000   5.736   3.404
 7514SOL    HW223442   3.077   5.645   3.292
 7515SOL     OW23443   0.310   5.125   2.904
 7515SOL    HW123444   0.347   5.052   2.961
 7515SOL    HW223445   0.381   5.159   2.842
 7516SOL     OW23446   1.095   1.834   2.067
 7516SOL    HW123447   1.099   1.765   2.140
 7516SOL    HW223448   1.135   1.797   1.983
 7517SOL     OW23449   0.500   5.097   0.978
 7517SOL    HW123450   0.497   5.190   0.940
 7517SOL    HW223451   0.412   5.076   1.020
 7518SOL     OW23452   5.039   5.014   3.795
 7518SOL    HW123453   5.108   4.960   3.746
 7518SOL    HW223454   4.951   5.006   3.748
 7519SOL     OW23455   1.243   6.957   3.974
 7519SOL    HW123456   1.228   6.861   3.999
 7519SOL    HW223457   1.157   6.998   3.946
 7520SOL     OW23458   2.507   0.096   3.926
 7520SOL    HW123459   2.575   0.137   3.987
 7520SOL    HW223460   2.475   0.164   3.861
 7521SOL     OW23461   4.458   3.285   5.433
 7521SOL    HW123462   4.377   3.230   5.410
 7521SOL    HW223463   4.450   3.317   5.527
 7522SOL     OW23464   1.769   0.112   2.717
 7522SOL    HW123465   1.753   0.129   2.620
 7522SOL    HW223466   1.694   0.151   2.771
 7523SOL     OW23467   6.292   6.924   6.610
 7523SOL    HW123468   6.288   7.002   6.671
 7523SOL    HW223469   6.291   6.839   6.663
 7524SOL     OW23470   6.194   0.931   4.499
 7524SOL    HW123471   6.271   0.932   4.564
 7524SOL    HW223472   6.151   1.021   4.498
 7525SOL     OW23473   1.014   6.296   0.601
 7525SOL    HW123474   1.056   6.361   0.538
 7525SOL    HW223475   0.948   6.239   0.551
 7526SOL     OW23476   3.805   3.448   4.776
 7526SOL    HW123477   3.842   3.416   4.689
 7526SOL    HW223478   3.705   3.446   4.773
 7527SOL     OW23479   4.852   5.845   2.112
 7527SOL    HW123480   4.929   5.785   2.138
 7527SOL    HW223481   4.807   5.878   2.195
 7528SOL     OW23482   5.775   3.461   6.386
 7528SOL    HW123483   5.742   3.367   6.392
 7528SOL    HW223484   5.757   3.509   6.472
 7529SOL     OW23485   3.025   0.447   4.581
 7529SOL    HW123486   2.977   0.491   4.505
 7529SOL    HW223487   2.958   0.408   4.644
 7530SOL     OW23488   6.779   2.892   3.664
 7530SOL    HW123489   6.758   2.971   3.722
 7530SOL    HW223490   6.695   2.839   3.649
 7531SOL     OW23491   2.639   1.593   4.641
 7531SOL    HW123492   2.590   1.570   4.557
 7531SOL    HW223493   2.706   1.522   4.660
 7532SOL     OW23494   4.732   4.665   2.296
 7532SOL    HW123495   4.638   4.634   2.285
 7532SOL    HW223496   4.791   4.587   2.317
 7533SOL     OW23497   3.678   0.632   4.750
 7533SOL    HW123498   3.673   0.535   4.728
 7533SOL    HW223499   3.590   0.663   4.786
 7534SOL     OW23500   5.421   6.778   4.089
 7534SOL    HW123501   5.509   6.808   4.127
 7534SOL    HW223502   5.358   6.757   4.164
 7535SOL     OW23503   3.548   4.388   0.403
 7535SOL    HW123504   3.555   4.333   0.320
 7535SOL    HW223505   3.476   4.457   0.391
 7536SOL     OW23506   3.781   6.201   4.553
 7536SOL    HW123507   3.684   6.207   4.579
 7536SOL    HW223508   3.814   6.109   4.574
 7537SOL     OW23509   2.292   4.452   5.568
 7537SOL    HW123510   2.309   4.542   5.608
 7537SOL    HW223511   2.330   4.449   5.476
 7538SOL     OW23512   3.187   3.069   3.210
 7538SOL    HW123513   3.205   3.050   3.307
 7538SOL    HW223514   3.127   3.149   3.203
 7539SOL     OW23515   1.734   2.472   4.867
 7539SOL    HW123516   1.809   2.532   4.841
 7539SOL    HW223517   1.653   2.526   4.889
 7540SOL     OW23518   2.009   0.865   6.933
 7540SOL    HW123519   2.002   0.872   0.006
 7540SOL    HW223520   1.974   0.949   6.891
 7541SOL     OW23521   6.848   2.436   5.693
 7541SOL    HW123522   6.907   2.415   5.615
 7541SOL    HW223523   6.759   2.467   5.661
 7542SOL     OW23524   1.771   0.165   5.838
 7542SOL    HW123525   1.761   0.069   5.867
 7542SOL    HW223526   1.681   0.209   5.840
 7543SOL     OW23527   3.799   2.985   6.832
 7543SOL    HW123528   3.811   3.036   6.748
 7543SOL    HW223529   3.716   3.015   6.879
 7544SOL     OW23530   1.159   2.263   2.325
 7544SOL    HW123531   1.165   2.362   2.338
 7544SOL    HW223532   1.066   2.232   2.346
 7545SOL     OW23533   5.083   0.636   3.185
 7545SOL    HW123534   5.175   0.662   3.215
 7545SOL    HW223535   5.054   0.697   3.112
 7546SOL     OW23536   5.104   6.766   6.004
 7546SOL    HW123537   5.023   6.765   6.064
 7546SOL    HW223538   5.187   6.766   6.060
 7547SOL     OW23539   2.929   6.926   0.279
 7547SOL    HW123540   3.019   6.927   0.323
 7547SOL    HW223541   2.892   6.833   0.281
 7548SOL     OW23542   1.114   3.299   1.080
 7548SOL    HW123543   1.092   3.226   1.144
 7548SOL    HW223544   1.096   3.269   0.987
 7549SOL     OW23545   5.803   2.262   1.983
 7549SOL    HW123546   5.754   2.191   2.035
 7549SOL    HW223547   5.737   2.324   1.941
 7550SOL     OW23548   1.206   4.867   1.433
 7550SOL    HW123549   1.210   4.815   1.518
 7550SOL    HW223550   1.217   4.964   1.454
 7551SOL     OW23551   5.177   4.308   6.715
 7551SOL    HW123552   5.111   4.233   6.702
 7551SOL    HW223553   5.269   4.274   6.698
 7552SOL     OW23554   3.379   5.585   4.007
 7552SOL    HW123555   3.378   5.634   3.919
 7552SOL    HW223556   3.375   5.486   3.990
 7553SOL     OW23557   4.404   3.733   5.667
 7553SOL    HW123558   4.465   3.810   5.683
 7553SOL    HW223559   4.380   3.729   5.569
 7554SOL     OW23560   6.804   1.376   0.774
 7554SOL    HW123561   6.791   1.319   0.692
 7554SOL    HW223562   6.892   1.423   0.767
 7555SOL     OW23563   1.829   5.944   5.618
 7555SOL    HW123564   1.844   5.877   5.545
 7555SOL    HW223565   1.733   5.972   5.617
 7556SOL     OW23566   7.024   3.347   3.757
 7556SOL    HW123567   6.972   3.351   3.842
 7556SOL    HW223568   6.981   3.281   3.695
 7557SOL     OW23569   3.684   3.147   0.671
 7557SOL    HW123570   3.728   3.164   0.759
 7557SOL    HW223571   3.746   3.097   0.611
 7558SOL     OW23572   1.632   2.388   3.037
 7558SOL    HW123573   1.597   2.462   2.980
 7558SOL    HW223574   1.675   2.318   2.978
 7559SOL     OW23575   1.216   4.250   0.349
 7559SOL    HW123576   1.124   4.227   0.318
 7559SOL    HW223577   1.283   4.211   0.286
 7560SOL     OW23578   4.450   0.346   5.256
 7560SOL    HW123579   4.367   0.310   5.299
 7560SOL    HW223580   4.435   0.441   5.227
 7561SOL     OW23581   0.018   3.226   6.916
 7561SOL    HW123582   6.987   3.145   6.926
 7561SOL    HW223583   0.112   3.197   6.900
 7562SOL     OW23584   4.587   6.602   5.110
 7562SOL    HW123585   4.627   6.670   5.049
 7562SOL    HW223586   4.645   6.591   5.190
 7563SOL     OW23587   2.708   1.481   2.864
 7563SOL    HW123588   2.745   1.530   2.785
 7563SOL    HW223589   2.654   1.403   2.832
 7564SOL     OW23590   4.659   6.332   3.853
 7564SOL    HW123591   4.670   6.233   3.855
 7564SOL    HW223592   4.736   6.375   3.900
 7565SOL     OW23593   4.808   5.090   6.928
 7565SOL    HW123594   4.837   5.126   6.839
 7565SOL    HW223595   4.715   5.054   6.920
 7566SOL     OW23596   1.909   6.055   5.025
 7566SOL    HW123597   1.895   6.102   4.938
 7566SOL    HW223598   1.833   5.992   5.041
 7567SOL     OW23599   2.402   3.028   0.457
 7567SOL    HW123600   2.344   2.948   0.474
 7567SOL    HW223601   2.475   3.004   0.394
 7568SOL     OW23602   4.505   4.689   2.605
 7568SOL    HW123603   4.472   4.696   2.511
 7568SOL    HW223604   4.500   4.593   2.635
 7569SOL     OW23605   3.920   6.988   1.016
 7569SOL    HW123606   3.957   0.033   0.958
 7569SOL    HW223607   3.962   6.994   1.107
 7570SOL     OW23608   5.855   5.412   4.663
 7570SOL    HW123609   5.880   5.316   4.648
 7570SOL    HW223610   5.856   5.432   4.761
 7571SOL     OW23611   5.413   4.097   1.579
 7571SOL    HW123612   5.338   4.152   1.616
 7571SOL    HW223613   5.399   4.086   1.480
 7572SOL     OW23614   0.731   1.010   3.638
 7572SOL    HW123615   0.796   0.957   3.694
 7572SOL    HW223616   0.764   1.104   3.629
 7573SOL     OW23617   3.082   5.551   5.308
 7573SOL    HW123618   3.008   5.483   5.303
 7573SOL    HW223619   3.144   5.539   5.231
 7574SOL     OW23620   5.125   6.308   2.388
 7574SOL    HW123621   5.037   6.312   2.341
 7574SOL    HW223622   5.110   6.307   2.487
 7575SOL     OW23623   4.877   2.870   4.595
 7575SOL    HW123624   4.840   2.920   4.673
 7575SOL    HW223625   4.958   2.819   4.623
 7576SOL     OW23626   6.689   3.499   1.917
 7576SOL    HW123627   6.624   3.450   1.976
 7576SOL    HW223628   6.761   3.437   1.889
 7577SOL     OW23629   4.675   0.822   4.948
 7577SOL    HW123630   4.743   0.751   4.928
 7577SOL    HW223631   4.651   0.869   4.863
 7578SOL     OW23632   2.951   5.132   4.435
 7578SOL    HW123633   2.868   5.156   4.484
 7578SOL    HW223634   3.031   5.165   4.486
 7579SOL     OW23635   4.702   2.576   3.815
 7579SOL    HW123636   4.641   2.542   3.887
 7579SOL    HW223637   4.710   2.676   3.822
 7580SOL     OW23638   2.037   3.609   2.464
 7580SOL    HW123639   2.078   3.616   2.374
 7580SOL    HW223640   2.041   3.514   2.496
 7581SOL     OW23641   5.558   0.838   1.429
 7581SOL    HW123642   5.629   0.908   1.438
 7581SOL    HW223643   5.551   0.808   1.334
 7582SOL     OW23644   3.141   1.861   1.062
 7582SOL    HW123645   3.047   1.854   1.096
 7582SOL    HW223646   3.140   1.855   0.963
 7583SOL     OW23647   6.683   3.796   2.702
 7583SOL    HW123648   6.725   3.887   2.704
 7583SOL    HW223649   6.684   3.761   2.608
 7584SOL     OW23650   1.853   1.825   1.119
 7584SOL    HW123651   1.794   1.809   1.041
 7584SOL    HW223652   1.926   1.756   1.121
 7585SOL     OW23653   1.791   5.278   6.355
 7585SOL    HW123654   1.889   5.266   6.369
 7585SOL    HW223655   1.745   5.278   6.444
 7586SOL     OW23656   2.468   0.999   2.179
 7586SOL    HW123657   2.412   0.954   2.248
 7586SOL    HW223658   2.436   1.093   2.166
 7587SOL     OW23659   1.971   0.603   5.763
 7587SOL    HW123660   2.034   0.635   5.692
 7587SOL    HW223661   1.881   0.646   5.750
 7588SOL     OW23662   1.101   4.090   1.590
 7588SOL    HW123663   1.184   4.122   1.636
 7588SOL    HW223664   1.023   4.096   1.653
 7589SOL     OW23665   5.409   6.352   6.556
 7589SOL    HW123666   5.389   6.359   6.458
 7589SOL    HW223667   5.498   6.308   6.568
 7590SOL     OW23668   1.613   0.301   6.712
 7590SOL    HW123669   1.529   0.279   6.662
 7590SOL    HW223670   1.614   0.249   6.798
 7591SOL     OW23671   6.628   5.528   0.001
 7591SOL    HW123672   6.718   5.566   0.021
 7591SOL    HW223673   6.619   5.514   6.929
 7592SOL     OW23674   4.829   5.345   6.050
 7592SOL    HW123675   4.762   5.414   6.075
 7592SOL    HW223676   4.879   5.316   6.131
 7593SOL     OW23677   6.369   3.921   0.618
 7593SOL    HW123678   6.351   3.991   0.686
 7593SOL    HW223679   6.314   3.840   0.638
 7594SOL     OW23680   0.833   6.492   3.427
 7594SOL    HW123681   0.880   6.541   3.353
 7594SOL    HW223682   0.784   6.557   3.484
 7595SOL     OW23683   6.605   2.126   0.128
 7595SOL    HW123684   6.670   2.077   0.070
 7595SOL    HW223685   6.539   2.061   0.166
 7596SOL     OW23686   4.844   4.490   1.759
 7596SOL    HW123687   4.909   4.420   1.790
 7596SOL    HW223688   4.778   4.508   1.833
 7597SOL     OW23689   2.712   5.880   1.738
 7597SOL    HW123690   2.617   5.912   1.737
 7597SOL    HW223691   2.773   5.959   1.742
 7598SOL     OW23692   6.733   0.533   2.747
 7598SOL    HW123693   6.658   0.471   2.770
 7598SOL    HW223694   6.813   0.511   2.803
 7599SOL     OW23695   6.401   2.856   2.045
 7599SOL    HW123696   6.456   2.772   2.047
 7599SOL    HW223697   6.361   2.867   1.953
 7600SOL     OW23698   2.215   1.720   2.077
 7600SOL    HW123699   2.132   1.717   2.021
 7600SOL    HW223700   2.192   1.743   2.171
 7601SOL     OW23701   1.674   0.390   5.157
 7601SOL    HW123702   1.673   0.290   5.154
 7601SOL    HW223703   1.588   0.425   5.120
 7602SOL     OW23704   2.210   3.313   5.207
 7602SOL    HW123705   2.307   3.316   5.232
 7602SOL    HW223706   2.177   3.218   5.212
 7603SOL     OW23707   0.213   1.115   1.942
 7603SOL    HW123708   0.230   1.077   2.033
 7603SOL    HW223709   0.122   1.158   1.941
 7604SOL     OW23710   4.684   5.966   6.619
 7604SOL    HW123711   4.671   5.966   6.718
 7604SOL    HW223712   4.668   6.058   6.584
 7605SOL     OW23713   5.649   3.844   5.878
 7605SOL    HW123714   5.568   3.831   5.936
 7605SOL    HW223715   5.634   3.801   5.790
 7606SOL     OW23716   5.796   1.944   2.796
 7606SOL    HW123717   5.766   1.849   2.802
 7606SOL    HW223718   5.809   1.981   2.888
 7607SOL     OW23719   5.105   0.103   6.025
 7607SOL    HW123720   5.131   0.046   6.103
 7607SOL    HW223721   5.188   0.135   5.979
 7608SOL     OW23722   3.712   2.967   3.689
 7608SOL    HW123723   3.713   3.065   3.705
 7608SOL    HW223724   3.797   2.940   3.643
 7609SOL     OW23725   1.716   2.738   4.583
 7609SOL    HW123726   1.658   2.816   4.608
 7609SOL    HW223727   1.782   2.721   4.656
 7610SOL     OW23728   5.584   1.159   1.807
 7610SOL    HW123729   5.575   1.189   1.712
 7610SOL    HW223730   5.658   1.092   1.814
 7611SOL     OW23731   1.827   1.749   1.574
 7611SOL    HW123732   1.878   1.829   1.605
 7611SOL    HW223733   1.876   1.666   1.599
 7612SOL     OW23734   4.277   1.633   2.602
 7612SOL    HW123735   4.196   1.673   2.645
 7612SOL    HW223736   4.309   1.693   2.528
 7613SOL     OW23737   5.450   1.049   3.140
 7613SOL    HW123738   5.362   1.043   3.094
 7613SOL    HW223739   5.437   1.045   3.239
 7614SOL     OW23740   3.925   1.113   0.180
 7614SOL    HW123741   3.879   1.153   0.100
 7614SOL    HW223742   3.869   1.128   0.261
 7615SOL     OW23743   3.805   4.577   5.754
 7615SOL    HW123744   3.760   4.492   5.782
 7615SOL    HW223745   3.879   4.599   5.818
 7616SOL     OW23746   6.824   4.738   3.602
 7616SOL    HW123747   6.783   4.797   3.532
 7616SOL    HW223748   6.923   4.754   3.605
 7617SOL     OW23749   3.394   6.138   2.348
 7617SOL    HW123750   3.338   6.057   2.370
 7617SOL    HW223751   3.487   6.124   2.383
 7618SOL     OW23752   1.787   2.432   1.105
 7618SOL    HW123753   1.800   2.343   1.149
 7618SOL    HW223754   1.690   2.456   1.108
 7619SOL     OW23755   5.709   3.300   5.750
 7619SOL    HW123756   5.698   3.391   5.790
 7619SOL    HW223757   5.694   3.231   5.820
 7620SOL     OW23758   2.868   6.112   1.617
 7620SOL    HW123759   2.904   6.180   1.681
 7620SOL    HW223760   2.779   6.142   1.583
 7621SOL     OW23761   2.461   1.885   1.230
 7621SOL    HW123762   2.530   1.945   1.270
 7621SOL    HW223763   2.475   1.878   1.132
 7622SOL     OW23764   5.303   1.710   1.106
 7622SOL    HW123765   5.371   1.638   1.092
 7622SOL    HW223766   5.229   1.675   1.162
 7623SOL     OW23767   5.476   6.993   5.139
 7623SOL    HW123768   5.489   6.945   5.053
 7623SOL    HW223769   5.553   0.027   5.155
 7624SOL     OW23770   6.663   0.853   4.457
 7624SOL    HW123771   6.664   0.794   4.377
 7624SOL    HW223772   6.756   0.878   4.481
 7625SOL     OW23773   4.233   6.399   0.490
 7625SOL    HW123774   4.266   6.491   0.512
 7625SOL    HW223775   4.187   6.360   0.569
 7626SOL     OW23776   2.441   4.506   4.624
 7626SOL    HW123777   2.408   4.418   4.591
 7626SOL    HW223778   2.483   4.494   4.714
 7627SOL     OW23779   0.131   1.592   0.268
 7627SOL    HW123780   0.058   1.561   0.329
 7627SOL    HW223781   0.115   1.689   0.245
 7628SOL     OW23782   4.172   1.836   1.025
 7628SOL    HW123783   4.095   1.787   0.983
 7628SOL    HW223784   4.210   1.781   1.100
 7629SOL     OW23785   5.995   5.456   3.145
 7629SOL    HW123786   6.069   5.517   3.176
 7629SOL    HW223787   5.926   5.448   3.217
 7630SOL     OW23788   6.755   1.288   2.361
 7630SOL    HW123789   6.832   1.232   2.391
 7630SOL    HW223790   6.696   1.307   2.440
 7631SOL     OW23791   1.311   1.453   3.625
 7631SOL    HW123792   1.406   1.449   3.594
 7631SOL    HW223793   1.291   1.544   3.661
 7632SOL     OW23794   4.598   0.977   6.187
 7632SOL    HW123795   4.695   0.998   6.201
 7632SOL    HW223796   4.554   1.055   6.143
 7633SOL     OW23797   5.500   4.928   6.601
 7633SOL    HW123798   5.488   5.027   6.594
 7633SOL    HW223799   5.480   4.898   6.694
 7634SOL     OW23800   0.731   2.101   1.897
 7634SOL    HW123801   0.646   2.152   1.906
 7634SOL    HW223802   0.745   2.076   1.801
 7635SOL     OW23803   2.640   5.119   6.124
 7635SOL    HW123804   2.580   5.192   6.092
 7635SOL    HW223805   2.731   5.155   6.142
 7636SOL     OW23806   1.859   0.469   3.589
 7636SOL    HW123807   1.761   0.463   3.572
 7636SOL    HW223808   1.908   0.414   3.522
 7637SOL     OW23809   2.250   6.300   4.028
 7637SOL    HW123810   2.346   6.277   4.044
 7637SOL    HW223811   2.204   6.316   4.116
 7638SOL     OW23812   4.274   4.329   1.525
 7638SOL    HW123813   4.321   4.247   1.558
 7638SOL    HW223814   4.334   4.409   1.537
 7639SOL     OW23815   6.986   2.698   4.469
 7639SOL    HW123816   6.972   2.759   4.391
 7639SOL    HW223817   6.953   2.606   4.446
 7640SOL     OW23818   2.262   3.162   5.858
 7640SOL    HW123819   2.356   3.180   5.884
 7640SOL    HW223820   2.235   3.223   5.784
 7641SOL     OW23821   6.328   2.813   3.442
 7641SOL    HW123822   6.276   2.804   3.357
 7641SOL    HW223823   6.282   2.761   3.514
 7642SOL     OW23824   2.276   1.219   2.991
 7642SOL    HW123825   2.364   1.172   2.991
 7642SOL    HW223826   2.276   1.292   3.060
 7643SOL     OW23827   5.621   2.948   3.211
 7643SOL    HW123828   5.655   3.043   3.215
 7643SOL    HW223829   5.590   2.928   3.118
 7644SOL     OW23830   6.525   3.933   3.770
 7644SOL    HW123831   6.462   3.875   3.719
 7644SOL    HW223832   6.477   4.015   3.802
 7645SOL     OW23833   4.347   2.974   0.306
 7645SOL    HW123834   4.323   2.902   0.372
 7645SOL    HW223835   4.264   3.008   0.262
 7646SOL     OW23836   0.630   1.319   1.368
 7646SOL    HW123837   0.570   1.257   1.317
 7646SOL    HW223838   0.698   1.265   1.419
 7647SOL     OW23839   2.260   5.220   0.916
 7647SOL    HW123840   2.326   5.153   0.884
 7647SOL    HW223841   2.305   5.309   0.926
 7648SOL     OW23842   3.795   0.373   3.924
 7648SOL    HW123843   3.881   0.378   3.973
 7648SOL    HW223844   3.797   0.436   3.846
 7649SOL     OW23845   2.859   1.449   2.003
 7649SOL    HW123846   2.878   1.538   2.046
 7649SOL    HW223847   2.885   1.453   1.907
 7650SOL     OW23848   6.171   4.275   1.178
 7650SOL    HW123849   6.157   4.319   1.089
 7650SOL    HW223850   6.091   4.290   1.235
 7651SOL     OW23851   4.160   2.119   6.473
 7651SOL    HW123852   4.160   2.024   6.442
 7651SOL    HW223853   4.069   2.159   6.457
 7652SOL     OW23854   1.622   3.310   3.120
 7652SOL    HW123855   1.527   3.289   3.095
 7652SOL    HW223856   1.652   3.248   3.192
 7653SOL     OW23857   3.803   1.777   1.476
 7653SOL    HW123858   3.862   1.742   1.404
 7653SOL    HW223859   3.832   1.869   1.503
 7654SOL     OW23860   4.902   3.546   4.127
 7654SOL    HW123861   4.889   3.632   4.177
 7654SOL    HW223862   4.893   3.563   4.029
 7655SOL     OW23863   4.658   6.231   5.370
 7655SOL    HW123864   4.680   6.146   5.322
 7655SOL    HW223865   4.643   6.211   5.467
 7656SOL     OW23866   1.106   6.449   4.407
 7656SOL    HW123867   1.064   6.395   4.335
 7656SOL    HW223868   1.204   6.455   4.391
 7657SOL     OW23869   4.535   1.632   4.431
 7657SOL    HW123870   4.452   1.581   4.411
 7657SOL    HW223871   4.519   1.730   4.416
 7658SOL     OW23872   4.085   0.083   6.468
 7658SOL    HW123873   4.177   0.122   6.471
 7658SOL    HW223874   4.045   0.100   6.378
 7659SOL     OW23875   5.477   6.798   0.326
 7659SOL    HW123876   5.445   6.710   0.291
 7659SOL    HW223877   5.571   6.789   0.359
 7660SOL     OW23878   6.129   4.450   4.527
 7660SOL    HW123879   6.075   4.481   4.448
 7660SOL    HW223880   6.078   4.469   4.611
 7661SOL     OW23881   5.485   3.327   4.039
 7661SOL    HW123882   5.561   3.276   4.080
 7661SOL    HW223883   5.439   3.270   3.972
 7662SOL     OW23884   6.585   5.600   2.799
 7662SOL    HW123885   6.516   5.602   2.871
 7662SOL    HW223886   6.582   5.685   2.747
 7663SOL     OW23887   6.249   5.589   6.956
 7663SOL    HW123888   6.165   5.550   6.995
 7663SOL    HW223889   6.265   5.679   6.994
 7664SOL     OW23890   2.732   5.864   4.963
 7664SOL    HW123891   2.790   5.803   4.909
 7664SOL    HW223892   2.658   5.900   4.906
 7665SOL     OW23893   2.419   5.482   4.100
 7665SOL    HW123894   2.481   5.470   4.022
 7665SOL    HW223895   2.354   5.554   4.080
 7666SOL     OW23896   2.047   1.193   0.761
 7666SOL    HW123897   2.127   1.135   0.753
 7666SOL    HW223898   2.076   1.288   0.772
 7667SOL     OW23899   4.428   6.202   6.595
 7667SOL    HW123900   4.439   6.248   6.683
 7667SOL    HW223901   4.507   6.220   6.538
 7668SOL     OW23902   2.567   4.046   1.680
 7668SOL    HW123903   2.547   4.144   1.683
 7668SOL    HW223904   2.655   4.029   1.725
 7669SOL     OW23905   4.599   6.437   4.853
 7669SOL    HW123906   4.564   6.504   4.918
 7669SOL    HW223907   4.526   6.413   4.788
 7670SOL     OW23908   1.682   5.340   0.574
 7670SOL    HW123909   1.729   5.356   0.487
 7670SOL    HW223910   1.653   5.244   0.579
 7671SOL     OW23911   5.544   2.533   4.727
 7671SOL    HW123912   5.631   2.487   4.714
 7671SOL    HW223913   5.511   2.517   4.821
 7672SOL     OW23914   6.244   0.326   2.328
 7672SOL    HW123915   6.233   0.412   2.278
 7672SOL    HW223916   6.338   0.293   2.317
 7673SOL     OW23917   6.899   4.305   6.900
 7673SOL    HW123918   6.972   4.237   6.894
 7673SOL    HW223919   6.821   4.266   6.948
 7674SOL     OW23920   6.638   1.284   5.307
 7674SOL    HW123921   6.575   1.287   5.384
 7674SOL    HW223922   6.587   1.260   5.224
 7675SOL     OW23923   4.762   7.026   3.143
 7675SOL    HW123924   4.854   0.036   3.153
 7675SOL    HW223925   4.713   0.007   3.230
 7676SOL     OW23926   1.313   0.324   1.379
 7676SOL    HW123927   1.249   0.289   1.448
 7676SOL    HW223928   1.328   0.422   1.395
 7677SOL     OW23929   1.675   2.267   2.617
 7677SOL    HW123930   1.735   2.194   2.649
 7677SOL    HW223931   1.580   2.246   2.642
 7678SOL     OW23932   5.239   6.462   6.131
 7678SOL    HW123933   5.236   6.462   6.031
 7678SOL    HW223934   5.254   6.556   6.164
 7679SOL     OW23935   1.442   5.123   5.505
 7679SOL    HW123936   1.447   5.037   5.454
 7679SOL    HW223937   1.527   5.174   5.491
 7680SOL     OW23938   4.759   1.701   6.586
 7680SOL    HW123939   4.750   1.714   6.487
 7680SOL    HW223940   4.850   1.729   6.615
 7681SOL     OW23941   2.295   2.193   6.162
 7681SOL    HW123942   2.372   2.238   6.118
 7681SOL    HW223943   2.312   2.095   6.166
 7682SOL     OW23944   2.575   0.128   1.298
 7682SOL    HW123945   2.546   0.222   1.314
 7682SOL    HW223946   2.623   0.093   1.378
 7683SOL     OW23947   6.086   2.010   2.752
 7683SOL    HW123948   6.159   1.978   2.691
 7683SOL    HW223949   6.018   1.938   2.763
 7684SOL     OW23950   4.395   2.100   6.195
 7684SOL    HW123951   4.353   2.140   6.114
 7684SOL    HW223952   4.361   2.007   6.207
 7685SOL     OW23953   4.361   3.531   0.716
 7685SOL    HW123954   4.381   3.595   0.790
 7685SOL    HW223955   4.424   3.453   0.722
 7686SOL     OW23956   3.332   0.829   3.965
 7686SOL    HW123957   3.311   0.791   4.055
 7686SOL    HW223958   3.250   0.874   3.929
 7687SOL     OW23959   3.989   4.626   5.940
 7687SOL    HW123960   4.016   4.570   6.018
 7687SOL    HW223961   4.024   4.719   5.952
 7688SOL     OW23962   6.782   0.158   3.438
 7688SOL    HW123963   6.754   0.184   3.531
 7688SOL    HW223964   6.878   0.130   3.438
 7689SOL     OW23965   3.751   0.200   4.834
 7689SOL    HW123966   3.826   0.237   4.889
 7689SOL    HW223967   3.782   0.116   4.788
 7690SOL     OW23968   0.772   5.372   2.870
 7690SOL    HW123969   0.827   5.294   2.843
 7690SOL    HW223970   0.785   5.391   2.967
 7691SOL     OW23971   5.681   4.267   5.579
 7691SOL    HW123972   5.667   4.176   5.617
 7691SOL    HW223973   5.708   4.330   5.652
 7692SOL     OW23974   2.005   6.327   1.496
 7692SOL    HW123975   1.930   6.348   1.433
 7692SOL    HW223976   1.979   6.251   1.555
 7693SOL     OW23977   5.199   0.977   0.552
 7693SOL    HW123978   5.134   1.043   0.590
 7693SOL    HW223979   5.291   0.998   0.585
 7694SOL     OW23980   6.408   4.660   4.278
 7694SOL    HW123981   6.320   4.688   4.242
 7694SOL    HW223982   6.456   4.739   4.318
 7695SOL     OW23983   3.754   0.211   5.986
 7695SOL    HW123984   3.693   0.190   6.062
 7695SOL    HW223985   3.825   0.275   6.017
 7696SOL     OW23986   0.915   3.973   5.824
 7696SOL    HW123987   1.010   3.957   5.799
 7696SOL    HW223988   0.870   3.885   5.841
 7697SOL     OW23989   4.024   1.727   1.914
 7697SOL    HW123990   4.123   1.741   1.917
 7697SOL    HW223991   3.978   1.815   1.919
 7698SOL     OW23992   0.374   3.232   5.872
 7698SOL    HW123993   0.425   3.291   5.808
 7698SOL    HW223994   0.371   3.139   5.836
 7699SOL     OW23995   2.577   4.455   0.451
 7699SOL    HW123996   2.514   4.440   0.376
 7699SOL    HW223997   2.671   4.439   0.420
 7700SOL     OW23998   5.724   6.780   5.077
 7700SOL    HW123999   5.625   6.774   5.061
 7700SOL    HW224000   5.742   6.850   5.146
 7701SOL     OW24001   6.136   2.563   5.175
 7701SOL    HW124002   6.201   2.507   5.227
 7701SOL    HW224003   6.141   2.658   5.207
 7702SOL     OW24004   2.695   6.011   5.563
 7702SOL    HW124005   2.596   6.007   5.578
 7702SOL    HW224006   2.730   5.919   5.547
 7703SOL     OW24007   0.893   1.941   5.822
 7703SOL    HW124008   0.902   1.901   5.731
 7703SOL    HW224009   0.972   1.917   5.878
 7704SOL     OW24010   3.111   4.284   0.661
 7704SOL    HW124011   3.015   4.272   0.688
 7704SOL    HW224012   3.157   4.195   0.661
 7705SOL     OW24013   3.748   4.645   5.348
 7705SOL    HW124014   3.846   4.628   5.356
 7705SOL    HW224015   3.710   4.589   5.274
 7706SOL     OW24016   6.392   0.328   4.864
 7706SOL    HW124017   6.332   0.249   4.852
 7706SOL    HW224018   6.425   0.330   4.959
 7707SOL     OW24019   0.107   5.484   6.281
 7707SOL    HW124020   0.166   5.470   6.360
 7707SOL    HW224021   0.163   5.505   6.201
 7708SOL     OW24022   5.047   0.389   4.563
 7708SOL    HW124023   5.101   0.320   4.611
 7708SOL    HW224024   5.052   0.372   4.464
 7709SOL     OW24025   3.627   2.063   1.730
 7709SOL    HW124026   3.650   2.133   1.797
 7709SOL    HW224027   3.652   2.096   1.638
 7710SOL     OW24028   2.683   2.493   6.180
 7710SOL    HW124029   2.669   2.438   6.098
 7710SOL    HW224030   2.734   2.439   6.248
 7711SOL     OW24031   5.335   6.603   5.406
 7711SOL    HW124032   5.248   6.559   5.429
 7711SOL    HW224033   5.408   6.535   5.412
 7712SOL     OW24034   5.243   5.114   0.742
 7712SOL    HW124035   5.143   5.118   0.753
 7712SOL    HW224036   5.264   5.077   0.652
 7713SOL     OW24037   1.089   5.094   6.331
 7713SOL    HW124038   1.060   5.016   6.275
 7713SOL    HW224039   1.051   5.085   6.423
 7714SOL     OW24040   5.806   4.005   4.248
 7714SOL    HW124041   5.855   4.050   4.323
 7714SOL    HW224042   5.759   3.924   4.283
 7715SOL     OW24043   4.628   2.201   1.451
 7715SOL    HW124044   4.666   2.118   1.410
 7715SOL    HW224045   4.529   2.192   1.461
 7716SOL     OW24046   4.725   2.858   3.860
 7716SOL    HW124047   4.754   2.939   3.810
 7716SOL    HW224048   4.793   2.836   3.930
 7717SOL     OW24049   3.227   0.459   6.673
 7717SOL    HW124050   3.321   0.426   6.669
 7717SOL    HW224051   3.209   0.518   6.594
 7718SOL     OW24052   3.167   6.213   4.008
 7718SOL    HW124053   3.086   6.243   4.059
 7718SOL    HW224054   3.176   6.114   4.015
 7719SOL     OW24055   5.916   2.687   5.381
 7719SOL    HW124056   5.972   2.721   5.456
 7719SOL    HW224057   5.957   2.603   5.344
 7720SOL     OW24058   5.550   6.130   1.642
 7720SOL    HW124059   5.542   6.035   1.671
 7720SOL    HW224060   5.459   6.172   1.642
 7721SOL     OW24061   1.476   4.389   3.076
 7721SOL    HW124062   1.413   4.355   3.007
 7721SOL    HW224063   1.478   4.489   3.073
 7722SOL     OW24064   0.961   6.349   4.193
 7722SOL    HW124065   1.033   6.321   4.129
 7722SOL    HW224066   0.884   6.287   4.185
 7723SOL     OW24067   6.480   2.569   0.673
 7723SOL    HW124068   6.395   2.579   0.621
 7723SOL    HW224069   6.462   2.583   0.770
 7724SOL     OW24070   1.778   5.447   0.318
 7724SOL    HW124071   1.683   5.477   0.306
 7724SOL    HW224072   1.839   5.527   0.316
 7725SOL     OW24073   5.353   3.860   4.622
 7725SOL    HW124074   5.397   3.780   4.581
 7725SOL    HW224075   5.331   3.926   4.550
 7726SOL     OW24076   5.785   4.038   3.649
 7726SOL    HW124077   5.688   4.038   3.672
 7726SOL    HW224078   5.809   3.949   3.611
 7727SOL     OW24079   6.147   3.149   1.888
 7727SOL    HW124080   6.157   3.080   1.960
 7727SOL    HW224081   6.183   3.236   1.919
 7728SOL     OW24082   2.233   2.179   2.318
 7728SOL    HW124083   2.208   2.261   2.266
 7728SOL    HW224084   2.153   2.143   2.365
 7729SOL     OW24085   5.240   2.883   0.727
 7729SOL    HW124086   5.316   2.827   0.760
 7729SOL    HW224087   5.158   2.864   0.781
 7730SOL     OW24088   4.857   0.325   2.035
 7730SOL    HW124089   4.799   0.358   1.960
 7730SOL    HW224090   4.899   0.238   2.009
 7731SOL     OW24091   6.931   1.232   5.065
 7731SOL    HW124092   6.943   1.194   5.157
 7731SOL    HW224093   6.853   1.295   5.065
 7732SOL     OW24094   4.433   4.938   0.649
 7732SOL    HW124095   4.528   4.906   0.648
 7732SOL    HW224096   4.391   4.915   0.736
 7733SOL     OW24097   2.982   6.458   0.944
 7733SOL    HW124098   3.017   6.435   0.853
 7733SOL    HW224099   2.975   6.374   0.999
 7734SOL     OW24100   1.583   2.020   3.095
 7734SOL    HW124101   1.655   2.001   3.162
 7734SOL    HW224102   1.496   1.984   3.128
 7735SOL     OW24103   5.299   3.826   0.732
 7735SOL    HW124104   5.286   3.867   0.822
 7735SOL    HW224105   5.248   3.740   0.727
 7736SOL     OW24106   5.751   4.470   6.219
 7736SOL    HW124107   5.751   4.379   6.179
 7736SOL    HW224108   5.761   4.463   6.319
 7737SOL     OW24109   4.926   2.128   1.085
 7737SOL    HW124110   4.913   2.101   0.990
 7737SOL    HW224111   4.968   2.219   1.088
 7738SOL     OW24112   2.195   4.540   0.437
 7738SOL    HW124113   2.265   4.544   0.366
 7738SOL    HW224114   2.221   4.472   0.506
 7739SOL     OW24115   5.786   3.301   2.040
 7739SOL    HW124116   5.820   3.358   1.966
 7739SOL    HW224117   5.782   3.354   2.125
 7740SOL     OW24118   0.466   6.533   3.728
 7740SOL    HW124119   0.450   6.524   3.629
 7740SOL    HW224120   0.454   6.444   3.772
 7741SOL     OW24121   3.196   5.911   4.559
 7741SOL    HW124122   3.123   5.843   4.558
 7741SOL    HW224123   3.172   5.987   4.499
 7742SOL     OW24124   6.703   1.159   4.283
 7742SOL    HW124125   6.761   1.202   4.214
 7742SOL    HW224126   6.757   1.093   4.336
 7743SOL     OW24127   4.860   2.984   2.876
 7743SOL    HW124128   4.871   3.067   2.822
 7743SOL    HW224129   4.869   3.006   2.973
 7744SOL     OW24130   0.719   0.149   5.066
 7744SOL    HW124131   0.646   0.087   5.036
 7744SOL    HW224132   0.801   0.095   5.087
 7745SOL     OW24133   4.865   3.394   5.220
 7745SOL    HW124134   4.799   3.467   5.207
 7745SOL    HW224135   4.850   3.350   5.309
 7746SOL     OW24136   1.706   0.745   0.008
 7746SOL    HW124137   1.772   0.803   6.988
 7746SOL    HW224138   1.716   0.651   7.003
 7747SOL     OW24139   5.338   5.371   1.514
 7747SOL    HW124140   5.331   5.272   1.510
 7747SOL    HW224141   5.378   5.405   1.429
 7748SOL     OW24142   2.703   3.888   6.603
 7748SOL    HW124143   2.624   3.932   6.558
 7748SOL    HW224144   2.674   3.850   6.691
 7749SOL     OW24145   5.613   4.215   6.302
 7749SOL    HW124146   5.568   4.228   6.390
 7749SOL    HW224147   5.546   4.191   6.232
 7750SOL     OW24148   5.711   5.094   2.848
 7750SOL    HW124149   5.701   5.162   2.776
 7750SOL    HW224150   5.701   5.002   2.810
 7751SOL     OW24151   0.296   2.400   1.371
 7751SOL    HW124152   0.384   2.420   1.415
 7751SOL    HW224153   0.286   2.458   1.290
 7752SOL     OW24154   4.226   1.245   3.082
 7752SOL    HW124155   4.276   1.291   3.155
 7752SOL    HW224156   4.142   1.294   3.062
 7753SOL     OW24157   3.452   1.861   5.204
 7753SOL    HW124158   3.521   1.923   5.243
 7753SOL    HW224159   3.414   1.902   5.121
 7754SOL     OW24160   5.552   5.506   1.956
 7754SOL    HW124161   5.640   5.494   2.002
 7754SOL    HW224162   5.487   5.548   2.019
 7755SOL     OW24163   0.489   4.980   4.734
 7755SOL    HW124164   0.542   4.979   4.650
 7755SOL    HW224165   0.433   4.897   4.740
 7756SOL     OW24166   2.513   4.915   2.272
 7756SOL    HW124167   2.569   4.993   2.242
 7756SOL    HW224168   2.530   4.837   2.212
 7757SOL     OW24169   6.929   4.256   1.691
 7757SOL    HW124170   7.007   4.208   1.650
 7757SOL    HW224171   6.852   4.254   1.627
 7758SOL     OW24172   1.263   2.434   4.683
 7758SOL    HW124173   1.264   2.339   4.717
 7758SOL    HW224174   1.317   2.491   4.745
 7759SOL     OW24175   3.591   1.222   1.769
 7759SOL    HW124176   3.665   1.165   1.805
 7759SOL    HW224177   3.548   1.176   1.691
 7760SOL     OW24178   4.932   3.131   0.352
 7760SOL    HW124179   5.006   3.118   0.418
 7760SOL    HW224180   4.910   3.229   0.345
 7761SOL     OW24181   5.031   4.957   3.026
 7761SOL    HW124182   5.094   4.895   2.980
 7761SOL    HW224183   5.013   5.036   2.966
 7762SOL     OW24184   5.162   1.828   1.564
 7762SOL    HW124185   5.253   1.850   1.529
 7762SOL    HW224186   5.094   1.888   1.521
 7763SOL     OW24187   2.361   0.093   4.228
 7763SOL    HW124188   2.436   0.096   4.295
 7763SOL    HW224189   2.386   0.033   4.152
 7764SOL     OW24190   3.220   4.156   5.913
 7764SOL    HW124191   3.192   4.247   5.884
 7764SOL    HW224192   3.320   4.152   5.919
 7765SOL     OW24193   5.648   3.978   4.538
 7765SOL    HW124194   5.677   4.050   4.602
 7765SOL    HW224195   5.573   4.012   4.482
 7766SOL     OW24196   6.662   3.014   6.501
 7766SOL    HW124197   6.734   2.947   6.516
 7766SOL    HW224198   6.577   2.981   6.541
 7767SOL     OW24199   4.487   0.448   3.655
 7767SOL    HW124200   4.443   0.359   3.650
 7767SOL    HW224201   4.501   0.473   3.751
 7768SOL     OW24202   3.844   5.613   4.285
 7768SOL    HW124203   3.804   5.653   4.202
 7768SOL    HW224204   3.909   5.541   4.259
 7769SOL     OW24205   3.634   2.879   6.206
 7769SOL    HW124206   3.613   2.964   6.159
 7769SOL    HW224207   3.728   2.883   6.242
 7770SOL     OW24208   1.205   3.231   4.020
 7770SOL    HW124209   1.206   3.229   4.120
 7770SOL    HW224210   1.138   3.165   3.986
 7771SOL     OW24211   1.552   4.002   6.637
 7771SOL    HW124212   1.593   3.929   6.582
 7771SOL    HW224213   1.532   4.081   6.579
 7772SOL     OW24214   5.579   6.126   1.960
 7772SOL    HW124215   5.554   6.084   2.047
 7772SOL    HW224216   5.526   6.209   1.945
 7773SOL     OW24217   2.223   6.309   6.972
 7773SOL    HW124218   2.254   6.404   6.970
 7773SOL    HW224219   2.123   6.307   6.973
 7774SOL     OW24220   5.057   1.462   2.825
 7774SOL    HW124221   5.118   1.492   2.752
 7774SOL    HW224222   5.001   1.385   2.794
 7775SOL     OW24223   3.059   1.716   1.411
 7775SOL    HW124224   3.022   1.702   1.503
 7775SOL    HW224225   3.036   1.637   1.354
 7776SOL     OW24226   2.788   0.859   4.327
 7776SOL    HW124227   2.753   0.938   4.378
 7776SOL    HW224228   2.754   0.775   4.369
 7777SOL     OW24229   6.161   5.652   3.242
 7777SOL    HW124230   6.188   5.731   3.186
 7777SOL    HW224231   6.111   5.684   3.323
 7778SOL     OW24232   1.073   4.567   2.709
 7778SOL    HW124233   1.092   4.637   2.777
 7778SOL    HW224234   1.029   4.608   2.629
 7779SOL     OW24235   3.707   6.444   1.627
 7779SOL    HW124236   3.753   6.505   1.691
 7779SOL    HW224237   3.690   6.355   1.671
 7780SOL     OW24238   6.321   5.817   4.379
 7780SOL    HW124239   6.411   5.853   4.354
 7780SOL    HW224240   6.282   5.873   4.452
 7781SOL     OW24241   2.038   3.159   0.968
 7781SOL    HW124242   2.040   3.198   1.060
 7781SOL    HW224243   1.954   3.106   0.955
 7782SOL     OW24244   5.872   3.580   4.802
 7782SOL    HW124245   5.858   3.674   4.771
 7782SOL    HW224246   5.936   3.534   4.740
 7783SOL     OW24247   2.123   6.502   3.873
 7783SOL    HW124248   2.023   6.495   3.879
 7783SOL    HW224249   2.165   6.424   3.919
 7784SOL     OW24250   1.557   2.007   1.742
 7784SOL    HW124251   1.522   2.045   1.828
 7784SOL    HW224252   1.561   1.908   1.749
 7785SOL     OW24253   6.678   5.871   2.947
 7785SOL    HW124254   6.611   5.899   2.878
 7785SOL    HW224255   6.723   5.952   2.985
 7786SOL     OW24256   4.730   1.231   6.479
 7786SOL    HW124257   4.693   1.317   6.514
 7786SOL    HW224258   4.825   1.245   6.451
 7787SOL     OW24259   2.158   2.625   1.481
 7787SOL    HW124260   2.220   2.559   1.440
 7787SOL    HW224261   2.138   2.697   1.414
 7788SOL     OW24262   0.745   3.882   1.963
 7788SOL    HW124263   0.799   3.897   2.046
 7788SOL    HW224264   0.805   3.847   1.891
 7789SOL     OW24265   3.715   1.220   6.363
 7789SOL    HW124266   3.618   1.224   6.387
 7789SOL    HW224267   3.749   1.312   6.345
 7790SOL     OW24268   3.908   5.171   3.807
 7790SOL    HW124269   4.006   5.168   3.786
 7790SOL    HW224270   3.873   5.263   3.788
 7791SOL     OW24271   2.865   5.742   2.432
 7791SOL    HW124272   2.940   5.796   2.394
 7791SOL    HW224273   2.784   5.752   2.375
 7792SOL     OW24274   1.172   1.654   2.789
 7792SOL    HW124275   1.110   1.606   2.727
 7792SOL    HW224276   1.236   1.710   2.736
 7793SOL     OW24277   4.817   1.356   0.929
 7793SOL    HW124278   4.719   1.376   0.935
 7793SOL    HW224279   4.855   1.349   1.021
 7794SOL     OW24280   1.179   0.268   3.105
 7794SOL    HW124281   1.264   0.315   3.128
 7794SOL    HW224282   1.166   0.268   3.005
 7795SOL     OW24283   3.541   4.336   0.998
 7795SOL    HW124284   3.457   4.374   1.036
 7795SOL    HW224285   3.610   4.408   0.991
 7796SOL     OW24286   3.270   1.178   0.261
 7796SOL    HW124287   3.234   1.242   0.329
 7796SOL    HW224288   3.368   1.164   0.277
 7797SOL     OW24289   1.438   5.790   2.761
 7797SOL    HW124290   1.501   5.861   2.792
 7797SOL    HW224291   1.477   5.700   2.780
 7798SOL     OW24292   1.816   3.377   0.619
 7798SOL    HW124293   1.820   3.347   0.524
 7798SOL    HW224294   1.836   3.475   0.625
 7799SOL     OW24295   3.179   6.344   3.736
 7799SOL    HW124296   3.163   6.264   3.678
 7799SOL    HW224297   3.131   6.332   3.823
 7800SOL     OW24298   1.813   0.676   2.439
 7800SOL    HW124299   1.816   0.757   2.497
 7800SOL    HW224300   1.812   0.594   2.496
 7801SOL     OW24301   1.302   2.341   0.993
 7801SOL    HW124302   1.282   2.245   1.013
 7801SOL    HW224303   1.232   2.399   1.032
 7802SOL     OW24304   6.415   4.390   4.023
 7802SOL    HW124305   6.412   4.389   4.123
 7802SOL    HW224306   6.385   4.479   3.989
 7803SOL     OW24307   3.309   2.790   5.640
 7803SOL    HW124308   3.240   2.791   5.567
 7803SOL    HW224309   3.399   2.770   5.601
 7804SOL     OW24310   2.987   1.711   5.825
 7804SOL    HW124311   3.080   1.677   5.818
 7804SOL    HW224312   2.937   1.658   5.894
 7805SOL     OW24313   5.729   3.209   6.481
 7805SOL    HW124314   5.714   3.200   6.580
 7805SOL    HW224315   5.827   3.204   6.463
 7806SOL     OW24316   6.158   1.691   5.715
 7806SOL    HW124317   6.180   1.711   5.620
 7806SOL    HW224318   6.067   1.724   5.737
 7807SOL     OW24319   2.114   5.773   5.180
 7807SOL    HW124320   2.134   5.727   5.266
 7807SOL    HW224321   2.039   5.838   5.193
 7808SOL     OW24322   6.232   3.666   3.902
 7808SOL    HW124323   6.301   3.654   3.973
 7808SOL    HW224324   6.272   3.647   3.813
 7809SOL     OW24325   4.756   5.994   2.338
 7809SOL    HW124326   4.794   6.085   2.320
 7809SOL    HW224327   4.665   6.004   2.378
 7810SOL     OW24328   2.216   6.692   5.195
 7810SOL    HW124329   2.139   6.734   5.243
 7810SOL    HW224330   2.298   6.698   5.252
 7811SOL     OW24331   0.967   6.285   2.590
 7811SOL    HW124332   0.982   6.371   2.543
 7811SOL    HW224333   0.928   6.302   2.681
 7812SOL     OW24334   3.061   1.003   5.606
 7812SOL    HW124335   2.975   1.044   5.577
 7812SOL    HW224336   3.097   1.054   5.684
 7813SOL     OW24337   5.469   0.893   1.160
 7813SOL    HW124338   5.397   0.959   1.134
 7813SOL    HW224339   5.434   0.800   1.147
 7814SOL     OW24340   6.251   2.479   2.055
 7814SOL    HW124341   6.219   2.530   2.135
 7814SOL    HW224342   6.298   2.396   2.085
 7815SOL     OW24343   4.928   5.653   3.656
 7815SOL    HW124344   4.977   5.713   3.593
 7815SOL    HW224345   4.880   5.582   3.605
 7816SOL     OW24346   1.010   1.494   5.235
 7816SOL    HW124347   0.995   1.570   5.298
 7816SOL    HW224348   0.932   1.431   5.239
 7817SOL     OW24349   4.472   1.596   6.883
 7817SOL    HW124350   4.453   1.694   6.892
 7817SOL    HW224351   4.387   1.544   6.895
 7818SOL     OW24352   6.108   1.148   3.240
 7818SOL    HW124353   6.141   1.137   3.146
 7818SOL    HW224354   6.064   1.237   3.250
 7819SOL     OW24355   1.344   3.210   5.096
 7819SOL    HW124356   1.404   3.144   5.141
 7819SOL    HW224357   1.397   3.267   5.033
 7820SOL     OW24358   1.302   1.320   5.262
 7820SOL    HW124359   1.363   1.280   5.331
 7820SOL    HW224360   1.337   1.410   5.236
 7821SOL     OW24361   3.896   5.903   6.817
 7821SOL    HW124362   3.818   5.845   6.793
 7821SOL    HW224363   3.948   5.925   6.734
 7822SOL     OW24364   0.193   1.583   4.663
 7822SOL    HW124365   0.164   1.668   4.619
 7822SOL    HW224366   0.124   1.512   4.646
 7823SOL     OW24367   2.852   3.219   5.759
 7823SOL    HW124368   2.763   3.174   5.744
 7823SOL    HW224369   2.874   3.217   5.857
 7824SOL     OW24370   5.686   3.639   2.893
 7824SOL    HW124371   5.620   3.574   2.856
 7824SOL    HW224372   5.695   3.626   2.991
 7825SOL     OW24373   3.319   3.599   2.869
 7825SOL    HW124374   3.258   3.672   2.899
 7825SOL    HW224375   3.312   3.588   2.770
 7826SOL     OW24376   6.735   6.945   0.281
 7826SOL    HW124377   6.833   6.957   0.296
 7826SOL    HW224378   6.685   7.025   0.313
 7827SOL     OW24379   4.493   3.385   0.408
 7827SOL    HW124380   4.432   3.423   0.339
 7827SOL    HW224381   4.572   3.445   0.421
 7828SOL     OW24382   1.085   5.931   1.120
 7828SOL    HW124383   1.021   5.979   1.180
 7828SOL    HW224384   1.041   5.915   1.031
 7829SOL     OW24385   3.621   3.858   3.497
 7829SOL    HW124386   3.603   3.950   3.531
 7829SOL    HW224387   3.559   3.838   3.420
 7830SOL     OW24388   5.991   3.942   0.007
 7830SOL    HW124389   6.026   4.007   6.967
 7830SOL    HW224390   6.008   3.848   7.003
 7831SOL     OW24391   1.538   2.696   0.408
 7831SOL    HW124392   1.560   2.766   0.339
 7831SOL    HW224393   1.622   2.650   0.436
 7832SOL     OW24394   3.537   2.742   5.529
 7832SOL    HW124395   3.569   2.671   5.592
 7832SOL    HW224396   3.575   2.723   5.438
 7833SOL     OW24397   6.421   6.432   1.242
 7833SOL    HW124398   6.495   6.474   1.295
 7833SOL    HW224399   6.459   6.360   1.184
 7834SOL     OW24400   6.063   0.498   1.423
 7834SOL    HW124401   5.988   0.491   1.488
 7834SOL    HW224402   6.139   0.548   1.464
 7835SOL     OW24403   2.164   2.063   4.363
 7835SOL    HW124404   2.181   1.992   4.431
 7835SOL    HW224405   2.106   2.134   4.402
 7836SOL     OW24406   2.032   0.518   0.140
 7836SOL    HW124407   1.978   0.549   0.061
 7836SOL    HW224408   1.975   0.460   0.198
 7837SOL     OW24409   5.320   6.631   2.527
 7837SOL    HW124410   5.397   6.574   2.559
 7837SOL    HW224411   5.255   6.643   2.602
 7838SOL     OW24412   4.443   6.540   4.258
 7838SOL    HW124413   4.379   6.471   4.227
 7838SOL    HW224414   4.405   6.588   4.337
 7839SOL     OW24415   0.197   4.931   3.531
 7839SOL    HW124416   0.118   4.882   3.568
 7839SOL    HW224417   0.168   5.023   3.504
 7840SOL     OW24418   4.832   3.231   6.331
 7840SOL    HW124419   4.855   3.318   6.288
 7840SOL    HW224420   4.813   3.163   6.260
 7841SOL     OW24421   1.144   1.877   6.306
 7841SOL    HW124422   1.109   1.933   6.381
 7841SOL    HW224423   1.102   1.787   6.309
 7842SOL     OW24424   2.971   6.896   2.229
 7842SOL    HW124425   3.048   6.857   2.279
 7842SOL    HW224426   3.004   6.942   2.147
 7843SOL     OW24427   0.500   2.812   2.126
 7843SOL    HW124428   0.581   2.755   2.112
 7843SOL    HW224429   0.422   2.755   2.151
 7844SOL     OW24430   3.859   1.405   3.782
 7844SOL    HW124431   3.882   1.319   3.828
 7844SOL    HW224432   3.774   1.394   3.732
 7845SOL     OW24433   0.978   1.086   3.980
 7845SOL    HW124434   0.923   1.065   4.061
 7845SOL    HW224435   1.002   1.184   3.980
 7846SOL     OW24436   4.281   6.885   2.244
 7846SOL    HW124437   4.349   6.818   2.273
 7846SOL    HW224438   4.211   6.840   2.189
 7847SOL     OW24439   0.221   0.017   6.888
 7847SOL    HW124440   0.281   7.009   6.816
 7847SOL    HW224441   0.220   6.979   6.964
 7848SOL     OW24442   3.748   4.328   1.336
 7848SOL    HW124443   3.769   4.389   1.260
 7848SOL    HW224444   3.673   4.366   1.390
 7849SOL     OW24445   5.430   4.115   4.702
 7849SOL    HW124446   5.442   4.016   4.706
 7849SOL    HW224447   5.477   4.157   4.780
 7850SOL     OW24448   0.963   2.218   5.074
 7850SOL    HW124449   1.054   2.179   5.089
 7850SOL    HW224450   0.938   2.208   4.978
 7851SOL     OW24451   4.511   6.612   1.441
 7851SOL    HW124452   4.466   6.524   1.459
 7851SOL    HW224453   4.608   6.596   1.424
 7852SOL     OW24454   2.367   6.373   0.461
 7852SOL    HW124455   2.396   6.469   0.464
 7852SOL    HW224456   2.339   6.350   0.368
 7853SOL     OW24457   2.002   2.585   0.653
 7853SOL    HW124458   1.923   2.568   0.713
 7853SOL    HW224459   2.040   2.675   0.673
 7854SOL     OW24460   3.285   4.060   3.577
 7854SOL    HW124461   3.342   4.034   3.655
 7854SOL    HW224462   3.325   4.140   3.532
 7855SOL     OW24463   3.669   0.125   5.122
 7855SOL    HW124464   3.747   0.075   5.083
 7855SOL    HW224465   3.688   0.149   5.217
 7856SOL     OW24466   2.860   3.412   7.019
 7856SOL    HW124467   2.844   3.340   6.951
 7856SOL    HW224468   2.953   3.402   0.029
 7857SOL     OW24469   1.008   3.234   5.581
 7857SOL    HW124470   0.924   3.190   5.547
 7857SOL    HW224471   1.001   3.333   5.569
 7858SOL     OW24472   6.107   3.632   2.918
 7858SOL    HW124473   6.018   3.587   2.920
 7858SOL    HW224474   6.157   3.603   2.836
 7859SOL     OW24475   0.888   6.157   0.365
 7859SOL    HW124476   0.973   6.111   0.340
 7859SOL    HW224477   0.817   6.088   0.382
 7860SOL     OW24478   4.538   6.753   2.019
 7860SOL    HW124479   4.604   6.822   2.047
 7860SOL    HW224480   4.510   6.700   2.099
 7861SOL     OW24481   5.535   3.444   0.627
 7861SOL    HW124482   5.552   3.539   0.654
 7861SOL    HW224483   5.452   3.439   0.572
 7862SOL     OW24484   3.015   4.732   1.750
 7862SOL    HW124485   2.975   4.652   1.794
 7862SOL    HW224486   3.051   4.707   1.661
 7863SOL     OW24487   5.432   5.640   2.146
 7863SOL    HW124488   5.342   5.683   2.132
 7863SOL    HW224489   5.420   5.553   2.193
 7864SOL     OW24490   0.942   6.045   4.404
 7864SOL    HW124491   0.940   5.971   4.471
 7864SOL    HW224492   0.868   6.031   4.338
 7865SOL     OW24493   3.920   0.614   3.230
 7865SOL    HW124494   3.862   0.694   3.248
 7865SOL    HW224495   3.988   0.605   3.303
 7866SOL     OW24496   2.217   2.414   5.114
 7866SOL    HW124497   2.121   2.428   5.138
 7866SOL    HW224498   2.258   2.347   5.176
 7867SOL     OW24499   5.855   3.976   2.089
 7867SOL    HW124500   5.918   3.918   2.038
 7867SOL    HW224501   5.869   3.964   2.187
 7868SOL     OW24502   5.176   6.623   1.128
 7868SOL    HW124503   5.239   6.637   1.205
 7868SOL    HW224504   5.111   6.698   1.123
 7869SOL     OW24505   6.464   1.710   4.189
 7869SOL    HW124506   6.420   1.621   4.178
 7869SOL    HW224507   6.457   1.739   4.284
 7870SOL     OW24508   6.475   6.832   3.218
 7870SOL    HW124509   6.476   6.825   3.118
 7870SOL    HW224510   6.508   6.922   3.246
 7871SOL     OW24511   6.103   3.119   4.173
 7871SOL    HW124512   6.035   3.048   4.153
 7871SOL    HW224513   6.070   3.177   4.248
 7872SOL     OW24514   0.008   3.962   4.671
 7872SOL    HW124515   6.963   3.905   4.633
 7872SOL    HW224516   0.050   4.016   4.598
 7873SOL     OW24517   0.078   5.596   4.924
 7873SOL    HW124518   0.118   5.554   5.005
 7873SOL    HW224519   0.102   5.541   4.843
 7874SOL     OW24520   6.235   0.599   0.612
 7874SOL    HW124521   6.299   0.575   0.685
 7874SOL    HW224522   6.286   0.615   0.528
 7875SOL     OW24523   5.167   3.275   0.711
 7875SOL    HW124524   5.219   3.308   0.632
 7875SOL    HW224525   5.137   3.181   0.694
 7876SOL     OW24526   0.331   0.903   5.490
 7876SOL    HW124527   0.280   0.838   5.546
 7876SOL    HW224528   0.276   0.930   5.412
 7877SOL     OW24529   6.386   2.842   3.084
 7877SOL    HW124530   6.314   2.876   3.023
 7877SOL    HW224531   6.475   2.877   3.053
 7878SOL     OW24532   4.416   3.873   1.522
 7878SOL    HW124533   4.398   3.873   1.423
 7878SOL    HW224534   4.372   3.953   1.563
 7879SOL     OW24535   6.310   0.786   5.005
 7879SOL    HW124536   6.403   0.822   5.012
 7879SOL    HW224537   6.279   0.757   5.096
 7880SOL     OW24538   1.899   6.420   6.059
 7880SOL    HW124539   1.967   6.350   6.081
 7880SOL    HW224540   1.945   6.507   6.042
 7881SOL     OW24541   0.575   5.089   4.107
 7881SOL    HW124542   0.543   5.128   4.193
 7881SOL    HW224543   0.665   5.126   4.085
 7882SOL     OW24544   1.710   4.777   1.358
 7882SOL    HW124545   1.787   4.814   1.307
 7882SOL    HW224546   1.680   4.843   1.426
 7883SOL     OW24547   3.707   2.065   3.079
 7883SOL    HW124548   3.743   1.980   3.119
 7883SOL    HW224549   3.712   2.060   2.980
 7884SOL     OW24550   0.354   3.421   4.338
 7884SOL    HW124551   0.338   3.514   4.304
 7884SOL    HW224552   0.267   3.372   4.344
 7885SOL     OW24553   5.990   5.245   2.133
 7885SOL    HW124554   5.949   5.158   2.104
 7885SOL    HW224555   6.008   5.302   2.052
 7886SOL     OW24556   4.919   4.119   2.549
 7886SOL    HW124557   4.961   4.035   2.514
 7886SOL    HW224558   4.960   4.198   2.504
 7887SOL     OW24559   0.996   3.005   1.785
 7887SOL    HW124560   1.049   2.920   1.788
 7887SOL    HW224561   1.041   3.069   1.723
 7888SOL     OW24562   6.666   0.584   5.178
 7888SOL    HW124563   6.754   0.587   5.227
 7888SOL    HW224564   6.642   0.676   5.148
 7889SOL     OW24565   5.741   5.513   0.652
 7889SOL    HW124566   5.752   5.556   0.563
 7889SOL    HW224567   5.754   5.581   0.724
 7890SOL     OW24568   2.399   2.732   3.614
 7890SOL    HW124569   2.346   2.813   3.588
 7890SOL    HW224570   2.388   2.715   3.711
 7891SOL     OW24571   6.487   1.723   4.452
 7891SOL    HW124572   6.396   1.754   4.482
 7891SOL    HW224573   6.556   1.759   4.515
 7892SOL     OW24574   0.678   1.955   5.429
 7892SOL    HW124575   0.744   1.985   5.360
 7892SOL    HW224576   0.627   1.876   5.394
 7893SOL     OW24577   6.381   6.782   0.703
 7893SOL    HW124578   6.481   6.778   0.707
 7893SOL    HW224579   6.346   6.823   0.787
 7894SOL     OW24580   2.902   1.052   0.085
 7894SOL    HW124581   2.979   0.990   0.100
 7894SOL    HW224582   2.925   1.117   0.013
 7895SOL     OW24583   6.511   5.907   2.706
 7895SOL    HW124584   6.496   6.005   2.693
 7895SOL    HW224585   6.430   5.856   2.677
 7896SOL     OW24586   2.377   1.302   0.505
 7896SOL    HW124587   2.469   1.340   0.504
 7896SOL    HW224588   2.322   1.350   0.574
 7897SOL     OW24589   3.667   2.498   0.768
 7897SOL    HW124590   3.594   2.436   0.738
 7897SOL    HW224591   3.651   2.589   0.730
 7898SOL     OW24592   4.915   6.729   3.357
 7898SOL    HW124593   5.003   6.762   3.324
 7898SOL    HW224594   4.907   6.747   3.455
 7899SOL     OW24595   6.087   4.328   3.821
 7899SOL    HW124596   6.163   4.365   3.875
 7899SOL    HW224597   6.068   4.234   3.852
 7900SOL     OW24598   0.325   3.565   0.331
 7900SOL    HW124599   0.404   3.519   0.290
 7900SOL    HW224600   0.316   3.539   0.427
 7901SOL     OW24601   0.275   2.163   0.155
 7901SOL    HW124602   0.212   2.231   0.193
 7901SOL    HW224603   0.232   2.073   0.156
 7902SOL     OW24604   2.079   6.278   1.912
 7902SOL    HW124605   2.071   6.370   1.874
 7902SOL    HW224606   2.175   6.254   1.921
 7903SOL     OW24607   2.801   2.123   5.420
 7903SOL    HW124608   2.843   2.184   5.352
 7903SOL    HW224609   2.805   2.166   5.510
 7904SOL     OW24610   4.420   2.458   2.824
 7904SOL    HW124611   4.374   2.436   2.911
 7904SOL    HW224612   4.421   2.376   2.766
 7905SOL     OW24613   6.166   2.337   1.376
 7905SOL    HW124614   6.163   2.238   1.395
 7905SOL    HW224615   6.075   2.369   1.353
 7906SOL     OW24616   1.030   5.021   6.631
 7906SOL    HW124617   0.983   5.088   6.688
 7906SOL    HW224618   1.071   4.950   6.688
 7907SOL     OW24619   5.753   6.478   2.615
 7907SOL    HW124620   5.782   6.509   2.525
 7907SOL    HW224621   5.734   6.380   2.612
 7908SOL     OW24622   1.742   6.886   6.647
 7908SOL    HW124623   1.823   6.942   6.635
 7908SOL    HW224624   1.764   6.808   6.705
 7909SOL     OW24625   6.555   3.917   1.433
 7909SOL    HW124626   6.631   3.955   1.381
 7909SOL    HW224627   6.573   3.820   1.452
 7910SOL     OW24628   0.902   4.229   6.017
 7910SOL    HW124629   0.944   4.139   6.016
 7910SOL    HW224630   0.832   4.232   6.088
 7911SOL     OW24631   5.966   4.417   6.032
 7911SOL    HW124632   5.915   4.438   6.116
 7911SOL    HW224633   6.062   4.402   6.055
 7912SOL     OW24634   5.778   5.715   0.832
 7912SOL    HW124635   5.817   5.772   0.759
 7912SOL    HW224636   5.847   5.697   0.901
 7913SOL     OW24637   1.683   4.937   6.485
 7913SOL    HW124638   1.596   4.986   6.472
 7913SOL    HW224639   1.706   4.887   6.402
 7914SOL     OW24640   0.760   6.844   4.878
 7914SOL    HW124641   0.727   6.751   4.867
 7914SOL    HW224642   0.777   6.884   4.788
 7915SOL     OW24643   2.832   4.793   2.670
 7915SOL    HW124644   2.821   4.753   2.761
 7915SOL    HW224645   2.807   4.725   2.600
 7916SOL     OW24646   1.115   0.343   4.023
 7916SOL    HW124647   1.163   0.352   3.935
 7916SOL    HW224648   1.024   0.305   4.008
 7917SOL     OW24649   4.652   1.574   2.034
 7917SOL    HW124650   4.676   1.493   2.086
 7917SOL    HW224651   4.725   1.596   1.969
 7918SOL     OW24652   2.541   2.551   3.485
 7918SOL    HW124653   2.548   2.569   3.387
 7918SOL    HW224654   2.492   2.625   3.529
 7919SOL     OW24655   1.129   6.663   4.992
 7919SOL    HW124656   1.180   6.749   4.986
 7919SOL    HW224657   1.031   6.682   4.984
 7920SOL     OW24658   5.009   0.478   1.006
 7920SOL    HW124659   5.051   0.535   0.935
 7920SOL    HW224660   4.924   0.521   1.037
 7921SOL     OW24661   5.302   2.279   0.747
 7921SOL    HW124662   5.348   2.274   0.836
 7921SOL    HW224663   5.221   2.337   0.755
 7922SOL     OW24664   2.534   0.306   2.255
 7922SOL    HW124665   2.578   0.395   2.238
 7922SOL    HW224666   2.495   0.272   2.169
 7923SOL     OW24667   4.262   1.354   6.825
 7923SOL    HW124668   4.216   1.369   6.737
 7923SOL    HW224669   4.197   1.366   6.899
 7924SOL     OW24670   5.902   6.099   0.289
 7924SOL    HW124671   5.993   6.060   0.277
 7924SOL    HW224672   5.893   6.179   0.229
 7925SOL     OW24673   1.599   5.396   6.536
 7925SOL    HW124674   1.653   5.478   6.554
 7925SOL    HW224675   1.566   5.397   6.441
 7926SOL     OW24676   4.967   5.710   6.417
 7926SOL    HW124677   4.992   5.805   6.432
 7926SOL    HW224678   5.041   5.651   6.450
 7927SOL     OW24679   4.340   0.129   3.078
 7927SOL    HW124680   4.383   0.047   3.115
 7927SOL    HW224681   4.288   0.175   3.151
 7928SOL     OW24682   6.066   2.383   3.194
 7928SOL    HW124683   6.112   2.402   3.108
 7928SOL    HW224684   6.051   2.285   3.203
 7929SOL     OW24685   4.321   3.982   5.876
 7929SOL    HW124686   4.340   4.044   5.952
 7929SOL    HW224687   4.301   3.891   5.913
 7930SOL     OW24688   4.097   6.513   6.181
 7930SOL    HW124689   4.178   6.514   6.240
 7930SOL    HW224690   4.026   6.458   6.224
 7931SOL     OW24691   3.898   1.490   1.696
 7931SOL    HW124692   3.948   1.536   1.623
 7931SOL    HW224693   3.800   1.507   1.685
 7932SOL     OW24694   1.146   3.810   1.489
 7932SOL    HW124695   1.246   3.805   1.491
 7932SOL    HW224696   1.117   3.906   1.487
 7933SOL     OW24697   0.971   1.661   0.204
 7933SOL    HW124698   1.038   1.606   0.153
 7933SOL    HW224699   0.880   1.644   0.167
 7934SOL     OW24700   0.885   5.501   1.013
 7934SOL    HW124701   0.830   5.584   0.999
 7934SOL    HW224702   0.845   5.425   0.963
 7935SOL     OW24703   6.610   3.011   3.413
 7935SOL    HW124704   6.535   2.947   3.399
 7935SOL    HW224705   6.688   2.964   3.455
 7936SOL     OW24706   2.294   5.517   3.542
 7936SOL    HW124707   2.198   5.487   3.549
 7936SOL    HW224708   2.354   5.443   3.573
 7937SOL     OW24709   4.264   1.045   0.778
 7937SOL    HW124710   4.248   0.997   0.865
 7937SOL    HW224711   4.362   1.045   0.758
 7938SOL     OW24712   2.990   6.951   3.340
 7938SOL    HW124713   3.057   6.878   3.329
 7938SOL    HW224714   2.928   6.928   3.415
 7939SOL     OW24715   0.868   0.969   2.736
 7939SOL    HW124716   0.837   0.930   2.823
 7939SOL    HW224717   0.952   1.021   2.752
 7940SOL     OW24718   6.017   1.565   4.207
 7940SOL    HW124719   6.044   1.571   4.111
 7940SOL    HW224720   5.955   1.488   4.219
 7941SOL     OW24721   3.398   6.987   1.235
 7941SOL    HW124722   3.334   6.980   1.312
 7941SOL    HW224723   3.484   6.941   1.260
 7942SOL     OW24724   1.431   4.522   0.633
 7942SOL    HW124725   1.493   4.477   0.568
 7942SOL    HW224726   1.483   4.585   0.691
 7943SOL     OW24727   1.491   5.812   5.794
 7943SOL    HW124728   1.420   5.826   5.726
 7943SOL    HW224729   1.515   5.900   5.836
 7944SOL     OW24730   0.889   2.130   1.437
 7944SOL    HW124731   0.914   2.095   1.347
 7944SOL    HW224732   0.896   2.230   1.438
 7945SOL     OW24733   6.361   4.073   2.859
 7945SOL    HW124734   6.281   4.072   2.919
 7945SOL    HW224735   6.443   4.053   2.912
 7946SOL     OW24736   4.183   1.785   6.725
 7946SOL    HW124737   4.115   1.712   6.742
 7946SOL    HW224738   4.153   1.869   6.771
 7947SOL     OW24739   6.777   3.666   6.275
 7947SOL    HW124740   6.737   3.743   6.225
 7947SOL    HW224741   6.839   3.615   6.216
 7948SOL     OW24742   1.721   5.744   1.806
 7948SOL    HW124743   1.700   5.718   1.900
 7948SOL    HW224744   1.754   5.665   1.756
 7949SOL     OW24745   2.674   5.512   5.531
 7949SOL    HW124746   2.663   5.474   5.623
 7949SOL    HW224747   2.727   5.597   5.536
 7950SOL     OW24748   6.351   4.626   5.728
 7950SOL    HW124749   6.338   4.554   5.660
 7950SOL    HW224750   6.449   4.647   5.736
 7951SOL     OW24751   4.224   6.329   2.492
 7951SOL    HW124752   4.218   6.323   2.591
 7951SOL    HW224753   4.290   6.400   2.467
 7952SOL     OW24754   6.228   3.877   5.322
 7952SOL    HW124755   6.160   3.841   5.258
 7952SOL    HW224756   6.319   3.845   5.295
 7953SOL     OW24757   1.457   6.765   0.654
 7953SOL    HW124758   1.515   6.805   0.724
 7953SOL    HW224759   1.512   6.737   0.576
 7954SOL     OW24760   3.692   3.711   6.834
 7954SOL    HW124761   3.623   3.650   6.797
 7954SOL    HW224762   3.783   3.675   6.812
 7955SOL     OW24763   1.227   0.784   6.504
 7955SOL    HW124764   1.246   0.718   6.577
 7955SOL    HW224765   1.257   0.748   6.416
 7956SOL     OW24766   0.636   6.620   0.409
 7956SOL    HW124767   0.555   6.648   0.358
 7956SOL    HW224768   0.679   6.542   0.364
 7957SOL     OW24769   5.050   1.925   5.885
 7957SOL    HW124770   5.031   1.854   5.817
 7957SOL    HW224771   5.084   1.883   5.969
 7958SOL     OW24772   4.870   2.285   6.989
 7958SOL    HW124773   4.907   2.377   6.998
 7958SOL    HW224774   4.902   2.228   0.038
 7959SOL     OW24775   5.222   2.296   0.308
 7959SOL    HW124776   5.155   2.299   0.382
 7959SOL    HW224777   5.294   2.363   0.326
 7960SOL     OW24778   1.084   1.268   5.438
 7960SOL    HW124779   1.160   1.309   5.388
 7960SOL    HW224780   1.036   1.203   5.379
 7961SOL     OW24781   6.285   6.380   0.352
 7961SOL    HW124782   6.337   6.309   0.401
 7961SOL    HW224783   6.224   6.426   0.416
 7962SOL     OW24784   5.776   6.953   5.306
 7962SOL    HW124785   5.742   6.966   5.400
 7962SOL    HW224786   5.874   6.933   5.309
 7963SOL     OW24787   6.417   6.289   3.446
 7963SOL    HW124788   6.499   6.337   3.477
 7963SOL    HW224789   6.346   6.356   3.424
 7964SOL     OW24790   5.991   3.905   1.526
 7964SOL    HW124791   5.961   3.955   1.607
 7964SOL    HW224792   5.969   3.959   1.444
 7965SOL     OW24793   5.006   2.182   6.499
 7965SOL    HW124794   4.949   2.211   6.576
 7965SOL    HW224795   4.967   2.219   6.414
 7966SOL     OW24796   5.337   4.201   5.307
 7966SOL    HW124797   5.319   4.103   5.316
 7966SOL    HW224798   5.347   4.224   5.210
 7967SOL     OW24799   1.148   4.853   0.415
 7967SOL    HW124800   1.062   4.854   0.364
 7967SOL    HW224801   1.130   4.824   0.509
 7968SOL     OW24802   1.447   3.004   4.308
 7968SOL    HW124803   1.494   3.026   4.222
 7968SOL    HW224804   1.382   2.930   4.292
 7969SOL     OW24805   3.479   4.840   6.715
 7969SOL    HW124806   3.472   4.763   6.651
 7969SOL    HW224807   3.570   4.844   6.754
 7970SOL     OW24808   6.369   2.961   4.135
 7970SOL    HW124809   6.383   2.937   4.039
 7970SOL    HW224810   6.300   3.034   4.141
 7971SOL     OW24811   2.875   1.235   6.676
 7971SOL    HW124812   2.788   1.195   6.649
 7971SOL    HW224813   2.861   1.330   6.704
 7972SOL     OW24814   3.455   3.985   4.639
 7972SOL    HW124815   3.475   3.935   4.555
 7972SOL    HW224816   3.373   3.948   4.682
 7973SOL     OW24817   6.019   4.452   1.728
 7973SOL    HW124818   6.097   4.474   1.669
 7973SOL    HW224819   5.935   4.486   1.687
 7974SOL     OW24820   0.419   2.700   5.015
 7974SOL    HW124821   0.393   2.652   5.098
 7974SOL    HW224822   0.419   2.799   5.032
 7975SOL     OW24823   5.268   0.421   1.073
 7975SOL    HW124824   5.294   0.326   1.087
 7975SOL    HW224825   5.170   0.427   1.055
 7976SOL     OW24826   0.969   0.445   0.670
 7976SOL    HW124827   0.909   0.504   0.616
 7976SOL    HW224828   0.949   0.458   0.767
 7977SOL     OW24829   5.490   5.576   3.345
 7977SOL    HW124830   5.534   5.487   3.327
 7977SOL    HW224831   5.417   5.590   3.278
 7978SOL     OW24832   0.427   4.127   1.475
 7978SOL    HW124833   0.426   4.204   1.412
 7978SOL    HW224834   0.392   4.156   1.564
 7979SOL     OW24835   2.547   2.040   5.372
 7979SOL    HW124836   2.550   1.971   5.299
 7979SOL    HW224837   2.640   2.069   5.395
 7980SOL     OW24838   3.768   5.369   1.304
 7980SOL    HW124839   3.729   5.424   1.378
 7980SOL    HW224840   3.823   5.428   1.244
 7981SOL     OW24841   1.580   3.538   3.780
 7981SOL    HW124842   1.537   3.495   3.700
 7981SOL    HW224843   1.565   3.636   3.778
 7982SOL     OW24844   6.742   0.859   5.951
 7982SOL    HW124845   6.718   0.795   5.878
 7982SOL    HW224846   6.833   0.897   5.934
 7983SOL     OW24847   4.410   0.810   1.913
 7983SOL    HW124848   4.506   0.839   1.917
 7983SOL    HW224849   4.353   0.886   1.883
 7984SOL     OW24850   0.247   2.862   2.957
 7984SOL    HW124851   0.308   2.896   3.028
 7984SOL    HW224852   0.156   2.903   2.968
 7985SOL     OW24853   3.169   2.876   5.398
 7985SOL    HW124854   3.093   2.931   5.363
 7985SOL    HW224855   3.240   2.868   5.328
 7986SOL     OW24856   3.874   1.172   3.916
 7986SOL    HW124857   3.778   1.158   3.891
 7986SOL    HW224858   3.906   1.096   3.972
 7987SOL     OW24859   0.779   3.325   6.546
 7987SOL    HW124860   0.769   3.227   6.536
 7987SOL    HW224861   0.734   3.372   6.469
 7988SOL     OW24862   6.762   1.041   1.286
 7988SOL    HW124863   6.680   1.030   1.230
 7988SOL    HW224864   6.826   1.101   1.240
 7989SOL     OW24865   0.255   4.127   1.008
 7989SOL    HW124866   0.348   4.130   1.043
 7989SOL    HW224867   0.191   4.151   1.081
 7990SOL     OW24868   5.084   5.517   5.064
 7990SOL    HW124869   5.099   5.458   5.143
 7990SOL    HW224870   5.034   5.466   4.993
 7991SOL     OW24871   5.956   0.950   4.929
 7991SOL    HW124872   5.983   0.982   4.839
 7991SOL    HW224873   5.979   0.853   4.938
 7992SOL     OW24874   2.211   6.695   0.351
 7992SOL    HW124875   2.202   6.616   0.290
 7992SOL    HW224876   2.300   6.691   0.398
 7993SOL     OW24877   6.215   6.025   0.480
 7993SOL    HW124878   6.308   5.993   0.499
 7993SOL    HW224879   6.165   6.035   0.567
 7994SOL     OW24880   6.614   0.570   3.988
 7994SOL    HW124881   6.570   0.654   3.957
 7994SOL    HW224882   6.706   0.565   3.948
 7995SOL     OW24883   0.917   5.454   1.304
 7995SOL    HW124884   0.914   5.446   1.204
 7995SOL    HW224885   0.979   5.385   1.341
 7996SOL     OW24886   2.466   0.404   3.320
 7996SOL    HW124887   2.422   0.460   3.390
 7996SOL    HW224888   2.451   0.445   3.230
 7997SOL     OW24889   2.166   2.206   5.804
 7997SOL    HW124890   2.088   2.184   5.745
 7997SOL    HW224891   2.225   2.272   5.757
 7998SOL     OW24892   2.206   1.084   0.511
 7998SOL    HW124893   2.227   1.006   0.452
 7998SOL    HW224894   2.276   1.154   0.500
 7999SOL     OW24895   0.982   0.019   3.866
 7999SOL    HW124896   0.948   0.069   3.945
 7999SOL    HW224897   0.955   0.067   3.782
 8000SOL     OW24898   4.210   5.664   0.985
 8000SOL    HW124899   4.291   5.616   0.951
 8000SOL    HW224900   4.216   5.761   0.961
 8001SOL     OW24901   4.552   4.503   1.405
 8001SOL    HW124902   4.550   4.430   1.473
 8001SOL    HW224903   4.592   4.585   1.445
 8002SOL     OW24904   0.835   7.003   4.636
 8002SOL    HW124905   0.815   6.982   4.541
 8002SOL    HW224906   0.833   0.075   4.650
 8003SOL     OW24907   3.133   5.578   2.477
 8003SOL    HW124908   3.047   5.587   2.427
 8003SOL    HW224909   3.137   5.647   2.550
 8004SOL     OW24910   1.401   3.477   4.099
 8004SOL    HW124911   1.359   3.478   4.190
 8004SOL    HW224912   1.331   3.491   4.029
 8005SOL     OW24913   1.784   0.892   3.247
 8005SOL    HW124914   1.872   0.926   3.213
 8005SOL    HW224915   1.731   0.969   3.283
 8006SOL     OW24916   4.127   5.235   5.531
 8006SOL    HW124917   4.030   5.214   5.543
 8006SOL    HW224918   4.157   5.297   5.604
 8007SOL     OW24919   6.959   0.480   1.120
 8007SOL    HW124920   0.021   0.483   1.165
 8007SOL    HW224921   6.893   0.536   1.171
 8008SOL     OW24922   4.851   4.793   0.430
 8008SOL    HW124923   4.851   4.804   0.331
 8008SOL    HW224924   4.894   4.706   0.454
 8009SOL     OW24925   6.272   1.184   0.586
 8009SOL    HW124926   6.260   1.164   0.489
 8009SOL    HW224927   6.299   1.100   0.635
 8010SOL     OW24928   3.236   0.406   5.660
 8010SOL    HW124929   3.253   0.392   5.562
 8010SOL    HW224930   3.175   0.334   5.694
 8011SOL     OW24931   3.995   2.161   2.774
 8011SOL    HW124932   4.071   2.109   2.734
 8011SOL    HW224933   3.917   2.101   2.789
 8012SOL     OW24934   6.399   1.163   4.328
 8012SOL    HW124935   6.350   1.081   4.296
 8012SOL    HW224936   6.497   1.147   4.322
 8013SOL     OW24937   3.685   1.080   3.135
 8013SOL    HW124938   3.686   1.099   3.037
 8013SOL    HW224939   3.615   1.136   3.179
 8014SOL     OW24940   2.619   2.472   2.962
 8014SOL    HW124941   2.674   2.394   2.932
 8014SOL    HW224942   2.600   2.531   2.884
 8015SOL     OW24943   3.863   0.487   4.420
 8015SOL    HW124944   3.889   0.408   4.365
 8015SOL    HW224945   3.795   0.460   4.488
 8016SOL     OW24946   3.812   2.382   5.302
 8016SOL    HW124947   3.828   2.298   5.353
 8016SOL    HW224948   3.725   2.376   5.253
 8017SOL     OW24949   6.096   5.931   1.195
 8017SOL    HW124950   6.183   5.906   1.237
 8017SOL    HW224951   6.030   5.955   1.266
 8018SOL     OW24952   3.566   3.073   7.012
 8018SOL    HW124953   3.589   3.167   6.987
 8018SOL    HW224954   3.607   3.051   0.073
 8019SOL     OW24955   2.401   3.263   0.311
 8019SOL    HW124956   2.494   3.296   0.328
 8019SOL    HW224957   2.389   3.174   0.356
 8020SOL     OW24958   0.295   0.453   6.122
 8020SOL    HW124959   0.260   0.447   6.029
 8020SOL    HW224960   0.301   0.549   6.149
 8021SOL     OW24961   0.827   3.148   0.245
 8021SOL    HW124962   0.925   3.168   0.253
 8021SOL    HW224963   0.785   3.150   0.336
 8022SOL     OW24964   4.328   0.122   2.014
 8022SOL    HW124965   4.300   0.217   2.025
 8022SOL    HW224966   4.297   0.069   2.093
 8023SOL     OW24967   4.231   5.897   1.601
 8023SOL    HW124968   4.316   5.888   1.652
 8023SOL    HW224969   4.234   5.979   1.544
 8024SOL     OW24970   2.640   0.873   0.255
 8024SOL    HW124971   2.692   0.789   0.248
 8024SOL    HW224972   2.673   0.939   0.188
 8025SOL     OW24973   1.167   6.136   1.968
 8025SOL    HW124974   1.154   6.082   1.885
 8025SOL    HW224975   1.250   6.192   1.959
 8026SOL     OW24976   0.812   6.040   6.432
 8026SOL    HW124977   0.771   5.949   6.424
 8026SOL    HW224978   0.832   6.060   6.527
 8027SOL     OW24979   3.705   0.162   6.516
 8027SOL    HW124980   3.652   0.108   6.583
 8027SOL    HW224981   3.753   0.236   6.563
 8028SOL     OW24982   3.982   5.788   5.566
 8028SOL    HW124983   4.031   5.711   5.526
 8028SOL    HW224984   3.901   5.809   5.510
 8029SOL     OW24985   0.846   0.512   1.305
 8029SOL    HW124986   0.922   0.451   1.283
 8029SOL    HW224987   0.876   0.579   1.374
 8030SOL     OW24988   0.766   4.477   1.297
 8030SOL    HW124989   0.781   4.559   1.353
 8030SOL    HW224990   0.840   4.412   1.313
 8031SOL     OW24991   6.798   0.296   2.297
 8031SOL    HW124992   6.812   0.364   2.368
 8031SOL    HW224993   6.807   0.204   2.336
 8032SOL     OW24994   0.024   2.462   0.684
 8032SOL    HW124995   0.018   2.532   0.613
 8032SOL    HW224996   6.964   2.413   0.689
 8033SOL     OW24997   4.068   4.201   1.338
 8033SOL    HW124998   4.074   4.250   1.251
 8033SOL    HW224999   4.128   4.245   1.405
 8034SOL     OW25000   6.980   0.082   5.791
 8034SOL    HW125001   0.022   0.070   5.720
 8034SOL    HW225002   6.928   7.024   5.802
 8035SOL     OW25003   6.285   0.363   3.817
 8035SOL    HW125004   6.207   0.316   3.859
 8035SOL    HW225005   6.269   0.461   3.817
 8036SOL     OW25006   4.838   3.059   4.199
 8036SOL    HW125007   4.874   2.977   4.155
 8036SOL    HW225008   4.860   3.139   4.143
 8037SOL     OW25009   2.403   1.042   6.301
 8037SOL    HW125010   2.368   0.950   6.319
 8037SOL    HW225011   2.425   1.051   6.204
 8038SOL     OW25012   6.565   5.671   2.000
 8038SOL    HW125013   6.643   5.684   1.937
 8038SOL    HW225014   6.488   5.726   1.968
 8039SOL     OW25015   1.673   2.617   5.145
 8039SOL    HW125016   1.578   2.586   5.156
 8039SOL    HW225017   1.705   2.655   5.232
 8040SOL     OW25018   0.977   6.179   5.788
 8040SOL    HW125019   1.036   6.107   5.825
 8040SOL    HW225020   0.924   6.144   5.712
 8041SOL     OW25021   3.002   1.576   3.292
 8041SOL    HW125022   2.967   1.645   3.356
 8041SOL    HW225023   3.101   1.573   3.298
 8042SOL     OW25024   4.078   4.264   5.714
 8042SOL    HW125025   4.177   4.272   5.725
 8042SOL    HW225026   4.039   4.225   5.798
 8043SOL     OW25027   5.200   5.482   0.125
 8043SOL    HW125028   5.151   5.523   0.048
 8043SOL    HW225029   5.281   5.434   0.091
 8044SOL     OW25030   2.206   2.987   1.517
 8044SOL    HW125031   2.155   3.072   1.529
 8044SOL    HW225032   2.171   2.938   1.437
 8045SOL     OW25033   6.340   3.376   4.797
 8045SOL    HW125034   6.429   3.399   4.757
 8045SOL    HW225035   6.292   3.460   4.821
 8046SOL     OW25036   0.084   4.777   1.213
 8046SOL    HW125037   0.174   4.766   1.170
 8046SOL    HW225038   0.071   4.705   1.281
 8047SOL     OW25039   2.573   6.059   6.732
 8047SOL    HW125040   2.525   5.990   6.680
 8047SOL    HW225041   2.509   6.131   6.760
 8048SOL     OW25042   3.862   2.153   5.432
 8048SOL    HW125043   3.912   2.077   5.391
 8048SOL    HW225044   3.775   2.121   5.468
 8049SOL     OW25045   1.726   1.672   0.252
 8049SOL    HW125046   1.782   1.714   0.324
 8049SOL    HW225047   1.718   1.574   0.270
 8050SOL     OW25048   0.555   4.982   6.216
 8050SOL    HW125049   0.501   5.066   6.225
 8050SOL    HW225050   0.506   4.917   6.157
 8051SOL     OW25051   4.606   6.788   3.691
 8051SOL    HW125052   4.633   6.784   3.787
 8051SOL    HW225053   4.668   6.849   3.641
 8052SOL     OW25054   2.944   2.055   2.444
 8052SOL    HW125055   2.936   2.067   2.345
 8052SOL    HW225056   3.032   2.091   2.475
 8053SOL     OW25057   1.690   2.594   6.836
 8053SOL    HW125058   1.714   2.509   6.884
 8053SOL    HW225059   1.683   2.668   6.903
 8054SOL     OW25060   4.884   3.348   4.868
 8054SOL    HW125061   4.853   3.441   4.887
 8054SOL    HW225062   4.899   3.337   4.770
 8055SOL     OW25063   6.502   0.485   6.707
 8055SOL    HW125064   6.477   0.409   6.767
 8055SOL    HW225065   6.434   0.494   6.634
 8056SOL     OW25066   1.944   1.394   3.947
 8056SOL    HW125067   1.985   1.435   4.029
 8056SOL    HW225068   2.012   1.391   3.874
 8057SOL     OW25069   2.990   2.119   2.186
 8057SOL    HW125070   2.981   2.187   2.113
 8057SOL    HW225071   2.946   2.033   2.157
 8058SOL     OW25072   3.577   6.162   1.667
 8058SOL    HW125073   3.668   6.123   1.655
 8058SOL    HW225074   3.524   6.149   1.584
 8059SOL     OW25075   2.927   2.836   5.766
 8059SOL    HW125076   2.845   2.780   5.760
 8059SOL    HW225077   2.925   2.907   5.695
 8060SOL     OW25078   6.530   0.785   5.703
 8060SOL    HW125079   6.455   0.850   5.703
 8060SOL    HW225080   6.528   0.732   5.618
 8061SOL     OW25081   6.842   0.494   2.493
 8061SOL    HW125082   6.928   0.540   2.516
 8061SOL    HW225083   6.789   0.479   2.577
 8062SOL     OW25084   4.410   5.197   5.340
 8062SOL    HW125085   4.401   5.202   5.240
 8062SOL    HW225086   4.381   5.284   5.380
 8063SOL     OW25087   2.746   4.704   2.910
 8063SOL    HW125088   2.749   4.650   2.994
 8063SOL    HW225089   2.707   4.794   2.930
 8064SOL     OW25090   6.935   1.500   0.416
 8064SOL    HW125091   6.966   1.499   0.511
 8064SOL    HW225092   6.874   1.578   0.402
 8065SOL     OW25093   4.191   6.528   6.653
 8065SOL    HW125094   4.095   6.522   6.625
 8065SOL    HW225095   4.248   6.487   6.582
 8066SOL     OW25096   0.479   6.875   6.328
 8066SOL    HW125097   0.418   6.828   6.392
 8066SOL    HW225098   0.465   6.974   6.335
 8067SOL     OW25099   5.843   0.979   4.445
 8067SOL    HW125100   5.904   1.036   4.500
 8067SOL    HW225101   5.822   0.895   4.496
 8068SOL     OW25102   6.620   3.249   1.751
 8068SOL    HW125103   6.707   3.280   1.790
 8068SOL    HW225104   6.633   3.223   1.656
 8069SOL     OW25105   1.467   3.090   2.410
 8069SOL    HW125106   1.454   3.001   2.367
 8069SOL    HW225107   1.511   3.152   2.344
 8070SOL     OW25108   5.188   4.179   0.803
 8070SOL    HW125109   5.186   4.279   0.812
 8070SOL    HW225110   5.097   4.142   0.820
 8071SOL     OW25111   2.684   0.129   6.387
 8071SOL    HW125112   2.688   0.138   6.288
 8071SOL    HW225113   2.765   0.081   6.420
 8072SOL     OW25114   2.292   2.063   4.789
 8072SOL    HW125115   2.240   2.145   4.812
 8072SOL    HW225116   2.360   2.085   4.720
 8073SOL     OW25117   4.549   0.324   6.973
 8073SOL    HW125118   4.542   0.395   6.903
 8073SOL    HW225119   4.582   0.365   0.031
 8074SOL     OW25120   6.793   0.609   6.564
 8074SOL    HW125121   6.714   0.647   6.613
 8074SOL    HW225122   6.809   0.515   6.593
 8075SOL     OW25123   0.541   0.016   0.933
 8075SOL    HW125124   0.461   0.071   0.910
 8075SOL    HW225125   0.586   7.013   0.848
 8076SOL     OW25126   6.954   6.549   0.560
 8076SOL    HW125127   7.017   6.611   0.513
 8076SOL    HW225128   7.000   6.462   0.578
 8077SOL     OW25129   5.409   4.755   0.823
 8077SOL    HW125130   5.360   4.825   0.875
 8077SOL    HW225131   5.454   4.692   0.886
 8078SOL     OW25132   6.789   0.662   1.258
 8078SOL    HW125133   6.851   0.660   1.336
 8078SOL    HW225134   6.829   0.717   1.185
 8079SOL     OW25135   1.027   0.994   6.476
 8079SOL    HW125136   0.930   0.987   6.453
 8079SOL    HW225137   1.064   0.903   6.490
 8080SOL     OW25138   1.211   3.652   3.415
 8080SOL    HW125139   1.275   3.702   3.473
 8080SOL    HW225140   1.254   3.569   3.381
 8081SOL     OW25141   6.673   6.816   5.128
 8081SOL    HW125142   6.656   6.718   5.119
 8081SOL    HW225143   6.699   6.853   5.039
 8082SOL     OW25144   3.589   1.972   4.147
 8082SOL    HW125145   3.632   1.882   4.150
 8082SOL    HW225146   3.492   1.964   4.168
 8083SOL     OW25147   6.654   2.285   4.619
 8083SOL    HW125148   6.612   2.376   4.618
 8083SOL    HW225149   6.735   2.285   4.561
 8084SOL     OW25150   3.877   1.528   5.507
 8084SOL    HW125151   3.953   1.497   5.450
 8084SOL    HW225152   3.903   1.614   5.552
 8085SOL     OW25153   2.010   6.191   4.445
 8085SOL    HW125154   1.918   6.162   4.419
 8085SOL    HW225155   2.007   6.233   4.535
 8086SOL     OW25156   6.800   1.764   2.698
 8086SOL    HW125157   6.772   1.674   2.664
 8086SOL    HW225158   6.856   1.809   2.629
 8087SOL     OW25159   6.851   1.018   6.433
 8087SOL    HW125160   6.754   1.011   6.409
 8087SOL    HW225161   6.889   1.102   6.394
 8088SOL     OW25162   0.010   0.268   5.434
 8088SOL    HW125163   6.995   0.203   5.370
 8088SOL    HW225164   0.104   0.238   5.453
 8089SOL     OW25165   6.074   1.982   0.147
 8089SOL    HW125166   6.049   1.966   0.051
 8089SOL    HW225167   6.173   1.993   0.154
 8090SOL     OW25168   4.371   2.429   5.462
 8090SOL    HW125169   4.304   2.495   5.494
 8090SOL    HW225170   4.463   2.458   5.490
 8091SOL     OW25171   0.974   4.262   4.178
 8091SOL    HW125172   1.065   4.300   4.161
 8091SOL    HW225173   0.927   4.247   4.091
 8092SOL     OW25174   4.996   1.035   5.844
 8092SOL    HW125175   4.969   1.031   5.940
 8092SOL    HW225176   4.922   0.998   5.787
 8093SOL     OW25177   3.154   6.051   3.199
 8093SOL    HW125178   3.184   6.091   3.112
 8093SOL    HW225179   3.234   6.023   3.252
 8094SOL     OW25180   1.828   3.680   4.065
 8094SOL    HW125181   1.756   3.746   4.085
 8094SOL    HW225182   1.804   3.591   4.103
 8095SOL     OW25183   1.539   4.745   4.958
 8095SOL    HW125184   1.518   4.840   4.936
 8095SOL    HW225185   1.593   4.705   4.884
 8096SOL     OW25186   1.150   4.734   0.650
 8096SOL    HW125187   1.200   4.663   0.600
 8096SOL    HW225188   1.195   4.751   0.738
 8097SOL     OW25189   4.768   6.428   0.192
 8097SOL    HW125190   4.691   6.366   0.178
 8097SOL    HW225191   4.791   6.432   0.289
 8098SOL     OW25192   2.342   5.956   5.186
 8098SOL    HW125193   2.288   5.989   5.109
 8098SOL    HW225194   2.287   5.893   5.241
 8099SOL     OW25195   1.770   4.118   2.381
 8099SOL    HW125196   1.767   4.018   2.392
 8099SOL    HW225197   1.811   4.159   2.462
 8100SOL     OW25198   6.726   0.364   6.623
 8100SOL    HW125199   6.647   0.410   6.664
 8100SOL    HW225200   6.761   0.295   6.687
 8101SOL     OW25201   2.983   5.376   1.034
 8101SOL    HW125202   2.906   5.354   0.974
 8101SOL    HW225203   2.971   5.327   1.121
 8102SOL     OW25204   0.682   3.976   4.082
 8102SOL    HW125205   0.714   3.881   4.081
 8102SOL    HW225206   0.584   3.979   4.060
 8103SOL     OW25207   3.824   0.691   1.464
 8103SOL    HW125208   3.908   0.639   1.482
 8103SOL    HW225209   3.745   0.637   1.490
 8104SOL     OW25210   2.157   5.094   0.091
 8104SOL    HW125211   2.221   5.025   0.124
 8104SOL    HW225212   2.064   5.057   0.093
 8105SOL     OW25213   6.972   6.661   3.595
 8105SOL    HW125214   6.938   6.715   3.518
 8105SOL    HW225215   0.039   6.634   3.578
 8106SOL     OW25216   2.524   6.732   6.258
 8106SOL    HW125217   2.499   6.672   6.333
 8106SOL    HW225218   2.537   6.677   6.175
 8107SOL     OW25219   1.686   6.279   6.687
 8107SOL    HW125220   1.593   6.264   6.654
 8107SOL    HW225221   1.742   6.200   6.662
 8108SOL     OW25222   1.042   1.046   6.778
 8108SOL    HW125223   1.055   1.023   6.682
 8108SOL    HW225224   1.107   0.994   6.834
 8109SOL     OW25225   6.469   2.811   1.622
 8109SOL    HW125226   6.387   2.844   1.669
 8109SOL    HW225227   6.550   2.839   1.673
 8110SOL     OW25228   4.006   4.682   1.116
 8110SOL    HW125229   4.044   4.692   1.209
 8110SOL    HW225230   4.025   4.764   1.063
 8111SOL     OW25231   6.672   1.327   2.856
 8111SOL    HW125232   6.603   1.335   2.784
 8111SOL    HW225233   6.675   1.233   2.889
 8112SOL     OW25234   1.701   4.758   6.722
 8112SOL    HW125235   1.709   4.851   6.760
 8112SOL    HW225236   1.783   4.737   6.668
 8113SOL     OW25237   5.450   4.480   6.031
 8113SOL    HW125238   5.357   4.490   5.994
 8113SOL    HW225239   5.508   4.552   5.993
 8114SOL     OW25240   1.796   3.644   2.758
 8114SOL    HW125241   1.814   3.546   2.745
 8114SOL    HW225242   1.743   3.678   2.680
 8115SOL     OW25243   2.480   1.208   6.072
 8115SOL    HW125244   2.411   1.235   6.004
 8115SOL    HW225245   2.493   1.283   6.137
 8116SOL     OW25246   3.973   3.079   1.630
 8116SOL    HW125247   4.001   3.042   1.541
 8116SOL    HW225248   4.054   3.109   1.681
 8117SOL     OW25249   2.644   6.489   4.348
 8117SOL    HW125250   2.573   6.418   4.340
 8117SOL    HW225251   2.645   6.545   4.265
 8118SOL     OW25252   6.402   2.661   6.802
 8118SOL    HW125253   6.445   2.572   6.812
 8118SOL    HW225254   6.303   2.652   6.816
 8119SOL     OW25255   5.748   6.641   6.978
 8119SOL    HW125256   5.751   6.555   6.926
 8119SOL    HW225257   5.654   6.657   7.009
 8120SOL     OW25258   1.737   6.696   2.151
 8120SOL    HW125259   1.759   6.640   2.230
 8120SOL    HW225260   1.818   6.708   2.094
 8121SOL     OW25261   1.062   2.906   2.466
 8121SOL    HW125262   1.052   2.876   2.561
 8121SOL    HW225263   1.053   2.828   2.405
 8122SOL     OW25264   0.271   5.124   1.359
 8122SOL    HW125265   0.307   5.217   1.369
 8122SOL    HW225266   0.178   5.128   1.321
 8123SOL     OW25267   6.559   1.661   6.920
 8123SOL    HW125268   6.636   1.642   6.860
 8123SOL    HW225269   6.585   1.644   7.015
 8124SOL     OW25270   5.753   5.982   4.807
 8124SOL    HW125271   5.775   5.993   4.710
 8124SOL    HW225272   5.676   5.920   4.817
 8125SOL     OW25273   1.644   5.475   2.264
 8125SOL    HW125274   1.670   5.381   2.241
 8125SOL    HW225275   1.547   5.488   2.246
 8126SOL     OW25276   3.884   5.965   4.611
 8126SOL    HW125277   3.965   5.914   4.639
 8126SOL    HW225278   3.806   5.937   4.668
 8127SOL     OW25279   3.311   2.037   6.240
 8127SOL    HW125280   3.291   2.129   6.273
 8127SOL    HW225281   3.242   1.973   6.274
 8128SOL     OW25282   3.367   2.571   1.155
 8128SOL    HW125283   3.377   2.656   1.207
 8128SOL    HW225284   3.286   2.522   1.186
 8129SOL     OW25285   0.633   2.617   2.350
 8129SOL    HW125286   0.676   2.609   2.440
 8129SOL    HW225287   0.533   2.615   2.361
 8130SOL     OW25288   0.479   5.648   6.970
 8130SOL    HW125289   0.391   5.641   7.016
 8130SOL    HW225290   0.507   5.744   6.966
 8131SOL     OW25291   1.849   2.976   6.594
 8131SOL    HW125292   1.868   3.060   6.645
 8131SOL    HW225293   1.924   2.911   6.610
 8132SOL     OW25294   0.306   1.041   5.148
 8132SOL    HW125295   0.255   1.071   5.229
 8132SOL    HW225296   0.404   1.049   5.166
 8133SOL     OW25297   3.737   4.698   0.830
 8133SOL    HW125298   3.775   4.693   0.922
 8133SOL    HW225299   3.637   4.690   0.835
 8134SOL     OW25300   5.507   1.948   5.860
 8134SOL    HW125301   5.533   1.884   5.788
 8134SOL    HW225302   5.500   1.899   5.947
 8135SOL     OW25303   2.539   6.857   2.105
 8135SOL    HW125304   2.542   6.772   2.157
 8135SOL    HW225305   2.586   6.929   2.156
 8136SOL     OW25306   4.991   4.275   1.903
 8136SOL    HW125307   4.947   4.200   1.953
 8136SOL    HW225308   5.083   4.248   1.876
 8137SOL     OW25309   4.404   1.818   5.782
 8137SOL    HW125310   4.385   1.847   5.688
 8137SOL    HW225311   4.487   1.862   5.815
 8138SOL     OW25312   5.148   1.060   2.607
 8138SOL    HW125313   5.229   1.108   2.639
 8138SOL    HW225314   5.165   1.024   2.515
 8139SOL     OW25315   0.506   2.090   3.363
 8139SOL    HW125316   0.553   2.081   3.451
 8139SOL    HW225317   0.459   2.178   3.360
 8140SOL     OW25318   4.708   2.240   3.566
 8140SOL    HW125319   4.737   2.172   3.499
 8140SOL    HW225320   4.614   2.268   3.546
 8141SOL     OW25321   5.326   4.421   4.337
 8141SOL    HW125322   5.324   4.371   4.251
 8141SOL    HW225323   5.265   4.376   4.403
 8142SOL     OW25324   0.535   5.912   6.392
 8142SOL    HW125325   0.584   5.874   6.314
 8142SOL    HW225326   0.476   5.987   6.361
 8143SOL     OW25327   6.185   3.249   5.834
 8143SOL    HW125328   6.208   3.152   5.821
 8143SOL    HW225329   6.237   3.303   5.767
 8144SOL     OW25330   5.130   0.115   0.238
 8144SOL    HW125331   5.123   0.171   0.321
 8144SOL    HW225332   5.163   0.172   0.163
 8145SOL     OW25333   5.162   6.120   2.861
 8145SOL    HW125334   5.112   6.038   2.888
 8145SOL    HW225335   5.184   6.174   2.943
 8146SOL     OW25336   3.750   1.001   4.342
 8146SOL    HW125337   3.781   0.935   4.410
 8146SOL    HW225338   3.657   0.979   4.313
 8147SOL     OW25339   4.826   0.954   3.380
 8147SOL    HW125340   4.915   0.910   3.393
 8147SOL    HW225341   4.769   0.939   3.461
 8148SOL     OW25342   5.731   4.305   3.545
 8148SOL    HW125343   5.719   4.343   3.637
 8148SOL    HW225344   5.729   4.205   3.550
 8149SOL     OW25345   3.976   4.870   3.064
 8149SOL    HW125346   3.896   4.880   3.004
 8149SOL    HW225347   4.020   4.959   3.075
 8150SOL     OW25348   0.785   5.717   1.292
 8150SOL    HW125349   0.837   5.632   1.295
 8150SOL    HW225350   0.843   5.794   1.318
 8151SOL     OW25351   0.740   1.695   4.898
 8151SOL    HW125352   0.814   1.753   4.932
 8151SOL    HW225353   0.738   1.699   4.798
 8152SOL     OW25354   1.425   0.560   2.804
 8152SOL    HW125355   1.519   0.594   2.814
 8152SOL    HW225356   1.375   0.619   2.741
 8153SOL     OW25357   1.641   6.693   0.370
 8153SOL    HW125358   1.732   6.666   0.400
 8153SOL    HW225359   1.634   6.792   0.368
 8154SOL     OW25360   2.446   7.007   3.525
 8154SOL    HW125361   2.492   6.953   3.595
 8154SOL    HW225362   2.349   6.985   3.524
 8155SOL     OW25363   3.109   3.451   4.164
 8155SOL    HW125364   3.182   3.509   4.202
 8155SOL    HW225365   3.130   3.429   4.069
 8156SOL     OW25366   0.203   0.431   5.869
 8156SOL    HW125367   0.108   0.428   5.899
 8156SOL    HW225368   0.221   0.357   5.805
 8157SOL     OW25369   6.227   2.356   6.578
 8157SOL    HW125370   6.136   2.393   6.594
 8157SOL    HW225371   6.297   2.420   6.611
 8158SOL     OW25372   1.952   5.470   2.483
 8158SOL    HW125373   2.029   5.484   2.421
 8158SOL    HW225374   1.880   5.535   2.462
 8159SOL     OW25375   0.589   5.080   1.349
 8159SOL    HW125376   0.497   5.056   1.320
 8159SOL    HW225377   0.589   5.098   1.448
 8160SOL     OW25378   4.777   1.789   2.283
 8160SOL    HW125379   4.839   1.857   2.244
 8160SOL    HW225380   4.769   1.711   2.221
 8161SOL     OW25381   4.376   2.187   1.587
 8161SOL    HW125382   4.283   2.148   1.582
 8161SOL    HW225383   4.419   2.158   1.672
 8162SOL     OW25384   6.213   0.853   1.520
 8162SOL    HW125385   6.253   0.785   1.459
 8162SOL    HW225386   6.279   0.926   1.536
 8163SOL     OW25387   1.692   3.239   4.754
 8163SOL    HW125388   1.708   3.330   4.793
 8163SOL    HW225389   1.598   3.235   4.718
 8164SOL     OW25390   4.831   2.523   2.868
 8164SOL    HW125391   4.775   2.596   2.828
 8164SOL    HW225392   4.858   2.548   2.961
 8165SOL     OW25393   2.453   5.002   1.079
 8165SOL    HW125394   2.407   4.964   1.159
 8165SOL    HW225395   2.552   4.994   1.091
 8166SOL     OW25396   3.343   6.597   1.278
 8166SOL    HW125397   3.287   6.663   1.229
 8166SOL    HW225398   3.439   6.619   1.266
 8167SOL     OW25399   5.560   3.504   3.841
 8167SOL    HW125400   5.496   3.467   3.908
 8167SOL    HW225401   5.536   3.470   3.750
 8168SOL     OW25402   3.234   1.800   2.325
 8168SOL    HW125403   3.252   1.888   2.281
 8168SOL    HW225404   3.300   1.733   2.293
 8169SOL     OW25405   5.214   4.410   5.413
 8169SOL    HW125406   5.260   4.452   5.491
 8169SOL    HW225407   5.272   4.339   5.374
 8170SOL     OW25408   1.532   4.726   4.462
 8170SOL    HW125409   1.454   4.673   4.428
 8170SOL    HW225410   1.614   4.702   4.410
 8171SOL     OW25411   1.660   1.299   6.132
 8171SOL    HW125412   1.730   1.346   6.185
 8171SOL    HW225413   1.666   1.200   6.148
 8172SOL     OW25414   6.954   6.490   1.371
 8172SOL    HW125415   6.923   6.433   1.447
 8172SOL    HW225416   0.021   6.519   1.388
 8173SOL     OW25417   5.831   2.449   6.837
 8173SOL    HW125418   5.794   2.385   6.770
 8173SOL    HW225419   5.864   2.399   6.917
 8174SOL     OW25420   5.463   6.617   1.995
 8174SOL    HW125421   5.399   6.673   2.047
 8174SOL    HW225422   5.550   6.612   2.044
 8175SOL     OW25423   1.391   2.583   4.871
 8175SOL    HW125424   1.374   2.680   4.852
 8175SOL    HW225425   1.385   2.567   4.969
 8176SOL     OW25426   3.974   5.229   3.306
 8176SOL    HW125427   4.034   5.166   3.258
 8176SOL    HW225428   4.015   5.320   3.308
 8177SOL     OW25429   0.919   0.084   5.420
 8177SOL    HW125430   0.965   0.011   5.471
 8177SOL    HW225431   0.863   0.138   5.482
 8178SOL     OW25432   1.922   6.763   6.132
 8178SOL    HW125433   1.964   6.708   6.060
 8178SOL    HW225434   1.906   6.856   6.098
 8179SOL     OW25435   3.165   0.511   0.057
 8179SOL    HW125436   3.111   0.548   7.008
 8179SOL    HW225437   3.120   0.532   0.143
 8180SOL     OW25438   4.663   4.878   5.742
 8180SOL    HW125439   4.569   4.842   5.738
 8180SOL    HW225440   4.695   4.895   5.649
 8181SOL     OW25441   2.518   2.236   2.429
 8181SOL    HW125442   2.586   2.277   2.369
 8181SOL    HW225443   2.431   2.228   2.381
 8182SOL     OW25444   5.196   2.639   5.825
 8182SOL    HW125445   5.182   2.658   5.728
 8182SOL    HW225446   5.172   2.544   5.845
 8183SOL     OW25447   2.033   2.716   3.749
 8183SOL    HW125448   2.085   2.801   3.758
 8183SOL    HW225449   2.004   2.684   3.839
 8184SOL     OW25450   5.686   6.332   4.881
 8184SOL    HW125451   5.732   6.413   4.918
 8184SOL    HW225452   5.703   6.326   4.782
 8185SOL     OW25453   1.749   2.131   2.924
 8185SOL    HW125454   1.681   2.094   2.986
 8185SOL    HW225455   1.748   2.079   2.838
 8186SOL     OW25456   4.189   4.168   6.482
 8186SOL    HW125457   4.129   4.199   6.556
 8186SOL    HW225458   4.152   4.198   6.394
 8187SOL     OW25459   1.988   0.945   5.712
 8187SOL    HW125460   1.903   0.916   5.757
 8187SOL    HW225461   2.007   0.884   5.635
 8188SOL     OW25462   5.459   3.499   2.830
 8188SOL    HW125463   5.473   3.454   2.742
 8188SOL    HW225464   5.362   3.523   2.841
 8189SOL     OW25465   6.983   5.071   2.857
 8189SOL    HW125466   6.953   5.036   2.768
 8189SOL    HW225467   6.919   5.041   2.927
 8190SOL     OW25468   5.755   3.518   2.222
 8190SOL    HW125469   5.712   3.557   2.141
 8190SOL    HW225470   5.821   3.584   2.259
 8191SOL     OW25471   0.050   5.256   1.789
 8191SOL    HW125472   0.078   5.310   1.710
 8191SOL    HW225473   0.111   5.177   1.799
 8192SOL     OW25474   1.426   3.327   0.508
 8192SOL    HW125475   1.492   3.377   0.453
 8192SOL    HW225476   1.334   3.365   0.494
 8193SOL     OW25477   3.765   0.273   5.334
 8193SOL    HW125478   3.820   0.356   5.340
 8193SOL    HW225479   3.805   0.203   5.393
 8194SOL     OW25480   1.858   0.230   1.813
 8194SOL    HW125481   1.950   0.189   1.815
 8194SOL    HW225482   1.795   0.166   1.769
 8195SOL     OW25483   4.958   1.368   1.173
 8195SOL    HW125484   4.916   1.302   1.235
 8195SOL    HW225485   4.956   1.459   1.214
 8196SOL     OW25486   2.208   0.198   0.046
 8196SOL    HW125487   2.244   0.115   0.004
 8196SOL    HW225488   2.273   0.273   0.034
 8197SOL     OW25489   0.640   6.848   1.100
 8197SOL    HW125490   0.588   6.816   1.179
 8197SOL    HW225491   0.590   6.924   1.056
 8198SOL     OW25492   3.516   0.339   2.814
 8198SOL    HW125493   3.539   0.422   2.763
 8198SOL    HW225494   3.579   0.330   2.892
 8199SOL     OW25495   5.782   5.094   0.332
 8199SOL    HW125496   5.790   5.143   0.419
 8199SOL    HW225497   5.747   5.002   0.349
 8200SOL     OW25498   4.081   3.539   2.046
 8200SOL    HW125499   4.116   3.553   2.138
 8200SOL    HW225500   4.010   3.468   2.048
 8201SOL     OW25501   6.504   0.565   4.727
 8201SOL    HW125502   6.476   0.526   4.815
 8201SOL    HW225503   6.478   0.661   4.723
 8202SOL     OW25504   1.662   3.899   4.148
 8202SOL    HW125505   1.690   3.973   4.087
 8202SOL    HW225506   1.688   3.923   4.242
 8203SOL     OW25507   6.213   4.233   0.365
 8203SOL    HW125508   6.145   4.164   0.339
 8203SOL    HW225509   6.232   4.292   0.286
 8204SOL     OW25510   3.524   0.107   0.902
 8204SOL    HW125511   3.585   0.144   0.832
 8204SOL    HW225512   3.530   0.164   0.984
 8205SOL     OW25513   5.289   5.563   3.155
 8205SOL    HW125514   5.216   5.626   3.183
 8205SOL    HW225515   5.273   5.534   3.060
 8206SOL     OW25516   4.258   1.759   4.096
 8206SOL    HW125517   4.253   1.746   4.195
 8206SOL    HW225518   4.257   1.671   4.050
 8207SOL     OW25519   3.024   5.725   6.720
 8207SOL    HW125520   3.090   5.787   6.676
 8207SOL    HW225521   2.940   5.775   6.739
 8208SOL     OW25522   1.566   5.702   0.147
 8208SOL    HW125523   1.573   5.754   0.062
 8208SOL    HW225524   1.534   5.761   0.221
 8209SOL     OW25525   1.556   5.720   4.804
 8209SOL    HW125526   1.473   5.722   4.861
 8209SOL    HW225527   1.530   5.732   4.708
 8210SOL     OW25528   2.228   1.869   0.538
 8210SOL    HW125529   2.201   1.900   0.447
 8210SOL    HW225530   2.243   1.770   0.537
 8211SOL     OW25531   3.763   4.005   3.903
 8211SOL    HW125532   3.743   3.931   3.967
 8211SOL    HW225533   3.812   4.078   3.950
 8212SOL     OW25534   4.266   5.385   0.088
 8212SOL    HW125535   4.194   5.317   0.103
 8212SOL    HW225536   4.227   5.466   0.044
 8213SOL     OW25537   4.586   4.379   1.670
 8213SOL    HW125538   4.529   4.331   1.737
 8213SOL    HW225539   4.676   4.398   1.711
 8214SOL     OW25540   3.869   5.160   2.828
 8214SOL    HW125541   3.841   5.250   2.792
 8214SOL    HW225542   3.814   5.137   2.907
 8215SOL     OW25543   2.624   6.225   6.201
 8215SOL    HW125544   2.643   6.310   6.250
 8215SOL    HW225545   2.607   6.152   6.267
 8216SOL     OW25546   5.253   5.787   1.340
 8216SOL    HW125547   5.213   5.786   1.431
 8216SOL    HW225548   5.283   5.880   1.318
 8217SOL     OW25549   3.300   6.570   3.846
 8217SOL    HW125550   3.398   6.554   3.843
 8217SOL    HW225551   3.251   6.484   3.829
 8218SOL     OW25552   2.341   6.240   5.168
 8218SOL    HW125553   2.317   6.180   5.092
 8218SOL    HW225554   2.422   6.205   5.215
 8219SOL     OW25555   3.884   3.075   2.340
 8219SOL    HW125556   3.932   3.154   2.301
 8219SOL    HW225557   3.853   3.015   2.266
 8220SOL     OW25558   3.874   4.028   5.685
 8220SOL    HW125559   3.823   4.015   5.770
 8220SOL    HW225560   3.909   4.122   5.681
 8221SOL     OW25561   6.385   3.681   4.141
 8221SOL    HW125562   6.445   3.755   4.109
 8221SOL    HW225563   6.377   3.685   4.240
 8222SOL     OW25564   5.969   2.730   7.003
 8222SOL    HW125565   5.930   2.820   7.021
 8222SOL    HW225566   5.900   2.660   7.020
 8223SOL     OW25567   2.001   6.435   5.368
 8223SOL    HW125568   2.026   6.429   5.271
 8223SOL    HW225569   1.916   6.384   5.383
 8224SOL     OW25570   5.393   1.232   6.440
 8224SOL    HW125571   5.480   1.223   6.390
 8224SOL    HW225572   5.410   1.278   6.527
 8225SOL     OW25573   5.797   3.195   0.198
 8225SOL    HW125574   5.732   3.234   0.264
 8225SOL    HW225575   5.823   3.103   0.226
 8226SOL     OW25576   3.874   1.022   6.454
 8226SOL    HW125577   3.792   0.970   6.475
 8226SOL    HW225578   3.848   1.108   6.411
 8227SOL     OW25579   4.567   2.553   3.141
 8227SOL    HW125580   4.618   2.499   3.208
 8227SOL    HW225581   4.620   2.635   3.117
 8228SOL     OW25582   2.949   0.306   5.010
 8228SOL    HW125583   2.918   0.318   5.105
 8228SOL    HW225584   2.875   0.266   4.956
 8229SOL     OW25585   4.832   4.493   0.968
 8229SOL    HW125586   4.868   4.411   1.013
 8229SOL    HW225587   4.804   4.559   1.038
 8230SOL     OW25588   6.120   1.287   5.607
 8230SOL    HW125589   6.190   1.354   5.581
 8230SOL    HW225590   6.087   1.308   5.699
 8231SOL     OW25591   2.908   1.215   2.147
 8231SOL    HW125592   2.991   1.166   2.119
 8231SOL    HW225593   2.896   1.295   2.090
 8232SOL     OW25594   3.792   6.264   3.171
 8232SOL    HW125595   3.716   6.253   3.234
 8232SOL    HW225596   3.868   6.310   3.218
 8233SOL     OW25597   1.923   0.978   6.504
 8233SOL    HW125598   1.965   0.888   6.501
 8233SOL    HW225599   1.836   0.972   6.554
 8234SOL     OW25600   1.146   2.839   0.327
 8234SOL    HW125601   1.060   2.837   0.377
 8234SOL    HW225602   1.161   2.751   0.283
 8235SOL     OW25603   0.962   0.844   1.234
 8235SOL    HW125604   0.984   0.898   1.154
 8235SOL    HW225605   1.046   0.810   1.276
 8236SOL     OW25606   0.395   6.889   1.748
 8236SOL    HW125607   0.346   6.953   1.690
 8236SOL    HW225608   0.473   6.850   1.698
 8237SOL     OW25609   3.850   4.929   5.194
 8237SOL    HW125610   3.907   4.852   5.167
 8237SOL    HW225611   3.908   5.005   5.222
 8238SOL     OW25612   0.198   5.595   0.436
 8238SOL    HW125613   0.158   5.503   0.444
 8238SOL    HW225614   0.295   5.591   0.460
 8239SOL     OW25615   3.257   1.691   5.867
 8239SOL    HW125616   3.269   1.788   5.889
 8239SOL    HW225617   3.331   1.661   5.806
 8240SOL     OW25618   3.567   3.663   5.025
 8240SOL    HW125619   3.520   3.739   5.070
 8240SOL    HW225620   3.609   3.604   5.094
 8241SOL     OW25621   1.289   3.812   5.306
 8241SOL    HW125622   1.237   3.883   5.354
 8241SOL    HW225623   1.368   3.785   5.362
 8242SOL     OW25624   0.389   2.984   2.303
 8242SOL    HW125625   0.403   2.932   2.219
 8242SOL    HW225626   0.471   3.038   2.324
 8243SOL     OW25627   1.444   6.667   3.976
 8243SOL    HW125628   1.438   6.728   3.897
 8243SOL    HW225629   1.357   6.670   4.027
 8244SOL     OW25630   6.595   0.926   3.457
 8244SOL    HW125631   6.513   0.874   3.484
 8244SOL    HW225632   6.624   0.984   3.532
 8245SOL     OW25633   4.723   2.815   2.597
 8245SOL    HW125634   4.704   2.797   2.694
 8245SOL    HW225635   4.757   2.909   2.587
 8246SOL     OW25636   1.735   4.492   6.857
 8246SOL    HW125637   1.707   4.571   6.803
 8246SOL    HW225638   1.661   4.424   6.858
 8247SOL     OW25639   2.602   5.131   3.617
 8247SOL    HW125640   2.694   5.135   3.655
 8247SOL    HW225641   2.607   5.120   3.518
 8248SOL     OW25642   0.016   5.471   2.854
 8248SOL    HW125643   0.043   5.553   2.904
 8248SOL    HW225644   6.944   5.472   2.841
 8249SOL     OW25645   3.294   1.433   6.633
 8249SOL    HW125646   3.328   1.345   6.667
 8249SOL    HW225647   3.351   1.463   6.556
 8250SOL     OW25648   1.518   2.001   0.161
 8250SOL    HW125649   1.606   2.014   0.206
 8250SOL    HW225650   1.527   1.935   0.086
 8251SOL     OW25651   1.068   2.133   6.142
 8251SOL    HW125652   1.094   2.174   6.055
 8251SOL    HW225653   1.097   2.037   6.144
 8252SOL     OW25654   0.815   2.320   6.632
 8252SOL    HW125655   0.763   2.242   6.599
 8252SOL    HW225656   0.903   2.325   6.584
 8253SOL     OW25657   5.718   5.224   6.170
 8253SOL    HW125658   5.746   5.196   6.262
 8253SOL    HW225659   5.739   5.150   6.105
 8254SOL     OW25660   6.283   5.843   0.033
 8254SOL    HW125661   6.250   5.900   0.109
 8254SOL    HW225662   6.312   5.902   6.985
 8255SOL     OW25663   1.146   0.188   5.545
 8255SOL    HW125664   1.089   0.183   5.627
 8255SOL    HW225665   1.171   0.095   5.516
 8256SOL     OW25666   1.272   6.277   4.174
 8256SOL    HW125667   1.232   6.285   4.083
 8256SOL    HW225668   1.350   6.339   4.182
 8257SOL     OW25669   5.017   3.593   3.246
 8257SOL    HW125670   5.085   3.624   3.179
 8257SOL    HW225671   4.989   3.669   3.303
 8258SOL     OW25672   0.672   3.029   3.712
 8258SOL    HW125673   0.735   3.100   3.742
 8258SOL    HW225674   0.692   2.944   3.761
 8259SOL     OW25675   5.814   1.951   4.382
 8259SOL    HW125676   5.822   1.924   4.286
 8259SOL    HW225677   5.740   2.018   4.391
 8260SOL     OW25678   4.966   2.539   6.930
 8260SOL    HW125679   4.998   2.634   6.927
 8260SOL    HW225680   5.038   2.479   6.896
 8261SOL     OW25681   6.338   1.394   2.823
 8261SOL    HW125682   6.362   1.427   2.731
 8261SOL    HW225683   6.364   1.298   2.831
 8262SOL     OW25684   5.210   3.737   2.053
 8262SOL    HW125685   5.235   3.831   2.032
 8262SOL    HW225686   5.293   3.684   2.072
 8263SOL     OW25687   6.823   1.925   6.235
 8263SOL    HW125688   6.779   1.882   6.156
 8263SOL    HW225689   6.870   1.856   6.289
 8264SOL     OW25690   3.150   0.807   1.448
 8264SOL    HW125691   3.140   0.845   1.540
 8264SOL    HW225692   3.116   0.713   1.447
 8265SOL     OW25693   4.222   5.442   0.442
 8265SOL    HW125694   4.289   5.460   0.514
 8265SOL    HW225695   4.265   5.449   0.352
 8266SOL     OW25696   3.266   1.527   3.293
 8266SOL    HW125697   3.277   1.435   3.257
 8266SOL    HW225698   3.337   1.586   3.256
 8267SOL     OW25699   1.832   2.398   3.597
 8267SOL    HW125700   1.923   2.359   3.582
 8267SOL    HW225701   1.764   2.324   3.598
 8268SOL     OW25702   3.177   4.501   6.964
 8268SOL    HW125703   3.201   4.597   6.949
 8268SOL    HW225704   3.091   4.481   6.917
 8269SOL     OW25705   6.583   2.076   5.159
 8269SOL    HW125706   6.611   2.122   5.075
 8269SOL    HW225707   6.623   1.985   5.162
 8270SOL     OW25708   4.063   4.767   0.212
 8270SOL    HW125709   3.996   4.754   0.285
 8270SOL    HW225710   4.128   4.690   0.213
 8271SOL     OW25711   3.231   6.725   5.801
 8271SOL    HW125712   3.254   6.673   5.884
 8271SOL    HW225713   3.197   6.815   5.826
 8272SOL     OW25714   0.168   0.447   2.113
 8272SOL    HW125715   0.126   0.512   2.177
 8272SOL    HW225716   0.138   0.354   2.136
 8273SOL     OW25717   3.656   0.212   6.247
 8273SOL    HW125718   3.561   0.197   6.218
 8273SOL    HW225719   3.674   0.159   6.330
 8274SOL     OW25720   5.226   6.101   5.322
 8274SOL    HW125721   5.143   6.093   5.377
 8274SOL    HW225722   5.207   6.066   5.230
 8275SOL     OW25723   4.976   1.067   4.947
 8275SOL    HW125724   4.946   1.154   4.908
 8275SOL    HW225725   4.961   0.994   4.880
 8276SOL     OW25726   5.560   2.745   0.254
 8276SOL    HW125727   5.518   2.658   0.279
 8276SOL    HW225728   5.625   2.730   0.179
 8277SOL     OW25729   0.984   6.165   1.523
 8277SOL    HW125730   1.020   6.250   1.483
 8277SOL    HW225731   0.928   6.187   1.603
 8278SOL     OW25732   1.669   0.092   1.165
 8278SOL    HW125733   1.579   0.113   1.206
 8278SOL    HW225734   1.690   7.023   1.181
 8279SOL     OW25735   4.814   5.742   5.949
 8279SOL    HW125736   4.760   5.706   6.025
 8279SOL    HW225737   4.875   5.813   5.982
 8280SOL     OW25738   5.549   4.597   6.635
 8280SOL    HW125739   5.545   4.668   6.706
 8280SOL    HW225740   5.588   4.514   6.673
 8281SOL     OW25741   2.912   5.609   6.252
 8281SOL    HW125742   2.952   5.602   6.160
 8281SOL    HW225743   2.933   5.527   6.304
 8282SOL     OW25744   3.887   2.614   1.261
 8282SOL    HW125745   3.970   2.622   1.207
 8282SOL    HW225746   3.837   2.532   1.234
 8283SOL     OW25747   0.552   0.524   3.090
 8283SOL    HW125748   0.570   0.430   3.063
 8283SOL    HW225749   0.607   0.547   3.170
 8284SOL     OW25750   5.200   1.850   2.033
 8284SOL    HW125751   5.214   1.822   1.939
 8284SOL    HW225752   5.286   1.843   2.083
 8285SOL     OW25753   0.561   4.415   0.333
 8285SOL    HW125754   0.580   4.422   0.430
 8285SOL    HW225755   0.578   4.322   0.302
 8286SOL     OW25756   6.169   2.376   6.964
 8286SOL    HW125757   6.161   2.474   6.943
 8286SOL    HW225758   6.265   2.349   6.957
 8287SOL     OW25759   1.725   1.384   2.892
 8287SOL    HW125760   1.697   1.302   2.941
 8287SOL    HW225761   1.648   1.448   2.888
 8288SOL     OW25762   1.943   0.302   2.275
 8288SOL    HW125763   1.934   0.203   2.291
 8288SOL    HW225764   2.039   0.328   2.288
 8289SOL     OW25765   5.678   0.033   0.235
 8289SOL    HW125766   5.602   6.998   0.214
 8289SOL    HW225767   5.751   7.009   0.280
 8290SOL     OW25768   4.848   2.562   2.147
 8290SOL    HW125769   4.936   2.547   2.193
 8290SOL    HW225770   4.812   2.651   2.174
 8291SOL     OW25771   4.825   5.990   6.287
 8291SOL    HW125772   4.815   6.083   6.252
 8291SOL    HW225773   4.841   5.993   6.386
 8292SOL     OW25774   0.313   3.064   5.532
 8292SOL    HW125775   0.274   3.117   5.607
 8292SOL    HW225776   0.403   3.030   5.559
 8293SOL     OW25777   3.024   5.225   4.165
 8293SOL    HW125778   2.956   5.223   4.092
 8293SOL    HW225779   2.990   5.171   4.243
 8294SOL     OW25780   5.996   3.514   5.971
 8294SOL    HW125781   5.901   3.521   6.001
 8294SOL    HW225782   6.002   3.537   5.874
 8295SOL     OW25783   4.788   5.142   2.790
 8295SOL    HW125784   4.739   5.209   2.845
 8295SOL    HW225785   4.722   5.090   2.735
 8296SOL     OW25786   4.107   0.371   2.482
 8296SOL    HW125787   4.206   0.376   2.466
 8296SOL    HW225788   4.065   0.458   2.460
 8297SOL     OW25789   5.601   4.376   1.982
 8297SOL    HW125790   5.678   4.316   2.000
 8297SOL    HW225791   5.612   4.418   1.891
 8298SOL     OW25792   6.731   6.569   0.963
 8298SOL    HW125793   6.652   6.609   1.011
 8298SOL    HW225794   6.701   6.490   0.909
 8299SOL     OW25795   1.216   3.308   6.836
 8299SOL    HW125796   1.174   3.354   6.759
 8299SOL    HW225797   1.161   3.228   6.862
 8300SOL     OW25798   6.062   5.105   4.610
 8300SOL    HW125799   6.142   5.143   4.656
 8300SOL    HW225800   6.036   5.019   4.654
 8301SOL     OW25801   6.766   5.906   7.019
 8301SOL    HW125802   6.744   5.863   0.080
 8301SOL    HW225803   6.729   5.850   6.945
 8302SOL     OW25804   4.027   6.392   5.426
 8302SOL    HW125805   3.940   6.360   5.389
 8302SOL    HW225806   4.080   6.313   5.457
 8303SOL     OW25807   1.254   4.692   4.328
 8303SOL    HW125808   1.262   4.775   4.274
 8303SOL    HW225809   1.161   4.683   4.363
 8304SOL     OW25810   6.671   2.817   4.108
 8304SOL    HW125811   6.736   2.764   4.054
 8304SOL    HW225812   6.588   2.833   4.054
 8305SOL     OW25813   4.401   0.335   5.810
 8305SOL    HW125814   4.364   0.379   5.728
 8305SOL    HW225815   4.484   0.286   5.788
 8306SOL     OW25816   6.137   0.434   4.088
 8306SOL    HW125817   6.040   0.456   4.100
 8306SOL    HW225818   6.186   0.516   4.057
 8307SOL     OW25819   0.914   4.224   3.701
 8307SOL    HW125820   1.011   4.232   3.678
 8307SOL    HW225821   0.905   4.212   3.800
 8308SOL     OW25822   1.542   5.204   0.215
 8308SOL    HW125823   1.562   5.133   0.282
 8308SOL    HW225824   1.514   5.161   0.129
 8309SOL     OW25825   6.366   5.315   3.121
 8309SOL    HW125826   6.289   5.257   3.093
 8309SOL    HW225827   6.364   5.327   3.221
 8310SOL     OW25828   2.616   6.598   2.863
 8310SOL    HW125829   2.616   6.698   2.861
 8310SOL    HW225830   2.592   6.567   2.956
 8311SOL     OW25831   4.450   6.162   2.184
 8311SOL    HW125832   4.449   6.181   2.282
 8311SOL    HW225833   4.381   6.093   2.162
 8312SOL     OW25834   6.734   1.587   0.616
 8312SOL    HW125835   6.647   1.545   0.588
 8312SOL    HW225836   6.762   1.549   0.704
 8313SOL     OW25837   5.471   3.171   6.350
 8313SOL    HW125838   5.451   3.074   6.368
 8313SOL    HW225839   5.562   3.193   6.386
 8314SOL     OW25840   4.375   5.794   3.753
 8314SOL    HW125841   4.281   5.762   3.762
 8314SOL    HW225842   4.438   5.724   3.788
 8315SOL     OW25843   3.108   2.894   6.531
 8315SOL    HW125844   3.150   2.956   6.465
 8315SOL    HW225845   3.153   2.805   6.526
 8316SOL     OW25846   1.763   1.795   5.467
 8316SOL    HW125847   1.687   1.752   5.419
 8316SOL    HW225848   1.795   1.874   5.416
 8317SOL     OW25849   1.233   2.174   4.820
 8317SOL    HW125850   1.145   2.139   4.791
 8317SOL    HW225851   1.230   2.194   4.918
 8318SOL     OW25852   4.451   6.845   6.237
 8318SOL    HW125853   4.537   6.880   6.199
 8318SOL    HW225854   4.378   6.909   6.218
 8319SOL     OW25855   2.300   5.566   0.017
 8319SOL    HW125856   2.300   5.467   0.002
 8319SOL    HW225857   2.386   5.605   7.011
 8320SOL     OW25858   3.784   3.892   5.459
 8320SOL    HW125859   3.841   3.924   5.534
 8320SOL    HW225860   3.754   3.798   5.477
 8321SOL     OW25861   0.344   0.329   0.952
 8321SOL    HW125862   0.364   0.334   1.050
 8321SOL    HW225863   0.372   0.414   0.908
 8322SOL     OW25864   1.255   0.480   0.641
 8322SOL    HW125865   1.156   0.466   0.639
 8322SOL    HW225866   1.277   0.568   0.598
 8323SOL     OW25867   5.443   4.793   6.829
 8323SOL    HW125868   5.384   4.719   6.861
 8323SOL    HW225869   5.491   4.833   6.908
 8324SOL     OW25870   5.261   6.607   6.585
 8324SOL    HW125871   5.224   6.622   6.676
 8324SOL    HW225872   5.352   6.566   6.591
 8325SOL     OW25873   1.585   6.316   4.808
 8325SOL    HW125874   1.532   6.318   4.893
 8325SOL    HW225875   1.619   6.224   4.792
 8326SOL     OW25876   2.083   2.532   6.898
 8326SOL    HW125877   2.056   2.626   6.919
 8326SOL    HW225878   2.066   2.474   6.977
 8327SOL     OW25879   0.834   6.314   5.201
 8327SOL    HW125880   0.817   6.218   5.179
 8327SOL    HW225881   0.916   6.345   5.153
 8328SOL     OW25882   1.267   6.379   1.158
 8328SOL    HW125883   1.332   6.424   1.098
 8328SOL    HW225884   1.245   6.288   1.123
 8329SOL     OW25885   1.515   2.827   5.548
 8329SOL    HW125886   1.439   2.826   5.482
 8329SOL    HW225887   1.597   2.791   5.504
 8330SOL     OW25888   2.445   6.627   0.465
 8330SOL    HW125889   2.534   6.604   0.425
 8330SOL    HW225890   2.457   6.698   0.534
 8331SOL     OW25891   2.271   2.469   6.041
 8331SOL    HW125892   2.238   2.457   6.135
 8331SOL    HW225893   2.357   2.419   6.030
 8332SOL     OW25894   5.890   4.168   1.362
 8332SOL    HW125895   5.966   4.218   1.404
 8332SOL    HW225896   5.804   4.194   1.406
 8333SOL     OW25897   2.500   4.134   6.708
 8333SOL    HW125898   2.484   4.100   6.615
 8333SOL    HW225899   2.445   4.217   6.723
 8334SOL     OW25900   3.527   2.273   5.259
 8334SOL    HW125901   3.437   2.313   5.245
 8334SOL    HW225902   3.552   2.217   5.180
 8335SOL     OW25903   5.206   4.553   5.920
 8335SOL    HW125904   5.143   4.546   5.842
 8335SOL    HW225905   5.168   4.617   5.987
 8336SOL     OW25906   1.548   3.330   3.466
 8336SOL    HW125907   1.567   3.428   3.464
 8336SOL    HW225908   1.630   3.281   3.496
 8337SOL     OW25909   7.025   1.419   4.658
 8337SOL    HW125910   6.997   1.478   4.733
 8337SOL    HW225911   6.949   1.411   4.592
 8338SOL     OW25912   2.678   5.720   1.170
 8338SOL    HW125913   2.596   5.667   1.148
 8338SOL    HW225914   2.677   5.744   1.267
 8339SOL     OW25915   6.054   0.502   1.855
 8339SOL    HW125916   6.109   0.577   1.816
 8339SOL    HW225917   5.976   0.483   1.795
 8340SOL     OW25918   5.927   2.259   6.591
 8340SOL    HW125919   5.912   2.161   6.578
 8340SOL    HW225920   5.917   2.306   6.503
 8341SOL     OW25921   4.071   0.771   0.801
 8341SOL    HW125922   4.073   0.719   0.886
 8341SOL    HW225923   4.076   0.868   0.821
 8342SOL     OW25924   3.714   0.835   0.196
 8342SOL    HW125925   3.716   0.908   0.128
 8342SOL    HW225926   3.717   0.746   0.151
 8343SOL     OW25927   6.007   4.961   2.778
 8343SOL    HW125928   5.911   4.990   2.784
 8343SOL    HW225929   6.040   4.935   2.869
 8344SOL     OW25930   2.543   4.853   6.176
 8344SOL    HW125931   2.578   4.788   6.109
 8344SOL    HW225932   2.558   4.946   6.142
 8345SOL     OW25933   5.855   0.337   4.136
 8345SOL    HW125934   5.822   0.427   4.167
 8345SOL    HW225935   5.866   0.277   4.215
 8346SOL     OW25936   5.680   3.774   4.293
 8346SOL    HW125937   5.684   3.737   4.200
 8346SOL    HW225938   5.585   3.775   4.324
 8347SOL     OW25939   1.514   1.407   5.931
 8347SOL    HW125940   1.593   1.365   5.974
 8347SOL    HW225941   1.430   1.369   5.971
 8348SOL     OW25942   3.074   5.590   1.795
 8348SOL    HW125943   2.999   5.585   1.729
 8348SOL    HW225944   3.047   5.646   1.873
 8349SOL     OW25945   4.770   6.507   1.626
 8349SOL    HW125946   4.706   6.564   1.678
 8349SOL    HW225947   4.718   6.439   1.573
 8350SOL     OW25948   1.105   6.965   0.476
 8350SOL    HW125949   1.066   0.022   0.514
 8350SOL    HW225950   1.204   6.977   0.465
 8351SOL     OW25951   0.025   2.863   2.712
 8351SOL    HW125952   7.025   2.919   2.791
 8351SOL    HW225953   0.038   2.768   2.741
 8352SOL     OW25954   2.772   6.655   6.700
 8352SOL    HW125955   2.775   6.751   6.672
 8352SOL    HW225956   2.849   6.606   6.659
 8353SOL     OW25957   0.797   6.337   2.330
 8353SOL    HW125958   0.875   6.275   2.324
 8353SOL    HW225959   0.822   6.425   2.289
 8354SOL     OW25960   4.383   1.630   3.154
 8354SOL    HW125961   4.416   1.637   3.060
 8354SOL    HW225962   4.371   1.722   3.192
 8355SOL     OW25963   2.889   5.210   6.109
 8355SOL    HW125964   2.983   5.182   6.088
 8355SOL    HW225965   2.850   5.259   6.032
 8356SOL     OW25966   2.655   4.023   1.003
 8356SOL    HW125967   2.666   4.121   0.987
 8356SOL    HW225968   2.708   3.995   1.083
 8357SOL     OW25969   4.467   0.081   4.390
 8357SOL    HW125970   4.536   0.101   4.320
 8357SOL    HW225971   4.395   0.150   4.387
 8358SOL     OW25972   0.573   1.072   5.195
 8358SOL    HW125973   0.610   1.153   5.151
 8358SOL    HW225974   0.623   0.991   5.165
 8359SOL     OW25975   4.152   2.548   5.633
 8359SOL    HW125976   4.105   2.460   5.624
 8359SOL    HW225977   4.180   2.561   5.728
 8360SOL     OW25978   3.941   6.891   1.324
 8360SOL    HW125979   3.997   6.957   1.375
 8360SOL    HW225980   3.999   6.817   1.291
 8361SOL     OW25981   4.554   1.608   0.209
 8361SOL    HW125982   4.551   1.520   0.162
 8361SOL    HW225983   4.599   1.598   0.298
 8362SOL     OW25984   0.026   3.123   1.351
 8362SOL    HW125985   0.124   3.109   1.369
 8362SOL    HW225986   7.014   3.039   1.315
 8363SOL     OW25987   1.184   2.632   1.377
 8363SOL    HW125988   1.232   2.707   1.329
 8363SOL    HW225989   1.250   2.563   1.405
 8364SOL     OW25990   0.628   2.504   4.348
 8364SOL    HW125991   0.711   2.552   4.377
 8364SOL    HW225992   0.643   2.462   4.259
 8365SOL     OW25993   1.218   2.254   1.557
 8365SOL    HW125994   1.154   2.322   1.522
 8365SOL    HW225995   1.259   2.204   1.481
 8366SOL     OW25996   5.138   5.418   1.951
 8366SOL    HW125997   5.218   5.367   1.983
 8366SOL    HW225998   5.057   5.388   2.001
 8367SOL     OW25999   2.116   4.328   3.774
 8367SOL    HW126000   2.205   4.312   3.731
 8367SOL    HW226001   2.072   4.407   3.733
 8368SOL     OW26002   6.378   5.266   6.035
 8368SOL    HW126003   6.295   5.237   6.083
 8368SOL    HW226004   6.370   5.243   5.938
 8369SOL     OW26005   1.585   6.987   0.060
 8369SOL    HW126006   1.673   6.959   0.021
 8369SOL    HW226007   1.595   6.997   0.159
 8370SOL     OW26008   2.988   2.984   0.631
 8370SOL    HW126009   2.932   3.048   0.578
 8370SOL    HW226010   2.969   2.996   0.728
 8371SOL     OW26011   3.144   3.923   6.592
 8371SOL    HW126012   3.057   3.966   6.618
 8371SOL    HW226013   3.189   3.886   6.673
 8372SOL     OW26014   1.427   6.409   1.542
 8372SOL    HW126015   1.488   6.462   1.600
 8372SOL    HW226016   1.425   6.448   1.450
 8373SOL     OW26017   6.724   0.975   4.042
 8373SOL    HW126018   6.706   1.016   4.132
 8373SOL    HW226019   6.741   1.048   3.975
 8374SOL     OW26020   0.768   1.333   3.643
 8374SOL    HW126021   0.710   1.401   3.688
 8374SOL    HW226022   0.861   1.368   3.637
 8375SOL     OW26023   1.485   2.392   5.382
 8375SOL    HW126024   1.579   2.357   5.387
 8375SOL    HW226025   1.444   2.389   5.473
 8376SOL     OW26026   1.175   1.973   3.654
 8376SOL    HW126027   1.222   1.884   3.650
 8376SOL    HW226028   1.088   1.962   3.702
 8377SOL     OW26029   3.782   5.484   0.117
 8377SOL    HW126030   3.807   5.580   0.127
 8377SOL    HW226031   3.798   5.455   0.022
 8378SOL     OW26032   4.441   5.691   4.630
 8378SOL    HW126033   4.382   5.630   4.682
 8378SOL    HW226034   4.504   5.738   4.691
 8379SOL     OW26035   5.955   2.187   1.722
 8379SOL    HW126036   5.935   2.211   1.817
 8379SOL    HW226037   5.887   2.229   1.662
 8380SOL     OW26038   0.701   5.984   1.763
 8380SOL    HW126039   0.616   6.033   1.744
 8380SOL    HW226040   0.713   5.911   1.696
 8381SOL     OW26041   0.998   1.775   2.530
 8381SOL    HW126042   1.002   1.857   2.588
 8381SOL    HW226043   0.919   1.720   2.556
 8382SOL     OW26044   0.902   0.331   1.809
 8382SOL    HW126045   0.857   0.254   1.854
 8382SOL    HW226046   0.874   0.335   1.713
 8383SOL     OW26047   2.994   0.198   6.054
 8383SOL    HW126048   2.905   0.245   6.050
 8383SOL    HW226049   3.014   0.174   6.149
 8384SOL     OW26050   0.476   3.809   2.899
 8384SOL    HW126051   0.547   3.869   2.936
 8384SOL    HW226052   0.515   3.751   2.828
 8385SOL     OW26053   4.397   2.126   2.287
 8385SOL    HW126054   4.389   2.225   2.301
 8385SOL    HW226055   4.308   2.083   2.305
 8386SOL     OW26056   1.854   5.504   1.746
 8386SOL    HW126057   1.888   5.536   1.657
 8386SOL    HW226058   1.910   5.426   1.777
 8387SOL     OW26059   1.009   1.472   3.644
 8387SOL    HW126060   1.003   1.540   3.716
 8387SOL    HW226061   1.105   1.446   3.630
 8388SOL     OW26062   3.811   4.987   1.231
 8388SOL    HW126063   3.841   5.026   1.144
 8388SOL    HW226064   3.856   5.034   1.306
 8389SOL     OW26065   0.712   3.353   3.970
 8389SOL    HW126066   0.618   3.326   3.992
 8389SOL    HW226067   0.733   3.439   4.017
 8390SOL     OW26068   3.127   0.603   6.446
 8390SOL    HW126069   3.082   0.527   6.397
 8390SOL    HW226070   3.057   0.668   6.476
 8391SOL     OW26071   5.050   6.134   0.517
 8391SOL    HW126072   5.145   6.146   0.488
 8391SOL    HW226073   5.028   6.037   0.518
 8392SOL     OW26074   5.029   6.203   6.911
 8392SOL    HW126075   5.014   6.295   6.948
 8392SOL    HW226076   4.990   6.135   6.974
 8393SOL     OW26077   0.635   4.662   2.470
 8393SOL    HW126078   0.543   4.642   2.506
 8393SOL    HW226079   0.628   4.686   2.373
 8394SOL     OW26080   1.772   1.213   2.612
 8394SOL    HW126081   1.798   1.267   2.693
 8394SOL    HW226082   1.673   1.213   2.602
 8395SOL     OW26083   1.184   6.368   5.579
 8395SOL    HW126084   1.087   6.347   5.571
 8395SOL    HW226085   1.198   6.437   5.650
 8396SOL     OW26086   4.529   2.146   2.020
 8396SOL    HW126087   4.461   2.114   2.086
 8396SOL    HW226088   4.580   2.222   2.058
 8397SOL     OW26089   2.168   5.456   3.891
 8397SOL    HW126090   2.115   5.493   3.967
 8397SOL    HW226091   2.210   5.532   3.840
 8398SOL     OW26092   5.886   1.404   0.484
 8398SOL    HW126093   5.842   1.315   0.473
 8398SOL    HW226094   5.867   1.460   0.403
 8399SOL     OW26095   5.433   5.774   6.621
 8399SOL    HW126096   5.497   5.712   6.667
 8399SOL    HW226097   5.475   5.864   6.612
 8400SOL     OW26098   6.577   6.570   4.199
 8400SOL    HW126099   6.622   6.529   4.278
 8400SOL    HW226100   6.480   6.545   4.199
 8401SOL     OW26101   2.919   3.912   5.397
 8401SOL    HW126102   3.004   3.861   5.399
 8401SOL    HW226103   2.889   3.931   5.491
 8402SOL     OW26104   4.446   0.743   5.420
 8402SOL    HW126105   4.485   0.738   5.328
 8402SOL    HW226106   4.479   0.825   5.466
 8403SOL     OW26107   0.823   3.056   5.336
 8403SOL    HW126108   0.914   3.067   5.297
 8403SOL    HW226109   0.773   2.985   5.287
 8404SOL     OW26110   4.283   5.121   5.105
 8404SOL    HW126111   4.280   5.117   5.005
 8404SOL    HW226112   4.320   5.035   5.140
 8405SOL     OW26113   1.876   2.436   5.117
 8405SOL    HW126114   1.876   2.400   5.024
 8405SOL    HW226115   1.804   2.504   5.126
 8406SOL     OW26116   5.320   3.431   1.709
 8406SOL    HW126117   5.382   3.369   1.660
 8406SOL    HW226118   5.245   3.458   1.649
 8407SOL     OW26119   4.912   3.633   2.887
 8407SOL    HW126120   4.900   3.705   2.955
 8407SOL    HW226121   4.962   3.556   2.928
 8408SOL     OW26122   4.927   4.355   4.345
 8408SOL    HW126123   4.988   4.327   4.270
 8408SOL    HW226124   4.841   4.305   4.338
 8409SOL     OW26125   0.410   1.897   4.146
 8409SOL    HW126126   0.412   1.803   4.111
 8409SOL    HW226127   0.387   1.960   4.072
 8410SOL     OW26128   2.348   6.100   2.505
 8410SOL    HW126129   2.293   6.174   2.543
 8410SOL    HW226130   2.442   6.108   2.538
 8411SOL     OW26131   2.091   3.099   3.339
 8411SOL    HW126132   2.103   3.179   3.280
 8411SOL    HW226133   1.997   3.097   3.374
 8412SOL     OW26134   6.741   2.197   2.945
 8412SOL    HW126135   6.740   2.258   3.024
 8412SOL    HW226136   6.662   2.217   2.887
 8413SOL     OW26137   2.380   4.547   1.489
 8413SOL    HW126138   2.354   4.642   1.470
 8413SOL    HW226139   2.299   4.488   1.484
 8414SOL     OW26140   5.797   7.018   3.391
 8414SOL    HW126141   5.738   7.017   3.311
 8414SOL    HW226142   5.873   6.955   3.378
 8415SOL     OW26143   6.568   4.279   1.983
 8415SOL    HW126144   6.503   4.339   1.937
 8415SOL    HW226145   6.590   4.201   1.924
 8416SOL     OW26146   4.566   4.433   2.291
 8416SOL    HW126147   4.578   4.367   2.217
 8416SOL    HW226148   4.578   4.387   2.379
 8417SOL     OW26149   2.002   6.096   6.411
 8417SOL    HW126150   1.998   6.196   6.410
 8417SOL    HW226151   2.029   6.063   6.320
 8418SOL     OW26152   6.240   5.432   2.385
 8418SOL    HW126153   6.234   5.520   2.336
 8418SOL    HW226154   6.335   5.415   2.411
 8419SOL     OW26155   5.109   0.094   4.083
 8419SOL    HW126156   5.157   0.024   4.030
 8419SOL    HW226157   5.115   0.182   4.036
 8420SOL     OW26158   4.025   2.301   5.603
 8420SOL    HW126159   3.974   2.262   5.526
 8420SOL    HW226160   3.977   2.279   5.688
 8421SOL     OW26161   0.161   0.656   0.763
 8421SOL    HW126162   0.151   0.556   0.769
 8421SOL    HW226163   0.165   0.694   0.856
 8422SOL     OW26164   4.224   0.014   1.793
 8422SOL    HW126165   4.287   0.017   1.870
 8422SOL    HW226166   4.151   6.976   1.812
 8423SOL     OW26167   1.875   3.709   1.710
 8423SOL    HW126168   1.782   3.699   1.674
 8423SOL    HW226169   1.937   3.651   1.658
 8424SOL     OW26170   2.658   2.277   1.958
 8424SOL    HW126171   2.753   2.296   1.984
 8424SOL    HW226172   2.604   2.360   1.968
 8425SOL     OW26173   6.126   4.653   6.696
 8425SOL    HW126174   6.174   4.629   6.611
 8425SOL    HW226175   6.190   4.644   6.773
 8426SOL     OW26176   3.526   3.285   2.511
 8426SOL    HW126177   3.572   3.226   2.445
 8426SOL    HW226178   3.567   3.377   2.507
 8427SOL     OW26179   1.910   2.507   6.697
 8427SOL    HW126180   1.842   2.550   6.757
 8427SOL    HW226181   1.990   2.482   6.751
 8428SOL     OW26182   6.464   4.330   1.251
 8428SOL    HW126183   6.393   4.290   1.193
 8428SOL    HW226184   6.525   4.387   1.196
 8429SOL     OW26185   1.886   6.882   3.018
 8429SOL    HW126186   1.799   6.900   2.974
 8429SOL    HW226187   1.896   6.784   3.035
 8430SOL     OW26188   5.369   4.111   3.068
 8430SOL    HW126189   5.448   4.087   3.123
 8430SOL    HW226190   5.350   4.038   3.002
 8431SOL     OW26191   2.820   3.456   1.970
 8431SOL    HW126192   2.799   3.397   1.892
 8431SOL    HW226193   2.761   3.430   2.047
 8432SOL     OW26194   5.034   6.492   0.105
 8432SOL    HW126195   5.093   6.526   0.179
 8432SOL    HW226196   4.957   6.443   0.144
 8433SOL     OW26197   0.506   1.905   4.416
 8433SOL    HW126198   0.590   1.958   4.427
 8433SOL    HW226199   0.483   1.898   4.319
 8434SOL     OW26200   5.449   6.034   6.187
 8434SOL    HW126201   5.525   5.985   6.230
 8434SOL    HW226202   5.375   5.970   6.166
 8435SOL     OW26203   4.883   2.232   2.117
 8435SOL    HW126204   4.972   2.274   2.135
 8435SOL    HW226205   4.811   2.301   2.123
 8436SOL     OW26206   3.063   4.374   1.688
 8436SOL    HW126207   2.982   4.349   1.634
 8436SOL    HW226208   3.035   4.430   1.765
 8437SOL     OW26209   0.011   1.498   0.698
 8437SOL    HW126210   0.058   1.419   0.659
 8437SOL    HW226211   0.067   1.580   0.683
 8438SOL     OW26212   2.212   5.838   0.886
 8438SOL    HW126213   2.269   5.834   0.804
 8438SOL    HW226214   2.115   5.843   0.859
 8439SOL     OW26215   6.248   0.542   2.148
 8439SOL    HW126216   6.288   0.625   2.186
 8439SOL    HW226217   6.315   0.497   2.088
 8440SOL     OW26218   0.609   2.873   4.367
 8440SOL    HW126219   0.574   2.836   4.453
 8440SOL    HW226220   0.656   2.959   4.384
 8441SOL     OW26221   4.576   5.530   2.523
 8441SOL    HW126222   4.519   5.534   2.605
 8441SOL    HW226223   4.636   5.610   2.521
 8442SOL     OW26224   2.072   2.874   0.722
 8442SOL    HW126225   2.030   2.841   0.806
 8442SOL    HW226226   2.026   2.958   0.693
 8443SOL     OW26227   0.579   1.742   1.763
 8443SOL    HW126228   0.521   1.673   1.720
 8443SOL    HW226229   0.626   1.795   1.692
 8444SOL     OW26230   4.366   1.207   2.852
 8444SOL    HW126231   4.462   1.229   2.872
 8444SOL    HW226232   4.310   1.225   2.933
 8445SOL     OW26233   4.575   5.328   2.149
 8445SOL    HW126234   4.542   5.414   2.188
 8445SOL    HW226235   4.520   5.305   2.069
 8446SOL     OW26236   6.853   3.624   2.879
 8446SOL    HW126237   6.759   3.658   2.881
 8446SOL    HW226238   6.913   3.689   2.927
 8447SOL     OW26239   4.382   3.318   1.234
 8447SOL    HW126240   4.402   3.221   1.222
 8447SOL    HW226241   4.320   3.329   1.311
 8448SOL     OW26242   1.689   3.448   5.836
 8448SOL    HW126243   1.761   3.393   5.794
 8448SOL    HW226244   1.657   3.404   5.919
 8449SOL     OW26245   0.859   1.508   4.176
 8449SOL    HW126246   0.856   1.528   4.274
 8449SOL    HW226247   0.922   1.432   4.159
 8450SOL     OW26248   1.871   5.127   1.122
 8450SOL    HW126249   1.846   5.111   1.026
 8450SOL    HW226250   1.834   5.215   1.151
 8451SOL     OW26251   3.745   2.615   0.284
 8451SOL    HW126252   3.824   2.556   0.304
 8451SOL    HW226253   3.699   2.639   0.370
 8452SOL     OW26254   0.489   5.201   1.827
 8452SOL    HW126255   0.484   5.255   1.911
 8452SOL    HW226256   0.580   5.160   1.818
 8453SOL     OW26257   6.319   5.412   5.147
 8453SOL    HW126258   6.255   5.403   5.071
 8453SOL    HW226259   6.412   5.404   5.113
 8454SOL     OW26260   2.289   6.927   4.571
 8454SOL    HW126261   2.206   6.982   4.574
 8454SOL    HW226262   2.282   6.852   4.637
 8455SOL     OW26263   5.916   2.493   0.810
 8455SOL    HW126264   5.986   2.549   0.854
 8455SOL    HW226265   5.867   2.548   0.743
 8456SOL     OW26266   5.118   5.230   3.529
 8456SOL    HW126267   5.210   5.240   3.567
 8456SOL    HW226268   5.059   5.184   3.595
 8457SOL     OW26269   6.457   6.087   6.200
 8457SOL    HW126270   6.411   6.160   6.150
 8457SOL    HW226271   6.467   6.008   6.141
 8458SOL     OW26272   1.638   2.147   1.241
 8458SOL    HW126273   1.642   2.159   1.341
 8458SOL    HW226274   1.727   2.117   1.207
 8459SOL     OW26275   2.330   5.729   3.237
 8459SOL    HW126276   2.258   5.798   3.223
 8459SOL    HW226277   2.419   5.774   3.239
 8460SOL     OW26278   3.939   1.290   0.977
 8460SOL    HW126279   4.012   1.249   1.033
 8460SOL    HW226280   3.853   1.243   0.996
 8461SOL     OW26281   5.231   4.334   3.092
 8461SOL    HW126282   5.248   4.342   3.190
 8461SOL    HW226283   5.271   4.249   3.058
 8462SOL     OW26284   2.082   4.202   1.080
 8462SOL    HW126285   2.145   4.253   1.021
 8462SOL    HW226286   2.110   4.106   1.084
 8463SOL     OW26287   6.763   0.412   0.370
 8463SOL    HW126288   6.763   0.434   0.273
 8463SOL    HW226289   6.797   0.490   0.422
 8464SOL     OW26290   6.323   3.877   6.656
 8464SOL    HW126291   6.330   3.869   6.755
 8464SOL    HW226292   6.402   3.833   6.613
 8465SOL     OW26293   4.761   3.583   0.723
 8465SOL    HW126294   4.807   3.506   0.765
 8465SOL    HW226295   4.679   3.607   0.776
 8466SOL     OW26296   0.758   1.307   5.285
 8466SOL    HW126297   0.699   1.321   5.364
 8466SOL    HW226298   0.704   1.279   5.206
 8467SOL     OW26299   3.211   1.355   0.473
 8467SOL    HW126300   3.290   1.406   0.440
 8467SOL    HW226301   3.203   1.365   0.572
 8468SOL     OW26302   5.615   3.875   0.444
 8468SOL    HW126303   5.521   3.908   0.439
 8468SOL    HW226304   5.635   3.818   0.365
 8469SOL     OW26305   3.712   2.975   5.275
 8469SOL    HW126306   3.802   2.936   5.292
 8469SOL    HW226307   3.692   3.043   5.346
 8470SOL     OW26308   1.537   5.241   1.477
 8470SOL    HW126309   1.465   5.198   1.423
 8470SOL    HW226310   1.623   5.238   1.426
 8471SOL     OW26311   4.276   2.029   4.353
 8471SOL    HW126312   4.205   2.082   4.307
 8471SOL    HW226313   4.282   2.056   4.450
 8472SOL     OW26314   6.022   1.479   6.766
 8472SOL    HW126315   5.942   1.481   6.826
 8472SOL    HW226316   6.034   1.387   6.729
 8473SOL     OW26317   4.968   5.098   5.742
 8473SOL    HW126318   4.933   5.037   5.813
 8473SOL    HW226319   4.933   5.190   5.757
 8474SOL     OW26320   3.145   4.033   4.649
 8474SOL    HW126321   3.155   4.125   4.611
 8474SOL    HW226322   3.106   4.039   4.741
 8475SOL     OW26323   6.744   1.766   3.215
 8475SOL    HW126324   6.665   1.712   3.186
 8475SOL    HW226325   6.816   1.760   3.145
 8476SOL     OW26326   5.855   1.383   1.631
 8476SOL    HW126327   5.896   1.299   1.595
 8476SOL    HW226328   5.756   1.373   1.636
 8477SOL     OW26329   5.598   0.392   1.804
 8477SOL    HW126330   5.553   0.479   1.784
 8477SOL    HW226331   5.642   0.398   1.894
 8478SOL     OW26332   0.588   6.778   5.490
 8478SOL    HW126333   0.558   6.788   5.585
 8478SOL    HW226334   0.666   6.715   5.486
 8479SOL     OW26335   0.483   3.058   0.517
 8479SOL    HW126336   0.499   3.011   0.603
 8479SOL    HW226337   0.385   3.076   0.506
 8480SOL     OW26338   3.591   4.325   0.733
 8480SOL    HW126339   3.563   4.331   0.829
 8480SOL    HW226340   3.682   4.286   0.727
 8481SOL     OW26341   3.977   2.195   3.053
 8481SOL    HW126342   3.881   2.175   3.075
 8481SOL    HW226343   3.985   2.218   2.956
 8482SOL     OW26344   4.326   0.857   6.634
 8482SOL    HW126345   4.274   0.900   6.708
 8482SOL    HW226346   4.410   0.910   6.618
 8483SOL     OW26347   3.746   5.126   3.404
 8483SOL    HW126348   3.767   5.086   3.494
 8483SOL    HW226349   3.831   5.156   3.361
 8484SOL     OW26350   5.919   5.971   5.045
 8484SOL    HW126351   5.840   5.964   4.984
 8484SOL    HW226352   5.892   5.943   5.137
 8485SOL     OW26353   4.343   1.218   6.375
 8485SOL    HW126354   4.435   1.184   6.353
 8485SOL    HW226355   4.290   1.144   6.417
 8486SOL     OW26356   5.799   2.768   4.919
 8486SOL    HW126357   5.799   2.867   4.903
 8486SOL    HW226358   5.799   2.751   5.018
 8487SOL     OW26359   6.545   2.012   6.017
 8487SOL    HW126360   6.524   1.921   6.053
 8487SOL    HW226361   6.644   2.021   6.005
 8488SOL     OW26362   4.697   4.647   2.933
 8488SOL    HW126363   4.742   4.669   2.847
 8488SOL    HW226364   4.709   4.550   2.953
 8489SOL     OW26365   6.239   2.157   1.654
 8489SOL    HW126366   6.285   2.245   1.665
 8489SOL    HW226367   6.140   2.169   1.663
 8490SOL     OW26368   3.142   6.607   0.105
 8490SOL    HW126369   3.089   6.596   0.189
 8490SOL    HW226370   3.179   6.700   0.101
 8491SOL     OW26371   2.954   5.604   2.155
 8491SOL    HW126372   2.922   5.552   2.076
 8491SOL    HW226373   2.963   5.542   2.233
 8492SOL     OW26374   6.589   5.888   4.327
 8492SOL    HW126375   6.681   5.851   4.319
 8492SOL    HW226376   6.556   5.915   4.236
 8493SOL     OW26377   4.639   1.217   5.822
 8493SOL    HW126378   4.588   1.186   5.901
 8493SOL    HW226379   4.642   1.145   5.753
 8494SOL     OW26380   6.972   3.629   2.616
 8494SOL    HW126381   6.934   3.614   2.708
 8494SOL    HW226382   0.025   3.571   2.603
 8495SOL     OW26383   5.823   5.553   6.315
 8495SOL    HW126384   5.783   5.634   6.272
 8495SOL    HW226385   5.923   5.558   6.309
 8496SOL     OW26386   5.228   2.633   2.893
 8496SOL    HW126387   5.205   2.669   2.803
 8496SOL    HW226388   5.327   2.621   2.899
 8497SOL     OW26389   6.944   0.405   2.894
 8497SOL    HW126390   6.953   0.398   2.993
 8497SOL    HW226391   6.945   0.314   2.853
 8498SOL     OW26392   4.859   6.497   3.957
 8498SOL    HW126393   4.944   6.462   3.920
 8498SOL    HW226394   4.866   6.596   3.970
 8499SOL     OW26395   5.926   0.044   5.523
 8499SOL    HW126396   5.918   6.978   5.556
 8499SOL    HW226397   5.891   0.108   5.591
 8500SOL     OW26398   1.156   0.442   6.974
 8500SOL    HW126399   1.207   0.435   0.033
 8500SOL    HW226400   1.062   0.411   6.988
 8501SOL     OW26401   2.253   1.185   6.507
 8501SOL    HW126402   2.311   1.144   6.436
 8501SOL    HW226403   2.259   1.285   6.501
 8502SOL     OW26404   6.144   3.696   6.859
 8502SOL    HW126405   6.063   3.638   6.868
 8502SOL    HW226406   6.205   3.679   6.936
 8503SOL     OW26407   5.075   2.717   5.237
 8503SOL    HW126408   5.109   2.793   5.182
 8503SOL    HW226409   4.998   2.747   5.292
 8504SOL     OW26410   0.915   0.195   2.309
 8504SOL    HW126411   0.946   0.101   2.323
 8504SOL    HW226412   0.959   0.232   2.227
 8505SOL     OW26413   5.449   2.605   2.371
 8505SOL    HW126414   5.398   2.549   2.436
 8505SOL    HW226415   5.536   2.560   2.350
 8506SOL     OW26416   1.178   6.532   6.237
 8506SOL    HW126417   1.107   6.469   6.207
 8506SOL    HW226418   1.142   6.591   6.310
 8507SOL     OW26419   3.635   5.356   5.500
 8507SOL    HW126420   3.674   5.448   5.494
 8507SOL    HW226421   3.568   5.343   5.427
 8508SOL     OW26422   2.602   1.098   6.724
 8508SOL    HW126423   2.535   1.161   6.766
 8508SOL    HW226424   2.650   1.048   6.796
 8509SOL     OW26425   5.148   2.035   2.761
 8509SOL    HW126426   5.147   1.936   2.749
 8509SOL    HW226427   5.238   2.063   2.794
 8510SOL     OW26428   0.835   2.092   4.810
 8510SOL    HW126429   0.811   2.152   4.734
 8510SOL    HW226430   0.760   2.090   4.876
 8511SOL     OW26431   5.774   2.002   3.217
 8511SOL    HW126432   5.805   1.937   3.286
 8511SOL    HW226433   5.852   2.054   3.181
 8512SOL     OW26434   2.494   6.380   5.502
 8512SOL    HW126435   2.402   6.365   5.465
 8512SOL    HW226436   2.496   6.353   5.598
 8513SOL     OW26437   5.018   5.979   6.524
 8513SOL    HW126438   4.985   6.073   6.537
 8513SOL    HW226439   5.019   5.932   6.613
 8514SOL     OW26440   3.732   5.675   4.020
 8514SOL    HW126441   3.636   5.656   4.003
 8514SOL    HW226442   3.781   5.589   4.036
 8515SOL     OW26443   6.444   2.334   1.219
 8515SOL    HW126444   6.350   2.363   1.235
 8515SOL    HW226445   6.445   2.249   1.167
 8516SOL     OW26446   6.920   2.055   2.229
 8516SOL    HW126447   6.828   2.030   2.199
 8516SOL    HW226448   6.919   2.151   2.259
 8517SOL     OW26449   1.576   3.796   6.480
 8517SOL    HW126450   1.500   3.747   6.523
 8517SOL    HW226451   1.649   3.732   6.459
 8518SOL     OW26452   2.856   6.023   0.585
 8518SOL    HW126453   2.923   6.001   0.515
 8518SOL    HW226454   2.881   5.979   0.671
 8519SOL     OW26455   2.767   6.087   3.776
 8519SOL    HW126456   2.812   5.997   3.778
 8519SOL    HW226457   2.808   6.142   3.704
 8520SOL     OW26458   3.735   6.141   6.829
 8520SOL    HW126459   3.793   6.144   6.911
 8520SOL    HW226460   3.683   6.227   6.822
 8521SOL     OW26461   1.798   0.445   1.674
 8521SOL    HW126462   1.739   0.421   1.597
 8521SOL    HW226463   1.823   0.363   1.725
 8522SOL     OW26464   2.551   6.891   4.632
 8522SOL    HW126465   2.463   6.917   4.593
 8522SOL    HW226466   2.546   6.798   4.667
 8523SOL     OW26467   1.585   6.525   6.723
 8523SOL    HW126468   1.488   6.549   6.712
 8523SOL    HW226469   1.599   6.432   6.688
 8524SOL     OW26470   1.479   1.351   6.405
 8524SOL    HW126471   1.487   1.370   6.307
 8524SOL    HW226472   1.439   1.260   6.418
 8525SOL     OW26473   5.553   3.768   3.717
 8525SOL    HW126474   5.506   3.697   3.769
 8525SOL    HW226475   5.650   3.768   3.740
 8526SOL     OW26476   2.110   3.656   2.179
 8526SOL    HW126477   2.036   3.642   2.112
 8526SOL    HW226478   2.193   3.612   2.145
 8527SOL     OW26479   4.628   0.750   4.266
 8527SOL    HW126480   4.598   0.671   4.320
 8527SOL    HW226481   4.722   0.736   4.236
 8528SOL     OW26482   5.769   1.543   6.909
 8528SOL    HW126483   5.691   1.597   6.878
 8528SOL    HW226484   5.739   1.478   6.979
 8529SOL     OW26485   6.641   5.768   5.650
 8529SOL    HW126486   6.616   5.788   5.556
 8529SOL    HW226487   6.591   5.687   5.682
 8530SOL     OW26488   2.101   4.804   5.972
 8530SOL    HW126489   2.150   4.802   6.059
 8530SOL    HW226490   2.012   4.848   5.986
 8531SOL     OW26491   4.122   4.876   1.922
 8531SOL    HW126492   4.105   4.787   1.882
 8531SOL    HW226493   4.037   4.928   1.926
 8532SOL     OW26494   1.563   4.059   0.846
 8532SOL    HW126495   1.534   4.144   0.803
 8532SOL    HW226496   1.661   4.064   0.868
 8533SOL     OW26497   4.284   6.232   5.546
 8533SOL    HW126498   4.312   6.319   5.587
 8533SOL    HW226499   4.365   6.183   5.513
 8534SOL     OW26500   1.884   2.586   1.497
 8534SOL    HW126501   1.963   2.610   1.440
 8534SOL    HW226502   1.870   2.658   1.565
 8535SOL     OW26503   0.368   3.528   5.231
 8535SOL    HW126504   0.304   3.497   5.301
 8535SOL    HW226505   0.432   3.455   5.210
 8536SOL     OW26506   5.846   1.259   5.515
 8536SOL    HW126507   5.937   1.229   5.545
 8536SOL    HW226508   5.835   1.237   5.418
 8537SOL     OW26509   4.550   6.706   2.759
 8537SOL    HW126510   4.491   6.729   2.837
 8537SOL    HW226511   4.575   6.790   2.711
 8538SOL     OW26512   5.317   0.521   5.455
 8538SOL    HW126513   5.294   0.438   5.505
 8538SOL    HW226514   5.371   0.498   5.374
 8539SOL     OW26515   0.703   2.999   2.829
 8539SOL    HW126516   0.728   2.924   2.891
 8539SOL    HW226517   0.670   2.961   2.743
 8540SOL     OW26518   4.035   6.805   6.582
 8540SOL    HW126519   4.115   6.815   6.522
 8540SOL    HW226520   4.033   6.713   6.620
 8541SOL     OW26521   3.081   6.441   5.194
 8541SOL    HW126522   2.996   6.468   5.238
 8541SOL    HW226523   3.067   6.431   5.096
 8542SOL     OW26524   1.432   5.086   5.180
 8542SOL    HW126525   1.427   5.185   5.194
 8542SOL    HW226526   1.456   5.066   5.085
 8543SOL     OW26527   3.063   2.529   5.509
 8543SOL    HW126528   3.138   2.562   5.452
 8543SOL    HW226529   3.046   2.433   5.490
 8544SOL     OW26530   5.142   4.777   5.313
 8544SOL    HW126531   5.240   4.756   5.311
 8544SOL    HW226532   5.105   4.772   5.221
 8545SOL     OW26533   1.945   6.698   6.411
 8545SOL    HW126534   1.861   6.660   6.448
 8545SOL    HW226535   1.927   6.739   6.321
 8546SOL     OW26536   4.551   1.354   3.951
 8546SOL    HW126537   4.616   1.283   3.923
 8546SOL    HW226538   4.530   1.413   3.873
 8547SOL     OW26539   5.589   6.122   5.751
 8547SOL    HW126540   5.635   6.046   5.705
 8547SOL    HW226541   5.616   6.208   5.709
 8548SOL     OW26542   1.231   4.423   4.149
 8548SOL    HW126543   1.260   4.487   4.221
 8548SOL    HW226544   1.155   4.463   4.098
 8549SOL     OW26545   1.944   0.739   3.925
 8549SOL    HW126546   1.905   0.671   3.986
 8549SOL    HW226547   1.952   0.827   3.973
 8550SOL     OW26548   6.876   4.827   6.037
 8550SOL    HW126549   6.927   4.910   6.013
 8550SOL    HW226550   6.829   4.792   5.955
 8551SOL     OW26551   3.697   0.935   4.880
 8551SOL    HW126552   3.719   0.866   4.811
 8551SOL    HW226553   3.722   0.902   4.971
 8552SOL     OW26554   3.361   1.528   1.564
 8552SOL    HW126555   3.337   1.463   1.493
 8552SOL    HW226556   3.402   1.609   1.523
 8553SOL     OW26557   4.694   3.885   0.715
 8553SOL    HW126558   4.713   3.982   0.724
 8553SOL    HW226559   4.737   3.835   0.790
 8554SOL     OW26560   1.504   0.604   6.524
 8554SOL    HW126561   1.571   0.575   6.593
 8554SOL    HW226562   1.446   0.527   6.500
 8555SOL     OW26563   3.575   2.146   3.362
 8555SOL    HW126564   3.586   2.099   3.275
 8555SOL    HW226565   3.663   2.181   3.393
 8556SOL     OW26566   0.467   5.324   5.428
 8556SOL    HW126567   0.548   5.276   5.462
 8556SOL    HW226568   0.394   5.257   5.409
 8557SOL     OW26569   6.590   1.085   6.367
 8557SOL    HW126570   6.532   1.102   6.446
 8557SOL    HW226571   6.534   1.088   6.284
 8558SOL     OW26572   3.221   5.937   4.077
 8558SOL    HW126573   3.213   5.851   4.128
 8558SOL    HW226574   3.317   5.967   4.079
 8559SOL     OW26575   1.846   3.342   2.319
 8559SOL    HW126576   1.804   3.362   2.408
 8559SOL    HW226577   1.842   3.244   2.302
 8560SOL     OW26578   3.477   4.037   1.236
 8560SOL    HW126579   3.417   4.109   1.271
 8560SOL    HW226580   3.423   3.955   1.218
 8561SOL     OW26581   3.474   0.885   3.047
 8561SOL    HW126582   3.554   0.846   3.001
 8561SOL    HW226583   3.504   0.947   3.119
 8562SOL     OW26584   5.609   2.115   7.000
 8562SOL    HW126585   5.517   2.087   0.001
 8562SOL    HW226586   5.667   2.034   6.990
 8563SOL     OW26587   2.438   5.323   2.739
 8563SOL    HW126588   2.535   5.330   2.762
 8563SOL    HW226589   2.422   5.359   2.647
 8564SOL     OW26590   3.638   6.094   0.547
 8564SOL    HW126591   3.669   5.999   0.545
 8564SOL    HW226592   3.539   6.098   0.536
 8565SOL     OW26593   1.284   4.756   1.129
 8565SOL    HW126594   1.236   4.700   1.195
 8565SOL    HW226595   1.368   4.793   1.170
 8566SOL     OW26596   3.104   1.042   3.463
 8566SOL    HW126597   3.016   1.011   3.427
 8566SOL    HW226598   3.091   1.130   3.510
 8567SOL     OW26599   1.627   2.395   1.845
 8567SOL    HW126600   1.546   2.347   1.809
 8567SOL    HW226601   1.707   2.368   1.792
 8568SOL     OW26602   6.075   1.014   5.694
 8568SOL    HW126603   6.118   1.099   5.665
 8568SOL    HW226604   6.131   0.970   5.764
 8569SOL     OW26605   5.038   1.898   0.251
 8569SOL    HW126606   4.969   1.967   0.273
 8569SOL    HW226607   5.078   1.918   0.162
 8570SOL     OW26608   2.283   1.778   2.692
 8570SOL    HW126609   2.382   1.768   2.692
 8570SOL    HW226610   2.246   1.743   2.606
 8571SOL     OW26611   1.604   0.702   3.182
 8571SOL    HW126612   1.687   0.757   3.193
 8571SOL    HW226613   1.548   0.740   3.109
 8572SOL     OW26614   2.990   3.805   6.237
 8572SOL    HW126615   2.989   3.869   6.160
 8572SOL    HW226616   3.025   3.717   6.207
 8573SOL     OW26617   1.885   6.032   6.102
 8573SOL    HW126618   1.944   5.956   6.130
 8573SOL    HW226619   1.818   6.050   6.174
 8574SOL     OW26620   4.946   1.278   5.625
 8574SOL    HW126621   4.912   1.347   5.689
 8574SOL    HW226622   4.949   1.189   5.671
 8575SOL     OW26623   3.253   6.474   4.194
 8575SOL    HW126624   3.260   6.379   4.161
 8575SOL    HW226625   3.319   6.531   4.144
 8576SOL     OW26626   1.577   4.484   4.122
 8576SOL    HW126627   1.481   4.495   4.098
 8576SOL    HW226628   1.625   4.438   4.047
 8577SOL     OW26629   1.730   0.589   0.333
 8577SOL    HW126630   1.708   0.631   0.245
 8577SOL    HW226631   1.654   0.603   0.396
 8578SOL     OW26632   1.116   6.837   6.060
 8578SOL    HW126633   1.114   6.748   6.014
 8578SOL    HW226634   1.146   6.826   6.154
 8579SOL     OW26635   3.341   0.084   2.405
 8579SOL    HW126636   3.395   0.158   2.445
 8579SOL    HW226637   3.293   0.118   2.324
 8580SOL     OW26638   1.935   0.774   2.038
 8580SOL    HW126639   1.936   0.739   1.944
 8580SOL    HW226640   1.939   0.697   2.102
 8581SOL     OW26641   3.990   3.859   2.053
 8581SOL    HW126642   3.957   3.777   2.006
 8581SOL    HW226643   4.027   3.834   2.142
 8582SOL     OW26644   3.938   5.378   5.968
 8582SOL    HW126645   3.906   5.441   6.039
 8582SOL    HW226646   3.959   5.289   6.009
 8583SOL     OW26647   3.333   6.549   2.815
 8583SOL    HW126648   3.420   6.550   2.765
 8583SOL    HW226649   3.259   6.527   2.752
 8584SOL     OW26650   6.483   1.833   4.914
 8584SOL    HW126651   6.563   1.891   4.925
 8584SOL    HW226652   6.507   1.752   4.860
 8585SOL     OW26653   5.153   2.821   2.706
 8585SOL    HW126654   5.102   2.848   2.788
 8585SOL    HW226655   5.088   2.790   2.636
 8586SOL     OW26656   6.003   5.760   5.458
 8586SOL    HW126657   5.954   5.718   5.534
 8586SOL    HW226658   6.032   5.690   5.393
 8587SOL     OW26659   6.593   1.332   6.579
 8587SOL    HW126660   6.518   1.391   6.607
 8587SOL    HW226661   6.645   1.375   6.506
 8588SOL     OW26662   1.878   0.698   5.466
 8588SOL    HW126663   1.815   0.627   5.434
 8588SOL    HW226664   1.971   0.675   5.438
 8589SOL     OW26665   5.475   2.983   0.123
 8589SOL    HW126666   5.500   2.900   0.172
 8589SOL    HW226667   5.438   3.050   0.187
 8590SOL     OW26668   0.692   1.802   3.879
 8590SOL    HW126669   0.707   1.753   3.965
 8590SOL    HW226670   0.595   1.800   3.856
 8591SOL     OW26671   6.952   4.321   5.457
 8591SOL    HW126672   7.004   4.236   5.448
 8591SOL    HW226673   6.946   4.365   5.367
 8592SOL     OW26674   6.961   1.902   4.305
 8592SOL    HW126675   6.914   1.975   4.354
 8592SOL    HW226676   6.894   1.842   4.261
 8593SOL     OW26677   6.119   1.049   0.078
 8593SOL    HW126678   6.044   1.114   0.079
 8593SOL    HW226679   6.085   0.959   0.106
 8594SOL     OW26680   6.066   4.236   6.427
 8594SOL    HW126681   5.989   4.212   6.368
 8594SOL    HW226682   6.110   4.152   6.460
 8595SOL     OW26683   5.195   5.888   3.069
 8595SOL    HW126684   5.130   5.828   3.116
 8595SOL    HW226685   5.213   5.968   3.127
 8596SOL     OW26686   0.814   2.461   4.898
 8596SOL    HW126687   0.725   2.501   4.873
 8596SOL    HW226688   0.811   2.432   4.993
 8597SOL     OW26689   5.932   2.387   6.248
 8597SOL    HW126690   6.007   2.391   6.183
 8597SOL    HW226691   5.852   2.433   6.210
 8598SOL     OW26692   0.299   0.561   5.436
 8598SOL    HW126693   0.283   0.619   5.516
 8598SOL    HW226694   0.232   0.582   5.366
 8599SOL     OW26695   6.025   3.838   5.118
 8599SOL    HW126696   5.957   3.862   5.048
 8599SOL    HW226697   5.977   3.814   5.203
 8600SOL     OW26698   4.674   2.706   1.867
 8600SOL    HW126699   4.764   2.693   1.826
 8600SOL    HW226700   4.665   2.800   1.901
 8601SOL     OW26701   6.271   6.067   2.944
 8601SOL    HW126702   6.285   6.125   3.024
 8601SOL    HW226703   6.335   6.094   2.872
 8602SOL     OW26704   1.963   6.791   5.247
 8602SOL    HW126705   1.895   6.756   5.312
 8602SOL    HW226706   1.977   6.888   5.262
 8603SOL     OW26707   0.388   0.687   6.572
 8603SOL    HW126708   0.334   0.637   6.503
 8603SOL    HW226709   0.453   0.747   6.526
 8604SOL     OW26710   2.164   5.350   5.967
 8604SOL    HW126711   2.193   5.333   5.873
 8604SOL    HW226712   2.077   5.399   5.968
 8605SOL     OW26713   0.014   4.862   3.777
 8605SOL    HW126714   6.950   4.887   3.810
 8605SOL    HW226715   0.083   4.891   3.843
 8606SOL     OW26716   1.446   0.959   6.826
 8606SOL    HW126717   1.460   0.863   6.849
 8606SOL    HW226718   1.358   0.990   6.861
 8607SOL     OW26719   2.962   3.263   1.376
 8607SOL    HW126720   2.950   3.307   1.287
 8607SOL    HW226721   3.059   3.264   1.400
 8608SOL     OW26722   1.766   5.651   2.420
 8608SOL    HW126723   1.695   5.714   2.449
 8608SOL    HW226724   1.725   5.580   2.362
 8609SOL     OW26725   4.961   1.976   4.232
 8609SOL    HW126726   4.865   1.992   4.208
 8609SOL    HW226727   5.020   2.031   4.172
 8610SOL     OW26728   0.032   6.051   2.864
 8610SOL    HW126729   7.009   5.968   2.842
 8610SOL    HW226730   0.114   6.028   2.916
 8611SOL     OW26731   1.791   1.208   5.282
 8611SOL    HW126732   1.803   1.177   5.376
 8611SOL    HW226733   1.821   1.304   5.275
 8612SOL     OW26734   3.502   3.246   4.572
 8612SOL    HW126735   3.545   3.162   4.538
 8612SOL    HW226736   3.441   3.223   4.648
 8613SOL     OW26737   3.875   2.966   3.064
 8613SOL    HW126738   3.839   2.918   2.984
 8613SOL    HW226739   3.897   3.060   3.040
 8614SOL     OW26740   0.765   2.501   3.784
 8614SOL    HW126741   0.862   2.482   3.768
 8614SOL    HW226742   0.711   2.474   3.705
 8615SOL     OW26743   3.284   1.943   5.501
 8615SOL    HW126744   3.272   2.020   5.438
 8615SOL    HW226745   3.381   1.918   5.505
 8616SOL     OW26746   5.991   4.201   4.722
 8616SOL    HW126747   5.939   4.235   4.643
 8616SOL    HW226748   5.935   4.211   4.804
 8617SOL     OW26749   1.282   6.725   3.073
 8617SOL    HW126750   1.226   6.730   2.991
 8617SOL    HW226751   1.291   6.630   3.101
 8618SOL     OW26752   5.812   4.384   0.715
 8618SOL    HW126753   5.845   4.335   0.634
 8618SOL    HW226754   5.738   4.333   0.758
 8619SOL     OW26755   5.425   6.027   0.548
 8619SOL    HW126756   5.390   6.099   0.490
 8619SOL    HW226757   5.493   5.973   0.498
 8620SOL     OW26758   1.952   6.932   3.921
 8620SOL    HW126759   1.862   6.893   3.903
 8620SOL    HW226760   2.008   6.866   3.971
 8621SOL     OW26761   5.857   3.446   1.792
 8621SOL    HW126762   5.771   3.497   1.794
 8621SOL    HW226763   5.928   3.502   1.750
 8622SOL     OW26764   0.535   5.523   2.772
 8622SOL    HW126765   0.602   5.486   2.836
 8622SOL    HW226766   0.566   5.612   2.739
 8623SOL     OW26767   1.871   2.401   3.947
 8623SOL    HW126768   1.924   2.462   3.888
 8623SOL    HW226769   1.777   2.395   3.912
 8624SOL     OW26770   3.405   3.864   5.163
 8624SOL    HW126771   3.418   3.907   5.252
 8624SOL    HW226772   3.359   3.928   5.101
 8625SOL     OW26773   4.553   2.759   5.953
 8625SOL    HW126774   4.600   2.829   5.898
 8625SOL    HW226775   4.558   2.671   5.906
 8626SOL     OW26776   4.526   2.020   1.776
 8626SOL    HW126777   4.529   2.090   1.847
 8626SOL    HW226778   4.619   1.993   1.751
 8627SOL     OW26779   1.904   0.571   2.222
 8627SOL    HW126780   1.896   0.476   2.251
 8627SOL    HW226781   1.857   0.631   2.288
 8628SOL     OW26782   0.645   6.910   0.725
 8628SOL    HW126783   0.734   6.891   0.685
 8628SOL    HW226784   0.573   6.890   0.659
 8629SOL     OW26785   0.418   0.079   4.627
 8629SOL    HW126786   0.394   0.007   4.691
 8629SOL    HW226787   0.335   0.123   4.592
 8630SOL     OW26788   4.956   2.682   2.546
 8630SOL    HW126789   4.871   2.731   2.566
 8630SOL    HW226790   4.949   2.588   2.579
 8631SOL     OW26791   2.408   6.020   6.119
 8631SOL    HW126792   2.470   5.959   6.168
 8631SOL    HW226793   2.422   6.114   6.150
 8632SOL     OW26794   5.782   5.718   4.128
 8632SOL    HW126795   5.845   5.703   4.052
 8632SOL    HW226796   5.703   5.769   4.097
 8633SOL     OW26797   5.710   3.937   5.198
 8633SOL    HW126798   5.707   3.956   5.100
 8633SOL    HW226799   5.754   4.012   5.246
 8634SOL     OW26800   5.332   4.236   6.438
 8634SOL    HW126801   5.295   4.254   6.347
 8634SOL    HW226802   5.344   4.322   6.487
 8635SOL     OW26803   5.371   2.648   6.971
 8635SOL    HW126804   5.422   2.563   6.982
 8635SOL    HW226805   5.292   2.647   0.005
 8636SOL     OW26806   4.120   6.152   1.870
 8636SOL    HW126807   4.208   6.190   1.899
 8636SOL    HW226808   4.073   6.114   1.950
 8637SOL     OW26809   1.842   1.834   6.652
 8637SOL    HW126810   1.755   1.792   6.626
 8637SOL    HW226811   1.844   1.929   6.621
 8638SOL     OW26812   4.971   3.324   3.752
 8638SOL    HW126813   4.989   3.349   3.847
 8638SOL    HW226814   4.974   3.406   3.695
 8639SOL     OW26815   3.182   3.747   0.340
 8639SOL    HW126816   3.208   3.841   0.364
 8639SOL    HW226817   3.254   3.706   0.284
 8640SOL     OW26818   3.846   2.197   0.428
 8640SOL    HW126819   3.882   2.156   0.344
 8640SOL    HW226820   3.855   2.297   0.422
 8641SOL     OW26821   3.633   5.281   2.487
 8641SOL    HW126822   3.731   5.276   2.472
 8641SOL    HW226823   3.585   5.243   2.408
 8642SOL     OW26824   1.644   5.911   2.921
 8642SOL    HW126825   1.726   5.874   2.877
 8642SOL    HW226826   1.657   6.008   2.940
 8643SOL     OW26827   3.574   6.674   1.144
 8643SOL    HW126828   3.560   6.605   1.074
 8643SOL    HW226829   3.620   6.754   1.105
 8644SOL     OW26830   6.088   2.561   6.077
 8644SOL    HW126831   6.159   2.630   6.063
 8644SOL    HW226832   5.998   2.604   6.066
 8645SOL     OW26833   5.542   5.929   2.858
 8645SOL    HW126834   5.605   6.005   2.876
 8645SOL    HW226835   5.462   5.963   2.808
 8646SOL     OW26836   0.020   2.721   5.529
 8646SOL    HW126837   7.023   2.731   5.625
 8646SOL    HW226838   0.118   2.699   5.521
 8647SOL     OW26839   1.969   5.274   1.800
 8647SOL    HW126840   2.063   5.240   1.803
 8647SOL    HW226841   1.914   5.215   1.740
 8648SOL     OW26842   4.799   5.282   0.608
 8648SOL    HW126843   4.710   5.327   0.611
 8648SOL    HW226844   4.814   5.244   0.516
 8649SOL     OW26845   5.279   1.336   0.572
 8649SOL    HW126846   5.262   1.363   0.667
 8649SOL    HW226847   5.268   1.416   0.512
 8650SOL     OW26848   2.081   0.022   5.574
 8650SOL    HW126849   1.999   0.076   5.593
 8650SOL    HW226850   2.079   7.017   5.480
 8651SOL     OW26851   3.917   2.043   1.532
 8651SOL    HW126852   3.882   2.081   1.618
 8651SOL    HW226853   3.896   2.106   1.457
 8652SOL     OW26854   0.657   2.952   3.409
 8652SOL    HW126855   0.686   3.036   3.365
 8652SOL    HW226856   0.650   2.966   3.508
 8653SOL     OW26857   5.613   1.456   6.694
 8653SOL    HW126858   5.562   1.539   6.671
 8653SOL    HW226859   5.698   1.481   6.741
 8654SOL     OW26860   6.883   4.508   2.952
 8654SOL    HW126861   6.805   4.565   2.978
 8654SOL    HW226862   6.865   4.466   2.863
 8655SOL     OW26863   1.006   0.231   4.953
 8655SOL    HW126864   0.986   0.144   4.998
 8655SOL    HW226865   0.941   0.300   4.984
 8656SOL     OW26866   4.625   6.508   0.786
 8656SOL    HW126867   4.641   6.605   0.802
 8656SOL    HW226868   4.563   6.472   0.855
 8657SOL     OW26869   3.199   2.165   2.831
 8657SOL    HW126870   3.284   2.192   2.875
 8657SOL    HW226871   3.136   2.127   2.899
 8658SOL     OW26872   5.999   4.803   1.577
 8658SOL    HW126873   6.073   4.849   1.625
 8658SOL    HW226874   6.037   4.749   1.501
 8659SOL     OW26875   3.761   0.801   2.601
 8659SOL    HW126876   3.786   0.871   2.668
 8659SOL    HW226877   3.678   0.829   2.553
 8660SOL     OW26878   0.290   4.190   1.705
 8660SOL    HW126879   0.241   4.275   1.724
 8660SOL    HW226880   0.296   4.136   1.789
 8661SOL     OW26881   7.024   3.628   1.916
 8661SOL    HW126882   6.973   3.556   1.963
 8661SOL    HW226883   6.996   3.632   1.820
 8662SOL     OW26884   1.269   2.457   2.638
 8662SOL    HW126885   1.215   2.484   2.558
 8662SOL    HW226886   1.355   2.507   2.639
 8663SOL     OW26887   3.734   4.981   2.633
 8663SOL    HW126888   3.791   4.905   2.600
 8663SOL    HW226889   3.791   5.044   2.686
 8664SOL     OW26890   4.123   6.483   3.826
 8664SOL    HW126891   4.123   6.383   3.832
 8664SOL    HW226892   4.094   6.511   3.735
 8665SOL     OW26893   5.296   3.953   6.762
 8665SOL    HW126894   5.259   3.907   6.681
 8665SOL    HW226895   5.232   3.941   6.838
 8666SOL     OW26896   4.628   0.657   2.930
 8666SOL    HW126897   4.684   0.576   2.946
 8666SOL    HW226898   4.532   0.630   2.916
 8667SOL     OW26899   5.045   2.628   2.316
 8667SOL    HW126900   5.070   2.711   2.266
 8667SOL    HW226901   5.004   2.653   2.404
 8668SOL     OW26902   4.910   2.449   4.503
 8668SOL    HW126903   4.946   2.359   4.480
 8668SOL    HW226904   4.813   2.440   4.528
 8669SOL     OW26905   6.723   6.152   6.310
 8669SOL    HW126906   6.748   6.060   6.279
 8669SOL    HW226907   6.629   6.172   6.281
 8670SOL     OW26908   6.507   4.998   5.501
 8670SOL    HW126909   6.422   5.017   5.453
 8670SOL    HW226910   6.538   4.906   5.479
 8671SOL     OW26911   0.114   3.200   3.207
 8671SOL    HW126912   0.105   3.225   3.110
 8671SOL    HW226913   0.068   3.113   3.224
 8672SOL     OW26914   0.077   1.751   2.632
 8672SOL    HW126915   0.057   1.657   2.607
 8672SOL    HW226916   0.002   1.810   2.602
 8673SOL     OW26917   1.309   1.787   1.276
 8673SOL    HW126918   1.335   1.792   1.373
 8673SOL    HW226919   1.369   1.845   1.222
 8674SOL     OW26920   6.911   4.150   2.872
 8674SOL    HW126921   6.851   4.144   2.952
 8674SOL    HW226922   7.005   4.165   2.902
 8675SOL     OW26923   4.328   2.326   4.735
 8675SOL    HW126924   4.421   2.354   4.709
 8675SOL    HW226925   4.309   2.358   4.828
 8676SOL     OW26926   4.929   2.032   1.541
 8676SOL    HW126927   4.925   2.068   1.634
 8676SOL    HW226928   4.997   2.083   1.488
 8677SOL     OW26929   2.430   6.989   6.190
 8677SOL    HW126930   2.459   6.910   6.244
 8677SOL    HW226931   2.340   6.971   6.150
 8678SOL     OW26932   2.732   2.157   0.809
 8678SOL    HW126933   2.653   2.162   0.748
 8678SOL    HW226934   2.741   2.243   0.860
 8679SOL     OW26935   1.189   1.691   6.548
 8679SOL    HW126936   1.121   1.731   6.610
 8679SOL    HW226937   1.269   1.751   6.544
 8680SOL     OW26938   0.255   0.319   0.593
 8680SOL    HW126939   0.208   0.351   0.511
 8680SOL    HW226940   0.351   0.302   0.572
 8681SOL     OW26941   4.908   5.027   1.421
 8681SOL    HW126942   4.969   5.102   1.399
 8681SOL    HW226943   4.902   5.016   1.521
 8682SOL     OW26944   2.687   0.857   2.605
 8682SOL    HW126945   2.682   0.806   2.519
 8682SOL    HW226946   2.737   0.943   2.590
 8683SOL     OW26947   2.374   4.369   4.284
 8683SOL    HW126948   2.279   4.384   4.312
 8683SOL    HW226949   2.376   4.313   4.202
 8684SOL     OW26950   2.659   4.646   3.453
 8684SOL    HW126951   2.596   4.595   3.511
 8684SOL    HW226952   2.740   4.671   3.506
 8685SOL     OW26953   4.888   3.130   4.484
 8685SOL    HW126954   4.880   3.043   4.533
 8685SOL    HW226955   4.883   3.114   4.386
 8686SOL     OW26956   1.561   5.444   3.147
 8686SOL    HW126957   1.507   5.526   3.171
 8686SOL    HW226958   1.598   5.403   3.230
 8687SOL     OW26959   5.903   4.649   5.311
 8687SOL    HW126960   5.947   4.631   5.399
 8687SOL    HW226961   5.811   4.611   5.312
 8688SOL     OW26962   1.552   3.974   5.246
 8688SOL    HW126963   1.526   3.904   5.179
 8688SOL    HW226964   1.651   3.971   5.261
 8689SOL     OW26965   4.233   3.429   1.002
 8689SOL    HW126966   4.296   3.398   1.074
 8689SOL    HW226967   4.253   3.380   0.917
 8690SOL     OW26968   1.559   1.496   2.374
 8690SOL    HW126969   1.492   1.553   2.328
 8690SOL    HW226970   1.615   1.449   2.306
 8691SOL     OW26971   3.335   2.388   6.151
 8691SOL    HW126972   3.420   2.336   6.140
 8691SOL    HW226973   3.348   2.482   6.117
 8692SOL     OW26974   5.237   3.212   4.220
 8692SOL    HW126975   5.292   3.173   4.147
 8692SOL    HW226976   5.257   3.166   4.306
 8693SOL     OW26977   6.729   6.898   5.403
 8693SOL    HW126978   6.707   6.863   5.311
 8693SOL    HW226979   6.724   6.823   5.469
 8694SOL     OW26980   4.732   3.320   5.450
 8694SOL    HW126981   4.636   3.292   5.445
 8694SOL    HW226982   4.767   3.303   5.543
 8695SOL     OW26983   3.251   5.094   0.696
 8695SOL    HW126984   3.219   5.087   0.790
 8695SOL    HW226985   3.228   5.185   0.660
 8696SOL     OW26986   2.597   5.803   6.180
 8696SOL    HW126987   2.539   5.722   6.175
 8696SOL    HW226988   2.626   5.818   6.275
 8697SOL     OW26989   1.005   3.630   5.324
 8697SOL    HW126990   1.091   3.614   5.372
 8697SOL    HW226991   1.024   3.663   5.232
 8698SOL     OW26992   4.356   4.620   6.386
 8698SOL    HW126993   4.373   4.535   6.436
 8698SOL    HW226994   4.354   4.697   6.450
 8699SOL     OW26995   1.902   2.253   0.634
 8699SOL    HW126996   1.811   2.280   0.602
 8699SOL    HW226997   1.972   2.308   0.587
 8700SOL     OW26998   0.780   1.386   4.653
 8700SOL    HW126999   0.802   1.435   4.569
 8700SOL    HW227000   0.681   1.373   4.659
 8701SOL     OW27001   1.595   3.261   6.629
 8701SOL    HW127002   1.525   3.317   6.671
 8701SOL    HW227003   1.583   3.165   6.656
 8702SOL     OW27004   5.844   4.447   1.209
 8702SOL    HW127005   5.881   4.533   1.172
 8702SOL    HW227006   5.758   4.426   1.162
 8703SOL     OW27007   2.516   5.674   1.466
 8703SOL    HW127008   2.496   5.670   1.564
 8703SOL    HW227009   2.431   5.681   1.415
 8704SOL     OW27010   0.154   1.369   5.089
 8704SOL    HW127011   0.231   1.306   5.076
 8704SOL    HW227012   0.069   1.317   5.086
 8705SOL     OW27013   3.699   2.116   0.075
 8705SOL    HW127014   3.782   2.160   0.042
 8705SOL    HW227015   3.671   2.045   0.011
 8706SOL     OW27016   4.835   2.317   6.693
 8706SOL    HW127017   4.810   2.398   6.640
 8706SOL    HW227018   4.873   2.345   6.781
 8707SOL     OW27019   1.516   1.051   4.134
 8707SOL    HW127020   1.556   0.963   4.159
 8707SOL    HW227021   1.567   1.125   4.177
 8708SOL     OW27022   5.950   2.221   0.971
 8708SOL    HW127023   5.989   2.309   0.945
 8708SOL    HW227024   6.020   2.150   0.963
 8709SOL     OW27025   6.410   6.004   4.124
 8709SOL    HW127026   6.430   6.056   4.041
 8709SOL    HW227027   6.330   6.043   4.169
 8710SOL     OW27028   2.116   1.782   3.537
 8710SOL    HW127029   2.076   1.870   3.562
 8710SOL    HW227030   2.210   1.778   3.570
 8711SOL     OW27031   1.486   1.401   2.070
 8711SOL    HW127032   1.440   1.473   2.121
 8711SOL    HW227033   1.543   1.347   2.132
 8712SOL     OW27034   0.824   4.607   4.273
 8712SOL    HW127035   0.840   4.538   4.344
 8712SOL    HW227036   0.728   4.602   4.243
 8713SOL     OW27037   0.542   3.440   2.167
 8713SOL    HW127038   0.456   3.393   2.150
 8713SOL    HW227039   0.525   3.538   2.180
 8714SOL     OW27040   6.006   4.409   6.752
 8714SOL    HW127041   5.910   4.393   6.727
 8714SOL    HW227042   6.050   4.464   6.681
 8715SOL     OW27043   2.087   4.996   1.557
 8715SOL    HW127044   1.991   5.020   1.547
 8715SOL    HW227045   2.102   4.954   1.647
 8716SOL     OW27046   6.334   0.404   1.949
 8716SOL    HW127047   6.264   0.461   1.907
 8716SOL    HW227048   6.361   0.332   1.885
 8717SOL     OW27049   3.431   2.434   0.379
 8717SOL    HW127050   3.482   2.353   0.350
 8717SOL    HW227051   3.424   2.435   0.479
 8718SOL     OW27052   3.082   5.277   6.539
 8718SOL    HW127053   3.083   5.343   6.614
 8718SOL    HW227054   3.175   5.243   6.524
 8719SOL     OW27055   3.141   1.472   5.119
 8719SOL    HW127056   3.158   1.383   5.076
 8719SOL    HW227057   3.227   1.519   5.134
 8720SOL     OW27058   1.260   5.904   4.493
 8720SOL    HW127059   1.207   5.847   4.556
 8720SOL    HW227060   1.283   5.851   4.411
 8721SOL     OW27061   1.034   6.746   0.943
 8721SOL    HW127062   1.089   6.782   0.868
 8721SOL    HW227063   0.980   6.820   0.984
 8722SOL     OW27064   3.124   1.018   0.477
 8722SOL    HW127065   3.181   1.079   0.532
 8722SOL    HW227066   3.071   1.072   0.412
 8723SOL     OW27067   4.142   6.521   2.114
 8723SOL    HW127068   4.107   6.528   2.021
 8723SOL    HW227069   4.109   6.438   2.157
 8724SOL     OW27070   3.538   1.559   4.998
 8724SOL    HW127071   3.503   1.592   5.086
 8724SOL    HW227072   3.510   1.622   4.925
 8725SOL     OW27073   6.590   0.390   3.044
 8725SOL    HW127074   6.587   0.306   2.988
 8725SOL    HW227075   6.574   0.366   3.140
 8726SOL     OW27076   6.007   0.454   0.759
 8726SOL    HW127077   6.079   0.388   0.740
 8726SOL    HW227078   6.048   0.540   0.790
 8727SOL     OW27079   5.319   5.892   6.870
 8727SOL    HW127080   5.349   5.981   6.836
 8727SOL    HW227081   5.369   5.819   6.824
 8728SOL     OW27082   6.192   6.796   4.518
 8728SOL    HW127083   6.115   6.733   4.510
 8728SOL    HW227084   6.269   6.750   4.563
 8729SOL     OW27085   5.604   5.801   5.890
 8729SOL    HW127086   5.591   5.702   5.893
 8729SOL    HW227087   5.647   5.832   5.975
 8730SOL     OW27088   4.129   4.639   1.795
 8730SOL    HW127089   4.205   4.574   1.807
 8730SOL    HW227090   4.048   4.589   1.764
 8731SOL     OW27091   6.934   1.938   4.020
 8731SOL    HW127092   6.846   1.909   4.057
 8731SOL    HW227093   6.959   2.027   4.060
 8732SOL     OW27094   5.066   6.172   5.868
 8732SOL    HW127095   5.134   6.189   5.796
 8732SOL    HW227096   4.978   6.149   5.826
 8733SOL     OW27097   6.463   4.597   2.364
 8733SOL    HW127098   6.453   4.696   2.364
 8733SOL    HW227099   6.492   4.566   2.273
 8734SOL     OW27100   1.317   4.783   0.858
 8734SOL    HW127101   1.304   4.759   0.954
 8734SOL    HW227102   1.399   4.738   0.823
 8735SOL     OW27103   1.533   3.070   5.913
 8735SOL    HW127104   1.560   3.098   5.821
 8735SOL    HW227105   1.433   3.068   5.919
 8736SOL     OW27106   1.660   5.692   3.461
 8736SOL    HW127107   1.571   5.672   3.419
 8736SOL    HW227108   1.725   5.715   3.389
 8737SOL     OW27109   0.236   5.819   6.896
 8737SOL    HW127110   0.137   5.827   6.881
 8737SOL    HW227111   0.275   5.756   6.828
 8738SOL     OW27112   2.065   2.433   2.231
 8738SOL    HW127113   2.063   2.506   2.162
 8738SOL    HW227114   2.074   2.473   2.322
 8739SOL     OW27115   5.631   4.618   3.862
 8739SOL    HW127116   5.729   4.619   3.885
 8739SOL    HW227117   5.601   4.524   3.849
 8740SOL     OW27118   3.312   1.904   3.290
 8740SOL    HW127119   3.389   1.883   3.230
 8740SOL    HW227120   3.289   2.001   3.281
 8741SOL     OW27121   1.105   1.661   2.285
 8741SOL    HW127122   1.023   1.609   2.258
 8741SOL    HW227123   1.087   1.708   2.371
 8742SOL     OW27124   2.651   2.573   1.787
 8742SOL    HW127125   2.578   2.557   1.854
 8742SOL    HW227126   2.738   2.540   1.824
 8743SOL     OW27127   0.668   3.230   0.489
 8743SOL    HW127128   0.603   3.154   0.497
 8743SOL    HW227129   0.737   3.222   0.561
 8744SOL     OW27130   3.706   3.952   5.906
 8744SOL    HW127131   3.734   3.916   5.995
 8744SOL    HW227132   3.633   4.019   5.919
 8745SOL     OW27133   5.669   1.593   6.362
 8745SOL    HW127134   5.767   1.593   6.378
 8745SOL    HW227135   5.649   1.544   6.277
 8746SOL     OW27136   3.976   4.891   4.904
 8746SOL    HW127137   4.030   4.831   4.963
 8746SOL    HW227138   3.894   4.920   4.953
 8747SOL     OW27139   1.125   0.746   2.381
 8747SOL    HW127140   1.134   0.677   2.309
 8747SOL    HW227141   1.036   0.791   2.374
 8748SOL     OW27142   5.407   1.872   4.680
 8748SOL    HW127143   5.312   1.898   4.663
 8748SOL    HW227144   5.435   1.805   4.611
 8749SOL     OW27145   2.659   1.058   4.086
 8749SOL    HW127146   2.592   1.032   4.156
 8749SOL    HW227147   2.713   1.136   4.119
 8750SOL     OW27148   4.195   3.476   1.646
 8750SOL    HW127149   4.125   3.528   1.693
 8750SOL    HW227150   4.285   3.508   1.676
 8751SOL     OW27151   2.458   6.975   0.153
 8751SOL    HW127152   2.392   6.994   0.226
 8751SOL    HW227153   2.549   7.007   0.182
 8752SOL     OW27154   6.859   3.014   5.882
 8752SOL    HW127155   6.858   3.089   5.816
 8752SOL    HW227156   6.793   3.032   5.955
 8753SOL     OW27157   2.208   1.819   0.920
 8753SOL    HW127158   2.185   1.739   0.976
 8753SOL    HW227159   2.189   1.799   0.824
 8754SOL     OW27160   0.998   5.654   6.528
 8754SOL    HW127161   1.093   5.687   6.523
 8754SOL    HW227162   0.994   5.560   6.494
 8755SOL     OW27163   0.201   2.742   1.848
 8755SOL    HW127164   0.299   2.727   1.840
 8755SOL    HW227165   0.161   2.748   1.756
 8756SOL     OW27166   1.380   1.659   2.232
 8756SOL    HW127167   1.379   1.680   2.135
 8756SOL    HW227168   1.287   1.646   2.265
 8757SOL     OW27169   5.458   6.205   5.429
 8757SOL    HW127170   5.515   6.123   5.435
 8757SOL    HW227171   5.380   6.186   5.369
 8758SOL     OW27172   3.941   5.756   5.846
 8758SOL    HW127173   3.943   5.754   5.746
 8758SOL    HW227174   3.906   5.845   5.877
 8759SOL     OW27175   5.960   1.307   1.943
 8759SOL    HW127176   6.055   1.292   1.916
 8759SOL    HW227177   5.903   1.314   1.862
 8760SOL     OW27178   2.433   2.425   4.161
 8760SOL    HW127179   2.429   2.343   4.219
 8760SOL    HW227180   2.362   2.419   4.091
 8761SOL     OW27181   4.706   2.250   2.980
 8761SOL    HW127182   4.717   2.332   2.924
 8761SOL    HW227183   4.734   2.169   2.928
 8762SOL     OW27184   4.075   6.028   2.836
 8762SOL    HW127185   3.990   6.064   2.875
 8762SOL    HW227186   4.057   5.943   2.788
 8763SOL     OW27187   6.924   1.432   5.599
 8763SOL    HW127188   6.982   1.463   5.675
 8763SOL    HW227189   6.982   1.405   5.522
 8764SOL     OW27190   3.514   4.944   6.194
 8764SOL    HW127191   3.593   4.907   6.145
 8764SOL    HW227192   3.431   4.927   6.140
 8765SOL     OW27193   3.899   6.743   3.738
 8765SOL    HW127194   3.830   6.792   3.793
 8765SOL    HW227195   3.862   6.655   3.709
 8766SOL     OW27196   5.155   6.752   5.003
 8766SOL    HW127197   5.100   6.722   4.925
 8766SOL    HW227198   5.231   6.809   4.971
 8767SOL     OW27199   1.619   1.506   3.757
 8767SOL    HW127200   1.650   1.413   3.776
 8767SOL    HW227201   1.626   1.524   3.658
 8768SOL     OW27202   6.618   1.272   0.286
 8768SOL    HW127203   6.605   1.174   0.278
 8768SOL    HW227204   6.562   1.307   0.360
 8769SOL     OW27205   6.058   0.125   6.225
 8769SOL    HW127206   6.046   0.094   6.131
 8769SOL    HW227207   6.103   0.214   6.226
 8770SOL     OW27208   4.837   2.063   0.368
 8770SOL    HW127209   4.830   2.116   0.453
 8770SOL    HW227210   4.745   2.037   0.338
 8771SOL     OW27211   0.662   2.846   6.204
 8771SOL    HW127212   0.733   2.911   6.231
 8771SOL    HW227213   0.574   2.877   6.240
 8772SOL     OW27214   0.213   0.283   3.874
 8772SOL    HW127215   0.121   0.318   3.891
 8772SOL    HW227216   0.267   0.353   3.828
 8773SOL     OW27217   0.123   1.628   3.355
 8773SOL    HW127218   0.201   1.584   3.399
 8773SOL    HW227219   0.136   1.627   3.255
 8774SOL     OW27220   1.326   1.772   6.779
 8774SOL    HW127221   1.234   1.795   6.813
 8774SOL    HW227222   1.391   1.776   6.855
 8775SOL     OW27223   5.307   2.339   3.081
 8775SOL    HW127224   5.355   2.252   3.079
 8775SOL    HW227225   5.215   2.328   3.043
 8776SOL     OW27226   4.851   2.832   1.256
 8776SOL    HW127227   4.877   2.928   1.255
 8776SOL    HW227228   4.844   2.800   1.351
 8777SOL     OW27229   6.732   2.568   3.561
 8777SOL    HW127230   6.780   2.527   3.638
 8777SOL    HW227231   6.710   2.497   3.494
 8778SOL     OW27232   3.265   3.760   6.909
 8778SOL    HW127233   3.166   3.764   6.917
 8778SOL    HW227234   3.303   3.712   6.988
 8779SOL     OW27235   4.018   5.494   2.534
 8779SOL    HW127236   3.982   5.407   2.503
 8779SOL    HW227237   4.007   5.562   2.462
 8780SOL     OW27238   0.869   4.135   3.972
 8780SOL    HW127239   0.965   4.107   3.972
 8780SOL    HW227240   0.812   4.060   4.005
 8781SOL     OW27241   2.488   0.977   1.252
 8781SOL    HW127242   2.583   0.951   1.269
 8781SOL    HW227243   2.433   0.894   1.242
 8782SOL     OW27244   6.342   2.256   0.769
 8782SOL    HW127245   6.291   2.172   0.787
 8782SOL    HW227246   6.283   2.321   0.721
 8783SOL     OW27247   4.779   4.159   5.040
 8783SOL    HW127248   4.689   4.117   5.033
 8783SOL    HW227249   4.785   4.213   5.123
 8784SOL     OW27250   4.568   0.943   6.928
 8784SOL    HW127251   4.513   1.017   6.887
 8784SOL    HW227252   4.579   0.869   6.861
 8785SOL     OW27253   0.063   5.581   5.739
 8785SOL    HW127254   0.007   5.539   5.668
 8785SOL    HW227255   0.109   5.661   5.702
 8786SOL     OW27256   5.636   1.700   2.864
 8786SOL    HW127257   5.680   1.626   2.813
 8786SOL    HW227258   5.536   1.689   2.860
 8787SOL     OW27259   3.419   5.427   1.589
 8787SOL    HW127260   3.343   5.376   1.549
 8787SOL    HW227261   3.458   5.376   1.665
 8788SOL     OW27262   0.398   6.251   4.190
 8788SOL    HW127263   0.381   6.218   4.283
 8788SOL    HW227264   0.312   6.275   4.146
 8789SOL     OW27265   1.448   2.652   6.340
 8789SOL    HW127266   1.396   2.734   6.365
 8789SOL    HW227267   1.543   2.664   6.368
 8790SOL     OW27268   4.491   2.542   5.027
 8790SOL    HW127269   4.398   2.518   4.996
 8790SOL    HW227270   4.558   2.498   4.968
 8791SOL     OW27271   4.020   6.276   4.711
 8791SOL    HW127272   3.942   6.254   4.653
 8791SOL    HW227273   4.074   6.194   4.727
 8792SOL     OW27274   5.633   5.121   1.839
 8792SOL    HW127275   5.562   5.095   1.905
 8792SOL    HW227276   5.723   5.097   1.876
 8793SOL     OW27277   6.685   6.225   5.685
 8793SOL    HW127278   6.713   6.134   5.712
 8793SOL    HW227279   6.723   6.246   5.595
 8794SOL     OW27280   0.233   1.672   2.834
 8794SOL    HW127281   0.204   1.710   2.746
 8794SOL    HW227282   0.257   1.747   2.895
 8795SOL     OW27283   1.157   6.203   6.719
 8795SOL    HW127284   1.182   6.228   6.813
 8795SOL    HW227285   1.084   6.134   6.722
 8796SOL     OW27286   5.880   3.946   4.883
 8796SOL    HW127287   5.902   3.948   4.786
 8796SOL    HW227288   5.842   4.034   4.910
 8797SOL     OW27289   4.953   5.946   4.259
 8797SOL    HW127290   4.993   5.887   4.329
 8797SOL    HW227291   4.978   6.041   4.277
 8798SOL     OW27292   2.244   6.315   5.401
 8798SOL    HW127293   2.246   6.277   5.309
 8798SOL    HW227294   2.152   6.345   5.424
 8799SOL     OW27295   1.362   5.957   1.740
 8799SOL    HW127296   1.263   5.964   1.732
 8799SOL    HW227297   1.393   5.870   1.703
 8800SOL     OW27298   6.516   5.801   3.914
 8800SOL    HW127299   6.517   5.864   3.836
 8800SOL    HW227300   6.425   5.760   3.922
 8801SOL     OW27301   5.417   3.520   5.834
 8801SOL    HW127302   5.509   3.509   5.870
 8801SOL    HW227303   5.381   3.610   5.861
 8802SOL     OW27304   1.694   5.850   6.381
 8802SOL    HW127305   1.624   5.811   6.320
 8802SOL    HW227306   1.713   5.944   6.354
 8803SOL     OW27307   5.828   5.857   5.270
 8803SOL    HW127308   5.898   5.843   5.340
 8803SOL    HW227309   5.786   5.769   5.247
 8804SOL     OW27310   1.156   6.065   2.249
 8804SOL    HW127311   1.140   6.061   2.150
 8804SOL    HW227312   1.228   6.001   2.274
 8805SOL     OW27313   5.278   5.116   3.343
 8805SOL    HW127314   5.255   5.020   3.364
 8805SOL    HW227315   5.216   5.176   3.394
 8806SOL     OW27316   1.074   0.591   1.938
 8806SOL    HW127317   1.087   0.677   1.987
 8806SOL    HW227318   1.065   0.516   2.003
 8807SOL     OW27319   5.544   2.591   1.056
 8807SOL    HW127320   5.538   2.672   1.116
 8807SOL    HW227321   5.635   2.551   1.063
 8808SOL     OW27322   2.153   1.922   0.260
 8808SOL    HW127323   2.147   2.019   0.282
 8808SOL    HW227324   2.082   1.898   0.194
 8809SOL     OW27325   6.998   3.429   3.152
 8809SOL    HW127326   0.009   3.391   3.067
 8809SOL    HW227327   0.042   3.428   3.223
 8810SOL     OW27328   0.466   2.074   5.324
 8810SOL    HW127329   0.476   2.025   5.411
 8810SOL    HW227330   0.372   2.105   5.315
 8811SOL     OW27331   4.185   4.767   2.426
 8811SOL    HW127332   4.267   4.716   2.399
 8811SOL    HW227333   4.132   4.790   2.344
 8812SOL     OW27334   5.150   1.016   0.061
 8812SOL    HW127335   5.069   0.960   0.048
 8812SOL    HW227336   5.209   0.975   0.130
 8813SOL     OW27337   2.087   3.175   2.256
 8813SOL    HW127338   2.062   3.099   2.316
 8813SOL    HW227339   2.137   3.244   2.308
 8814SOL     OW27340   5.403   6.552   5.141
 8814SOL    HW127341   5.350   6.567   5.224
 8814SOL    HW227342   5.344   6.564   5.061
 8815SOL     OW27343   4.947   0.965   1.155
 8815SOL    HW127344   4.937   1.023   1.236
 8815SOL    HW227345   4.887   0.885   1.164
 8816SOL     OW27346   0.506   6.898   3.924
 8816SOL    HW127347   0.477   6.988   3.957
 8816SOL    HW227348   0.593   6.874   3.965
 8817SOL     OW27349   1.286   2.598   3.247
 8817SOL    HW127350   1.378   2.599   3.286
 8817SOL    HW227351   1.221   2.634   3.314
 8818SOL     OW27352   0.794   6.623   5.607
 8818SOL    HW127353   0.819   6.538   5.561
 8818SOL    HW227354   0.802   6.612   5.706
 8819SOL     OW27355   4.747   5.706   6.240
 8819SOL    HW127356   4.823   5.673   6.296
 8819SOL    HW227357   4.753   5.806   6.230
 8820SOL     OW27358   4.135   6.800   5.494
 8820SOL    HW127359   4.101   6.828   5.404
 8820SOL    HW227360   4.178   6.710   5.486
 8821SOL     OW27361   0.828   4.792   6.162
 8821SOL    HW127362   0.769   4.719   6.128
 8821SOL    HW227363   0.791   4.828   6.248
 8822SOL     OW27364   6.156   0.182   4.837
 8822SOL    HW127365   6.090   0.236   4.890
 8822SOL    HW227366   6.114   0.094   4.812
 8823SOL     OW27367   4.030   1.702   2.703
 8823SOL    HW127368   4.068   1.794   2.709
 8823SOL    HW227369   3.947   1.697   2.758
 8824SOL     OW27370   1.599   0.458   3.449
 8824SOL    HW127371   1.528   0.393   3.424
 8824SOL    HW227372   1.640   0.497   3.367
 8825SOL     OW27373   0.268   6.871   0.051
 8825SOL    HW127374   0.313   6.918   0.127
 8825SOL    HW227375   0.329   6.802   0.014
 8826SOL     OW27376   0.212   4.033   0.222
 8826SOL    HW127377   0.251   4.048   0.131
 8826SOL    HW227378   0.286   4.012   0.287
 8827SOL     OW27379   4.440   6.941   3.188
 8827SOL    HW127380   4.363   6.912   3.245
 8827SOL    HW227381   4.523   6.944   3.244
 8828SOL     OW27382   4.982   2.304   6.253
 8828SOL    HW127383   4.953   2.284   6.159
 8828SOL    HW227384   5.081   2.312   6.256
 8829SOL     OW27385   6.866   0.980   2.862
 8829SOL    HW127386   6.870   1.051   2.792
 8829SOL    HW227387   6.819   0.900   2.825
 8830SOL     OW27388   3.203   0.762   3.592
 8830SOL    HW127389   3.160   0.759   3.682
 8830SOL    HW227390   3.148   0.818   3.530
 8831SOL     OW27391   0.193   3.504   2.541
 8831SOL    HW127392   0.240   3.518   2.628
 8831SOL    HW227393   0.158   3.411   2.536
 8832SOL     OW27394   5.301   0.652   5.922
 8832SOL    HW127395   5.202   0.644   5.926
 8832SOL    HW227396   5.327   0.746   5.900
 8833SOL     OW27397   5.164   2.713   1.013
 8833SOL    HW127398   5.080   2.661   1.029
 8833SOL    HW227399   5.141   2.809   0.999
 8834SOL     OW27400   5.603   4.733   6.386
 8834SOL    HW127401   5.560   4.703   6.471
 8834SOL    HW227402   5.682   4.791   6.407
 8835SOL     OW27403   6.954   0.828   5.194
 8835SOL    HW127404   6.931   0.812   5.098
 8835SOL    HW227405   0.007   0.774   5.219
 8836SOL     OW27406   4.161   1.198   1.150
 8836SOL    HW127407   4.157   1.099   1.135
 8836SOL    HW227408   4.151   1.217   1.248
 8837SOL     OW27409   4.660   6.223   0.447
 8837SOL    HW127410   4.565   6.200   0.430
 8837SOL    HW227411   4.719   6.163   0.392
 8838SOL     OW27412   2.114   3.385   3.318
 8838SOL    HW127413   2.063   3.464   3.354
 8838SOL    HW227414   2.163   3.341   3.392
 8839SOL     OW27415   4.694   5.227   1.404
 8839SOL    HW127416   4.684   5.260   1.497
 8839SOL    HW227417   4.773   5.165   1.399
 8840SOL     OW27418   6.856   0.954   0.633
 8840SOL    HW127419   6.805   0.869   0.622
 8840SOL    HW227420   6.794   1.028   0.659
 8841SOL     OW27421   3.426   1.028   0.722
 8841SOL    HW127422   3.340   1.071   0.696
 8841SOL    HW227423   3.411   0.930   0.737
 8842SOL     OW27424   3.613   3.096   4.124
 8842SOL    HW127425   3.667   3.179   4.142
 8842SOL    HW227426   3.534   3.119   4.068
 8843SOL     OW27427   2.767   5.455   5.057
 8843SOL    HW127428   2.683   5.426   5.010
 8843SOL    HW227429   2.759   5.434   5.154
 8844SOL     OW27430   3.405   2.836   6.355
 8844SOL    HW127431   3.357   2.777   6.290
 8844SOL    HW227432   3.500   2.849   6.326
 8845SOL     OW27433   0.641   3.433   1.919
 8845SOL    HW127434   0.736   3.449   1.893
 8845SOL    HW227435   0.632   3.437   2.018
 8846SOL     OW27436   5.765   4.593   4.535
 8846SOL    HW127437   5.832   4.626   4.602
 8846SOL    HW227438   5.716   4.671   4.496
 8847SOL     OW27439   1.040   2.171   3.943
 8847SOL    HW127440   0.980   2.218   4.008
 8847SOL    HW227441   0.990   2.095   3.901
 8848SOL     OW27442   6.496   1.371   0.547
 8848SOL    HW127443   6.420   1.306   0.544
 8848SOL    HW227444   6.464   1.462   0.523
 8849SOL     OW27445   3.567   5.483   4.256
 8849SOL    HW127446   3.496   5.494   4.186
 8849SOL    HW227447   3.538   5.528   4.341
 8850SOL     OW27448   2.618   1.278   1.311
 8850SOL    HW127449   2.533   1.240   1.274
 8850SOL    HW227450   2.682   1.294   1.236
 8851SOL     OW27451   0.195   5.287   2.646
 8851SOL    HW127452   0.205   5.292   2.547
 8851SOL    HW227453   0.285   5.296   2.690
 8852SOL     OW27454   5.238   3.132   4.510
 8852SOL    HW127455   5.196   3.049   4.472
 8852SOL    HW227456   5.174   3.174   4.575
 8853SOL     OW27457   4.822   2.026   5.492
 8853SOL    HW127458   4.764   1.986   5.421
 8853SOL    HW227459   4.911   1.981   5.491
 8854SOL     OW27460   1.725   0.910   5.836
 8854SOL    HW127461   1.649   0.973   5.852
 8854SOL    HW227462   1.751   0.866   5.922
 8855SOL     OW27463   6.408   5.122   6.464
 8855SOL    HW127464   6.498   5.102   6.427
 8855SOL    HW227465   6.380   5.048   6.525
 8856SOL     OW27466   5.473   0.915   5.309
 8856SOL    HW127467   5.480   0.854   5.230
 8856SOL    HW227468   5.538   0.884   5.379
 8857SOL     OW27469   1.135   3.095   4.561
 8857SOL    HW127470   1.119   2.997   4.550
 8857SOL    HW227471   1.191   3.109   4.643
 8858SOL     OW27472   6.859   3.970   5.746
 8858SOL    HW127473   6.872   4.068   5.734
 8858SOL    HW227474   6.814   3.953   5.834
 8859SOL     OW27475   3.152   5.989   5.181
 8859SOL    HW127476   3.122   6.075   5.220
 8859SOL    HW227477   3.105   5.973   5.094
 8860SOL     OW27478   1.503   2.186   0.867
 8860SOL    HW127479   1.465   2.234   0.946
 8860SOL    HW227480   1.506   2.248   0.788
 8861SOL     OW27481   2.358   2.812   1.211
 8861SOL    HW127482   2.368   2.746   1.137
 8861SOL    HW227483   2.406   2.897   1.186
 8862SOL     OW27484   6.465   2.568   5.297
 8862SOL    HW127485   6.395   2.503   5.327
 8862SOL    HW227486   6.443   2.600   5.205
 8863SOL     OW27487   1.163   5.376   4.992
 8863SOL    HW127488   1.262   5.392   4.991
 8863SOL    HW227489   1.117   5.451   4.944
 8864SOL     OW27490   1.338   4.051   6.026
 8864SOL    HW127491   1.412   3.985   6.022
 8864SOL    HW227492   1.365   4.134   5.977
 8865SOL     OW27493   2.589   2.313   5.736
 8865SOL    HW127494   2.660   2.376   5.766
 8865SOL    HW227495   2.628   2.222   5.722
 8866SOL     OW27496   5.016   6.488   5.256
 8866SOL    HW127497   5.054   6.578   5.274
 8866SOL    HW227498   5.064   6.420   5.311
 8867SOL     OW27499   6.554   1.253   3.997
 8867SOL    HW127500   6.499   1.266   3.914
 8867SOL    HW227501   6.522   1.315   4.068
 8868SOL     OW27502   4.904   3.368   0.759
 8868SOL    HW127503   4.870   3.276   0.741
 8868SOL    HW227504   4.998   3.376   0.726
 8869SOL     OW27505   3.842   2.144   3.507
 8869SOL    HW127506   3.911   2.216   3.513
 8869SOL    HW227507   3.870   2.067   3.564
 8870SOL     OW27508   4.828   1.289   2.282
 8870SOL    HW127509   4.791   1.219   2.342
 8870SOL    HW227510   4.786   1.282   2.192
 8871SOL     OW27511   1.523   2.491   4.210
 8871SOL    HW127512   1.516   2.474   4.309
 8871SOL    HW227513   1.611   2.534   4.190
 8872SOL     OW27514   1.675   2.688   2.217
 8872SOL    HW127515   1.719   2.662   2.131
 8872SOL    HW227516   1.740   2.677   2.292
 8873SOL     OW27517   0.072   5.885   4.922
 8873SOL    HW127518   0.125   5.939   4.856
 8873SOL    HW227519   0.062   5.791   4.888
 8874SOL     OW27520   0.852   1.569   6.554
 8874SOL    HW127521   0.800   1.484   6.569
 8874SOL    HW227522   0.906   1.589   6.635
 8875SOL     OW27523   1.452   1.193   4.600
 8875SOL    HW127524   1.429   1.096   4.594
 8875SOL    HW227525   1.522   1.206   4.670
 8876SOL     OW27526   2.485   0.589   4.730
 8876SOL    HW127527   2.496   0.491   4.747
 8876SOL    HW227528   2.566   0.638   4.764
 8877SOL     OW27529   2.966   6.746   4.695
 8877SOL    HW127530   2.913   6.827   4.720
 8877SOL    HW227531   2.922   6.699   4.618
 8878SOL     OW27532   5.501   4.784   5.567
 8878SOL    HW127533   5.585   4.834   5.547
 8878SOL    HW227534   5.440   4.843   5.619
 8879SOL     OW27535   5.107   5.579   4.518
 8879SOL    HW127536   5.098   5.676   4.495
 8879SOL    HW227537   5.202   5.557   4.538
 8880SOL     OW27538   0.261   6.158   5.183
 8880SOL    HW127539   0.202   6.123   5.256
 8880SOL    HW227540   0.237   6.253   5.163
 8881SOL     OW27541   6.531   1.163   1.849
 8881SOL    HW127542   6.576   1.078   1.821
 8881SOL    HW227543   6.558   1.187   1.942
 8882SOL     OW27544   5.567   2.460   6.913
 8882SOL    HW127545   5.498   2.389   6.899
 8882SOL    HW227546   5.652   2.434   6.868
 8883SOL     OW27547   6.987   1.897   5.539
 8883SOL    HW127548   6.909   1.916   5.598
 8883SOL    HW227549   0.005   1.813   5.569
 8884SOL     OW27550   6.518   1.296   5.562
 8884SOL    HW127551   6.420   1.273   5.562
 8884SOL    HW227552   6.564   1.245   5.635
 8885SOL     OW27553   5.607   3.593   1.740
 8885SOL    HW127554   5.645   3.634   1.657
 8885SOL    HW227555   5.519   3.550   1.719
 8886SOL     OW27556   3.131   5.889   6.025
 8886SOL    HW127557   3.055   5.859   6.083
 8886SOL    HW227558   3.133   5.989   6.022
 8887SOL     OW27559   1.670   0.313   1.470
 8887SOL    HW127560   1.756   0.267   1.447
 8887SOL    HW227561   1.594   0.249   1.460
 8888SOL     OW27562   3.434   2.130   3.063
 8888SOL    HW127563   3.532   2.128   3.079
 8888SOL    HW227564   3.389   2.182   3.135
 8889SOL     OW27565   3.437   0.314   4.513
 8889SOL    HW127566   3.340   0.300   4.530
 8889SOL    HW227567   3.474   0.236   4.463
 8890SOL     OW27568   0.527   4.353   3.660
 8890SOL    HW127569   0.481   4.423   3.606
 8890SOL    HW227570   0.580   4.293   3.599
 8891SOL     OW27571   2.334   1.913   6.115
 8891SOL    HW127572   2.360   1.862   6.033
 8891SOL    HW227573   2.256   1.867   6.159
 8892SOL     OW27574   1.003   6.976   2.419
 8892SOL    HW127575   1.091   6.963   2.373
 8892SOL    HW227576   1.010   6.945   2.514
 8893SOL     OW27577   0.515   0.634   0.217
 8893SOL    HW127578   0.499   0.556   0.156
 8893SOL    HW227579   0.454   0.627   0.296
 8894SOL     OW27580   4.144   2.704   6.482
 8894SOL    HW127581   4.210   2.745   6.544
 8894SOL    HW227582   4.118   2.769   6.411
 8895SOL     OW27583   1.790   0.925   2.575
 8895SOL    HW127584   1.754   0.943   2.483
 8895SOL    HW227585   1.732   0.970   2.642
 8896SOL     OW27586   2.285   4.221   4.695
 8896SOL    HW127587   2.252   4.210   4.789
 8896SOL    HW227588   2.381   4.194   4.691
 8897SOL     OW27589   1.364   2.112   1.381
 8897SOL    HW127590   1.342   2.015   1.375
 8897SOL    HW227591   1.454   2.129   1.341
 8898SOL     OW27592   6.870   2.453   4.908
 8898SOL    HW127593   6.851   2.447   4.810
 8898SOL    HW227594   6.967   2.475   4.922
 8899SOL     OW27595   3.467   4.961   1.042
 8899SOL    HW127596   3.391   4.937   0.981
 8899SOL    HW227597   3.550   4.972   0.988
 8900SOL     OW27598   0.299   1.410   3.662
 8900SOL    HW127599   0.223   1.464   3.699
 8900SOL    HW227600   0.288   1.315   3.690
 8901SOL     OW27601   2.002   6.536   1.850
 8901SOL    HW127602   2.023   6.586   1.934
 8901SOL    HW227603   1.942   6.591   1.792
 8902SOL     OW27604   3.349   6.120   5.033
 8902SOL    HW127605   3.309   6.117   4.941
 8902SOL    HW227606   3.283   6.084   5.099
 8903SOL     OW27607   0.712   0.583   3.322
 8903SOL    HW127608   0.779   0.513   3.296
 8903SOL    HW227609   0.738   0.671   3.283
 8904SOL     OW27610   1.175   5.130   3.177
 8904SOL    HW127611   1.233   5.102   3.100
 8904SOL    HW227612   1.214   5.095   3.262
 8905SOL     OW27613   2.205   4.222   4.965
 8905SOL    HW127614   2.110   4.224   4.996
 8905SOL    HW227615   2.248   4.137   4.997
 8906SOL     OW27616   1.226   5.283   4.313
 8906SOL    HW127617   1.271   5.338   4.383
 8906SOL    HW227618   1.295   5.236   4.258
 8907SOL     OW27619   3.934   2.710   6.183
 8907SOL    HW127620   4.016   2.754   6.149
 8907SOL    HW227621   3.883   2.774   6.242
 8908SOL     OW27622   0.189   2.582   2.472
 8908SOL    HW127623   0.128   2.605   2.397
 8908SOL    HW227624   0.243   2.662   2.497
 8909SOL     OW27625   2.790   0.167   5.527
 8909SOL    HW127626   2.847   0.096   5.567
 8909SOL    HW227627   2.711   0.125   5.482
 8910SOL     OW27628   4.094   2.971   6.901
 8910SOL    HW127629   3.995   2.985   6.894
 8910SOL    HW227630   4.113   2.875   6.922
 8911SOL     OW27631   4.847   2.363   3.761
 8911SOL    HW127632   4.802   2.311   3.689
 8911SOL    HW227633   4.788   2.438   3.790
 8912SOL     OW27634   5.576   1.749   6.794
 8912SOL    HW127635   5.548   1.809   6.719
 8912SOL    HW227636   5.503   1.744   6.862
 8913SOL     OW27637   4.445   3.978   0.952
 8913SOL    HW127638   4.512   4.052   0.945
 8913SOL    HW227639   4.477   3.911   1.019
 8914SOL     OW27640   4.953   1.976   3.563
 8914SOL    HW127641   5.045   2.011   3.549
 8914SOL    HW227642   4.910   2.022   3.641
 8915SOL     OW27643   1.361   5.562   2.277
 8915SOL    HW127644   1.351   5.592   2.372
 8915SOL    HW227645   1.333   5.637   2.216
 8916SOL     OW27646   6.120   3.399   2.196
 8916SOL    HW127647   6.160   3.409   2.105
 8916SOL    HW227648   6.073   3.311   2.202
 8917SOL     OW27649   5.674   5.638   5.211
 8917SOL    HW127650   5.612   5.715   5.194
 8917SOL    HW227651   5.644   5.588   5.292
 8918SOL     OW27652   4.640   3.862   6.103
 8918SOL    HW127653   4.541   3.858   6.112
 8918SOL    HW227654   4.667   3.831   6.012
 8919SOL     OW27655   2.374   3.715   1.483
 8919SOL    HW127656   2.307   3.706   1.409
 8919SOL    HW227657   2.456   3.762   1.448
 8920SOL     OW27658   6.750   5.165   5.534
 8920SOL    HW127659   6.699   5.251   5.527
 8920SOL    HW227660   6.700   5.094   5.484
 8921SOL     OW27661   1.426   5.338   3.785
 8921SOL    HW127662   1.337   5.323   3.827
 8921SOL    HW227663   1.418   5.328   3.686
 8922SOL     OW27664   6.347   4.204   6.847
 8922SOL    HW127665   6.369   4.236   6.939
 8922SOL    HW227666   6.377   4.109   6.837
 8923SOL     OW27667   2.002   3.963   4.460
 8923SOL    HW127668   2.020   3.871   4.494
 8923SOL    HW227669   2.014   4.029   4.535
 8924SOL     OW27670   2.500   5.594   4.872
 8924SOL    HW127671   2.496   5.669   4.938
 8924SOL    HW227672   2.456   5.513   4.910
 8925SOL     OW27673   4.775   6.089   1.643
 8925SOL    HW127674   4.691   6.117   1.690
 8925SOL    HW227675   4.780   6.136   1.554
 8926SOL     OW27676   4.987   0.850   6.960
 8926SOL    HW127677   4.918   0.904   6.912
 8926SOL    HW227678   5.036   0.792   6.895
 8927SOL     OW27679   2.563   1.623   4.232
 8927SOL    HW127680   2.647   1.677   4.237
 8927SOL    HW227681   2.484   1.684   4.225
 8928SOL     OW27682   0.612   0.385   4.329
 8928SOL    HW127683   0.523   0.340   4.340
 8928SOL    HW227684   0.685   0.323   4.360
 8929SOL     OW27685   5.269   4.396   4.052
 8929SOL    HW127686   5.287   4.487   4.089
 8929SOL    HW227687   5.323   4.383   3.968
 8930SOL     OW27688   0.907   4.911   5.203
 8930SOL    HW127689   0.977   4.874   5.264
 8930SOL    HW227690   0.865   4.991   5.246
 8931SOL     OW27691   5.002   1.025   1.811
 8931SOL    HW127692   5.042   0.943   1.852
 8931SOL    HW227693   4.961   1.003   1.723
 8932SOL     OW27694   5.744   0.585   0.187
 8932SOL    HW127695   5.751   0.657   0.118
 8932SOL    HW227696   5.670   0.523   0.162
 8933SOL     OW27697   1.341   0.388   5.554
 8933SOL    HW127698   1.356   0.439   5.638
 8933SOL    HW227699   1.266   0.323   5.567
 8934SOL     OW27700   4.350   6.749   3.622
 8934SOL    HW127701   4.318   6.743   3.716
 8934SOL    HW227702   4.446   6.778   3.620
 8935SOL     OW27703   5.643   1.766   2.461
 8935SOL    HW127704   5.594   1.754   2.548
 8935SOL    HW227705   5.704   1.845   2.469
 8936SOL     OW27706   1.821   4.001   2.729
 8936SOL    HW127707   1.844   3.969   2.820
 8936SOL    HW227708   1.892   4.063   2.696
 8937SOL     OW27709   4.193   0.451   5.211
 8937SOL    HW127710   4.217   0.493   5.123
 8937SOL    HW227711   4.189   0.352   5.200
 8938SOL     OW27712   5.577   6.568   1.539
 8938SOL    HW127713   5.644   6.494   1.548
 8938SOL    HW227714   5.620   6.646   1.494
 8939SOL     OW27715   0.295   3.058   4.250
 8939SOL    HW127716   0.371   3.094   4.305
 8939SOL    HW227717   0.217   3.039   4.309
 8940SOL     OW27718   6.385   3.393   1.721
 8940SOL    HW127719   6.476   3.358   1.743
 8940SOL    HW227720   6.332   3.321   1.675
 8941SOL     OW27721   5.560   2.282   2.801
 8941SOL    HW127722   5.601   2.280   2.893
 8941SOL    HW227723   5.626   2.318   2.736
 8942SOL     OW27724   4.816   4.398   3.962
 8942SOL    HW127725   4.723   4.409   3.997
 8942SOL    HW227726   4.876   4.368   4.036
 8943SOL     OW27727   4.841   2.491   0.786
 8943SOL    HW127728   4.800   2.444   0.863
 8943SOL    HW227729   4.795   2.465   0.701
 8944SOL     OW27730   4.398   5.599   5.150
 8944SOL    HW127731   4.436   5.659   5.080
 8944SOL    HW227732   4.299   5.611   5.155
 8945SOL     OW27733   6.246   4.009   2.177
 8945SOL    HW127734   6.173   3.959   2.130
 8945SOL    HW227735   6.232   4.003   2.276
 8946SOL     OW27736   4.613   1.677   4.731
 8946SOL    HW127737   4.558   1.671   4.648
 8946SOL    HW227738   4.605   1.592   4.783
 8947SOL     OW27739   1.959   4.558   0.830
 8947SOL    HW127740   1.961   4.515   0.921
 8947SOL    HW227741   1.931   4.653   0.840
 8948SOL     OW27742   5.463   0.521   2.880
 8948SOL    HW127743   5.374   0.561   2.861
 8948SOL    HW227744   5.479   0.443   2.820
 8949SOL     OW27745   3.354   6.042   0.506
 8949SOL    HW127746   3.297   6.043   0.424
 8949SOL    HW227747   3.378   5.947   0.529
 8950SOL     OW27748   3.269   3.705   2.621
 8950SOL    HW127749   3.223   3.661   2.543
 8950SOL    HW227750   3.358   3.739   2.592
 8951SOL     OW27751   0.625   0.566   4.540
 8951SOL    HW127752   0.625   0.487   4.480
 8951SOL    HW227753   0.531   0.587   4.567
 8952SOL     OW27754   1.907   4.477   4.505
 8952SOL    HW127755   1.948   4.567   4.515
 8952SOL    HW227756   1.851   4.474   4.423
 8953SOL     OW27757   0.744   4.865   1.446
 8953SOL    HW127758   0.822   4.803   1.435
 8953SOL    HW227759   0.717   4.901   1.357
 8954SOL     OW27760   1.927   4.199   5.397
 8954SOL    HW127761   1.845   4.221   5.450
 8954SOL    HW227762   2.004   4.255   5.428
 8955SOL     OW27763   5.560   2.765   5.658
 8955SOL    HW127764   5.529   2.790   5.750
 8955SOL    HW227765   5.502   2.809   5.590
 8956SOL     OW27766   0.589   6.019   1.199
 8956SOL    HW127767   0.498   5.978   1.188
 8956SOL    HW227768   0.659   5.955   1.168
 8957SOL     OW27769   1.265   6.989   2.326
 8957SOL    HW127770   1.328   6.920   2.291
 8957SOL    HW227771   1.283   0.049   2.281
 8958SOL     OW27772   0.404   4.134   4.710
 8958SOL    HW127773   0.427   4.073   4.634
 8958SOL    HW227774   0.316   4.107   4.750
 8959SOL     OW27775   5.829   2.306   4.040
 8959SOL    HW127776   5.888   2.385   4.056
 8959SOL    HW227777   5.775   2.322   3.958
 8960SOL     OW27778   5.413   5.193   2.840
 8960SOL    HW127779   5.494   5.218   2.893
 8960SOL    HW227780   5.422   5.099   2.808
 8961SOL     OW27781   2.769   1.759   4.985
 8961SOL    HW127782   2.805   1.818   4.912
 8961SOL    HW227783   2.829   1.680   4.996
 8962SOL     OW27784   6.286   5.682   2.266
 8962SOL    HW127785   6.353   5.741   2.221
 8962SOL    HW227786   6.227   5.737   2.325
 8963SOL     OW27787   2.916   6.583   5.922
 8963SOL    HW127788   2.884   6.502   5.971
 8963SOL    HW227789   2.966   6.554   5.840
 8964SOL     OW27790   1.972   3.097   3.735
 8964SOL    HW127791   1.898   3.154   3.771
 8964SOL    HW227792   1.976   3.011   3.786
 8965SOL     OW27793   4.073   5.707   0.436
 8965SOL    HW127794   4.075   5.627   0.495
 8965SOL    HW227795   4.102   5.681   0.344
 8966SOL     OW27796   5.413   6.827   5.704
 8966SOL    HW127797   5.448   6.735   5.717
 8966SOL    HW227798   5.471   6.877   5.640
 8967SOL     OW27799   3.036   0.194   3.300
 8967SOL    HW127800   3.013   0.099   3.278
 8967SOL    HW227801   2.956   0.239   3.339
 8968SOL     OW27802   3.521   4.907   2.323
 8968SOL    HW127803   3.449   4.838   2.324
 8968SOL    HW227804   3.544   4.931   2.229
 8969SOL     OW27805   6.872   1.160   2.630
 8969SOL    HW127806   6.813   1.113   2.564
 8969SOL    HW227807   6.851   1.257   2.630
 8970SOL     OW27808   1.829   1.323   3.481
 8970SOL    HW127809   1.881   1.239   3.471
 8970SOL    HW227810   1.886   1.401   3.455
 8971SOL     OW27811   3.083   4.134   1.037
 8971SOL    HW127812   3.055   4.040   1.057
 8971SOL    HW227813   3.016   4.177   0.977
 8972SOL     OW27814   5.449   3.989   6.491
 8972SOL    HW127815   5.429   4.082   6.463
 8972SOL    HW227816   5.397   3.967   6.574
 8973SOL     OW27817   2.568   2.064   2.879
 8973SOL    HW127818   2.628   2.100   2.808
 8973SOL    HW227819   2.498   2.132   2.902
 8974SOL     OW27820   1.934   4.219   3.958
 8974SOL    HW127821   1.973   4.221   4.050
 8974SOL    HW227822   2.003   4.246   3.891
 8975SOL     OW27823   6.969   4.455   5.829
 8975SOL    HW127824   6.880   4.494   5.850
 8975SOL    HW227825   0.010   4.528   5.822
 8976SOL     OW27826   5.687   0.420   2.079
 8976SOL    HW127827   5.626   0.387   2.152
 8976SOL    HW227828   5.751   0.487   2.117
 8977SOL     OW27829   6.992   4.710   6.669
 8977SOL    HW127830   6.920   4.737   6.606
 8977SOL    HW227831   6.997   4.610   6.673
 8978SOL     OW27832   5.928   5.712   5.986
 8978SOL    HW127833   6.010   5.662   6.015
 8978SOL    HW227834   5.856   5.701   6.055
 8979SOL     OW27835   1.907   5.010   4.162
 8979SOL    HW127836   1.866   4.983   4.075
 8979SOL    HW227837   1.972   5.085   4.147
 8980SOL     OW27838   3.709   1.077   0.353
 8980SOL    HW127839   3.693   0.989   0.307
 8980SOL    HW227840   3.640   1.142   0.324
 8981SOL     OW27841   3.716   2.032   6.694
 8981SOL    HW127842   3.630   2.071   6.728
 8981SOL    HW227843   3.793   2.089   6.723
 8982SOL     OW27844   7.003   1.240   1.941
 8982SOL    HW127845   6.933   1.173   1.919
 8982SOL    HW227846   6.976   1.330   1.907
 8983SOL     OW27847   1.630   7.012   2.032
 8983SOL    HW127848   1.722   6.974   2.038
 8983SOL    HW227849   1.635   0.084   2.029
 8984SOL     OW27850   6.930   1.564   4.866
 8984SOL    HW127851   6.837   1.537   4.889
 8984SOL    HW227852   6.983   1.577   4.951
 8985SOL     OW27853   5.009   1.377   2.528
 8985SOL    HW127854   4.934   1.420   2.478
 8985SOL    HW227855   4.975   1.299   2.581
 8986SOL     OW27856   0.080   5.774   0.258
 8986SOL    HW127857   0.118   5.716   0.329
 8986SOL    HW227858   7.010   5.792   0.278
 8987SOL     OW27859   2.609   6.672   1.759
 8987SOL    HW127860   2.651   6.611   1.826
 8987SOL    HW227861   2.638   6.766   1.776
 8988SOL     OW27862   2.596   6.996   1.061
 8988SOL    HW127863   2.608   0.023   1.144
 8988SOL    HW227864   2.571   0.029   0.986
 8989SOL     OW27865   5.698   1.539   2.343
 8989SOL    HW127866   5.681   1.624   2.392
 8989SOL    HW227867   5.716   1.560   2.246
 8990SOL     OW27868   3.461   1.176   3.264
 8990SOL    HW127869   3.440   1.087   3.306
 8990SOL    HW227870   3.388   1.200   3.199
 8991SOL     OW27871   1.070   2.582   0.849
 8991SOL    HW127872   1.002   2.656   0.846
 8991SOL    HW227873   1.094   2.556   0.755
 8992SOL     OW27874   6.596   4.477   6.249
 8992SOL    HW127875   6.580   4.568   6.209
 8992SOL    HW227876   6.572   4.407   6.182
 8993SOL     OW27877   5.413   4.028   4.377
 8993SOL    HW127878   5.320   4.065   4.367
 8993SOL    HW227879   5.420   3.944   4.323
 8994SOL     OW27880   1.614   6.290   2.595
 8994SOL    HW127881   1.636   6.323   2.686
 8994SOL    HW227882   1.514   6.290   2.582
 8995SOL     OW27883   2.064   3.848   4.081
 8995SOL    HW127884   1.990   3.781   4.075
 8995SOL    HW227885   2.047   3.910   4.158
 8996SOL     OW27886   1.875   3.599   1.328
 8996SOL    HW127887   1.854   3.696   1.324
 8996SOL    HW227888   1.927   3.579   1.411
 8997SOL     OW27889   4.194   0.958   5.570
 8997SOL    HW127890   4.247   1.043   5.573
 8997SOL    HW227891   4.198   0.920   5.477
 8998SOL     OW27892   0.639   1.529   6.269
 8998SOL    HW127893   0.723   1.576   6.243
 8998SOL    HW227894   0.573   1.594   6.305
 8999SOL     OW27895   5.171   2.730   5.568
 8999SOL    HW127896   5.254   2.767   5.526
 8999SOL    HW227897   5.092   2.751   5.511
 9000SOL     OW27898   3.806   4.917   0.666
 9000SOL    HW127899   3.906   4.917   0.662
 9000SOL    HW227900   3.775   4.842   0.724
 9001SOL     OW27901   1.928   4.368   3.388
 9001SOL    HW127902   1.930   4.421   3.303
 9001SOL    HW227903   2.015   4.319   3.398
 9002SOL     OW27904   5.347   4.233   5.667
 9002SOL    HW127905   5.428   4.177   5.652
 9002SOL    HW227906   5.371   4.330   5.660
 9003SOL     OW27907   6.183   3.159   6.651
 9003SOL    HW127908   6.098   3.161   6.599
 9003SOL    HW227909   6.182   3.231   6.720
 9004SOL     OW27910   4.778   5.496   1.010
 9004SOL    HW127911   4.702   5.536   0.960
 9004SOL    HW227912   4.745   5.457   1.096
 9005SOL     OW27913   5.409   2.864   3.714
 9005SOL    HW127914   5.444   2.912   3.795
 9005SOL    HW227915   5.457   2.778   3.703
 9006SOL     OW27916   1.951   6.695   0.997
 9006SOL    HW127917   2.039   6.659   0.966
 9006SOL    HW227918   1.966   6.780   1.048
 9007SOL     OW27919   2.230   6.042   4.941
 9007SOL    HW127920   2.280   6.052   4.855
 9007SOL    HW227921   2.153   5.979   4.928
 9008SOL     OW27922   0.651   4.451   2.877
 9008SOL    HW127923   0.735   4.483   2.921
 9008SOL    HW227924   0.634   4.357   2.903
 9009SOL     OW27925   4.271   6.166   6.908
 9009SOL    HW127926   4.209   6.182   6.831
 9009SOL    HW227927   4.249   6.230   6.982
 9010SOL     OW27928   6.927   5.255   4.875
 9010SOL    HW127929   7.002   5.206   4.831
 9010SOL    HW227930   6.961   5.300   4.958
 9011SOL     OW27931   4.392   2.201   2.578
 9011SOL    HW127932   4.474   2.233   2.529
 9011SOL    HW227933   4.311   2.222   2.524
 9012SOL     OW27934   5.345   5.097   2.303
 9012SOL    HW127935   5.320   5.092   2.400
 9012SOL    HW227936   5.420   5.163   2.292
 9013SOL     OW27937   4.633   6.528   2.567
 9013SOL    HW127938   4.599   6.572   2.650
 9013SOL    HW227939   4.683   6.594   2.512
 9014SOL     OW27940   2.463   0.385   1.371
 9014SOL    HW127941   2.524   0.465   1.372
 9014SOL    HW227942   2.404   0.388   1.452
 9015SOL     OW27943   6.274   1.970   4.850
 9015SOL    HW127944   6.355   1.912   4.857
 9015SOL    HW227945   6.299   2.058   4.810
 9016SOL     OW27946   6.735   5.860   6.369
 9016SOL    HW127947   6.795   5.857   6.450
 9016SOL    HW227948   6.766   5.792   6.303
 9017SOL     OW27949   7.002   3.827   3.009
 9017SOL    HW127950   0.058   3.876   2.981
 9017SOL    HW227951   6.923   3.887   3.001
 9018SOL     OW27952   4.015   1.810   6.150
 9018SOL    HW127953   4.083   1.835   6.081
 9018SOL    HW227954   4.045   1.842   6.240
 9019SOL     OW27955   1.478   5.058   6.989
 9019SOL    HW127956   1.486   5.118   6.910
 9019SOL    HW227957   1.381   5.042   7.010
 9020SOL     OW27958   1.127   5.032   4.182
 9020SOL    HW127959   1.146   5.028   4.280
 9020SOL    HW227960   1.045   4.978   4.161
 9021SOL     OW27961   6.164   5.599   5.285
 9021SOL    HW127962   6.233   5.631   5.349
 9021SOL    HW227963   6.197   5.517   5.238
 9022SOL     OW27964   3.120   6.492   6.553
 9022SOL    HW127965   3.171   6.431   6.492
 9022SOL    HW227966   3.079   6.438   6.627
 9023SOL     OW27967   3.339   3.237   3.593
 9023SOL    HW127968   3.318   3.162   3.656
 9023SOL    HW227969   3.428   3.219   3.550
 9024SOL     OW27970   1.224   0.023   6.725
 9024SOL    HW127971   1.205   0.079   6.644
 9024SOL    HW227972   1.323   0.022   6.742
 9025SOL     OW27973   0.282   3.565   0.025
 9025SOL    HW127974   0.309   3.469   0.032
 9025SOL    HW227975   0.358   3.623   0.053
 9026SOL     OW27976   3.118   3.223   5.609
 9026SOL    HW127977   3.179   3.294   5.573
 9026SOL    HW227978   3.060   3.262   5.681
 9027SOL     OW27979   2.262   2.503   2.470
 9027SOL    HW127980   2.273   2.454   2.556
 9027SOL    HW227981   2.346   2.496   2.417
 9028SOL     OW27982   2.676   4.691   4.565
 9028SOL    HW127983   2.705   4.748   4.642
 9028SOL    HW227984   2.618   4.617   4.599
 9029SOL     OW27985   5.744   5.288   2.402
 9029SOL    HW127986   5.755   5.250   2.310
 9029SOL    HW227987   5.661   5.345   2.404
 9030SOL     OW27988   3.803   2.073   2.312
 9030SOL    HW127989   3.739   2.127   2.257
 9030SOL    HW227990   3.895   2.080   2.273
 9031SOL     OW27991   1.885   1.505   0.999
 9031SOL    HW127992   1.985   1.496   1.002
 9031SOL    HW227993   1.852   1.470   0.911
 9032SOL     OW27994   0.793   2.834   2.296
 9032SOL    HW127995   0.768   2.873   2.207
 9032SOL    HW227996   0.730   2.760   2.319
 9033SOL     OW27997   1.214   3.871   2.101
 9033SOL    HW127998   1.313   3.862   2.088
 9033SOL    HW227999   1.191   3.966   2.119
 9034SOL     OW28000   1.830   6.669   6.811
 9034SOL    HW128001   1.863   6.584   6.770
 9034SOL    HW228002   1.741   6.653   6.854
 9035SOL     OW28003   6.912   0.614   4.534
 9035SOL    HW128004   6.993   0.653   4.489
 9035SOL    HW228005   6.830   0.643   4.485
 9036SOL     OW28006   1.254   1.196   4.056
 9036SOL    HW128007   1.315   1.140   4.112
 9036SOL    HW228008   1.279   1.184   3.959
 9037SOL     OW28009   2.793   3.884   5.889
 9037SOL    HW128010   2.730   3.814   5.922
 9037SOL    HW228011   2.768   3.911   5.796
 9038SOL     OW28012   4.528   5.812   4.944
 9038SOL    HW128013   4.443   5.857   4.915
 9038SOL    HW228014   4.600   5.833   4.877
 9039SOL     OW28015   2.389   4.388   6.690
 9039SOL    HW128016   2.375   4.456   6.619
 9039SOL    HW228017   2.418   4.433   6.775
 9040SOL     OW28018   2.802   1.940   2.053
 9040SOL    HW128019   2.750   1.944   1.967
 9040SOL    HW228020   2.761   1.873   2.114
 9041SOL     OW28021   1.813   3.061   6.246
 9041SOL    HW128022   1.799   3.150   6.288
 9041SOL    HW228023   1.762   3.056   6.160
 9042SOL     OW28024   2.074   5.586   3.284
 9042SOL    HW128025   2.166   5.625   3.276
 9042SOL    HW228026   2.065   5.537   3.371
 9043SOL     OW28027   6.898   2.127   0.489
 9043SOL    HW128028   6.932   2.190   0.558
 9043SOL    HW228029   6.856   2.178   0.415
 9044SOL     OW28030   6.794   4.229   0.167
 9044SOL    HW128031   6.732   4.176   0.225
 9044SOL    HW228032   6.887   4.221   0.202
 9045SOL     OW28033   2.567   5.182   4.059
 9045SOL    HW128034   2.559   5.281   4.064
 9045SOL    HW228035   2.477   5.141   4.074
 9046SOL     OW28036   3.911   4.213   5.914
 9046SOL    HW128037   3.848   4.261   5.853
 9046SOL    HW228038   3.911   4.257   6.004
 9047SOL     OW28039   0.880   4.363   4.399
 9047SOL    HW128040   0.911   4.321   4.313
 9047SOL    HW228041   0.833   4.294   4.454
 9048SOL     OW28042   1.815   2.010   5.164
 9048SOL    HW128043   1.729   1.971   5.132
 9048SOL    HW228044   1.870   2.040   5.085
 9049SOL     OW28045   4.875   6.706   6.622
 9049SOL    HW128046   4.851   6.785   6.566
 9049SOL    HW228047   4.932   6.736   6.699
 9050SOL     OW28048   6.940   5.339   5.602
 9050SOL    HW128049   0.005   5.309   5.628
 9050SOL    HW228050   6.880   5.259   5.592
 9051SOL     OW28051   5.548   6.786   6.039
 9051SOL    HW128052   5.526   6.875   5.999
 9051SOL    HW228053   5.550   6.793   6.139
 9052SOL     OW28054   3.009   4.888   4.850
 9052SOL    HW128055   2.976   4.839   4.770
 9052SOL    HW228056   3.003   4.987   4.834
 9053SOL     OW28057   3.198   1.594   2.707
 9053SOL    HW128058   3.149   1.680   2.722
 9053SOL    HW228059   3.296   1.612   2.702
 9054SOL     OW28060   2.104   6.891   1.151
 9054SOL    HW128061   2.173   6.963   1.152
 9054SOL    HW228062   2.128   6.822   1.219
 9055SOL     OW28063   0.668   2.815   4.868
 9055SOL    HW128064   0.740   2.749   4.846
 9055SOL    HW228065   0.614   2.834   4.786
 9056SOL     OW28066   4.619   2.590   2.423
 9056SOL    HW128067   4.608   2.654   2.500
 9056SOL    HW228068   4.649   2.640   2.342
 9057SOL     OW28069   3.579   6.136   0.099
 9057SOL    HW128070   3.660   6.195   0.099
 9057SOL    HW228071   3.605   6.046   0.064
 9058SOL     OW28072   2.402   2.252   4.613
 9058SOL    HW128073   2.459   2.287   4.687
 9058SOL    HW228074   2.323   2.312   4.600
 9059SOL     OW28075   0.004   1.198   2.354
 9059SOL    HW128076   0.014   1.265   2.281
 9059SOL    HW228077   0.084   1.202   2.415
 9060SOL     OW28078   0.365   5.390   1.392
 9060SOL    HW128079   0.371   5.424   1.299
 9060SOL    HW228080   0.457   5.377   1.429
 9061SOL     OW28081   5.047   3.867   2.520
 9061SOL    HW128082   5.097   3.832   2.441
 9061SOL    HW228083   5.022   3.791   2.580
 9062SOL     OW28084   1.214   5.984   3.079
 9062SOL    HW128085   1.122   5.981   3.041
 9062SOL    HW228086   1.210   6.003   3.177
 9063SOL     OW28087   4.766   1.505   1.560
 9063SOL    HW128088   4.846   1.553   1.595
 9063SOL    HW228089   4.716   1.464   1.636
 9064SOL     OW28090   1.433   5.651   3.312
 9064SOL    HW128091   1.366   5.612   3.375
 9064SOL    HW228092   1.386   5.708   3.245
 9065SOL     OW28093   3.746   4.194   6.797
 9065SOL    HW128094   3.722   4.107   6.839
 9065SOL    HW228095   3.822   4.181   6.734
 9066SOL     OW28096   4.374   5.132   4.175
 9066SOL    HW128097   4.473   5.114   4.178
 9066SOL    HW228098   4.359   5.223   4.136
 9067SOL     OW28099   2.016   6.999   4.607
 9067SOL    HW128100   1.981   6.916   4.652
 9067SOL    HW228101   1.977   0.053   4.652
 9068SOL     OW28102   4.173   0.284   5.959
 9068SOL    HW128103   4.245   0.298   5.891
 9068SOL    HW228104   4.205   0.313   6.049
 9069SOL     OW28105   5.574   2.649   1.840
 9069SOL    HW128106   5.540   2.593   1.915
 9069SOL    HW228107   5.505   2.718   1.816
 9070SOL     OW28108   1.441   1.139   5.465
 9070SOL    HW128109   1.374   1.137   5.539
 9070SOL    HW228110   1.457   1.046   5.432
 9071SOL     OW28111   5.681   2.532   6.562
 9071SOL    HW128112   5.623   2.613   6.553
 9071SOL    HW228113   5.760   2.554   6.620
 9072SOL     OW28114   5.774   0.129   2.565
 9072SOL    HW128115   5.868   0.152   2.593
 9072SOL    HW228116   5.747   0.043   2.608
 9073SOL     OW28117   4.364   2.830   5.451
 9073SOL    HW128118   4.288   2.770   5.426
 9073SOL    HW228119   4.352   2.864   5.544
 9074SOL     OW28120   2.005   1.368   2.936
 9074SOL    HW128121   1.909   1.382   2.960
 9074SOL    HW228122   2.063   1.389   3.015
 9075SOL     OW28123   5.605   5.860   0.424
 9075SOL    HW128124   5.666   5.799   0.474
 9075SOL    HW228125   5.618   5.848   0.326
 9076SOL     OW28126   0.848   6.646   2.517
 9076SOL    HW128127   0.927   6.593   2.486
 9076SOL    HW228128   0.848   6.735   2.472
 9077SOL     OW28129   6.191   1.672   6.860
 9077SOL    HW128130   6.149   1.586   6.834
 9077SOL    HW228131   6.139   1.748   6.822
 9078SOL     OW28132   5.324   6.978   0.152
 9078SOL    HW128133   5.263   0.028   0.171
 9078SOL    HW228134   5.338   6.925   0.236
 9079SOL     OW28135   0.968   1.665   6.298
 9079SOL    HW128136   0.923   1.619   6.374
 9079SOL    HW228137   0.900   1.713   6.242
 9080SOL     OW28138   6.036   4.125   2.479
 9080SOL    HW128139   6.045   4.224   2.496
 9080SOL    HW228140   6.113   4.077   2.521
 9081SOL     OW28141   4.899   1.344   0.683
 9081SOL    HW128142   4.858   1.342   0.775
 9081SOL    HW228143   4.903   1.439   0.651
 9082SOL     OW28144   3.501   5.216   6.117
 9082SOL    HW128145   3.406   5.246   6.111
 9082SOL    HW228146   3.505   5.125   6.159
 9083SOL     OW28147   3.527   6.920   0.723
 9083SOL    HW128148   3.568   6.842   0.771
 9083SOL    HW228149   3.500   6.990   0.790
 9084SOL     OW28150   6.883   4.101   5.117
 9084SOL    HW128151   6.971   4.054   5.113
 9084SOL    HW228152   6.862   4.142   5.028
 9085SOL     OW28153   3.017   5.074   0.112
 9085SOL    HW128154   3.066   5.130   0.179
 9085SOL    HW228155   2.998   4.984   0.151
 9086SOL     OW28156   6.949   3.185   0.373
 9086SOL    HW128157   7.005   3.248   0.319
 9086SOL    HW228158   6.988   3.178   0.465
 9087SOL     OW28159   5.185   1.502   1.425
 9087SOL    HW128160   5.180   1.404   1.447
 9087SOL    HW228161   5.277   1.536   1.443
 9088SOL     OW28162   6.107   5.748   0.387
 9088SOL    HW128163   6.062   5.732   0.299
 9088SOL    HW228164   6.198   5.786   0.371
 9089SOL     OW28165   5.094   5.807   3.516
 9089SOL    HW128166   5.179   5.759   3.537
 9089SOL    HW228167   5.112   5.903   3.497
 9090SOL     OW28168   5.181   5.954   5.681
 9090SOL    HW128169   5.181   5.889   5.605
 9090SOL    HW228170   5.259   5.937   5.740
 9091SOL     OW28171   3.013   2.072   1.841
 9091SOL    HW128172   2.953   2.085   1.762
 9091SOL    HW228173   2.961   2.082   1.925
 9092SOL     OW28174   2.156   1.302   5.104
 9092SOL    HW128175   2.184   1.398   5.108
 9092SOL    HW228176   2.131   1.271   5.195
 9093SOL     OW28177   2.380   3.637   1.095
 9093SOL    HW128178   2.450   3.593   1.038
 9093SOL    HW228179   2.412   3.727   1.123
 9094SOL     OW28180   6.622   3.949   0.819
 9094SOL    HW128181   6.539   3.900   0.794
 9094SOL    HW228182   6.672   3.898   0.889
 9095SOL     OW28183   2.045   3.052   0.011
 9095SOL    HW128184   1.971   3.111   0.045
 9095SOL    HW228185   2.080   3.091   6.953
 9096SOL     OW28186   6.010   3.348   2.879
 9096SOL    HW128187   6.107   3.327   2.862
 9096SOL    HW228188   5.992   3.344   2.977
 9097SOL     OW28189   6.430   5.662   5.990
 9097SOL    HW128190   6.478   5.645   6.076
 9097SOL    HW228191   6.339   5.619   5.993
 9098SOL     OW28192   3.641   3.906   4.419
 9098SOL    HW128193   3.700   3.979   4.451
 9098SOL    HW228194   3.676   3.818   4.452
 9099SOL     OW28195   2.068   2.137   0.398
 9099SOL    HW128196   2.107   2.222   0.435
 9099SOL    HW228197   1.970   2.135   0.416
 9100SOL     OW28198   1.120   2.596   0.183
 9100SOL    HW128199   1.133   2.502   0.217
 9100SOL    HW228200   1.188   2.616   0.113
 9101SOL     OW28201   2.071   2.305   0.058
 9101SOL    HW128202   2.001   2.246   0.098
 9101SOL    HW228203   2.073   2.292   6.986
 9102SOL     OW28204   5.131   6.663   2.731
 9102SOL    HW128205   5.111   6.748   2.779
 9102SOL    HW228206   5.046   6.624   2.696
 9103SOL     OW28207   0.365   4.278   6.186
 9103SOL    HW128208   0.440   4.301   6.247
 9103SOL    HW228209   0.288   4.340   6.202
 9104SOL     OW28210   4.945   0.248   1.761
 9104SOL    HW128211   4.945   0.163   1.814
 9104SOL    HW228212   5.020   0.306   1.790
 9105SOL     OW28213   2.671   1.349   5.896
 9105SOL    HW128214   2.607   1.424   5.887
 9105SOL    HW228215   2.626   1.263   5.871
 9106SOL     OW28216   6.533   5.070   1.660
 9106SOL    HW128217   6.525   5.017   1.745
 9106SOL    HW228218   6.444   5.110   1.638
 9107SOL     OW28219   4.680   0.474   1.030
 9107SOL    HW128220   4.699   0.524   0.946
 9107SOL    HW228221   4.646   0.382   1.008
 9108SOL     OW28222   4.150   5.940   6.678
 9108SOL    HW128223   4.248   5.920   6.678
 9108SOL    HW228224   4.135   6.036   6.654
 9109SOL     OW28225   2.922   1.463   4.476
 9109SOL    HW128226   2.952   1.496   4.565
 9109SOL    HW228227   3.000   1.459   4.413
 9110SOL     OW28228   1.375   2.847   3.016
 9110SOL    HW128229   1.386   2.750   3.034
 9110SOL    HW228230   1.348   2.894   3.100
 9111SOL     OW28231   4.278   4.080   1.672
 9111SOL    HW128232   4.219   4.031   1.736
 9111SOL    HW228233   4.334   4.145   1.722
 9112SOL     OW28234   0.667   4.762   2.215
 9112SOL    HW128235   0.673   4.678   2.161
 9112SOL    HW228236   0.736   4.827   2.182
 9113SOL     OW28237   3.326   6.043   0.209
 9113SOL    HW128238   3.413   6.074   0.173
 9113SOL    HW228239   3.252   6.096   0.168
 9114SOL     OW28240   2.492   4.304   1.762
 9114SOL    HW128241   2.445   4.268   1.842
 9114SOL    HW228242   2.500   4.403   1.769
 9115SOL     OW28243   1.783   3.983   3.895
 9115SOL    HW128244   1.836   4.056   3.939
 9115SOL    HW228245   1.711   4.022   3.839
 9116SOL     OW28246   1.942   1.437   5.650
 9116SOL    HW128247   2.032   1.479   5.662
 9116SOL    HW228248   1.877   1.478   5.714
 9117SOL     OW28249   6.466   2.408   6.807
 9117SOL    HW128250   6.464   2.372   6.901
 9117SOL    HW228251   6.480   2.332   6.743
 9118SOL     OW28252   0.312   5.605   1.854
 9118SOL    HW128253   0.263   5.609   1.767
 9118SOL    HW228254   0.282   5.525   1.905
 9119SOL     OW28255   5.976   6.910   1.436
 9119SOL    HW128256   5.915   6.959   1.373
 9119SOL    HW228257   6.070   6.915   1.402
 9120SOL     OW28258   5.694   1.272   6.421
 9120SOL    HW128259   5.690   1.331   6.341
 9120SOL    HW228260   5.760   1.308   6.487
 9121SOL     OW28261   1.795   1.054   6.870
 9121SOL    HW128262   1.843   1.128   6.822
 9121SOL    HW228263   1.759   0.989   6.803
 9122SOL     OW28264   0.434   2.593   0.947
 9122SOL    HW128265   0.370   2.600   1.023
 9122SOL    HW228266   0.418   2.508   0.897
 9123SOL     OW28267   2.775   5.872   6.802
 9123SOL    HW128268   2.723   5.842   6.882
 9123SOL    HW228269   2.731   5.951   6.760
 9124SOL     OW28270   5.855   4.625   5.803
 9124SOL    HW128271   5.840   4.527   5.808
 9124SOL    HW228272   5.898   4.657   5.888
 9125SOL     OW28273   4.755   6.256   2.553
 9125SOL    HW128274   4.729   6.353   2.556
 9125SOL    HW228275   4.739   6.215   2.642
 9126SOL     OW28276   5.900   0.662   2.032
 9126SOL    HW128277   5.963   0.604   1.981
 9126SOL    HW228278   5.943   0.693   2.117
 9127SOL     OW28279   5.165   6.954   6.759
 9127SOL    HW128280   5.066   6.941   6.757
 9127SOL    HW228281   5.191   7.019   6.688
 9128SOL     OW28282   4.690   2.469   4.826
 9128SOL    HW128283   4.768   2.431   4.875
 9128SOL    HW228284   4.703   2.568   4.814
 9129SOL     OW28285   1.870   1.852   6.349
 9129SOL    HW128286   1.918   1.935   6.376
 9129SOL    HW228287   1.771   1.868   6.350
 9130SOL     OW28288   6.115   5.381   0.909
 9130SOL    HW128289   6.129   5.480   0.901
 9130SOL    HW228290   6.024   5.357   0.876
 9131SOL     OW28291   0.432   4.182   4.145
 9131SOL    HW128292   0.431   4.092   4.101
 9131SOL    HW228293   0.525   4.219   4.144
 9132SOL     OW28294   0.861   3.110   4.646
 9132SOL    HW128295   0.817   3.196   4.672
 9132SOL    HW228296   0.959   3.124   4.637
 9133SOL     OW28297   1.380   4.337   1.034
 9133SOL    HW128298   1.325   4.270   1.085
 9133SOL    HW228299   1.462   4.360   1.086
 9134SOL     OW28300   3.280   5.324   5.953
 9134SOL    HW128301   3.327   5.413   5.946
 9134SOL    HW228302   3.212   5.317   5.879
 9135SOL     OW28303   6.965   6.107   4.248
 9135SOL    HW128304   6.982   6.017   4.288
 9135SOL    HW228305   6.882   6.103   4.191
 9136SOL     OW28306   4.434   4.733   5.688
 9136SOL    HW128307   4.341   4.767   5.705
 9136SOL    HW228308   4.453   4.658   5.752
 9137SOL     OW28309   4.157   1.223   2.442
 9137SOL    HW128310   4.195   1.131   2.428
 9137SOL    HW228311   4.096   1.246   2.367
 9138SOL     OW28312   3.696   4.950   0.428
 9138SOL    HW128313   3.736   4.971   0.517
 9138SOL    HW228314   3.702   5.030   0.368
 9139SOL     OW28315   2.832   1.198   5.646
 9139SOL    HW128316   2.740   1.234   5.662
 9139SOL    HW228317   2.839   1.167   5.551
 9140SOL     OW28318   6.868   2.440   3.805
 9140SOL    HW128319   6.894   2.361   3.749
 9140SOL    HW228320   6.907   2.430   3.897
 9141SOL     OW28321   5.792   0.592   5.783
 9141SOL    HW128322   5.807   0.665   5.849
 9141SOL    HW228323   5.695   0.588   5.758
 9142SOL     OW28324   0.428   3.942   6.454
 9142SOL    HW128325   0.460   3.929   6.360
 9142SOL    HW228326   0.357   4.013   6.455
 9143SOL     OW28327   5.165   3.592   0.670
 9143SOL    HW128328   5.214   3.526   0.613
 9143SOL    HW228329   5.089   3.631   0.617
 9144SOL     OW28330   1.871   4.556   5.021
 9144SOL    HW128331   1.915   4.520   5.103
 9144SOL    HW228332   1.925   4.534   4.940
 9145SOL     OW28333   0.280   4.360   6.552
 9145SOL    HW128334   0.192   4.317   6.534
 9145SOL    HW228335   0.348   4.325   6.487
 9146SOL     OW28336   6.522   2.207   1.874
 9146SOL    HW128337   6.592   2.270   1.841
 9146SOL    HW228338   6.509   2.134   1.806
 9147SOL     OW28339   4.419   6.232   5.900
 9147SOL    HW128340   4.395   6.298   5.830
 9147SOL    HW228341   4.401   6.139   5.867
 9148SOL     OW28342   4.096   6.111   3.102
 9148SOL    HW128343   4.129   6.084   3.012
 9148SOL    HW228344   4.171   6.110   3.167
 9149SOL     OW28345   5.824   3.401   3.970
 9149SOL    HW128346   5.729   3.422   3.945
 9149SOL    HW228347   5.870   3.484   4.001
 9150SOL     OW28348   4.954   1.191   3.252
 9150SOL    HW128349   4.922   1.098   3.268
 9150SOL    HW228350   4.879   1.247   3.216
 9151SOL     OW28351   1.487   3.856   2.189
 9151SOL    HW128352   1.451   3.933   2.242
 9151SOL    HW228353   1.572   3.824   2.230
 9152SOL     OW28354   2.577   5.738   2.425
 9152SOL    HW128355   2.619   5.676   2.492
 9152SOL    HW228356   2.481   5.753   2.449
 9153SOL     OW28357   1.591   3.323   6.035
 9153SOL    HW128358   1.561   3.233   6.002
 9153SOL    HW228359   1.549   3.342   6.123
 9154SOL     OW28360   2.316   5.912   0.613
 9154SOL    HW128361   2.381   5.980   0.647
 9154SOL    HW228362   2.359   5.822   0.610
 9155SOL     OW28363   1.460   4.111   0.353
 9155SOL    HW128364   1.398   4.065   0.416
 9155SOL    HW228365   1.538   4.051   0.333
 9156SOL     OW28366   4.825   2.586   1.620
 9156SOL    HW128367   4.855   2.653   1.553
 9156SOL    HW228368   4.869   2.604   1.708
 9157SOL     OW28369   5.405   3.863   5.542
 9157SOL    HW128370   5.314   3.890   5.574
 9157SOL    HW228371   5.404   3.854   5.443
 9158SOL     OW28372   0.716   4.148   3.554
 9158SOL    HW128373   0.785   4.169   3.623
 9158SOL    HW228374   0.673   4.060   3.576
 9159SOL     OW28375   6.926   4.329   3.160
 9159SOL    HW128376   6.910   4.392   3.084
 9159SOL    HW228377   6.916   4.377   3.247
 9160SOL     OW28378   6.703   6.873   6.554
 9160SOL    HW128379   6.714   6.950   6.492
 9160SOL    HW228380   6.771   6.803   6.532
 9161SOL     OW28381   5.159   3.836   4.166
 9161SOL    HW128382   5.082   3.798   4.115
 9161SOL    HW228383   5.128   3.858   4.259
 9162SOL     OW28384   4.941   2.361   2.622
 9162SOL    HW128385   4.885   2.359   2.705
 9162SOL    HW228386   4.909   2.290   2.559
 9163SOL     OW28387   3.157   1.983   3.748
 9163SOL    HW128388   3.069   2.000   3.792
 9163SOL    HW228389   3.230   2.020   3.806
 9164SOL     OW28390   3.159   0.033   0.385
 9164SOL    HW128391   3.177   0.115   0.331
 9164SOL    HW228392   3.245   0.001   0.426
 9165SOL     OW28393   5.672   6.578   0.398
 9165SOL    HW128394   5.680   6.519   0.478
 9165SOL    HW228395   5.612   6.535   0.330
 9166SOL     OW28396   3.186   5.516   1.151
 9166SOL    HW128397   3.112   5.465   1.107
 9166SOL    HW228398   3.169   5.614   1.141
 9167SOL     OW28399   1.288   4.220   5.028
 9167SOL    HW128400   1.266   4.311   4.993
 9167SOL    HW228401   1.304   4.157   4.952
 9168SOL     OW28402   2.286   0.292   6.570
 9168SOL    HW128403   2.229   0.261   6.494
 9168SOL    HW228404   2.367   0.234   6.578
 9169SOL     OW28405   0.009   0.032   3.457
 9169SOL    HW128406   0.022   0.028   3.556
 9169SOL    HW228407   0.056   0.112   3.420
 9170SOL     OW28408   6.309   6.024   6.879
 9170SOL    HW128409   6.280   6.108   6.924
 9170SOL    HW228410   6.398   6.039   6.835
 9171SOL     OW28411   2.260   5.697   6.303
 9171SOL    HW128412   2.282   5.690   6.401
 9171SOL    HW228413   2.261   5.606   6.262
 9172SOL     OW28414   2.920   1.952   3.924
 9172SOL    HW128415   2.958   1.895   3.998
 9172SOL    HW228416   2.920   2.047   3.953
 9173SOL     OW28417   0.536   5.375   4.742
 9173SOL    HW128418   0.623   5.352   4.697
 9173SOL    HW228419   0.551   5.381   4.841
 9174SOL     OW28420   0.585   4.903   0.773
 9174SOL    HW128421   0.679   4.932   0.792
 9174SOL    HW228422   0.524   4.939   0.842
 9175SOL     OW28423   1.636   6.460   5.593
 9175SOL    HW128424   1.692   6.523   5.539
 9175SOL    HW228425   1.584   6.400   5.532
 9176SOL     OW28426   2.367   0.892   5.886
 9176SOL    HW128427   2.344   0.830   5.811
 9176SOL    HW228428   2.407   0.839   5.961
 9177SOL     OW28429   0.835   5.148   3.997
 9177SOL    HW128430   0.918   5.183   4.040
 9177SOL    HW228431   0.857   5.112   3.906
 9178SOL     OW28432   2.718   4.802   0.067
 9178SOL    HW128433   2.762   4.713   0.062
 9178SOL    HW228434   2.720   4.835   0.161
 9179SOL     OW28435   3.253   4.913   4.390
 9179SOL    HW128436   3.233   4.926   4.487
 9179SOL    HW228437   3.178   4.864   4.347
 9180SOL     OW28438   4.950   1.992   3.089
 9180SOL    HW128439   4.948   2.051   3.008
 9180SOL    HW228440   4.919   2.044   3.169
 9181SOL     OW28441   4.463   1.378   2.572
 9181SOL    HW128442   4.508   1.413   2.655
 9181SOL    HW228443   4.366   1.404   2.574
 9182SOL     OW28444   1.259   6.806   1.554
 9182SOL    HW128445   1.342   6.762   1.590
 9182SOL    HW228446   1.205   6.842   1.630
 9183SOL     OW28447   5.195   6.149   0.199
 9183SOL    HW128448   5.226   6.183   0.111
 9183SOL    HW228449   5.200   6.049   0.201
 9184SOL     OW28450   5.075   0.282   0.462
 9184SOL    HW128451   5.081   0.375   0.499
 9184SOL    HW228452   4.981   0.249   0.469
 9185SOL     OW28453   3.887   1.207   5.087
 9185SOL    HW128454   3.898   1.224   4.989
 9185SOL    HW228455   3.854   1.290   5.132
 9186SOL     OW28456   5.501   0.471   6.481
 9186SOL    HW128457   5.506   0.559   6.434
 9186SOL    HW228458   5.593   0.441   6.507
 9187SOL     OW28459   2.284   6.042   2.238
 9187SOL    HW128460   2.188   6.070   2.244
 9187SOL    HW228461   2.324   6.045   2.330
 9188SOL     OW28462   2.564   6.057   1.057
 9188SOL    HW128463   2.584   5.979   0.998
 9188SOL    HW228464   2.634   6.064   1.128
 9189SOL     OW28465   5.381   5.388   2.260
 9189SOL    HW128466   5.291   5.367   2.297
 9189SOL    HW228467   5.439   5.426   2.333
 9190SOL     OW28468   1.854   5.183   0.220
 9190SOL    HW128469   1.804   5.117   0.277
 9190SOL    HW228470   1.830   5.276   0.249
 9191SOL     OW28471   0.081   0.330   6.217
 9191SOL    HW128472   0.169   0.372   6.191
 9191SOL    HW228473   0.006   0.389   6.188
 9192SOL     OW28474   0.089   4.368   4.138
 9192SOL    HW128475   0.050   4.341   4.226
 9192SOL    HW228476   0.100   4.288   4.080
 9193SOL     OW28477   2.583   3.203   6.604
 9193SOL    HW128478   2.582   3.266   6.682
 9193SOL    HW228479   2.605   3.111   6.636
 9194SOL     OW28480   4.057   0.465   3.974
 9194SOL    HW128481   4.145   0.503   4.001
 9194SOL    HW228482   3.995   0.539   3.947
 9195SOL     OW28483   1.868   1.639   3.851
 9195SOL    HW128484   1.769   1.637   3.835
 9195SOL    HW228485   1.902   1.545   3.857
 9196SOL     OW28486   4.872   2.585   5.083
 9196SOL    HW128487   4.836   2.506   5.133
 9196SOL    HW228488   4.949   2.624   5.132
 9197SOL     OW28489   2.198   3.671   1.728
 9197SOL    HW128490   2.211   3.770   1.742
 9197SOL    HW228491   2.211   3.624   1.816
 9198SOL     OW28492   6.889   4.924   4.217
 9198SOL    HW128493   6.901   4.851   4.149
 9198SOL    HW228494   6.956   4.913   4.290
 9199SOL     OW28495   6.339   4.494   4.858
 9199SOL    HW128496   6.368   4.588   4.874
 9199SOL    HW228497   6.402   4.450   4.794
 9200SOL     OW28498   2.716   6.996   0.622
 9200SOL    HW128499   2.810   6.961   0.618
 9200SOL    HW228500   2.715   0.063   0.587
 9201SOL     OW28501   1.618   4.349   0.441
 9201SOL    HW128502   1.580   4.259   0.423
 9201SOL    HW228503   1.718   4.342   0.449
 9202SOL     OW28504   2.159   0.338   3.035
 9202SOL    HW128505   2.093   0.274   2.996
 9202SOL    HW228506   2.245   0.334   2.983
 9203SOL     OW28507   6.862   6.837   1.072
 9203SOL    HW128508   6.796   6.762   1.080
 9203SOL    HW228509   6.954   6.803   1.089
 9204SOL     OW28510   5.234   1.159   5.895
 9204SOL    HW128511   5.148   1.122   5.860
 9204SOL    HW228512   5.228   1.170   5.994
 9205SOL     OW28513   6.891   4.231   1.967
 9205SOL    HW128514   6.866   4.323   1.998
 9205SOL    HW228515   6.931   4.238   1.875
 9206SOL     OW28516   3.426   5.752   0.505
 9206SOL    HW128517   3.374   5.737   0.589
 9206SOL    HW228518   3.522   5.769   0.528
 9207SOL     OW28519   4.728   5.679   6.551
 9207SOL    HW128520   4.809   5.660   6.495
 9207SOL    HW228521   4.730   5.774   6.582
 9208SOL     OW28522   1.146   3.710   2.988
 9208SOL    HW128523   1.219   3.664   3.037
 9208SOL    HW228524   1.170   3.717   2.891
 9209SOL     OW28525   2.918   0.729   6.595
 9209SOL    HW128526   2.900   0.827   6.607
 9209SOL    HW228527   2.865   0.677   6.662
 9210SOL     OW28528   0.183   0.742   3.210
 9210SOL    HW128529   0.206   0.659   3.159
 9210SOL    HW228530   0.121   0.799   3.155
 9211SOL     OW28531   0.913   1.470   2.494
 9211SOL    HW128532   0.862   1.525   2.428
 9211SOL    HW228533   0.915   1.375   2.463
 9212SOL     OW28534   3.195   4.895   4.087
 9212SOL    HW128535   3.135   4.821   4.056
 9212SOL    HW228536   3.160   4.932   4.173
 9213SOL     OW28537   5.675   4.043   6.729
 9213SOL    HW128538   5.703   3.971   6.665
 9213SOL    HW228539   5.626   4.002   6.806
 9214SOL     OW28540   0.208   5.084   1.003
 9214SOL    HW128541   0.228   4.991   1.034
 9214SOL    HW228542   0.168   5.136   1.078
 9215SOL     OW28543   0.686   1.067   0.795
 9215SOL    HW128544   0.721   0.976   0.816
 9215SOL    HW228545   0.754   1.119   0.745
 9216SOL     OW28546   2.391   6.768   3.156
 9216SOL    HW128547   2.454   6.727   3.222
 9216SOL    HW228548   2.443   6.808   3.080
 9217SOL     OW28549   1.044   2.405   6.502
 9217SOL    HW128550   1.105   2.358   6.437
 9217SOL    HW228551   1.062   2.503   6.499
 9218SOL     OW28552   2.624   0.502   0.701
 9218SOL    HW128553   2.654   0.558   0.624
 9218SOL    HW228554   2.703   0.473   0.754
 9219SOL     OW28555   0.226   2.059   0.805
 9219SOL    HW128556   0.177   1.987   0.755
 9219SOL    HW228557   0.219   2.145   0.755
 9220SOL     OW28558   3.269   6.592   1.961
 9220SOL    HW128559   3.288   6.689   1.944
 9220SOL    HW228560   3.345   6.537   1.927
 9221SOL     OW28561   2.967   5.680   4.124
 9221SOL    HW128562   3.055   5.668   4.171
 9221SOL    HW228563   2.905   5.607   4.153
 9222SOL     OW28564   2.489   2.266   5.999
 9222SOL    HW128565   2.582   2.241   6.026
 9222SOL    HW228566   2.486   2.280   5.900
 9223SOL     OW28567   2.669   3.038   5.320
 9223SOL    HW128568   2.681   2.964   5.387
 9223SOL    HW228569   2.578   3.032   5.279
 9224SOL     OW28570   2.605   5.071   5.199
 9224SOL    HW128571   2.558   4.997   5.151
 9224SOL    HW228572   2.589   5.157   5.150
 9225SOL     OW28573   1.952   6.317   6.990
 9225SOL    HW128574   1.869   6.307   0.018
 9225SOL    HW228575   1.928   6.350   6.899
 9226SOL     OW28576   4.086   6.693   1.212
 9226SOL    HW128577   4.162   6.689   1.147
 9226SOL    HW228578   4.104   6.633   1.289
 9227SOL     OW28579   1.694   5.958   2.216
 9227SOL    HW128580   1.729   6.047   2.188
 9227SOL    HW228581   1.744   5.925   2.296
 9228SOL     OW28582   0.702   6.847   6.497
 9228SOL    HW128583   0.609   6.843   6.462
 9228SOL    HW228584   0.735   6.941   6.496
 9229SOL     OW28585   0.695   5.196   5.522
 9229SOL    HW128586   0.661   5.193   5.617
 9229SOL    HW228587   0.789   5.163   5.519
 9230SOL     OW28588   5.668   0.060   4.106
 9230SOL    HW128589   5.656   0.019   4.016
 9230SOL    HW228590   5.710   0.151   4.096
 9231SOL     OW28591   1.749   2.641   3.199
 9231SOL    HW128592   1.772   2.552   3.161
 9231SOL    HW228593   1.812   2.710   3.164
 9232SOL     OW28594   4.118   4.610   1.371
 9232SOL    HW128595   4.052   4.552   1.417
 9232SOL    HW228596   4.138   4.691   1.427
 9233SOL     OW28597   4.980   4.717   0.868
 9233SOL    HW128598   4.938   4.794   0.820
 9233SOL    HW228599   4.908   4.652   0.896
 9234SOL     OW28600   2.344   6.094   3.849
 9234SOL    HW128601   2.277   6.138   3.909
 9234SOL    HW228602   2.434   6.094   3.894
 9235SOL     OW28603   0.818   2.156   3.582
 9235SOL    HW128604   0.761   2.238   3.581
 9235SOL    HW228605   0.910   2.180   3.549
 9236SOL     OW28606   3.466   2.873   5.885
 9236SOL    HW128607   3.380   2.879   5.935
 9236SOL    HW228608   3.451   2.820   5.801
 9237SOL     OW28609   1.767   3.290   3.801
 9237SOL    HW128610   1.700   3.362   3.789
 9237SOL    HW228611   1.798   3.288   3.896
 9238SOL     OW28612   4.292   2.991   6.187
 9238SOL    HW128613   4.321   3.068   6.244
 9238SOL    HW228614   4.339   2.908   6.217
 9239SOL     OW28615   1.781   4.079   0.574
 9239SOL    HW128616   1.806   4.082   0.671
 9239SOL    HW228617   1.822   4.156   0.526
 9240SOL     OW28618   4.587   0.946   2.314
 9240SOL    HW128619   4.660   0.931   2.381
 9240SOL    HW228620   4.555   1.040   2.319
 9241SOL     OW28621   0.669   5.797   6.173
 9241SOL    HW128622   0.732   5.726   6.203
 9241SOL    HW228623   0.682   5.813   6.075
 9242SOL     OW28624   6.905   6.091   1.643
 9242SOL    HW128625   6.905   6.188   1.618
 9242SOL    HW228626   6.817   6.050   1.617
 9243SOL     OW28627   6.221   5.958   4.702
 9243SOL    HW128628   6.136   5.947   4.651
 9243SOL    HW228629   6.202   5.952   4.800
 9244SOL     OW28630   3.943   4.971   6.558
 9244SOL    HW128631   3.931   5.024   6.474
 9244SOL    HW228632   3.885   4.890   6.555
 9245SOL     OW28633   0.558   5.370   1.031
 9245SOL    HW128634   0.526   5.434   1.101
 9245SOL    HW228635   0.566   5.418   0.944
 9246SOL     OW28636   0.029   4.912   4.432
 9246SOL    HW128637   0.085   4.967   4.494
 9246SOL    HW228638   0.038   4.815   4.456
 9247SOL     OW28639   1.780   6.536   2.376
 9247SOL    HW128640   1.866   6.489   2.356
 9247SOL    HW228641   1.790   6.588   2.461
 9248SOL     OW28642   3.027   1.531   6.557
 9248SOL    HW128643   3.124   1.507   6.547
 9248SOL    HW228644   2.991   1.488   6.640
 9249SOL     OW28645   4.767   0.332   3.830
 9249SOL    HW128646   4.673   0.332   3.865
 9249SOL    HW228647   4.783   0.416   3.778
 9250SOL     OW28648   5.207   3.565   3.964
 9250SOL    HW128649   5.128   3.626   3.971
 9250SOL    HW228650   5.240   3.542   4.055
 9251SOL     OW28651   3.343   2.109   2.524
 9251SOL    HW128652   3.329   2.021   2.568
 9251SOL    HW228653   3.272   2.173   2.554
 9252SOL     OW28654   1.336   0.151   4.601
 9252SOL    HW128655   1.303   0.220   4.537
 9252SOL    HW228656   1.405   0.094   4.557
 9253SOL     OW28657   1.145   6.588   5.829
 9253SOL    HW128658   1.228   6.610   5.880
 9253SOL    HW228659   1.122   6.664   5.768
 9254SOL     OW28660   5.679   3.689   1.456
 9254SOL    HW128661   5.671   3.603   1.405
 9254SOL    HW228662   5.590   3.734   1.459
 9255SOL     OW28663   6.168   4.389   0.805
 9255SOL    HW128664   6.084   4.442   0.790
 9255SOL    HW228665   6.177   4.319   0.735
 9256SOL     OW28666   4.320   5.035   1.657
 9256SOL    HW128667   4.373   4.991   1.730
 9256SOL    HW228668   4.278   5.118   1.692
 9257SOL     OW28669   1.160   4.105   1.153
 9257SOL    HW128670   1.219   4.103   1.235
 9257SOL    HW228671   1.196   4.042   1.085
 9258SOL     OW28672   4.047   3.770   3.761
 9258SOL    HW128673   4.009   3.850   3.714
 9258SOL    HW228674   4.003   3.687   3.727
 9259SOL     OW28675   0.701   2.704   0.029
 9259SOL    HW128676   0.728   2.794   7.023
 9259SOL    HW228677   0.753   2.682   0.112
 9260SOL     OW28678   5.428   3.542   6.510
 9260SOL    HW128679   5.406   3.489   6.428
 9260SOL    HW228680   5.363   3.617   6.520
 9261SOL     OW28681   4.692   0.094   6.927
 9261SOL    HW128682   4.662   0.188   6.946
 9261SOL    HW228683   4.782   0.079   6.968
 9262SOL     OW28684   4.592   1.100   5.166
 9262SOL    HW128685   4.549   1.145   5.087
 9262SOL    HW228686   4.664   1.040   5.134
 9263SOL     OW28687   5.209   3.712   1.736
 9263SOL    HW128688   5.282   3.781   1.734
 9263SOL    HW228689   5.218   3.656   1.818
 9264SOL     OW28690   6.434   3.457   0.232
 9264SOL    HW128691   6.482   3.472   0.146
 9264SOL    HW228692   6.449   3.535   0.293
 9265SOL     OW28693   1.840   0.788   6.049
 9265SOL    HW128694   1.823   0.790   6.148
 9265SOL    HW228695   1.937   0.773   6.032
 9266SOL     OW28696   1.971   6.362   2.262
 9266SOL    HW128697   2.067   6.389   2.261
 9266SOL    HW228698   1.962   6.269   2.225
 9267SOL     OW28699   2.446   4.869   5.088
 9267SOL    HW128700   2.499   4.785   5.100
 9267SOL    HW228701   2.351   4.852   5.116
 9268SOL     OW28702   0.015   0.649   2.575
 9268SOL    HW128703   0.052   0.741   2.563
 9268SOL    HW228704   0.037   0.615   2.667
 9269SOL     OW28705   3.682   1.148   5.896
 9269SOL    HW128706   3.734   1.221   5.852
 9269SOL    HW228707   3.701   1.061   5.850
 9270SOL     OW28708   0.408   0.031   5.747
 9270SOL    HW128709   0.345   0.044   5.823
 9270SOL    HW228710   0.436   6.962   5.744
 9271SOL     OW28711   1.351   4.916   0.256
 9271SOL    HW128712   1.435   4.951   0.296
 9271SOL    HW228713   1.295   4.874   0.327
 9272SOL     OW28714   2.626   4.453   6.534
 9272SOL    HW128715   2.537   4.406   6.538
 9272SOL    HW228716   2.622   4.523   6.462
 9273SOL     OW28717   3.748   6.231   5.222
 9273SOL    HW128718   3.800   6.199   5.143
 9273SOL    HW228719   3.782   6.185   5.304
 9274SOL     OW28720   5.995   1.690   0.494
 9274SOL    HW128721   6.019   1.593   0.499
 9274SOL    HW228722   6.067   1.744   0.538
 9275SOL     OW28723   1.305   0.421   6.426
 9275SOL    HW128724   1.359   0.337   6.432
 9275SOL    HW228725   1.210   0.398   6.407
 9276SOL     OW28726   4.247   6.405   4.848
 9276SOL    HW128727   4.296   6.427   4.764
 9276SOL    HW228728   4.158   6.365   4.825
 9277SOL     OW28729   3.518   2.992   0.255
 9277SOL    HW128730   3.457   2.912   0.253
 9277SOL    HW228731   3.482   3.059   0.320
 9278SOL     OW28732   1.385   2.288   1.756
 9278SOL    HW128733   1.399   2.205   1.810
 9278SOL    HW228734   1.321   2.270   1.682
 9279SOL     OW28735   3.393   0.144   1.811
 9279SOL    HW128736   3.408   0.241   1.829
 9279SOL    HW228737   3.391   0.128   1.712
 9280SOL     OW28738   2.235   0.210   3.390
 9280SOL    HW128739   2.276   0.293   3.354
 9280SOL    HW228740   2.273   0.130   3.343
 9281SOL     OW28741   1.741   2.432   0.171
 9281SOL    HW128742   1.648   2.427   0.206
 9281SOL    HW228743   1.762   2.350   0.119
 9282SOL     OW28744   4.642   1.974   6.115
 9282SOL    HW128745   4.569   2.025   6.161
 9282SOL    HW228746   4.716   1.956   6.180
 9283SOL     OW28747   5.631   2.433   2.284
 9283SOL    HW128748   5.577   2.464   2.206
 9283SOL    HW228749   5.728   2.454   2.268
 9284SOL     OW28750   2.965   3.462   1.601
 9284SOL    HW128751   3.059   3.471   1.567
 9284SOL    HW228752   2.908   3.423   1.529
 9285SOL     OW28753   6.103   2.958   6.794
 9285SOL    HW128754   6.104   2.986   6.890
 9285SOL    HW228755   6.148   3.027   6.739
 9286SOL     OW28756   5.571   6.456   5.485
 9286SOL    HW128757   5.525   6.367   5.487
 9286SOL    HW228758   5.626   6.466   5.568
 9287SOL     OW28759   3.109   6.548   1.761
 9287SOL    HW128760   3.180   6.567   1.693
 9287SOL    HW228761   3.151   6.540   1.851
 9288SOL     OW28762   4.923   2.663   5.994
 9288SOL    HW128763   4.986   2.715   5.936
 9288SOL    HW228764   4.847   2.629   5.939
 9289SOL     OW28765   4.862   3.081   3.152
 9289SOL    HW128766   4.876   3.179   3.142
 9289SOL    HW228767   4.826   3.061   3.243
 9290SOL     OW28768   4.798   2.119   5.121
 9290SOL    HW128769   4.804   2.022   5.098
 9290SOL    HW228770   4.822   2.174   5.041
 9291SOL     OW28771   0.880   1.987   5.238
 9291SOL    HW128772   0.851   1.917   5.173
 9291SOL    HW228773   0.898   2.073   5.189
 9292SOL     OW28774   0.012   3.413   6.720
 9292SOL    HW128775   6.945   3.442   6.700
 9292SOL    HW228776   0.010   3.333   6.780
 9293SOL     OW28777   5.397   4.352   6.947
 9293SOL    HW128778   5.497   4.344   6.950
 9293SOL    HW228779   5.362   4.302   6.868
 9294SOL     OW28780   6.097   6.220   7.008
 9294SOL    HW128781   6.145   6.306   7.021
 9294SOL    HW228782   6.108   6.163   0.062
 9295SOL     OW28783   4.722   1.690   3.805
 9295SOL    HW128784   4.682   1.605   3.769
 9295SOL    HW228785   4.651   1.760   3.812
 9296SOL     OW28786   6.055   0.344   5.533
 9296SOL    HW128787   6.128   0.299   5.584
 9296SOL    HW228788   6.068   0.443   5.537
 9297SOL     OW28789   0.768   1.205   0.574
 9297SOL    HW128790   0.831   1.153   0.517
 9297SOL    HW228791   0.690   1.236   0.519
 9298SOL     OW28792   1.054   6.280   4.830
 9298SOL    HW128793   1.135   6.237   4.789
 9298SOL    HW228794   0.972   6.239   4.791
 9299SOL     OW28795   2.276   3.016   4.419
 9299SOL    HW128796   2.284   2.944   4.351
 9299SOL    HW228797   2.271   2.976   4.510
 9300SOL     OW28798   5.533   4.308   4.496
 9300SOL    HW128799   5.504   4.216   4.523
 9300SOL    HW228800   5.460   4.351   4.442
 9301SOL     OW28801   5.386   4.154   2.728
 9301SOL    HW128802   5.477   4.186   2.701
 9301SOL    HW228803   5.319   4.225   2.709
 9302SOL     OW28804   2.192   1.775   2.383
 9302SOL    HW128805   2.272   1.816   2.339
 9302SOL    HW228806   2.112   1.832   2.367
 9303SOL     OW28807   3.606   5.401   0.601
 9303SOL    HW128808   3.705   5.405   0.614
 9303SOL    HW228809   3.574   5.306   0.605
 9304SOL     OW28810   4.059   3.132   0.910
 9304SOL    HW128811   4.106   3.055   0.952
 9304SOL    HW228812   4.008   3.100   0.830
 9305SOL     OW28813   5.367   2.778   2.158
 9305SOL    HW128814   5.324   2.719   2.090
 9305SOL    HW228815   5.410   2.722   2.229
 9306SOL     OW28816   6.924   4.224   3.851
 9306SOL    HW128817   6.859   4.282   3.902
 9306SOL    HW228818   6.877   4.142   3.819
 9307SOL     OW28819   2.008   1.383   6.581
 9307SOL    HW128820   2.004   1.305   6.644
 9307SOL    HW228821   1.919   1.430   6.581
 9308SOL     OW28822   6.743   3.020   1.080
 9308SOL    HW128823   6.702   2.956   1.144
 9308SOL    HW228824   6.771   3.103   1.129
 9309SOL     OW28825   4.565   3.349   6.780
 9309SOL    HW128826   4.528   3.440   6.797
 9309SOL    HW228827   4.663   3.356   6.763
 9310SOL     OW28828   4.002   6.004   0.243
 9310SOL    HW128829   4.004   5.993   0.143
 9310SOL    HW228830   4.070   6.071   0.270
 9311SOL     OW28831   6.226   2.772   0.739
 9311SOL    HW128832   6.178   2.768   0.827
 9311SOL    HW228833   6.251   2.866   0.719
 9312SOL     OW28834   1.142   4.600   6.081
 9312SOL    HW128835   1.225   4.597   6.137
 9312SOL    HW228836   1.155   4.545   5.999
 9313SOL     OW28837   6.448   6.845   2.946
 9313SOL    HW128838   6.350   6.857   2.931
 9313SOL    HW228839   6.481   6.766   2.894
 9314SOL     OW28840   5.223   4.716   0.171
 9314SOL    HW128841   5.223   4.792   0.235
 9314SOL    HW228842   5.191   4.747   0.082
 9315SOL     OW28843   6.876   6.590   6.504
 9315SOL    HW128844   6.821   6.536   6.439
 9315SOL    HW228845   6.868   6.549   6.595
 9316SOL     OW28846   3.737   5.862   3.820
 9316SOL    HW128847   3.732   5.922   3.900
 9316SOL    HW228848   3.769   5.771   3.849
 9317SOL     OW28849   6.206   4.226   4.273
 9317SOL    HW128850   6.155   4.301   4.231
 9317SOL    HW228851   6.290   4.261   4.314
 9318SOL     OW28852   6.738   0.099   6.409
 9318SOL    HW128853   6.793   0.177   6.440
 9318SOL    HW228854   6.676   0.128   6.336
 9319SOL     OW28855   0.159   3.141   4.964
 9319SOL    HW128856   0.113   3.117   4.879
 9319SOL    HW228857   0.103   3.110   5.041
 9320SOL     OW28858   4.824   2.908   6.462
 9320SOL    HW128859   4.826   2.871   6.369
 9320SOL    HW228860   4.917   2.912   6.498
 9321SOL     OW28861   6.808   5.694   3.377
 9321SOL    HW128862   6.730   5.680   3.438
 9321SOL    HW228863   6.873   5.619   3.388
 9322SOL     OW28864   0.827   6.236   0.021
 9322SOL    HW128865   0.903   6.273   0.075
 9322SOL    HW228866   0.849   6.143   7.020
 9323SOL     OW28867   0.068   1.487   5.823
 9323SOL    HW128868   0.144   1.449   5.874
 9323SOL    HW228869   0.021   1.556   5.878
 9324SOL     OW28870   1.544   5.873   6.970
 9324SOL    HW128871   1.473   5.895   6.904
 9324SOL    HW228872   1.614   5.944   6.969
 9325SOL     OW28873   6.403   2.599   0.947
 9325SOL    HW128874   6.437   2.577   1.039
 9325SOL    HW228875   6.410   2.698   0.933
 9326SOL     OW28876   2.485   6.320   1.202
 9326SOL    HW128877   2.525   6.288   1.288
 9326SOL    HW228878   2.492   6.247   1.134
 9327SOL     OW28879   4.141   1.075   3.293
 9327SOL    HW128880   4.177   1.120   3.211
 9327SOL    HW228881   4.111   0.982   3.269
 9328SOL     OW28882   3.177   0.910   2.168
 9328SOL    HW128883   3.124   0.863   2.098
 9328SOL    HW228884   3.186   1.007   2.145
 9329SOL     OW28885   1.546   3.781   1.689
 9329SOL    HW128886   1.593   3.768   1.776
 9329SOL    HW228887   1.449   3.760   1.700
 9330SOL     OW28888   5.507   0.429   0.153
 9330SOL    HW128889   5.521   0.378   0.238
 9330SOL    HW228890   5.433   0.495   0.166
 9331SOL     OW28891   0.837   1.217   6.885
 9331SOL    HW128892   0.919   1.166   6.860
 9331SOL    HW228893   0.789   1.169   6.958
 9332SOL     OW28894   3.775   3.670   4.442
 9332SOL    HW128895   3.748   3.574   4.434
 9332SOL    HW228896   3.874   3.677   4.432
 9333SOL     OW28897   5.860   5.329   0.832
 9333SOL    HW128898   5.791   5.257   0.830
 9333SOL    HW228899   5.832   5.404   0.771
 9334SOL     OW28900   3.115   6.914   4.925
 9334SOL    HW128901   3.053   6.841   4.951
 9334SOL    HW228902   3.201   6.874   4.893
 9335SOL     OW28903   1.013   1.014   0.743
 9335SOL    HW128904   1.038   1.110   0.739
 9335SOL    HW228905   0.990   0.981   0.652
 9336SOL     OW28906   3.526   6.718   5.679
 9336SOL    HW128907   3.441   6.750   5.720
 9336SOL    HW228908   3.562   6.788   5.618
 9337SOL     OW28909   5.045   0.300   2.850
 9337SOL    HW128910   5.109   0.322   2.924
 9337SOL    HW228911   5.061   0.206   2.819
 9338SOL     OW28912   3.584   6.998   1.603
 9338SOL    HW128913   3.643   0.045   1.634
 9338SOL    HW228914   3.490   0.005   1.594
 9339SOL     OW28915   4.469   6.185   1.022
 9339SOL    HW128916   4.488   6.213   0.928
 9339SOL    HW228917   4.517   6.100   1.042
 9340SOL     OW28918   5.933   3.501   0.539
 9340SOL    HW128919   6.028   3.492   0.568
 9340SOL    HW228920   5.897   3.412   0.512
 9341SOL     OW28921   7.002   5.056   6.002
 9341SOL    HW128922   6.991   5.098   5.912
 9341SOL    HW228923   6.998   5.127   6.073
 9342SOL     OW28924   1.090   5.941   5.886
 9342SOL    HW128925   1.076   5.842   5.886
 9342SOL    HW228926   1.106   5.972   5.980
 9343SOL     OW28927   6.388   5.643   4.565
 9343SOL    HW128928   6.355   5.698   4.489
 9343SOL    HW228929   6.448   5.571   4.531
 9344SOL     OW28930   4.780   6.819   1.480
 9344SOL    HW128931   4.817   6.732   1.511
 9344SOL    HW228932   4.757   6.814   1.383
 9345SOL     OW28933   6.822   2.696   0.760
 9345SOL    HW128934   6.747   2.761   0.761
 9345SOL    HW228935   6.877   2.707   0.843
 9346SOL     OW28936   5.958   0.423   0.233
 9346SOL    HW128937   5.867   0.466   0.231
 9346SOL    HW228938   5.953   0.333   0.190
 9347SOL     OW28939   1.579   6.486   2.006
 9347SOL    HW128940   1.593   6.484   1.907
 9347SOL    HW228941   1.619   6.570   2.044
 9348SOL     OW28942   3.172   4.775   6.910
 9348SOL    HW128943   3.090   4.821   6.875
 9348SOL    HW228944   3.235   4.843   6.948
 9349SOL     OW28945   1.960   6.408   2.650
 9349SOL    HW128946   1.911   6.495   2.655
 9349SOL    HW228947   1.924   6.354   2.574
 9350SOL     OW28948   0.530   2.835   5.889
 9350SOL    HW128949   0.528   2.917   5.947
 9350SOL    HW228950   0.594   2.768   5.927
 9351SOL     OW28951   2.877   1.490   6.779
 9351SOL    HW128952   2.784   1.526   6.767
 9351SOL    HW228953   2.923   1.541   6.852
 9352SOL     OW28954   2.637   4.546   5.584
 9352SOL    HW128955   2.656   4.606   5.506
 9352SOL    HW228956   2.543   4.561   5.615
 9353SOL     OW28957   6.298   0.424   1.019
 9353SOL    HW128958   6.266   0.393   0.929
 9353SOL    HW228959   6.398   0.431   1.018
 9354SOL     OW28960   0.744   1.829   6.563
 9354SOL    HW128961   0.732   1.842   6.662
 9354SOL    HW228962   0.796   1.745   6.547
 9355SOL     OW28963   0.547   1.900   5.673
 9355SOL    HW128964   0.563   1.996   5.694
 9355SOL    HW228965   0.589   1.877   5.585
 9356SOL     OW28966   5.433   6.751   3.060
 9356SOL    HW128967   5.374   6.817   3.105
 9356SOL    HW228968   5.409   6.658   3.089
 9357SOL     OW28969   1.057   1.832   6.880
 9357SOL    HW128970   0.987   1.761   6.888
 9357SOL    HW228971   1.017   1.915   6.841
 9358SOL     OW28972   0.497   2.975   1.561
 9358SOL    HW128973   0.562   2.980   1.636
 9358SOL    HW228974   0.546   2.965   1.475
 9359SOL     OW28975   0.966   0.000   5.138
 9359SOL    HW128976   0.929   6.935   5.133
 9359SOL    HW228977   0.968   0.029   5.234
 9360SOL     OW28978   1.004   0.094   5.753
 9360SOL    HW128979   0.936   0.142   5.808
 9360SOL    HW228980   1.090   0.088   5.806
 9361SOL     OW28981   2.015   6.203   3.813
 9361SOL    HW128982   1.999   6.198   3.911
 9361SOL    HW228983   1.932   6.235   3.767
 9362SOL     OW28984   2.069   0.057   1.816
 9362SOL    HW128985   2.083   0.039   1.718
 9362SOL    HW228986   2.140   0.120   1.848
 9363SOL     OW28987   1.784   5.039   2.714
 9363SOL    HW128988   1.751   4.955   2.758
 9363SOL    HW228989   1.850   5.085   2.773
 9364SOL     OW28990   1.340   2.822   1.254
 9364SOL    HW128991   1.311   2.817   1.159
 9364SOL    HW228992   1.361   2.917   1.278
 9365SOL     OW28993   3.134   1.214   4.475
 9365SOL    HW128994   3.065   1.146   4.500
 9365SOL    HW228995   3.225   1.172   4.480
 9366SOL     OW28996   4.207   5.977   2.121
 9366SOL    HW128997   4.117   5.943   2.097
 9366SOL    HW228998   4.208   6.000   2.219
 9367SOL     OW28999   6.675   0.894   1.481
 9367SOL    HW129000   6.634   0.809   1.448
 9367SOL    HW229001   6.701   0.950   1.403
 9368SOL     OW29002   2.792   0.367   3.064
 9368SOL    HW129003   2.779   0.382   3.162
 9368SOL    HW229004   2.841   0.281   3.050
 9369SOL     OW29005   3.378   5.093   0.242
 9369SOL    HW129006   3.404   5.019   0.304
 9369SOL    HW229007   3.445   5.167   0.249
 9370SOL     OW29008   4.675   1.935   4.831
 9370SOL    HW129009   4.690   2.013   4.770
 9370SOL    HW229010   4.660   1.853   4.775
 9371SOL     OW29011   4.398   5.437   0.935
 9371SOL    HW129012   4.437   5.420   1.026
 9371SOL    HW229013   4.376   5.349   0.891
 9372SOL     OW29014   4.512   6.245   1.690
 9372SOL    HW129015   4.565   6.199   1.761
 9372SOL    HW229016   4.465   6.324   1.730
 9373SOL     OW29017   6.896   2.600   1.110
 9373SOL    HW129018   6.977   2.547   1.085
 9373SOL    HW229019   6.922   2.675   1.171
 9374SOL     OW29020   0.450   5.684   5.761
 9374SOL    HW129021   0.359   5.649   5.737
 9374SOL    HW229022   0.481   5.746   5.689
 9375SOL     OW29023   0.698   1.055   0.028
 9375SOL    HW129024   0.670   0.960   0.014
 9375SOL    HW229025   0.625   1.116   7.025
 9376SOL     OW29026   2.200   4.019   1.349
 9376SOL    HW129027   2.293   4.050   1.332
 9376SOL    HW229028   2.155   3.999   1.262
 9377SOL     OW29029   1.631   1.153   3.037
 9377SOL    HW129030   1.535   1.181   3.043
 9377SOL    HW229031   1.659   1.110   3.123
 9378SOL     OW29032   3.734   1.264   4.844
 9378SOL    HW129033   3.679   1.181   4.858
 9378SOL    HW229034   3.678   1.334   4.800
 9379SOL     OW29035   5.075   6.675   4.133
 9379SOL    HW129036   5.059   6.698   4.229
 9379SOL    HW229037   5.079   6.575   4.123
 9380SOL     OW29038   5.446   5.378   0.075
 9380SOL    HW129039   5.501   5.304   0.036
 9380SOL    HW229040   5.481   5.402   0.165
 9381SOL     OW29041   5.840   1.509   5.207
 9381SOL    HW129042   5.820   1.543   5.115
 9381SOL    HW229043   5.861   1.411   5.202
 9382SOL     OW29044   3.118   5.275   5.744
 9382SOL    HW129045   3.027   5.240   5.722
 9382SOL    HW229046   3.148   5.338   5.673
 9383SOL     OW29047   6.029   4.111   2.796
 9383SOL    HW129048   6.082   4.101   2.711
 9383SOL    HW229049   5.934   4.084   2.779
 9384SOL     OW29050   3.169   0.531   1.834
 9384SOL    HW129051   3.102   0.551   1.763
 9384SOL    HW229052   3.168   0.604   1.902
 9385SOL     OW29053   4.838   1.695   4.084
 9385SOL    HW129054   4.822   1.663   3.991
 9385SOL    HW229055   4.779   1.773   4.103
 9386SOL     OW29056   4.846   6.095   0.304
 9386SOL    HW129057   4.938   6.102   0.343
 9386SOL    HW229058   4.806   6.007   0.330
 9387SOL     OW29059   2.779   1.579   0.298
 9387SOL    HW129060   2.766   1.583   0.199
 9387SOL    HW229061   2.864   1.532   0.319
 9388SOL     OW29062   2.594   0.146   5.303
 9388SOL    HW129063   2.592   0.237   5.261
 9388SOL    HW229064   2.501   0.111   5.309
 9389SOL     OW29065   2.172   4.506   2.183
 9389SOL    HW129066   2.272   4.510   2.185
 9389SOL    HW229067   2.141   4.467   2.096
 9390SOL     OW29068   5.100   5.135   4.404
 9390SOL    HW129069   5.063   5.043   4.413
 9390SOL    HW229070   5.194   5.131   4.370
 9391SOL     OW29071   1.445   3.739   4.426
 9391SOL    HW129072   1.535   3.750   4.467
 9391SOL    HW229073   1.416   3.824   4.383
 9392SOL     OW29074   5.166   4.768   2.865
 9392SOL    HW129075   5.190   4.717   2.947
 9392SOL    HW229076   5.238   4.835   2.845
 9393SOL     OW29077   2.109   6.222   6.045
 9393SOL    HW129078   2.151   6.249   5.959
 9393SOL    HW229079   2.021   6.178   6.027
 9394SOL     OW29080   3.860   0.724   0.386
 9394SOL    HW129081   3.804   0.771   0.318
 9394SOL    HW229082   3.954   0.756   0.380
 9395SOL     OW29083   1.475   1.941   1.130
 9395SOL    HW129084   1.535   2.019   1.150
 9395SOL    HW229085   1.521   1.880   1.066
 9396SOL     OW29086   0.664   0.198   6.242
 9396SOL    HW129087   0.662   0.098   6.232
 9396SOL    HW229088   0.609   0.239   6.169
 9397SOL     OW29089   3.488   1.106   4.747
 9397SOL    HW129090   3.538   1.031   4.790
 9397SOL    HW229091   3.507   1.191   4.795
 9398SOL     OW29092   0.795   2.009   0.039
 9398SOL    HW129093   0.711   2.044   0.081
 9398SOL    HW229094   0.851   1.964   0.109
 9399SOL     OW29095   0.920   2.436   4.582
 9399SOL    HW129096   0.917   2.475   4.490
 9399SOL    HW229097   0.953   2.504   4.647
 9400SOL     OW29098   5.848   1.554   1.198
 9400SOL    HW129099   5.909   1.575   1.122
 9400SOL    HW229100   5.901   1.515   1.274
 9401SOL     OW29101   0.289   2.264   4.050
 9401SOL    HW129102   0.272   2.360   4.072
 9401SOL    HW229103   0.203   2.214   4.050
 9402SOL     OW29104   2.590   6.615   4.616
 9402SOL    HW129105   2.685   6.593   4.594
 9402SOL    HW229106   2.529   6.553   4.566
 9403SOL     OW29107   5.286   2.301   1.374
 9403SOL    HW129108   5.207   2.243   1.354
 9403SOL    HW229109   5.287   2.324   1.471
 9404SOL     OW29110   2.431   2.270   1.022
 9404SOL    HW129111   2.469   2.214   1.095
 9404SOL    HW229112   2.331   2.261   1.020
 9405SOL     OW29113   6.320   5.758   5.530
 9405SOL    HW129114   6.261   5.833   5.499
 9405SOL    HW229115   6.278   5.714   5.610
 9406SOL     OW29116   0.698   2.375   0.263
 9406SOL    HW129117   0.714   2.325   0.348
 9406SOL    HW229118   0.638   2.322   0.203
 9407SOL     OW29119   2.293   5.080   4.622
 9407SOL    HW129120   2.346   5.014   4.569
 9407SOL    HW229121   2.322   5.076   4.718
 9408SOL     OW29122   6.599   3.994   4.260
 9408SOL    HW129123   6.625   3.937   4.182
 9408SOL    HW229124   6.539   3.943   4.321
 9409SOL     OW29125   6.259   5.244   1.831
 9409SOL    HW129126   6.175   5.283   1.869
 9409SOL    HW229127   6.307   5.315   1.778
 9410SOL     OW29128   3.826   0.745   0.668
 9410SOL    HW129129   3.810   0.728   0.570
 9410SOL    HW229130   3.921   0.772   0.682
 9411SOL     OW29131   3.044   3.960   3.596
 9411SOL    HW129132   3.017   4.040   3.649
 9411SOL    HW229133   3.144   3.961   3.584
 9412SOL     OW29134   4.752   6.613   1.919
 9412SOL    HW129135   4.821   6.668   1.966
 9412SOL    HW229136   4.687   6.674   1.873
 9413SOL     OW29137   4.729   4.113   2.987
 9413SOL    HW129138   4.779   4.034   3.023
 9413SOL    HW229139   4.705   4.096   2.891
 9414SOL     OW29140   2.521   2.559   3.210
 9414SOL    HW129141   2.558   2.515   3.128
 9414SOL    HW229142   2.441   2.613   3.184
 9415SOL     OW29143   5.387   0.809   2.009
 9415SOL    HW129144   5.482   0.832   2.030
 9415SOL    HW229145   5.346   0.761   2.087
 9416SOL     OW29146   5.457   5.262   5.575
 9416SOL    HW129147   5.409   5.188   5.527
 9416SOL    HW229148   5.398   5.343   5.578
 9417SOL     OW29149   3.241   5.364   2.579
 9417SOL    HW129150   3.213   5.380   2.673
 9417SOL    HW229151   3.213   5.441   2.522
 9418SOL     OW29152   3.135   1.799   5.102
 9418SOL    HW129153   3.199   1.746   5.157
 9418SOL    HW229154   3.074   1.851   5.163
 9419SOL     OW29155   2.031   2.925   6.321
 9419SOL    HW129156   1.990   2.840   6.354
 9419SOL    HW229157   1.959   2.994   6.310
 9420SOL     OW29158   5.792   4.315   5.836
 9420SOL    HW129159   5.713   4.307   5.897
 9420SOL    HW229160   5.871   4.348   5.888
 9421SOL     OW29161   3.768   6.557   0.066
 9421SOL    HW129162   3.864   6.573   0.092
 9421SOL    HW229163   3.755   6.583   6.997
 9422SOL     OW29164   2.487   6.261   5.751
 9422SOL    HW129165   2.568   6.228   5.801
 9422SOL    HW229166   2.442   6.183   5.707
 9423SOL     OW29167   4.398   4.649   2.319
 9423SOL    HW129168   4.375   4.693   2.232
 9423SOL    HW229169   4.446   4.563   2.302
 9424SOL     OW29170   6.519   0.330   4.017
 9424SOL    HW129171   6.528   0.429   4.007
 9424SOL    HW229172   6.434   0.299   3.976
 9425SOL     OW29173   6.919   4.053   0.893
 9425SOL    HW129174   6.885   4.037   0.800
 9425SOL    HW229175   7.005   4.103   0.889
 9426SOL     OW29176   5.526   3.231   6.092
 9426SOL    HW129177   5.497   3.225   6.188
 9426SOL    HW229178   5.621   3.261   6.088
 9427SOL     OW29179   4.678   4.155   2.698
 9427SOL    HW129180   4.630   4.075   2.662
 9427SOL    HW229181   4.768   4.162   2.655
 9428SOL     OW29182   1.343   6.159   5.587
 9428SOL    HW129183   1.275   6.232   5.597
 9428SOL    HW229184   1.296   6.071   5.577
 9429SOL     OW29185   2.286   2.443   3.925
 9429SOL    HW129186   2.357   2.487   3.871
 9429SOL    HW229187   2.286   2.345   3.906
 9430SOL     OW29188   1.477   2.077   3.854
 9430SOL    HW129189   1.574   2.100   3.846
 9430SOL    HW229190   1.458   1.994   3.800
 9431SOL     OW29191   0.942   4.691   5.543
 9431SOL    HW129192   0.950   4.654   5.635
 9431SOL    HW229193   0.885   4.773   5.545
 9432SOL     OW29194   6.919   1.028   4.429
 9432SOL    HW129195   6.956   1.104   4.375
 9432SOL    HW229196   6.984   0.953   4.430
 9433SOL     OW29197   4.821   5.533   1.949
 9433SOL    HW129198   4.765   5.452   1.969
 9433SOL    HW229199   4.859   5.569   2.035
 9434SOL     OW29200   4.112   5.741   3.792
 9434SOL    HW129201   4.047   5.675   3.830
 9434SOL    HW229202   4.084   5.834   3.818
 9435SOL     OW29203   6.208   3.577   0.924
 9435SOL    HW129204   6.180   3.590   1.019
 9435SOL    HW229205   6.130   3.591   0.863
 9436SOL     OW29206   2.659   0.776   3.181
 9436SOL    HW129207   2.737   0.799   3.124
 9436SOL    HW229208   2.624   0.686   3.154
 9437SOL     OW29209   5.442   0.703   5.120
 9437SOL    HW129210   5.452   0.621   5.177
 9437SOL    HW229211   5.368   0.688   5.054
 9438SOL     OW29212   4.602   0.413   2.748
 9438SOL    HW129213   4.688   0.433   2.796
 9438SOL    HW229214   4.533   0.383   2.814
 9439SOL     OW29215   1.872   4.077   0.868
 9439SOL    HW129216   1.940   4.014   0.831
 9439SOL    HW229217   1.915   4.142   0.930
 9440SOL     OW29218   1.794   5.222   3.831
 9440SOL    HW129219   1.747   5.258   3.750
 9440SOL    HW229220   1.727   5.208   3.904
 9441SOL     OW29221   0.300   6.421   4.591
 9441SOL    HW129222   0.397   6.408   4.614
 9441SOL    HW229223   0.244   6.377   4.662
 9442SOL     OW29224   5.552   3.301   0.857
 9442SOL    HW129225   5.556   3.372   0.927
 9442SOL    HW229226   5.549   3.344   0.767
 9443SOL     OW29227   2.185   4.541   1.775
 9443SOL    HW129228   2.166   4.443   1.763
 9443SOL    HW229229   2.283   4.556   1.775
 9444SOL     OW29230   1.924   4.517   6.490
 9444SOL    HW129231   2.008   4.519   6.436
 9444SOL    HW229232   1.845   4.524   6.429
 9445SOL     OW29233   0.172   1.775   4.281
 9445SOL    HW129234   0.082   1.818   4.281
 9445SOL    HW229235   0.231   1.819   4.212
 9446SOL     OW29236   6.221   4.003   4.970
 9446SOL    HW129237   6.140   3.960   5.009
 9446SOL    HW229238   6.301   3.977   5.024
 9447SOL     OW29239   5.008   4.559   2.060
 9447SOL    HW129240   4.979   4.512   2.143
 9447SOL    HW229241   4.996   4.499   1.981
 9448SOL     OW29242   6.216   1.967   6.666
 9448SOL    HW129243   6.301   1.934   6.708
 9448SOL    HW229244   6.190   2.054   6.706
 9449SOL     OW29245   5.523   0.237   2.221
 9449SOL    HW129246   5.577   0.153   2.229
 9449SOL    HW229247   5.480   0.257   2.309
 9450SOL     OW29248   1.277   6.881   3.386
 9450SOL    HW129249   1.322   6.841   3.306
 9450SOL    HW229250   1.340   6.880   3.464
 9451SOL     OW29251   4.044   5.190   0.095
 9451SOL    HW129252   3.964   5.192   0.036
 9451SOL    HW229253   4.018   5.213   0.189
 9452SOL     OW29254   6.243   4.035   6.432
 9452SOL    HW129255   6.282   3.989   6.511
 9452SOL    HW229256   6.303   4.111   6.405
 9453SOL     OW29257   5.192   4.733   1.531
 9453SOL    HW129258   5.186   4.718   1.432
 9453SOL    HW229259   5.144   4.659   1.579
 9454SOL     OW29260   6.653   4.920   0.613
 9454SOL    HW129261   6.557   4.894   0.613
 9454SOL    HW229262   6.700   4.875   0.537
 9455SOL     OW29263   4.276   0.921   1.622
 9455SOL    HW129264   4.321   1.008   1.644
 9455SOL    HW229265   4.343   0.848   1.624
 9456SOL     OW29266   6.327   2.026   3.192
 9456SOL    HW129267   6.336   1.995   3.098
 9456SOL    HW229268   6.320   1.946   3.253
 9457SOL     OW29269   6.643   6.137   4.431
 9457SOL    HW129270   6.559   6.155   4.482
 9457SOL    HW229271   6.638   6.047   4.389
 9458SOL     OW29272   5.823   4.196   0.194
 9458SOL    HW129273   5.745   4.252   0.165
 9458SOL    HW229274   5.907   4.248   0.180
 9459SOL     OW29275   4.756   4.569   4.860
 9459SOL    HW129276   4.794   4.646   4.911
 9459SOL    HW229277   4.662   4.589   4.835
 9460SOL     OW29278   1.172   3.028   2.167
 9460SOL    HW129279   1.147   2.934   2.190
 9460SOL    HW229280   1.207   3.074   2.249
 9461SOL     OW29281   1.659   1.396   1.655
 9461SOL    HW129282   1.617   1.479   1.619
 9461SOL    HW229283   1.717   1.354   1.585
 9462SOL     OW29284   6.462   1.018   5.280
 9462SOL    HW129285   6.458   1.096   5.216
 9462SOL    HW229286   6.556   1.006   5.311
 9463SOL     OW29287   6.678   4.116   0.390
 9463SOL    HW129288   6.673   4.144   0.486
 9463SOL    HW229289   6.706   4.021   0.384
 9464SOL     OW29290   1.371   0.581   1.461
 9464SOL    HW129291   1.390   0.652   1.529
 9464SOL    HW229292   1.448   0.574   1.398
 9465SOL     OW29293   6.816   5.741   0.273
 9465SOL    HW129294   6.803   5.801   0.352
 9465SOL    HW229295   6.832   5.647   0.304
 9466SOL     OW29296   4.526   3.574   5.373
 9466SOL    HW129297   4.522   3.476   5.392
 9466SOL    HW229298   4.591   3.591   5.299
 9467SOL     OW29299   1.117   3.227   0.770
 9467SOL    HW129300   1.166   3.140   0.779
 9467SOL    HW229301   1.041   3.217   0.706
 9468SOL     OW29302   5.507   1.435   0.926
 9468SOL    HW129303   5.602   1.420   0.902
 9468SOL    HW229304   5.488   1.394   1.015
 9469SOL     OW29305   6.660   7.008   1.537
 9469SOL    HW129306   6.573   7.015   1.586
 9469SOL    HW229307   6.653   6.941   1.464
 9470SOL     OW29308   4.055   3.076   0.615
 9470SOL    HW129309   3.979   3.052   0.555
 9470SOL    HW229310   4.098   2.992   0.648
 9471SOL     OW29311   6.445   2.640   5.054
 9471SOL    HW129312   6.360   2.688   5.032
 9471SOL    HW229313   6.516   2.665   4.988
 9472SOL     OW29314   1.686   3.859   5.557
 9472SOL    HW129315   1.593   3.879   5.588
 9472SOL    HW229316   1.720   3.779   5.605
 9473SOL     OW29317   2.796   3.639   1.138
 9473SOL    HW129318   2.758   3.633   1.231
 9473SOL    HW229319   2.864   3.566   1.125
 9474SOL     OW29320   5.456   4.375   0.879
 9474SOL    HW129321   5.525   4.440   0.910
 9474SOL    HW229322   5.500   4.291   0.847
 9475SOL     OW29323   5.090   3.882   5.560
 9475SOL    HW129324   4.994   3.877   5.586
 9475SOL    HW229325   5.098   3.887   5.460
 9476SOL     OW29326   4.373   3.830   1.223
 9476SOL    HW129327   4.395   3.735   1.203
 9476SOL    HW229328   4.283   3.836   1.267
 9477SOL     OW29329   2.682   4.432   0.909
 9477SOL    HW129330   2.624   4.502   0.868
 9477SOL    HW229331   2.630   4.380   0.976
 9478SOL     OW29332   5.621   3.895   6.303
 9478SOL    HW129333   5.657   3.965   6.241
 9478SOL    HW229334   5.565   3.939   6.374
 9479SOL     OW29335   4.708   0.792   2.049
 9479SOL    HW129336   4.791   0.748   2.084
 9479SOL    HW229337   4.647   0.814   2.125
 9480SOL     OW29338   5.653   0.723   0.679
 9480SOL    HW129339   5.683   0.699   0.587
 9480SOL    HW229340   5.730   0.759   0.731
 9481SOL     OW29341   4.855   0.366   3.429
 9481SOL    HW129342   4.902   0.367   3.341
 9481SOL    HW229343   4.765   0.409   3.419
 9482SOL     OW29344   6.147   5.539   5.986
 9482SOL    HW129345   6.176   5.531   5.891
 9482SOL    HW229346   6.118   5.450   6.020
 9483SOL     OW29347   6.627   6.680   6.867
 9483SOL    HW129348   6.639   6.777   6.846
 9483SOL    HW229349   6.555   6.641   6.808
 9484SOL     OW29350   3.017   5.705   4.500
 9484SOL    HW129351   2.997   5.663   4.411
 9484SOL    HW229352   3.026   5.633   4.569
 9485SOL     OW29353   0.205   1.629   5.616
 9485SOL    HW129354   0.165   1.603   5.704
 9485SOL    HW229355   0.207   1.550   5.555
 9486SOL     OW29356   6.295   5.265   6.696
 9486SOL    HW129357   6.282   5.287   6.792
 9486SOL    HW229358   6.383   5.217   6.684
 9487SOL     OW29359   3.667   3.589   3.578
 9487SOL    HW129360   3.605   3.519   3.541
 9487SOL    HW229361   3.626   3.679   3.567
 9488SOL     OW29362   1.614   0.933   1.542
 9488SOL    HW129363   1.686   0.888   1.491
 9488SOL    HW229364   1.525   0.909   1.503
 9489SOL     OW29365   5.650   3.667   0.266
 9489SOL    HW129366   5.633   3.574   0.297
 9489SOL    HW229367   5.591   3.687   0.188
 9490SOL     OW29368   5.455   3.857   5.250
 9490SOL    HW129369   5.553   3.870   5.270
 9490SOL    HW229370   5.441   3.769   5.205
 9491SOL     OW29371   5.980   0.492   2.869
 9491SOL    HW129372   5.903   0.431   2.850
 9491SOL    HW229373   6.035   0.504   2.786
 9492SOL     OW29374   5.029   2.687   3.552
 9492SOL    HW129375   4.931   2.694   3.570
 9492SOL    HW229376   5.067   2.779   3.540
 9493SOL     OW29377   3.824   6.274   1.166
 9493SOL    HW129378   3.814   6.367   1.200
 9493SOL    HW229379   3.761   6.213   1.216
 9494SOL     OW29380   5.584   2.380   1.740
 9494SOL    HW129381   5.632   2.467   1.750
 9494SOL    HW229382   5.502   2.393   1.684
 9495SOL     OW29383   5.835   2.567   1.132
 9495SOL    HW129384   5.834   2.475   1.174
 9495SOL    HW229385   5.906   2.570   1.062
 9496SOL     OW29386   5.911   2.437   1.411
 9496SOL    HW129387   5.854   2.519   1.402
 9496SOL    HW229388   5.858   2.364   1.453
 9497SOL     OW29389   4.482   4.923   4.954
 9497SOL    HW129390   4.393   4.878   4.964
 9497SOL    HW229391   4.496   4.948   4.858
 9498SOL     OW29392   0.893   5.574   4.529
 9498SOL    HW129393   0.833   5.494   4.534
 9498SOL    HW229394   0.924   5.588   4.435
 9499SOL     OW29395   5.730   6.041   4.279
 9499SOL    HW129396   5.659   6.104   4.249
 9499SOL    HW229397   5.718   5.952   4.235
 9500SOL     OW29398   2.914   1.269   0.666
 9500SOL    HW129399   2.900   1.363   0.696
 9500SOL    HW229400   2.831   1.236   0.621
 9501SOL     OW29401   2.058   3.862   4.930
 9501SOL    HW129402   2.014   3.949   4.910
 9501SOL    HW229403   2.140   3.877   4.986
 9502SOL     OW29404   5.404   4.644   3.992
 9502SOL    HW129405   5.353   4.730   3.989
 9502SOL    HW229406   5.492   4.656   3.945
 9503SOL     OW29407   6.051   0.632   0.373
 9503SOL    HW129408   6.023   0.561   0.309
 9503SOL    HW229409   6.066   0.592   0.463
 9504SOL     OW29410   6.142   5.668   1.645
 9504SOL    HW129411   6.131   5.745   1.708
 9504SOL    HW229412   6.060   5.660   1.588
 9505SOL     OW29413   4.680   4.237   6.109
 9505SOL    HW129414   4.622   4.317   6.100
 9505SOL    HW229415   4.762   4.247   6.053
 9506SOL     OW29416   2.711   0.760   1.072
 9506SOL    HW129417   2.762   0.693   1.019
 9506SOL    HW229418   2.746   0.852   1.053
 9507SOL     OW29419   6.097   6.880   2.249
 9507SOL    HW129420   6.112   6.978   2.262
 9507SOL    HW229421   6.154   6.829   2.313
 9508SOL     OW29422   4.713   1.192   2.532
 9508SOL    HW129423   4.755   1.169   2.620
 9508SOL    HW229424   4.642   1.261   2.545
 9509SOL     OW29425   5.572   1.105   3.848
 9509SOL    HW129426   5.486   1.053   3.847
 9509SOL    HW229427   5.604   1.119   3.754
 9510SOL     OW29428   1.947   2.828   3.104
 9510SOL    HW129429   1.922   2.922   3.082
 9510SOL    HW229430   2.020   2.827   3.171
 9511SOL     OW29431   0.474   1.990   1.156
 9511SOL    HW129432   0.540   1.950   1.220
 9511SOL    HW229433   0.454   1.925   1.083
 9512SOL     OW29434   6.244   1.860   1.756
 9512SOL    HW129435   6.297   1.943   1.737
 9512SOL    HW229436   6.174   1.848   1.686
 9513SOL     OW29437   4.902   3.720   5.303
 9513SOL    HW129438   4.819   3.699   5.251
 9513SOL    HW229439   4.877   3.755   5.393
 9514SOL     OW29440   3.769   2.957   0.255
 9514SOL    HW129441   3.670   2.969   0.246
 9514SOL    HW229442   3.807   2.922   0.169
 9515SOL     OW29443   0.906   5.846   3.759
 9515SOL    HW129444   0.816   5.803   3.773
 9515SOL    HW229445   0.894   5.932   3.710
 9516SOL     OW29446   6.784   3.960   6.011
 9516SOL    HW129447   6.698   3.918   5.982
 9516SOL    HW229448   6.776   3.989   6.106
 9517SOL     OW29449   0.182   6.568   1.415
 9517SOL    HW129450   0.199   6.571   1.514
 9517SOL    HW229451   0.269   6.562   1.367
 9518SOL     OW29452   1.307   0.703   1.153
 9518SOL    HW129453   1.243   0.634   1.185
 9518SOL    HW229454   1.297   0.715   1.054
 9519SOL     OW29455   0.935   2.623   5.484
 9519SOL    HW129456   0.880   2.639   5.402
 9519SOL    HW229457   0.922   2.700   5.547
 9520SOL     OW29458   3.822   6.740   1.553
 9520SOL    HW129459   3.828   6.776   1.459
 9520SOL    HW229460   3.910   6.700   1.578
 9521SOL     OW29461   5.392   5.468   3.579
 9521SOL    HW129462   5.425   5.512   3.496
 9521SOL    HW229463   5.468   5.420   3.624
 9522SOL     OW29464   3.371   5.102   6.711
 9522SOL    HW129465   3.390   5.005   6.723
 9522SOL    HW229466   3.347   5.121   6.616
 9523SOL     OW29467   2.743   6.460   5.615
 9523SOL    HW129468   2.790   6.543   5.644
 9523SOL    HW229469   2.655   6.484   5.574
 9524SOL     OW29470   4.680   2.354   0.969
 9524SOL    HW129471   4.699   2.329   1.064
 9524SOL    HW229472   4.624   2.282   0.927
 9525SOL     OW29473   3.691   0.361   4.626
 9525SOL    HW129474   3.600   0.337   4.590
 9525SOL    HW229475   3.709   0.305   4.707
 9526SOL     OW29476   4.631   6.182   1.925
 9526SOL    HW129477   4.590   6.150   2.010
 9526SOL    HW229478   4.681   6.267   1.942
 9527SOL     OW29479   6.725   2.049   1.118
 9527SOL    HW129480   6.821   2.076   1.111
 9527SOL    HW229481   6.671   2.103   1.053
 9528SOL     OW29482   6.782   1.199   1.604
 9528SOL    HW129483   6.774   1.143   1.687
 9528SOL    HW229484   6.785   1.140   1.524
 9529SOL     OW29485   1.004   3.562   4.866
 9529SOL    HW129486   1.041   3.497   4.932
 9529SOL    HW229487   0.973   3.513   4.785
 9530SOL     OW29488   1.620   2.141   4.200
 9530SOL    HW129489   1.627   2.184   4.290
 9530SOL    HW229490   1.525   2.113   4.184
 9531SOL     OW29491   2.907   6.250   3.608
 9531SOL    HW129492   2.988   6.190   3.607
 9531SOL    HW229493   2.889   6.282   3.516
 9532SOL     OW29494   2.960   1.591   1.699
 9532SOL    HW129495   3.011   1.662   1.748
 9532SOL    HW229496   2.880   1.632   1.655
 9533SOL     OW29497   0.868   1.263   4.898
 9533SOL    HW129498   0.869   1.318   4.814
 9533SOL    HW229499   0.950   1.206   4.901
 9534SOL     OW29500   5.762   1.656   4.477
 9534SOL    HW129501   5.829   1.724   4.507
 9534SOL    HW229502   5.783   1.567   4.519
 9535SOL     OW29503   3.219   2.070   4.617
 9535SOL    HW129504   3.171   2.124   4.685
 9535SOL    HW229505   3.154   2.035   4.549
 9536SOL     OW29506   2.657   6.416   6.389
 9536SOL    HW129507   2.698   6.505   6.374
 9536SOL    HW229508   2.704   6.369   6.464
 9537SOL     OW29509   2.817   6.622   0.794
 9537SOL    HW129510   2.878   6.579   0.860
 9537SOL    HW229511   2.724   6.623   0.831
 9538SOL     OW29512   5.973   3.871   3.273
 9538SOL    HW129513   5.982   3.868   3.174
 9538SOL    HW229514   5.878   3.856   3.299
 9539SOL     OW29515   0.389   3.599   6.814
 9539SOL    HW129516   0.317   3.582   6.881
 9539SOL    HW229517   0.460   3.657   6.854
 9540SOL     OW29518   5.151   3.246   5.579
 9540SOL    HW129519   5.250   3.236   5.586
 9540SOL    HW229520   5.113   3.275   5.667
 9541SOL     OW29521   7.002   1.721   3.680
 9541SOL    HW129522   6.935   1.704   3.753
 9541SOL    HW229523   6.953   1.733   3.594
 9542SOL     OW29524   4.629   4.367   4.304
 9542SOL    HW129525   4.600   4.407   4.390
 9542SOL    HW229526   4.597   4.423   4.228
 9543SOL     OW29527   5.136   2.311   1.846
 9543SOL    HW129528   5.093   2.397   1.875
 9543SOL    HW229529   5.065   2.240   1.837
 9544SOL     OW29530   4.068   1.200   1.418
 9544SOL    HW129531   4.140   1.229   1.482
 9544SOL    HW229532   4.029   1.113   1.450
 9545SOL     OW29533   1.424   0.475   4.658
 9545SOL    HW129534   1.377   0.389   4.638
 9545SOL    HW229535   1.361   0.535   4.708
 9546SOL     OW29536   2.470   4.787   2.039
 9546SOL    HW129537   2.416   4.702   2.045
 9546SOL    HW229538   2.534   4.781   1.963
 9547SOL     OW29539   5.836   5.449   3.349
 9547SOL    HW129540   5.871   5.426   3.440
 9547SOL    HW229541   5.743   5.414   3.341
 9548SOL     OW29542   5.180   0.581   2.861
 9548SOL    HW129543   5.126   0.656   2.901
 9548SOL    HW229544   5.149   0.494   2.900
 9549SOL     OW29545   2.604   5.668   0.253
 9549SOL    HW129546   2.538   5.716   0.196
 9549SOL    HW229547   2.629   5.725   0.331
 9550SOL     OW29548   1.421   1.403   0.335
 9550SOL    HW129549   1.392   1.493   0.302
 9550SOL    HW229550   1.341   1.343   0.340
 9551SOL     OW29551   1.817   5.609   5.126
 9551SOL    HW129552   1.774   5.576   5.042
 9551SOL    HW229553   1.848   5.531   5.180
 9552SOL     OW29554   0.695   5.277   3.653
 9552SOL    HW129555   0.631   5.218   3.702
 9552SOL    HW229556   0.713   5.239   3.562
 9553SOL     OW29557   5.444   4.512   6.296
 9553SOL    HW129558   5.452   4.494   6.198
 9553SOL    HW229559   5.487   4.600   6.317
 9554SOL     OW29560   1.683   1.705   1.335
 9554SOL    HW129561   1.729   1.712   1.424
 9554SOL    HW229562   1.733   1.758   1.267
 9555SOL     OW29563   6.721   2.531   6.022
 9555SOL    HW129564   6.818   2.544   6.003
 9555SOL    HW229565   6.691   2.442   5.987
 9556SOL     OW29566   6.635   1.116   0.658
 9556SOL    HW129567   6.594   1.067   0.735
 9556SOL    HW229568   6.587   1.203   0.645
 9557SOL     OW29569   4.997   1.599   2.099
 9557SOL    HW129570   5.056   1.520   2.116
 9557SOL    HW229571   5.043   1.683   2.129
 9558SOL     OW29572   6.376   4.143   1.434
 9558SOL    HW129573   6.404   4.206   1.361
 9558SOL    HW229574   6.443   4.070   1.442
 9559SOL     OW29575   6.934   4.197   2.473
 9559SOL    HW129576   6.981   4.127   2.420
 9559SOL    HW229577   6.904   4.271   2.412
 9560SOL     OW29578   4.050   2.176   4.995
 9560SOL    HW129579   3.983   2.249   5.007
 9560SOL    HW229580   4.130   2.210   4.946
 9561SOL     OW29581   3.070   6.511   5.717
 9561SOL    HW129582   3.117   6.599   5.710
 9561SOL    HW229583   3.005   6.502   5.641
 9562SOL     OW29584   6.044   4.935   4.391
 9562SOL    HW129585   6.064   5.015   4.446
 9562SOL    HW229586   5.962   4.951   4.337
 9563SOL     OW29587   0.647   6.409   6.917
 9563SOL    HW129588   0.703   6.353   6.979
 9563SOL    HW229589   0.557   6.366   6.905
 9564SOL     OW29590   1.414   0.624   6.006
 9564SOL    HW129591   1.378   0.716   5.988
 9564SOL    HW229592   1.514   0.627   6.007
 9565SOL     OW29593   3.624   5.967   4.370
 9565SOL    HW129594   3.716   5.930   4.369
 9565SOL    HW229595   3.567   5.913   4.433
 9566SOL     OW29596   3.270   4.901   6.005
 9566SOL    HW129597   3.296   4.919   5.911
 9566SOL    HW229598   3.239   4.806   6.014
 9567SOL     OW29599   6.207   4.949   4.976
 9567SOL    HW129600   6.277   5.020   4.990
 9567SOL    HW229601   6.156   4.969   4.892
 9568SOL     OW29602   5.176   4.213   6.144
 9568SOL    HW129603   5.127   4.233   6.059
 9568SOL    HW229604   5.174   4.293   6.203
 9569SOL     OW29605   5.780   0.098   2.009
 9569SOL    HW129606   5.710   0.109   1.938
 9569SOL    HW229607   5.832   0.183   2.017
 9570SOL     OW29608   1.243   1.519   6.856
 9570SOL    HW129609   1.280   1.594   6.801
 9570SOL    HW229610   1.207   1.448   6.796
 9571SOL     OW29611   2.678   2.385   0.926
 9571SOL    HW129612   2.667   2.476   0.885
 9571SOL    HW229613   2.589   2.352   0.957
 9572SOL     OW29614   0.640   3.668   1.181
 9572SOL    HW129615   0.542   3.680   1.198
 9572SOL    HW229616   0.656   3.666   1.082
 9573SOL     OW29617   5.272   1.338   2.935
 9573SOL    HW129618   5.200   1.400   2.904
 9573SOL    HW229619   5.330   1.386   3.001
 9574SOL     OW29620   2.871   2.262   3.726
 9574SOL    HW129621   2.923   2.261   3.811
 9574SOL    HW229622   2.807   2.185   3.726
 9575SOL     OW29623   4.170   1.425   2.854
 9575SOL    HW129624   4.262   1.392   2.833
 9575SOL    HW229625   4.119   1.436   2.768
 9576SOL     OW29626   3.973   2.890   5.278
 9576SOL    HW129627   3.983   2.916   5.182
 9576SOL    HW229628   4.030   2.810   5.296
 9577SOL     OW29629   0.955   6.091   3.607
 9577SOL    HW129630   0.971   6.116   3.512
 9577SOL    HW229631   0.892   6.156   3.649
 9578SOL     OW29632   6.764   4.033   1.328
 9578SOL    HW129633   6.814   3.947   1.323
 9578SOL    HW229634   6.735   4.061   1.237
 9579SOL     OW29635   1.988   5.207   2.881
 9579SOL    HW129636   1.960   5.211   2.977
 9579SOL    HW229637   1.974   5.296   2.838
 9580SOL     OW29638   4.410   3.435   5.676
 9580SOL    HW129639   4.422   3.527   5.714
 9580SOL    HW229640   4.423   3.367   5.748
 9581SOL     OW29641   1.176   5.629   5.564
 9581SOL    HW129642   1.106   5.607   5.496
 9581SOL    HW229643   1.259   5.576   5.547
 9582SOL     OW29644   4.674   5.108   3.139
 9582SOL    HW129645   4.763   5.133   3.177
 9582SOL    HW229646   4.681   5.019   3.093
 9583SOL     OW29647   2.048   4.808   1.756
 9583SOL    HW129648   1.969   4.800   1.817
 9583SOL    HW229649   2.098   4.721   1.756
 9584SOL     OW29650   5.258   4.995   0.208
 9584SOL    HW129651   5.300   5.079   0.242
 9584SOL    HW229652   5.170   5.017   0.164
 9585SOL     OW29653   0.008   0.968   3.101
 9585SOL    HW129654   7.018   1.057   3.143
 9585SOL    HW229655   7.007   0.971   3.005
 9586SOL     OW29656   5.185   3.639   2.621
 9586SOL    HW129657   5.217   3.691   2.541
 9586SOL    HW229658   5.097   3.597   2.601
 9587SOL     OW29659   4.755   6.280   1.444
 9587SOL    HW129660   4.757   6.282   1.344
 9587SOL    HW229661   4.849   6.270   1.478
 9588SOL     OW29662   6.596   1.143   3.284
 9588SOL    HW129663   6.503   1.172   3.306
 9588SOL    HW229664   6.627   1.075   3.350
 9589SOL     OW29665   2.857   1.907   4.791
 9589SOL    HW129666   2.865   1.879   4.696
 9589SOL    HW229667   2.943   1.948   4.821
 9590SOL     OW29668   0.680   4.883   4.539
 9590SOL    HW129669   0.630   4.867   4.453
 9590SOL    HW229670   0.759   4.941   4.521
 9591SOL     OW29671   1.480   4.356   2.553
 9591SOL    HW129672   1.553   4.308   2.600
 9591SOL    HW229673   1.393   4.337   2.598
 9592SOL     OW29674   4.744   5.792   0.902
 9592SOL    HW129675   4.704   5.739   0.828
 9592SOL    HW229676   4.825   5.745   0.937
 9593SOL     OW29677   2.413   2.248   2.992
 9593SOL    HW129678   2.427   2.228   3.089
 9593SOL    HW229679   2.450   2.338   2.970
 9594SOL     OW29680   5.910   0.050   0.892
 9594SOL    HW129681   5.834   0.087   0.838
 9594SOL    HW229682   5.899   6.979   0.903
 9595SOL     OW29683   1.000   5.594   4.788
 9595SOL    HW129684   0.970   5.592   4.692
 9595SOL    HW229685   0.939   5.538   4.844
 9596SOL     OW29686   5.154   5.696   1.908
 9596SOL    HW129687   5.130   5.599   1.902
 9596SOL    HW229688   5.152   5.725   2.004
 9597SOL     OW29689   2.347   4.431   1.209
 9597SOL    HW129690   2.253   4.454   1.181
 9597SOL    HW229691   2.376   4.495   1.281
 9598SOL     OW29692   0.537   6.106   5.612
 9598SOL    HW129693   0.555   6.008   5.600
 9598SOL    HW229694   0.439   6.123   5.606
 9599SOL     OW29695   3.820   1.733   4.917
 9599SOL    HW129696   3.889   1.661   4.912
 9599SOL    HW229697   3.729   1.693   4.912
 9600SOL     OW29698   1.304   6.589   6.752
 9600SOL    HW129699   1.325   6.586   6.849
 9600SOL    HW229700   1.207   6.565   6.738
 9601SOL     OW29701   0.729   6.559   5.206
 9601SOL    HW129702   0.637   6.589   5.234
 9601SOL    HW229703   0.742   6.464   5.235
 9602SOL     OW29704   1.473   5.101   6.444
 9602SOL    HW129705   1.517   5.182   6.482
 9602SOL    HW229706   1.386   5.085   6.491
 9603SOL     OW29707   1.123   4.797   2.422
 9603SOL    HW129708   1.156   4.710   2.385
 9603SOL    HW229709   1.140   4.869   2.355
 9604SOL     OW29710   6.987   6.976   6.451
 9604SOL    HW129711   7.014   7.005   6.359
 9604SOL    HW229712   6.904   7.026   6.478
 9605SOL     OW29713   2.820   4.790   0.768
 9605SOL    HW129714   2.906   4.822   0.729
 9605SOL    HW229715   2.820   4.807   0.867
 9606SOL     OW29716   6.951   0.034   5.287
 9606SOL    HW129717   6.868   7.018   5.323
 9606SOL    HW229718   0.002   7.000   5.300
 9607SOL     OW29719   6.885   2.287   2.409
 9607SOL    HW129720   6.788   2.277   2.431
 9607SOL    HW229721   6.924   2.362   2.462
 9608SOL     OW29722   6.659   0.603   2.313
 9608SOL    HW129723   6.741   0.574   2.361
 9608SOL    HW229724   6.634   0.534   2.245
 9609SOL     OW29725   1.783   2.040   3.375
 9609SOL    HW129726   1.726   1.990   3.440
 9609SOL    HW229727   1.872   2.059   3.416
 9610SOL     OW29728   3.532   0.970   5.352
 9610SOL    HW129729   3.538   0.913   5.434
 9610SOL    HW229730   3.611   1.031   5.348
 9611SOL     OW29731   5.120   5.997   0.964
 9611SOL    HW129732   5.035   5.944   0.970
 9611SOL    HW229733   5.194   5.936   0.936
 9612SOL     OW29734   5.494   3.581   3.505
 9612SOL    HW129735   5.408   3.543   3.539
 9612SOL    HW229736   5.501   3.678   3.531
 9613SOL     OW29737   5.741   0.971   5.099
 9613SOL    HW129738   5.803   0.972   5.020
 9613SOL    HW229739   5.647   0.986   5.068
 9614SOL     OW29740   2.793   2.407   0.545
 9614SOL    HW129741   2.837   2.496   0.561
 9614SOL    HW229742   2.823   2.342   0.615
 9615SOL     OW29743   0.648   5.768   3.717
 9615SOL    HW129744   0.624   5.673   3.696
 9615SOL    HW229745   0.566   5.818   3.741
 9616SOL     OW29746   1.007   2.412   1.056
 9616SOL    HW129747   0.966   2.486   1.109
 9616SOL    HW229748   1.035   2.446   0.966
 9617SOL     OW29749   0.180   3.026   2.538
 9617SOL    HW129750   0.120   2.960   2.583
 9617SOL    HW229751   0.274   2.991   2.537
 9618SOL     OW29752   4.848   3.762   1.409
 9618SOL    HW129753   4.782   3.772   1.484
 9618SOL    HW229754   4.940   3.773   1.445
 9619SOL     OW29755   0.399   6.799   1.276
 9619SOL    HW129756   0.363   6.888   1.249
 9619SOL    HW229757   0.401   6.793   1.376
 9620SOL     OW29758   3.244   1.555   6.878
 9620SOL    HW129759   3.272   1.520   6.789
 9620SOL    HW229760   3.236   1.479   6.943
 9621SOL     OW29761   0.175   0.765   1.538
 9621SOL    HW129762   0.185   0.838   1.606
 9621SOL    HW229763   0.196   0.801   1.447
 9622SOL     OW29764   6.413   5.875   5.811
 9622SOL    HW129765   6.424   5.803   5.880
 9622SOL    HW229766   6.466   5.853   5.730
 9623SOL     OW29767   3.350   5.808   5.360
 9623SOL    HW129768   3.273   5.845   5.308
 9623SOL    HW229769   3.407   5.884   5.392
 9624SOL     OW29770   4.136   5.544   5.506
 9624SOL    HW129771   4.180   5.497   5.430
 9624SOL    HW229772   4.147   5.491   5.590
 9625SOL     OW29773   4.507   4.090   6.261
 9625SOL    HW129774   4.558   4.061   6.342
 9625SOL    HW229775   4.570   4.107   6.186
 9626SOL     OW29776   2.848   2.361   6.381
 9626SOL    HW129777   2.808   2.271   6.363
 9626SOL    HW229778   2.834   2.385   6.477
 9627SOL     OW29779   0.234   5.836   0.653
 9627SOL    HW129780   0.148   5.813   0.699
 9627SOL    HW229781   0.240   5.786   0.567
 9628SOL     OW29782   6.018   1.331   5.870
 9628SOL    HW129783   6.009   1.241   5.913
 9628SOL    HW229784   5.989   1.402   5.934
 9629SOL     OW29785   0.567   5.524   3.620
 9629SOL    HW129786   0.498   5.526   3.692
 9629SOL    HW229787   0.607   5.433   3.614
 9630SOL     OW29788   5.239   1.434   6.339
 9630SOL    HW129789   5.303   1.394   6.404
 9630SOL    HW229790   5.236   1.533   6.351
 9631SOL     OW29791   4.622   6.581   0.505
 9631SOL    HW129792   4.715   6.609   0.531
 9631SOL    HW229793   4.574   6.545   0.586
 9632SOL     OW29794   2.471   5.101   3.129
 9632SOL    HW129795   2.457   5.176   3.193
 9632SOL    HW229796   2.415   5.116   3.047
 9633SOL     OW29797   3.659   3.008   4.975
 9633SOL    HW129798   3.659   2.958   5.061
 9633SOL    HW229799   3.597   3.087   4.983
 9634SOL     OW29800   5.480   4.834   3.152
 9634SOL    HW129801   5.549   4.796   3.215
 9634SOL    HW229802   5.424   4.901   3.201
 9635SOL     OW29803   0.630   4.835   3.933
 9635SOL    HW129804   0.599   4.916   3.983
 9635SOL    HW229805   0.551   4.785   3.898
 9636SOL     OW29806   5.950   3.634   3.967
 9636SOL    HW129807   6.031   3.626   3.908
 9636SOL    HW229808   5.949   3.725   4.010
 9637SOL     OW29809   1.547   3.460   0.050
 9637SOL    HW129810   1.584   3.535   7.022
 9637SOL    HW229811   1.554   3.484   0.147
 9638SOL     OW29812   6.197   5.488   5.723
 9638SOL    HW129813   6.273   5.431   5.692
 9638SOL    HW229814   6.126   5.490   5.653
 9639SOL     OW29815   4.783   2.299   1.655
 9639SOL    HW129816   4.779   2.394   1.685
 9639SOL    HW229817   4.728   2.289   1.571
 9640SOL     OW29818   3.590   0.187   3.056
 9640SOL    HW129819   3.564   0.196   3.153
 9640SOL    HW229820   3.515   0.143   3.006
 9641SOL     OW29821   6.908   2.883   5.142
 9641SOL    HW129822   6.887   2.846   5.052
 9641SOL    HW229823   6.920   2.808   5.207
 9642SOL     OW29824   0.556   2.550   4.843
 9642SOL    HW129825   0.506   2.614   4.902
 9642SOL    HW229826   0.518   2.553   4.751
 9643SOL     OW29827   5.555   4.915   4.598
 9643SOL    HW129828   5.462   4.937   4.626
 9643SOL    HW229829   5.617   4.990   4.622
 9644SOL     OW29830   1.427   4.788   3.944
 9644SOL    HW129831   1.449   4.691   3.932
 9644SOL    HW229832   1.474   4.842   3.874
 9645SOL     OW29833   1.417   4.697   6.547
 9645SOL    HW129834   1.445   4.732   6.636
 9645SOL    HW229835   1.317   4.686   6.545
 9646SOL     OW29836   3.204   5.495   0.481
 9646SOL    HW129837   3.271   5.484   0.554
 9646SOL    HW229838   3.251   5.504   0.393
 9647SOL     OW29839   5.875   6.923   3.047
 9647SOL    HW129840   5.952   6.861   3.031
 9647SOL    HW229841   5.909   7.007   3.090
 9648SOL     OW29842   2.774   1.755   1.158
 9648SOL    HW129843   2.800   1.850   1.174
 9648SOL    HW229844   2.720   1.721   1.235
 9649SOL     OW29845   0.417   5.550   1.185
 9649SOL    HW129846   0.460   5.632   1.224
 9649SOL    HW229847   0.332   5.575   1.139
 9650SOL     OW29848   1.022   4.737   4.452
 9650SOL    HW129849   0.930   4.713   4.421
 9650SOL    HW229850   1.046   4.680   4.531
 9651SOL     OW29851   3.731   1.843   6.501
 9651SOL    HW129852   3.658   1.844   6.433
 9651SOL    HW229853   3.727   1.926   6.556
 9652SOL     OW29854   0.374   4.051   0.464
 9652SOL    HW129855   0.348   4.102   0.546
 9652SOL    HW229856   0.444   4.102   0.414
 9653SOL     OW29857   5.018   4.591   5.677
 9653SOL    HW129858   4.989   4.681   5.643
 9653SOL    HW229859   5.087   4.553   5.615
 9654SOL     OW29860   3.777   3.870   2.802
 9654SOL    HW129861   3.844   3.799   2.782
 9654SOL    HW229862   3.791   3.904   2.895
 9655SOL     OW29863   4.734   1.672   1.089
 9655SOL    HW129864   4.744   1.699   1.185
 9655SOL    HW229865   4.684   1.586   1.083
 9656SOL     OW29866   4.874   4.265   6.543
 9656SOL    HW129867   4.970   4.246   6.564
 9656SOL    HW229868   4.857   4.244   6.447
 9657SOL     OW29869   5.114   4.675   3.863
 9657SOL    HW129870   5.015   4.690   3.866
 9657SOL    HW229871   5.138   4.604   3.929
 9658SOL     OW29872   5.670   1.459   2.712
 9658SOL    HW129873   5.766   1.479   2.730
 9658SOL    HW229874   5.662   1.408   2.627
 9659SOL     OW29875   3.303   2.873   6.736
 9659SOL    HW129876   3.239   2.891   6.662
 9659SOL    HW229877   3.354   2.789   6.717
 9660SOL     OW29878   1.631   6.455   1.174
 9660SOL    HW129879   1.549   6.502   1.205
 9660SOL    HW229880   1.605   6.374   1.120
 9661SOL     OW29881   4.055   3.078   2.040
 9661SOL    HW129882   4.139   3.039   2.002
 9661SOL    HW229883   3.976   3.037   1.994
 9662SOL     OW29884   4.847   6.677   5.829
 9662SOL    HW129885   4.796   6.743   5.774
 9662SOL    HW229886   4.859   6.714   5.922
 9663SOL     OW29887   1.276   5.655   2.953
 9663SOL    HW129888   1.252   5.568   2.910
 9663SOL    HW229889   1.317   5.716   2.884
 9664SOL     OW29890   3.228   5.112   2.463
 9664SOL    HW129891   3.308   5.081   2.514
 9664SOL    HW229892   3.186   5.190   2.511
 9665SOL     OW29893   6.215   4.671   6.289
 9665SOL    HW129894   6.166   4.592   6.326
 9665SOL    HW229895   6.296   4.690   6.345
 9666SOL     OW29896   5.506   3.754   0.932
 9666SOL    HW129897   5.481   3.742   0.836
 9666SOL    HW229898   5.449   3.826   0.972
 9667SOL     OW29899   5.498   6.664   0.015
 9667SOL    HW129900   5.467   6.605   0.090
 9667SOL    HW229901   5.420   6.712   7.003
 9668SOL     OW29902   1.620   1.055   6.279
 9668SOL    HW129903   1.603   0.967   6.325
 9668SOL    HW229904   1.667   1.117   6.342
 9669SOL     OW29905   2.847   0.435   0.029
 9669SOL    HW129906   2.791   0.357   0.060
 9669SOL    HW229907   2.911   0.404   6.986
 9670SOL     OW29908   0.805   0.823   0.776
 9670SOL    HW129909   0.879   0.888   0.792
 9670SOL    HW229910   0.828   0.735   0.816
 9671SOL     OW29911   1.187   5.352   6.247
 9671SOL    HW129912   1.170   5.256   6.269
 9671SOL    HW229913   1.164   5.369   6.151
 9672SOL     OW29914   0.689   3.710   4.165
 9672SOL    HW129915   0.662   3.693   4.260
 9672SOL    HW229916   0.780   3.671   4.149
 9673SOL     OW29917   2.395   2.909   6.794
 9673SOL    HW129918   2.363   2.823   6.755
 9673SOL    HW229919   2.382   2.983   6.728
 9674SOL     OW29920   1.672   6.852   4.052
 9674SOL    HW129921   1.690   6.820   4.145
 9674SOL    HW229922   1.690   6.778   3.987
 9675SOL     OW29923   6.241   4.308   5.966
 9675SOL    HW129924   6.300   4.232   5.995
 9675SOL    HW229925   6.201   4.287   5.877
 9676SOL     OW29926   0.612   3.476   5.443
 9676SOL    HW129927   0.659   3.388   5.440
 9676SOL    HW229928   0.639   3.530   5.364
 9677SOL     OW29929   6.906   4.946   2.618
 9677SOL    HW129930   6.838   4.875   2.600
 9677SOL    HW229931   6.943   4.980   2.531
 9678SOL     OW29932   3.687   3.259   5.388
 9678SOL    HW129933   3.652   3.217   5.472
 9678SOL    HW229934   3.786   3.248   5.384
 9679SOL     OW29935   1.509   0.837   3.950
 9679SOL    HW129936   1.506   0.845   3.850
 9679SOL    HW229937   1.514   0.929   3.990
 9680SOL     OW29938   4.423   0.783   2.508
 9680SOL    HW129939   4.384   0.857   2.452
 9680SOL    HW229940   4.467   0.716   2.448
 9681SOL     OW29941   1.370   3.079   1.328
 9681SOL    HW129942   1.367   3.157   1.264
 9681SOL    HW229943   1.427   3.104   1.406
 9682SOL     OW29944   4.868   0.016   5.910
 9682SOL    HW129945   4.938   0.070   5.957
 9682SOL    HW229946   4.901   7.019   5.819
 9683SOL     OW29947   4.292   6.376   4.110
 9683SOL    HW129948   4.305   6.426   4.024
 9683SOL    HW229949   4.203   6.401   4.150
 9684SOL     OW29950   7.016   3.593   5.732
 9684SOL    HW129951   0.016   3.650   5.655
 9684SOL    HW229952   6.939   3.635   5.780
 9685SOL     OW29953   3.320   4.657   1.683
 9685SOL    HW129954   3.396   4.662   1.748
 9685SOL    HW229955   3.317   4.566   1.643
 9686SOL     OW29956   0.506   1.532   5.712
 9686SOL    HW129957   0.602   1.547   5.738
 9686SOL    HW229958   0.473   1.612   5.662
 9687SOL     OW29959   5.653   1.082   3.567
 9687SOL    HW129960   5.691   0.990   3.556
 9687SOL    HW229961   5.695   1.144   3.500
 9688SOL     OW29962   0.233   4.952   1.565
 9688SOL    HW129963   0.222   5.017   1.491
 9688SOL    HW229964   0.215   4.998   1.653
 9689SOL     OW29965   1.409   5.488   1.439
 9689SOL    HW129966   1.470   5.439   1.501
 9689SOL    HW229967   1.452   5.496   1.349
 9690SOL     OW29968   0.581   4.508   5.228
 9690SOL    HW129969   0.599   4.441   5.300
 9690SOL    HW229970   0.666   4.534   5.184
 9691SOL     OW29971   3.920   3.313   1.966
 9691SOL    HW129972   3.919   3.346   1.872
 9691SOL    HW229973   3.993   3.246   1.977
 9692SOL     OW29974   5.256   4.379   0.254
 9692SOL    HW129975   5.227   4.467   0.216
 9692SOL    HW229976   5.214   4.367   0.344
 9693SOL     OW29977   4.736   3.296   5.997
 9693SOL    HW129978   4.763   3.219   6.055
 9693SOL    HW229979   4.788   3.377   6.024
 9694SOL     OW29980   2.919   6.241   1.102
 9694SOL    HW129981   2.873   6.160   1.067
 9694SOL    HW229982   2.932   6.232   1.201
 9695SOL     OW29983   1.179   3.176   4.293
 9695SOL    HW129984   1.172   3.094   4.236
 9695SOL    HW229985   1.174   3.151   4.389
 9696SOL     OW29986   5.004   3.017   3.506
 9696SOL    HW129987   5.066   3.058   3.439
 9696SOL    HW229988   5.053   3.000   3.592
 9697SOL     OW29989   0.527   0.471   1.447
 9697SOL    HW129990   0.602   0.523   1.488
 9697SOL    HW229991   0.442   0.493   1.494
 9698SOL     OW29992   0.204   3.792   1.979
 9698SOL    HW129993   0.125   3.730   1.970
 9698SOL    HW229994   0.287   3.738   1.989
 9699SOL     OW29995   0.941   5.792   2.017
 9699SOL    HW129996   0.901   5.882   2.037
 9699SOL    HW229997   0.998   5.763   2.094
 9700SOL     OW29998   5.525   0.735   6.347
 9700SOL    HW129999   5.508   0.833   6.338
 9700SOL    HW230000   5.549   0.697   6.258
 9701SOL     OW30001   5.295   3.682   0.333
 9701SOL    HW130002   5.329   3.692   0.239
 9701SOL    HW230003   5.323   3.762   0.386
 9702SOL     OW30004   3.828   3.748   1.640
 9702SOL    HW130005   3.830   3.847   1.656
 9702SOL    HW230006   3.791   3.730   1.549
 9703SOL     OW30007   5.766   5.004   3.222
 9703SOL    HW130008   5.798   5.074   3.159
 9703SOL    HW230009   5.702   5.044   3.287
 9704SOL     OW30010   1.437   3.986   2.433
 9704SOL    HW130011   1.482   3.925   2.498
 9704SOL    HW230012   1.429   4.077   2.472
 9705SOL     OW30013   0.181   3.280   5.622
 9705SOL    HW130014   0.260   3.335   5.650
 9705SOL    HW230015   0.103   3.302   5.680
 9706SOL     OW30016   0.694   0.907   2.306
 9706SOL    HW130017   0.721   1.003   2.297
 9706SOL    HW230018   0.595   0.901   2.318
 9707SOL     OW30019   0.808   5.180   2.404
 9707SOL    HW130020   0.811   5.270   2.448
 9707SOL    HW230021   0.888   5.127   2.431
 9708SOL     OW30022   2.950   0.640   1.681
 9708SOL    HW130023   2.901   0.582   1.615
 9708SOL    HW230024   2.941   0.736   1.653
 9709SOL     OW30025   5.246   1.517   1.948
 9709SOL    HW130026   5.292   1.491   2.033
 9709SOL    HW230027   5.299   1.587   1.901
 9710SOL     OW30028   4.843   5.201   4.835
 9710SOL    HW130029   4.920   5.264   4.833
 9710SOL    HW230030   4.775   5.230   4.767
 9711SOL     OW30031   2.683   0.933   6.954
 9711SOL    HW130032   2.696   0.841   6.917
 9711SOL    HW230033   2.759   0.956   7.014
 9712SOL     OW30034   5.012   0.645   5.950
 9712SOL    HW130035   5.002   0.546   5.949
 9712SOL    HW230036   4.952   0.685   5.881
 9713SOL     OW30037   2.136   6.997   3.000
 9713SOL    HW130038   2.051   6.944   3.000
 9713SOL    HW230039   2.134   0.035   2.923
 9714SOL     OW30040   2.180   3.239   4.302
 9714SOL    HW130041   2.215   3.219   4.211
 9714SOL    HW230042   2.219   3.174   4.368
 9715SOL     OW30043   6.912   2.796   6.441
 9715SOL    HW130044   6.903   2.814   6.539
 9715SOL    HW230045   7.007   2.813   6.413
 9716SOL     OW30046   2.667   6.398   0.672
 9716SOL    HW130047   2.729   6.374   0.598
 9716SOL    HW230048   2.706   6.472   0.726
 9717SOL     OW30049   3.696   2.456   5.647
 9717SOL    HW130050   3.669   2.427   5.739
 9717SOL    HW230051   3.678   2.382   5.582
 9718SOL     OW30052   3.988   2.509   6.587
 9718SOL    HW130053   4.011   2.412   6.585
 9718SOL    HW230054   4.064   2.561   6.548
 9719SOL     OW30055   4.658   0.159   5.819
 9719SOL    HW130056   4.693   0.251   5.837
 9719SOL    HW230057   4.721   0.092   5.859
 9720SOL     OW30058   1.954   2.198   2.370
 9720SOL    HW130059   1.861   2.161   2.376
 9720SOL    HW230060   1.951   2.289   2.327
 9721SOL     OW30061   0.474   1.537   1.237
 9721SOL    HW130062   0.506   1.545   1.142
 9721SOL    HW230063   0.534   1.477   1.288
 9722SOL     OW30064   4.166   2.286   5.333
 9722SOL    HW130065   4.120   2.355   5.277
 9722SOL    HW230066   4.186   2.324   5.423
 9723SOL     OW30067   5.940   0.281   4.995
 9723SOL    HW130068   5.874   0.352   4.970
 9723SOL    HW230069   5.896   0.215   5.057
 9724SOL     OW30070   1.439   4.477   1.366
 9724SOL    HW130071   1.358   4.499   1.311
 9724SOL    HW230072   1.514   4.453   1.305
 9725SOL     OW30073   5.272   5.667   3.699
 9725SOL    HW130074   5.309   5.580   3.666
 9725SOL    HW230075   5.178   5.653   3.730
 9726SOL     OW30076   6.699   0.145   2.618
 9726SOL    HW130077   6.682   0.069   2.555
 9726SOL    HW230078   6.640   0.136   2.698
 9727SOL     OW30079   6.002   2.992   1.521
 9727SOL    HW130080   5.987   2.912   1.579
 9727SOL    HW230081   5.981   3.075   1.573
 9728SOL     OW30082   5.646   2.291   4.235
 9728SOL    HW130083   5.631   2.208   4.289
 9728SOL    HW230084   5.728   2.280   4.178
 9729SOL     OW30085   0.590   3.625   3.109
 9729SOL    HW130086   0.689   3.636   3.106
 9729SOL    HW230087   0.548   3.682   3.037
 9730SOL     OW30088   1.096   5.507   3.124
 9730SOL    HW130089   1.133   5.458   3.046
 9730SOL    HW230090   1.116   5.605   3.115
 9731SOL     OW30091   6.167   3.004   1.310
 9731SOL    HW130092   6.126   2.975   1.396
 9731SOL    HW230093   6.178   3.104   1.311
 9732SOL     OW30094   1.347   3.438   2.746
 9732SOL    HW130095   1.249   3.434   2.730
 9732SOL    HW230096   1.386   3.346   2.738
 9733SOL     OW30097   6.267   4.759   2.103
 9733SOL    HW130098   6.204   4.685   2.078
 9733SOL    HW230099   6.360   4.723   2.108
 9734SOL     OW30100   4.420   5.320   6.439
 9734SOL    HW130101   4.428   5.280   6.348
 9734SOL    HW230102   4.417   5.419   6.432
 9735SOL     OW30103   0.287   1.910   0.428
 9735SOL    HW130104   0.221   1.917   0.503
 9735SOL    HW230105   0.336   1.823   0.434
 9736SOL     OW30106   4.831   2.712   4.853
 9736SOL    HW130107   4.828   2.672   4.944
 9736SOL    HW230108   4.781   2.799   4.853
 9737SOL     OW30109   5.858   2.993   4.091
 9737SOL    HW130110   5.864   2.927   4.165
 9737SOL    HW230111   5.800   2.956   4.018
 9738SOL     OW30112   2.694   6.267   1.466
 9738SOL    HW130113   2.745   6.352   1.452
 9738SOL    HW230114   2.602   6.289   1.498
 9739SOL     OW30115   6.017   6.344   0.478
 9739SOL    HW130116   5.974   6.423   0.435
 9739SOL    HW230117   6.022   6.269   0.412
 9740SOL     OW30118   6.185   0.739   1.765
 9740SOL    HW130119   6.127   0.816   1.793
 9740SOL    HW230120   6.225   0.758   1.675
 9741SOL     OW30121   2.695   2.335   3.393
 9741SOL    HW130122   2.631   2.280   3.340
 9741SOL    HW230123   2.650   2.419   3.423
 9742SOL     OW30124   3.572   2.038   6.297
 9742SOL    HW130125   3.577   2.112   6.364
 9742SOL    HW230126   3.476   2.014   6.281
 9743SOL     OW30127   6.677   3.512   4.071
 9743SOL    HW130128   6.711   3.438   4.129
 9743SOL    HW230129   6.649   3.589   4.127
 9744SOL     OW30130   1.760   1.886   2.458
 9744SOL    HW130131   1.762   1.791   2.429
 9744SOL    HW230132   1.675   1.929   2.429
 9745SOL     OW30133   0.225   0.091   5.954
 9745SOL    HW130134   0.216   0.062   6.049
 9745SOL    HW230135   0.138   0.077   5.906
 9746SOL     OW30136   3.463   6.118   5.652
 9746SOL    HW130137   3.478   6.215   5.671
 9746SOL    HW230138   3.373   6.106   5.609
 9747SOL     OW30139   3.538   1.714   3.944
 9747SOL    HW130140   3.591   1.763   3.875
 9747SOL    HW230141   3.592   1.638   3.980
 9748SOL     OW30142   0.470   1.245   2.351
 9748SOL    HW130143   0.527   1.267   2.430
 9748SOL    HW230144   0.474   1.147   2.334
 9749SOL     OW30145   6.729   0.740   1.887
 9749SOL    HW130146   6.809   0.743   1.947
 9749SOL    HW230147   6.648   0.721   1.942
 9750SOL     OW30148   5.767   2.619   5.772
 9750SOL    HW130149   5.716   2.680   5.711
 9750SOL    HW230150   5.711   2.539   5.793
 9751SOL     OW30151   3.038   6.907   1.524
 9751SOL    HW130152   3.059   6.900   1.426
 9751SOL    HW230153   2.994   6.823   1.555
 9752SOL     OW30154   3.177   2.970   0.446
 9752SOL    HW130155   3.111   2.974   0.521
 9752SOL    HW230156   3.264   2.934   0.480
 9753SOL     OW30157   0.064   5.864   3.878
 9753SOL    HW130158   0.109   5.784   3.918
 9753SOL    HW230159   0.067   5.858   3.778
 9754SOL     OW30160   3.523   1.217   2.195
 9754SOL    HW130161   3.446   1.270   2.231
 9754SOL    HW230162   3.594   1.280   2.162
 9755SOL     OW30163   3.730   3.659   0.082
 9755SOL    HW130164   3.797   3.709   0.136
 9755SOL    HW230165   3.733   3.689   7.014
 9756SOL     OW30166   5.533   0.621   6.086
 9756SOL    HW130167   5.540   0.522   6.093
 9756SOL    HW230168   5.445   0.646   6.046
 9757SOL     OW30169   5.397   3.760   4.248
 9757SOL    HW130170   5.309   3.803   4.228
 9757SOL    HW230171   5.386   3.661   4.246
 9758SOL     OW30172   2.766   0.753   2.356
 9758SOL    HW130173   2.861   0.723   2.371
 9758SOL    HW230174   2.766   0.843   2.313
 9759SOL     OW30175   6.464   2.037   1.532
 9759SOL    HW130176   6.370   2.069   1.536
 9759SOL    HW230177   6.521   2.107   1.489
 9760SOL     OW30178   4.438   0.515   6.664
 9760SOL    HW130179   4.493   0.479   6.588
 9760SOL    HW230180   4.347   0.473   6.662
 9761SOL     OW30181   0.804   2.336   1.655
 9761SOL    HW130182   0.750   2.409   1.699
 9761SOL    HW230183   0.838   2.273   1.725
 9762SOL     OW30184   3.250   1.129   5.808
 9762SOL    HW130185   3.307   1.160   5.884
 9762SOL    HW230186   3.242   1.201   5.740
 9763SOL     OW30187   6.603   2.828   1.257
 9763SOL    HW130188   6.526   2.872   1.302
 9763SOL    HW230189   6.576   2.737   1.226
 9764SOL     OW30190   0.732   2.605   2.632
 9764SOL    HW130191   0.806   2.662   2.668
 9764SOL    HW230192   0.685   2.560   2.708
 9765SOL     OW30193   6.538   1.239   1.346
 9765SOL    HW130194   6.562   1.262   1.252
 9765SOL    HW230195   6.466   1.169   1.347
 9766SOL     OW30196   0.546   2.638   2.999
 9766SOL    HW130197   0.526   2.712   3.063
 9766SOL    HW230198   0.476   2.567   3.007
 9767SOL     OW30199   2.868   1.721   5.375
 9767SOL    HW130200   2.788   1.685   5.327
 9767SOL    HW230201   2.904   1.652   5.437
 9768SOL     OW30202   5.142   2.915   0.222
 9768SOL    HW130203   5.180   2.963   0.301
 9768SOL    HW230204   5.168   2.818   0.226
 9769SOL     OW30205   3.255   1.637   5.492
 9769SOL    HW130206   3.323   1.631   5.565
 9769SOL    HW230207   3.246   1.733   5.464
 9770SOL     OW30208   1.929   3.005   5.629
 9770SOL    HW130209   1.937   2.906   5.622
 9770SOL    HW230210   1.953   3.048   5.542
 9771SOL     OW30211   3.620   0.514   1.533
 9771SOL    HW130212   3.555   0.553   1.598
 9771SOL    HW230213   3.571   0.484   1.451
 9772SOL     OW30214   0.879   0.587   0.886
 9772SOL    HW130215   0.851   0.540   0.970
 9772SOL    HW230216   0.963   0.638   0.903
 9773SOL     OW30217   6.021   6.050   2.086
 9773SOL    HW130218   5.922   6.040   2.097
 9773SOL    HW230219   6.040   6.135   2.037
 9774SOL     OW30220   2.322   5.089   4.189
 9774SOL    HW130221   2.358   5.022   4.255
 9774SOL    HW230222   2.287   5.042   4.109
 9775SOL     OW30223   2.085   1.057   2.824
 9775SOL    HW130224   2.180   1.075   2.850
 9775SOL    HW230225   2.027   1.131   2.858
 9776SOL     OW30226   2.385   5.502   1.254
 9776SOL    HW130227   2.466   5.443   1.263
 9776SOL    HW230228   2.303   5.445   1.246
 9777SOL     OW30229   4.445   1.682   5.376
 9777SOL    HW130230   4.457   1.652   5.471
 9777SOL    HW230231   4.347   1.695   5.358
 9778SOL     OW30232   1.053   4.064   3.263
 9778SOL    HW130233   1.044   3.971   3.298
 9778SOL    HW230234   0.963   4.099   3.239
 9779SOL     OW30235   2.972   0.342   3.602
 9779SOL    HW130236   2.953   0.380   3.512
 9779SOL    HW230237   2.905   0.271   3.623
 9780SOL     OW30238   0.489   1.620   0.729
 9780SOL    HW130239   0.499   1.549   0.799
 9780SOL    HW230240   0.573   1.674   0.725
 9781SOL     OW30241   0.984   1.335   2.018
 9781SOL    HW130242   1.069   1.370   1.979
 9781SOL    HW230243   0.907   1.363   1.961
 9782SOL     OW30244   0.222   2.280   0.679
 9782SOL    HW130245   0.300   2.341   0.694
 9782SOL    HW230246   0.137   2.331   0.689
 9783SOL     OW30247   4.385   1.635   2.858
 9783SOL    HW130248   4.344   1.631   2.767
 9783SOL    HW230249   4.473   1.682   2.853
 9784SOL     OW30250   1.764   1.200   6.495
 9784SOL    HW130251   1.851   1.152   6.483
 9784SOL    HW230252   1.772   1.293   6.459
 9785SOL     OW30253   0.694   3.936   4.378
 9785SOL    HW130254   0.785   3.897   4.386
 9785SOL    HW230255   0.680   3.969   4.285
 9786SOL     OW30256   2.762   4.276   6.742
 9786SOL    HW130257   2.716   4.344   6.685
 9786SOL    HW230258   2.694   4.211   6.777
 9787SOL     OW30259   2.977   3.907   2.272
 9787SOL    HW130260   3.028   3.822   2.260
 9787SOL    HW230261   2.908   3.896   2.344
 9788SOL     OW30262   3.599   7.025   2.315
 9788SOL    HW130263   3.616   6.929   2.290
 9788SOL    HW230264   3.501   0.016   2.314
 9789SOL     OW30265   3.124   0.929   0.171
 9789SOL    HW130266   3.092   0.864   0.239
 9789SOL    HW230267   3.213   0.966   0.199
 9790SOL     OW30268   4.610   5.449   4.834
 9790SOL    HW130269   4.686   5.508   4.809
 9790SOL    HW230270   4.633   5.399   4.918
 9791SOL     OW30271   0.682   0.199   1.393
 9791SOL    HW130272   0.607   0.151   1.439
 9791SOL    HW230273   0.680   0.296   1.418
 9792SOL     OW30274   3.466   4.659   0.882
 9792SOL    HW130275   3.411   4.701   0.954
 9792SOL    HW230276   3.406   4.610   0.818
 9793SOL     OW30277   6.195   1.064   2.957
 9793SOL    HW130278   6.136   1.027   2.885
 9793SOL    HW230279   6.279   1.099   2.916
 9794SOL     OW30280   4.270   5.000   4.395
 9794SOL    HW130281   4.215   4.925   4.360
 9794SOL    HW230282   4.317   5.045   4.319
 9795SOL     OW30283   0.801   3.560   3.665
 9795SOL    HW130284   0.789   3.635   3.600
 9795SOL    HW230285   0.857   3.489   3.623
 9796SOL     OW30286   2.931   3.687   4.237
 9796SOL    HW130287   2.948   3.589   4.252
 9796SOL    HW230288   2.963   3.738   4.317
 9797SOL     OW30289   3.166   5.472   6.742
 9797SOL    HW130290   3.107   5.547   6.712
 9797SOL    HW230291   3.152   5.456   6.840
 9798SOL     OW30292   6.804   4.470   6.723
 9798SOL    HW130293   6.798   4.412   6.642
 9798SOL    HW230294   6.844   4.418   6.798
 9799SOL     OW30295   3.489   0.327   0.292
 9799SOL    HW130296   3.395   0.332   0.324
 9799SOL    HW230297   3.536   0.252   0.338
 9800SOL     OW30298   6.643   3.606   4.357
 9800SOL    HW130299   6.572   3.537   4.373
 9800SOL    HW230300   6.701   3.612   4.439
 9801SOL     OW30301   4.753   5.892   0.476
 9801SOL    HW130302   4.778   5.926   0.567
 9801SOL    HW230303   4.791   5.801   0.463
 9802SOL     OW30304   3.990   3.811   0.135
 9802SOL    HW130305   4.088   3.829   0.144
 9802SOL    HW230306   3.944   3.892   0.100
 9803SOL     OW30307   1.179   3.772   6.423
 9803SOL    HW130308   1.118   3.693   6.431
 9803SOL    HW230309   1.154   3.824   6.341
 9804SOL     OW30310   1.074   4.507   3.172
 9804SOL    HW130311   1.028   4.433   3.221
 9804SOL    HW230312   1.022   4.529   3.089
 9805SOL     OW30313   0.590   5.686   4.015
 9805SOL    HW130314   0.681   5.704   3.978
 9805SOL    HW230315   0.539   5.628   3.952
 9806SOL     OW30316   3.599   1.696   0.277
 9806SOL    HW130317   3.572   1.770   0.339
 9806SOL    HW230318   3.698   1.684   0.282
 9807SOL     OW30319   4.049   3.343   3.191
 9807SOL    HW130320   4.026   3.265   3.250
 9807SOL    HW230321   4.016   3.325   3.098
 9808SOL     OW30322   3.563   5.532   2.314
 9808SOL    HW130323   3.588   5.463   2.246
 9808SOL    HW230324   3.532   5.486   2.398
 9809SOL     OW30325   6.088   2.357   0.637
 9809SOL    HW130326   5.996   2.387   0.662
 9809SOL    HW230327   6.141   2.434   0.603
 9810SOL     OW30328   2.109   2.323   1.166
 9810SOL    HW130329   2.073   2.329   1.073
 9810SOL    HW230330   2.126   2.227   1.188
 9811SOL     OW30331   5.857   3.780   4.586
 9811SOL    HW130332   5.780   3.830   4.546
 9811SOL    HW230333   5.939   3.838   4.584
 9812SOL     OW30334   3.289   5.709   5.593
 9812SOL    HW130335   3.294   5.734   5.496
 9812SOL    HW230336   3.350   5.632   5.611
 9813SOL     OW30337   4.794   0.907   2.501
 9813SOL    HW130338   4.891   0.931   2.500
 9813SOL    HW230339   4.770   0.873   2.592
 9814SOL     OW30340   0.253   1.378   6.000
 9814SOL    HW130341   0.299   1.330   5.926
 9814SOL    HW230342   0.313   1.449   6.036
 9815SOL     OW30343   4.037   2.209   4.041
 9815SOL    HW130344   3.942   2.180   4.025
 9815SOL    HW230345   4.094   2.181   3.964
 9816SOL     OW30346   2.945   0.783   0.935
 9816SOL    HW130347   3.020   0.789   1.001
 9816SOL    HW230348   2.973   0.727   0.857
 9817SOL     OW30349   6.467   0.119   2.053
 9817SOL    HW130350   6.456   0.163   2.142
 9817SOL    HW230351   6.506   0.028   2.066
 9818SOL     OW30352   4.637   2.885   5.328
 9818SOL    HW130353   4.686   2.969   5.305
 9818SOL    HW230354   4.539   2.903   5.328
 9819SOL     OW30355   4.016   0.782   1.978
 9819SOL    HW130356   4.090   0.727   1.938
 9819SOL    HW230357   3.989   0.743   2.066
 9820SOL     OW30358   3.880   2.758   0.076
 9820SOL    HW130359   3.909   2.710   7.020
 9820SOL    HW230360   3.856   2.691   0.146
 9821SOL     OW30361   6.999   5.395   0.071
 9821SOL    HW130362   6.968   5.447   7.019
 9821SOL    HW230363   6.935   5.409   0.147
 9822SOL     OW30364   0.932   0.394   3.180
 9822SOL    HW130365   1.006   0.332   3.152
 9822SOL    HW230366   0.919   0.465   3.110
 9823SOL     OW30367   3.547   6.725   1.639
 9823SOL    HW130368   3.620   6.673   1.595
 9823SOL    HW230369   3.550   6.820   1.609
 9824SOL     OW30370   1.188   3.961   5.803
 9824SOL    HW130371   1.174   3.883   5.864
 9824SOL    HW230372   1.222   4.039   5.856
 9825SOL     OW30373   4.065   5.216   5.236
 9825SOL    HW130374   4.099   5.234   5.328
 9825SOL    HW230375   4.138   5.179   5.180
 9826SOL     OW30376   5.035   0.378   5.905
 9826SOL    HW130377   5.070   0.294   5.947
 9826SOL    HW230378   5.043   0.371   5.805
 9827SOL     OW30379   0.956   3.751   4.449
 9827SOL    HW130380   0.996   3.770   4.360
 9827SOL    HW230381   1.026   3.762   4.520
 9828SOL     OW30382   2.804   2.758   6.498
 9828SOL    HW130383   2.748   2.676   6.494
 9828SOL    HW230384   2.871   2.757   6.424
 9829SOL     OW30385   3.277   4.270   1.215
 9829SOL    HW130386   3.247   4.365   1.205
 9829SOL    HW230387   3.233   4.214   1.145
 9830SOL     OW30388   6.545   1.009   0.329
 9830SOL    HW130389   6.594   0.928   0.362
 9830SOL    HW230390   6.465   0.979   0.276
 9831SOL     OW30391   5.850   6.805   0.860
 9831SOL    HW130392   5.751   6.790   0.866
 9831SOL    HW230393   5.896   6.719   0.839
 9832SOL     OW30394   4.031   5.346   0.936
 9832SOL    HW130395   4.056   5.375   1.029
 9832SOL    HW230396   3.934   5.325   0.933
 9833SOL     OW30397   4.127   3.914   5.668
 9833SOL    HW130398   4.031   3.927   5.693
 9833SOL    HW230399   4.174   3.865   5.740
 9834SOL     OW30400   1.533   2.569   4.482
 9834SOL    HW130401   1.584   2.642   4.527
 9834SOL    HW230402   1.570   2.480   4.510
 9835SOL     OW30403   4.996   1.753   4.412
 9835SOL    HW130404   4.933   1.679   4.391
 9835SOL    HW230405   4.982   1.828   4.348
 9836SOL     OW30406   4.999   4.850   2.331
 9836SOL    HW130407   4.906   4.814   2.344
 9836SOL    HW230408   5.050   4.841   2.417
 9837SOL     OW30409   1.278   6.626   4.652
 9837SOL    HW130410   1.347   6.592   4.716
 9837SOL    HW230411   1.194   6.573   4.661
 9838SOL     OW30412   6.787   5.411   5.364
 9838SOL    HW130413   6.758   5.492   5.314
 9838SOL    HW230414   6.827   5.438   5.451
 9839SOL     OW30415   6.864   2.348   2.747
 9839SOL    HW130416   6.841   2.265   2.798
 9839SOL    HW230417   6.898   2.417   2.810
 9840SOL     OW30418   6.487   0.542   0.761
 9840SOL    HW130419   6.525   0.560   0.851
 9840SOL    HW230420   6.530   0.460   0.722
 9841SOL     OW30421   1.733   3.719   4.570
 9841SOL    HW130422   1.830   3.742   4.561
 9841SOL    HW230423   1.717   3.627   4.533
 9842SOL     OW30424   3.211   2.961   2.962
 9842SOL    HW130425   3.209   3.040   2.901
 9842SOL    HW230426   3.198   2.991   3.057
 9843SOL     OW30427   5.790   3.060   2.223
 9843SOL    HW130428   5.719   3.122   2.190
 9843SOL    HW230429   5.880   3.104   2.212
 9844SOL     OW30430   5.045   0.439   2.609
 9844SOL    HW130431   5.089   0.450   2.698
 9844SOL    HW230432   5.103   0.382   2.551
 9845SOL     OW30433   0.893   1.976   3.819
 9845SOL    HW130434   0.830   1.916   3.869
 9845SOL    HW230435   0.853   2.000   3.731
 9846SOL     OW30436   2.940   3.548   3.117
 9846SOL    HW130437   2.937   3.460   3.166
 9846SOL    HW230438   2.893   3.539   3.030
 9847SOL     OW30439   2.359   4.431   5.060
 9847SOL    HW130440   2.327   4.342   5.027
 9847SOL    HW230441   2.371   4.427   5.159
 9848SOL     OW30442   4.884   3.412   0.347
 9848SOL    HW130443   4.851   3.490   0.293
 9848SOL    HW230444   4.888   3.439   0.443
 9849SOL     OW30445   0.495   6.683   5.229
 9849SOL    HW130446   0.418   6.733   5.189
 9849SOL    HW230447   0.533   6.734   5.305
 9850SOL     OW30448   4.324   6.815   2.521
 9850SOL    HW130449   4.325   6.832   2.619
 9850SOL    HW230450   4.270   6.885   2.475
 9851SOL     OW30451   5.732   3.016   4.780
 9851SOL    HW130452   5.829   3.020   4.759
 9851SOL    HW230453   5.688   3.101   4.753
 9852SOL     OW30454   4.953   2.124   3.849
 9852SOL    HW130455   4.880   2.083   3.903
 9852SOL    HW230456   4.925   2.215   3.818
 9853SOL     OW30457   0.125   3.865   1.531
 9853SOL    HW130458   0.214   3.855   1.487
 9853SOL    HW230459   0.117   3.799   1.605
 9854SOL     OW30460   4.562   6.108   3.342
 9854SOL    HW130461   4.600   6.176   3.279
 9854SOL    HW230462   4.606   6.020   3.326
 9855SOL     OW30463   1.582   3.415   1.011
 9855SOL    HW130464   1.581   3.354   0.932
 9855SOL    HW230465   1.607   3.507   0.982
 9856SOL     OW30466   3.955   2.448   0.621
 9856SOL    HW130467   3.866   2.438   0.666
 9856SOL    HW230468   4.015   2.505   0.676
 9857SOL     OW30469   6.006   4.083   3.503
 9857SOL    HW130470   5.918   4.086   3.550
 9857SOL    HW230471   6.013   3.998   3.451
 9858SOL     OW30472   4.319   1.661   1.150
 9858SOL    HW130473   4.307   1.582   1.090
 9858SOL    HW230474   4.309   1.633   1.245
 9859SOL     OW30475   6.312   0.580   1.534
 9859SOL    HW130476   6.341   0.623   1.619
 9859SOL    HW230477   6.340   0.484   1.533
 9860SOL     OW30478   0.419   0.937   2.323
 9860SOL    HW130479   0.366   0.951   2.239
 9860SOL    HW230480   0.382   0.859   2.373
 9861SOL     OW30481   3.599   6.781   4.907
 9861SOL    HW130482   3.572   6.729   4.988
 9861SOL    HW230483   3.573   6.730   4.825
 9862SOL     OW30484   0.602   2.610   0.728
 9862SOL    HW130485   0.557   2.623   0.817
 9862SOL    HW230486   0.600   2.513   0.704
 9863SOL     OW30487   3.030   7.026   0.882
 9863SOL    HW130488   3.027   0.052   0.798
 9863SOL    HW230489   3.123   7.025   0.918
 9864SOL     OW30490   4.487   6.009   2.516
 9864SOL    HW130491   4.415   5.951   2.554
 9864SOL    HW230492   4.512   6.078   2.584
 9865SOL     OW30493   0.697   2.897   5.139
 9865SOL    HW130494   0.611   2.897   5.190
 9865SOL    HW230495   0.686   2.845   5.054
 9866SOL     OW30496   4.104   4.808   3.304
 9866SOL    HW130497   4.188   4.802   3.250
 9866SOL    HW230498   4.030   4.845   3.247
 9867SOL     OW30499   3.975   0.400   5.806
 9867SOL    HW130500   3.911   0.458   5.857
 9867SOL    HW230501   4.043   0.362   5.869
 9868SOL     OW30502   0.065   5.414   6.736
 9868SOL    HW130503   0.162   5.436   6.742
 9868SOL    HW230504   0.013   5.476   6.795
 9869SOL     OW30505   1.816   3.747   3.548
 9869SOL    HW130506   1.847   3.743   3.643
 9869SOL    HW230507   1.766   3.832   3.532
 9870SOL     OW30508   4.874   4.422   2.264
 9870SOL    HW130509   4.847   4.326   2.252
 9870SOL    HW230510   4.946   4.428   2.333
 9871SOL     OW30511   1.486   1.505   5.523
 9871SOL    HW130512   1.553   1.436   5.551
 9871SOL    HW230513   1.399   1.486   5.569
 9872SOL     OW30514   1.611   4.936   3.801
 9872SOL    HW130515   1.590   5.021   3.850
 9872SOL    HW230516   1.710   4.924   3.795
 9873SOL     OW30517   0.843   2.929   0.565
 9873SOL    HW130518   0.763   2.933   0.505
 9873SOL    HW230519   0.886   2.839   0.559
 9874SOL     OW30520   0.916   3.336   3.572
 9874SOL    HW130521   0.898   3.269   3.644
 9874SOL    HW230522   1.015   3.343   3.558
 9875SOL     OW30523   1.077   0.827   3.377
 9875SOL    HW130524   1.101   0.918   3.409
 9875SOL    HW230525   1.135   0.803   3.299
 9876SOL     OW30526   6.963   6.115   2.594
 9876SOL    HW130527   6.941   6.212   2.587
 9876SOL    HW230528   6.996   6.095   2.686
 9877SOL     OW30529   3.501   0.374   2.185
 9877SOL    HW130530   3.526   0.307   2.114
 9877SOL    HW230531   3.490   0.327   2.272
 9878SOL     OW30532   0.816   0.343   5.254
 9878SOL    HW130533   0.797   0.299   5.166
 9878SOL    HW230534   0.907   0.317   5.286
 9879SOL     OW30535   5.683   6.079   6.053
 9879SOL    HW130536   5.596   6.104   6.094
 9879SOL    HW230537   5.700   6.137   5.974
 9880SOL     OW30538   1.997   1.543   4.902
 9880SOL    HW130539   1.942   1.625   4.886
 9880SOL    HW230540   2.046   1.552   4.989
 9881SOL     OW30541   6.818   2.172   6.597
 9881SOL    HW130542   6.914   2.174   6.624
 9881SOL    HW230543   6.790   2.263   6.565
 9882SOL     OW30544   1.344   1.909   3.158
 9882SOL    HW130545   1.317   1.969   3.234
 9882SOL    HW230546   1.278   1.834   3.151
 9883SOL     OW30547   2.236   0.535   1.888
 9883SOL    HW130548   2.148   0.562   1.850
 9883SOL    HW230549   2.232   0.540   1.988
 9884SOL     OW30550   3.710   0.691   4.102
 9884SOL    HW130551   3.657   0.608   4.118
 9884SOL    HW230552   3.805   0.675   4.128
 9885SOL     OW30553   6.057   4.946   3.888
 9885SOL    HW130554   6.143   4.896   3.897
 9885SOL    HW230555   6.003   4.907   3.813
 9886SOL     OW30556   1.419   3.524   2.238
 9886SOL    HW130557   1.411   3.559   2.331
 9886SOL    HW230558   1.509   3.547   2.202
 9887SOL     OW30559   4.411   0.341   6.308
 9887SOL    HW130560   4.331   0.368   6.255
 9887SOL    HW230561   4.457   0.423   6.342
 9888SOL     OW30562   0.076   4.441   0.440
 9888SOL    HW130563   0.017   4.385   0.497
 9888SOL    HW230564   0.164   4.455   0.487
 9889SOL     OW30565   0.365   5.176   0.484
 9889SOL    HW130566   0.335   5.165   0.578
 9889SOL    HW230567   0.315   5.250   0.440
 9890SOL     OW30568   0.826   2.571   1.127
 9890SOL    HW130569   0.797   2.641   1.193
 9890SOL    HW230570   0.789   2.594   1.037
 9891SOL     OW30571   5.013   1.602   1.655
 9891SOL    HW130572   5.065   1.675   1.612
 9891SOL    HW230573   5.072   1.522   1.667
 9892SOL     OW30574   0.148   5.789   6.492
 9892SOL    HW130575   0.063   5.737   6.497
 9892SOL    HW230576   0.209   5.762   6.566
 9893SOL     OW30577   1.976   1.089   1.158
 9893SOL    HW130578   2.031   1.012   1.192
 9893SOL    HW230579   2.035   1.168   1.145
 9894SOL     OW30580   1.594   1.974   0.759
 9894SOL    HW130581   1.549   2.047   0.808
 9894SOL    HW230582   1.553   1.963   0.669
 9895SOL     OW30583   5.010   3.495   5.616
 9895SOL    HW130584   5.047   3.439   5.689
 9895SOL    HW230585   5.072   3.494   5.537
 9896SOL     OW30586   5.889   6.880   0.324
 9896SOL    HW130587   5.956   6.923   0.264
 9896SOL    HW230588   5.929   6.799   0.367
 9897SOL     OW30589   4.843   5.281   3.720
 9897SOL    HW130590   4.903   5.270   3.799
 9897SOL    HW230591   4.819   5.191   3.683
 9898SOL     OW30592   3.034   6.194   5.309
 9898SOL    HW130593   2.957   6.193   5.372
 9898SOL    HW230594   3.036   6.281   5.259
 9899SOL     OW30595   6.933   5.578   6.888
 9899SOL    HW130596   6.979   5.666   6.901
 9899SOL    HW230597   6.837   5.595   6.864
 9900SOL     OW30598   2.022   3.623   3.425
 9900SOL    HW130599   2.084   3.623   3.504
 9900SOL    HW230600   1.937   3.668   3.450
 9901SOL     OW30601   1.965   2.615   5.311
 9901SOL    HW130602   2.042   2.669   5.275
 9901SOL    HW230603   1.937   2.548   5.243
 9902SOL     OW30604   2.613   4.126   6.985
 9902SOL    HW130605   2.562   4.098   6.904
 9902SOL    HW230606   2.594   4.222   7.004
 9903SOL     OW30607   5.755   0.629   3.613
 9903SOL    HW130608   5.703   0.635   3.528
 9903SOL    HW230609   5.816   0.708   3.619
 9904SOL     OW30610   6.760   2.535   6.287
 9904SOL    HW130611   6.738   2.508   6.193
 9904SOL    HW230612   6.830   2.606   6.286
 9905SOL     OW30613   4.351   1.253   0.062
 9905SOL    HW130614   4.427   1.309   0.093
 9905SOL    HW230615   4.342   1.260   6.989
 9906SOL     OW30616   4.136   3.680   4.166
 9906SOL    HW130617   4.152   3.597   4.220
 9906SOL    HW230618   4.172   3.668   4.074
 9907SOL     OW30619   0.682   0.471   1.077
 9907SOL    HW130620   0.710   0.487   1.171
 9907SOL    HW230621   0.667   0.373   1.063
 9908SOL     OW30622   5.259   3.423   3.301
 9908SOL    HW130623   5.239   3.325   3.309
 9908SOL    HW230624   5.173   3.475   3.299
 9909SOL     OW30625   2.353   0.013   5.189
 9909SOL    HW130626   2.401   6.965   5.234
 9909SOL    HW230627   2.254   7.025   5.196
 9910SOL     OW30628   0.787   4.170   3.283
 9910SOL    HW130629   0.752   4.176   3.377
 9910SOL    HW230630   0.734   4.231   3.224
 9911SOL     OW30631   3.045   6.394   2.280
 9911SOL    HW130632   3.042   6.373   2.378
 9911SOL    HW230633   3.070   6.490   2.267
 9912SOL     OW30634   4.820   1.017   6.833
 9912SOL    HW130635   4.740   0.965   6.861
 9912SOL    HW230636   4.796   1.113   6.820
 9913SOL     OW30637   5.690   3.210   6.748
 9913SOL    HW130638   5.700   3.136   6.814
 9913SOL    HW230639   5.714   3.297   6.791
 9914SOL     OW30640   6.766   2.899   4.818
 9914SOL    HW130641   6.744   2.994   4.796
 9914SOL    HW230642   6.852   2.873   4.774
 9915SOL     OW30643   5.620   0.386   3.939
 9915SOL    HW130644   5.609   0.378   3.840
 9915SOL    HW230645   5.703   0.337   3.967
 9916SOL     OW30646   2.340   2.355   1.886
 9916SOL    HW130647   2.241   2.369   1.890
 9916SOL    HW230648   2.364   2.320   1.796
 9917SOL     OW30649   6.574   4.220   4.872
 9917SOL    HW130650   6.658   4.184   4.832
 9917SOL    HW230651   6.584   4.225   4.971
 9918SOL     OW30652   4.206   2.057   2.985
 9918SOL    HW130653   4.266   2.096   2.916
 9918SOL    HW230654   4.134   2.123   3.008
 9919SOL     OW30655   6.794   5.872   0.543
 9919SOL    HW130656   6.872   5.932   0.565
 9919SOL    HW230657   6.791   5.796   0.608
 9920SOL     OW30658   5.146   1.404   2.229
 9920SOL    HW130659   5.158   1.336   2.157
 9920SOL    HW230660   5.055   1.393   2.270
 9921SOL     OW30661   3.705   5.613   5.922
 9921SOL    HW130662   3.798   5.627   5.886
 9921SOL    HW230663   3.648   5.692   5.898
 9922SOL     OW30664   0.658   5.368   0.512
 9922SOL    HW130665   0.568   5.326   0.508
 9922SOL    HW230666   0.728   5.297   0.522
 9923SOL     OW30667   5.409   4.678   0.555
 9923SOL    HW130668   5.364   4.589   0.564
 9923SOL    HW230669   5.406   4.725   0.643
 9924SOL     OW30670   0.753   4.175   4.572
 9924SOL    HW130671   0.706   4.088   4.554
 9924SOL    HW230672   0.686   4.243   4.602
 9925SOL     OW30673   5.397   2.389   3.659
 9925SOL    HW130674   5.346   2.402   3.574
 9925SOL    HW230675   5.334   2.393   3.737
 9926SOL     OW30676   1.891   5.026   7.025
 9926SOL    HW130677   1.889   5.084   0.079
 9926SOL    HW230678   1.845   4.939   0.018
 9927SOL     OW30679   6.218   6.974   2.834
 9927SOL    HW130680   6.258   6.974   2.742
 9927SOL    HW230681   6.118   6.980   2.826
 9928SOL     OW30682   4.924   4.355   1.343
 9928SOL    HW130683   4.926   4.381   1.247
 9928SOL    HW230684   4.840   4.305   1.363
 9929SOL     OW30685   2.196   4.272   3.435
 9929SOL    HW130686   2.226   4.367   3.441
 9929SOL    HW230687   2.250   4.215   3.497
 9930SOL     OW30688   6.851   0.515   3.723
 9930SOL    HW130689   6.812   0.602   3.692
 9930SOL    HW230690   6.937   0.498   3.676
 9931SOL     OW30691   0.946   5.111   5.448
 9931SOL    HW130692   0.992   5.174   5.386
 9931SOL    HW230693   1.002   5.098   5.530
 9932SOL     OW30694   1.183   6.099   5.173
 9932SOL    HW130695   1.135   6.185   5.156
 9932SOL    HW230696   1.120   6.035   5.218
 9933SOL     OW30697   0.312   5.806   2.286
 9933SOL    HW130698   0.323   5.880   2.352
 9933SOL    HW230699   0.276   5.843   2.200
 9934SOL     OW30700   6.633   1.930   6.472
 9934SOL    HW130701   6.679   1.957   6.387
 9934SOL    HW230702   6.537   1.910   6.453
 9935SOL     OW30703   3.269   0.999   6.457
 9935SOL    HW130704   3.294   0.956   6.544
 9935SOL    HW230705   3.173   1.027   6.460
 9936SOL     OW30706   0.583   4.489   4.375
 9936SOL    HW130707   0.501   4.509   4.322
 9936SOL    HW230708   0.633   4.413   4.331
 9937SOL     OW30709   6.550   2.152   6.727
 9937SOL    HW130710   6.525   2.059   6.753
 9937SOL    HW230711   6.646   2.155   6.701
 9938SOL     OW30712   6.392   6.577   3.011
 9938SOL    HW130713   6.463   6.579   3.081
 9938SOL    HW230714   6.430   6.540   2.926
 9939SOL     OW30715   3.293   3.150   2.007
 9939SOL    HW130716   3.375   3.111   2.048
 9939SOL    HW230717   3.221   3.080   2.003
 9940SOL     OW30718   0.314   1.419   0.424
 9940SOL    HW130719   0.263   1.383   0.346
 9940SOL    HW230720   0.313   1.519   0.421
 9941SOL     OW30721   3.237   4.710   5.718
 9941SOL    HW130722   3.263   4.800   5.683
 9941SOL    HW230723   3.314   4.647   5.706
 9942SOL     OW30724   2.586   5.448   3.261
 9942SOL    HW130725   2.499   5.401   3.276
 9942SOL    HW230726   2.614   5.435   3.166
 9943SOL     OW30727   1.285   6.507   5.161
 9943SOL    HW130728   1.259   6.573   5.092
 9943SOL    HW230729   1.268   6.545   5.252
 9944SOL     OW30730   0.648   3.779   0.237
 9944SOL    HW130731   0.633   3.762   0.335
 9944SOL    HW230732   0.690   3.698   0.196
 9945SOL     OW30733   6.500   5.753   0.168
 9945SOL    HW130734   6.437   5.802   0.108
 9945SOL    HW230735   6.537   5.673   0.121
 9946SOL     OW30736   5.210   0.881   4.905
 9946SOL    HW130737   5.276   0.897   4.832
 9946SOL    HW230738   5.148   0.960   4.912
 9947SOL     OW30739   5.999   4.616   3.801
 9947SOL    HW130740   5.946   4.700   3.789
 9947SOL    HW230741   6.020   4.577   3.712
 9948SOL     OW30742   5.222   4.674   4.356
 9948SOL    HW130743   5.250   4.578   4.363
 9948SOL    HW230744   5.137   4.680   4.305
 9949SOL     OW30745   5.743   5.330   2.674
 9949SOL    HW130746   5.741   5.333   2.574
 9949SOL    HW230747   5.759   5.423   2.709
 9950SOL     OW30748   3.790   5.845   5.365
 9950SOL    HW130749   3.707   5.899   5.349
 9950SOL    HW230750   3.861   5.873   5.300
 9951SOL     OW30751   6.131   2.192   2.947
 9951SOL    HW130752   6.139   2.108   2.892
 9951SOL    HW230753   6.080   2.260   2.895
 9952SOL     OW30754   0.412   5.402   0.227
 9952SOL    HW130755   0.336   5.448   0.182
 9952SOL    HW230756   0.488   5.392   0.163
 9953SOL     OW30757   6.716   1.839   4.168
 9953SOL    HW130758   6.631   1.787   4.163
 9953SOL    HW230759   6.701   1.923   4.220
 9954SOL     OW30760   4.700   0.270   5.414
 9954SOL    HW130761   4.631   0.324   5.368
 9954SOL    HW230762   4.656   0.205   5.476
 9955SOL     OW30763   0.619   4.440   4.855
 9955SOL    HW130764   0.604   4.352   4.902
 9955SOL    HW230765   0.587   4.434   4.761
 9956SOL     OW30766   1.571   6.239   1.039
 9956SOL    HW130767   1.592   6.221   0.943
 9956SOL    HW230768   1.488   6.190   1.065
 9957SOL     OW30769   6.242   4.399   2.961
 9957SOL    HW130770   6.256   4.471   2.894
 9957SOL    HW230771   6.147   4.366   2.956
 9958SOL     OW30772   2.201   4.348   1.453
 9958SOL    HW130773   2.180   4.288   1.530
 9958SOL    HW230774   2.221   4.292   1.372
 9959SOL     OW30775   3.742   3.467   0.708
 9959SOL    HW130776   3.819   3.518   0.668
 9959SOL    HW230777   3.738   3.376   0.668
 9960SOL     OW30778   0.827   1.228   2.236
 9960SOL    HW130779   0.749   1.274   2.194
 9960SOL    HW230780   0.890   1.198   2.164
 9961SOL     OW30781   2.280   4.708   4.726
 9961SOL    HW130782   2.344   4.771   4.770
 9961SOL    HW230783   2.330   4.644   4.668
 9962SOL     OW30784   5.586   6.127   5.104
 9962SOL    HW130785   5.621   6.188   5.033
 9962SOL    HW230786   5.619   6.157   5.193
 9963SOL     OW30787   3.085   0.581   0.793
 9963SOL    HW130788   3.041   0.553   0.707
 9963SOL    HW230789   3.183   0.592   0.777
 9964SOL     OW30790   4.927   5.700   5.200
 9964SOL    HW130791   4.958   5.625   5.142
 9964SOL    HW230792   4.840   5.675   5.243
 9965SOL     OW30793   3.829   0.374   6.977
 9965SOL    HW130794   3.920   0.344   6.949
 9965SOL    HW230795   3.762   0.304   6.953
 9966SOL     OW30796   0.390   6.803   2.737
 9966SOL    HW130797   0.315   6.859   2.772
 9966SOL    HW230798   0.453   6.860   2.684
 9967SOL     OW30799   1.210   5.020   0.737
 9967SOL    HW130800   1.257   4.951   0.793
 9967SOL    HW230801   1.196   4.983   0.645
 9968SOL     OW30802   3.434   3.008   2.608
 9968SOL    HW130803   3.342   2.973   2.625
 9968SOL    HW230804   3.444   3.030   2.511
 9969SOL     OW30805   1.042   3.365   1.731
 9969SOL    HW130806   0.971   3.408   1.787
 9969SOL    HW230807   1.056   3.420   1.649
 9970SOL     OW30808   5.686   4.459   1.434
 9970SOL    HW130809   5.742   4.493   1.510
 9970SOL    HW230810   5.746   4.433   1.358
 9971SOL     OW30811   2.398   5.862   0.166
 9971SOL    HW130812   2.421   5.916   0.248
 9971SOL    HW230813   2.301   5.838   0.169
 9972SOL     OW30814   6.831   4.785   1.358
 9972SOL    HW130815   6.749   4.792   1.415
 9972SOL    HW230816   6.854   4.689   1.343
 9973SOL     OW30817   5.649   6.831   4.489
 9973SOL    HW130818   5.599   6.751   4.522
 9973SOL    HW230819   5.658   6.825   4.390
 9974SOL     OW30820   2.028   0.895   4.115
 9974SOL    HW130821   2.103   0.886   4.181
 9974SOL    HW230822   2.038   0.981   4.065
 9975SOL     OW30823   6.701   3.287   0.518
 9975SOL    HW130824   6.734   3.210   0.573
 9975SOL    HW230825   6.778   3.332   0.474
 9976SOL     OW30826   1.939   0.247   5.322
 9976SOL    HW130827   1.902   0.285   5.237
 9976SOL    HW230828   1.957   0.321   5.387
 9977SOL     OW30829   6.717   4.538   4.330
 9977SOL    HW130830   6.717   4.438   4.330
 9977SOL    HW230831   6.709   4.570   4.425
 9978SOL     OW30832   0.246   2.483   4.386
 9978SOL    HW130833   0.276   2.575   4.361
 9978SOL    HW230834   0.313   2.416   4.351
 9979SOL     OW30835   0.896   3.888   5.388
 9979SOL    HW130836   0.853   3.923   5.305
 9979SOL    HW230837   0.905   3.788   5.381
 9980SOL     OW30838   3.516   0.024   4.895
 9980SOL    HW130839   3.557   6.960   4.892
 9980SOL    HW230840   3.451   0.029   4.971
 9981SOL     OW30841   3.264   1.922   4.192
 9981SOL    HW130842   3.244   1.841   4.137
 9981SOL    HW230843   3.204   1.997   4.163
 9982SOL     OW30844   6.523   5.766   3.158
 9982SOL    HW130845   6.596   5.786   3.092
 9982SOL    HW230846   6.435   5.769   3.111
 9983SOL     OW30847   0.198   1.136   1.332
 9983SOL    HW130848   0.186   1.118   1.430
 9983SOL    HW230849   0.132   1.081   1.280
 9984SOL     OW30850   2.246   0.743   0.465
 9984SOL    HW130851   2.168   0.699   0.509
 9984SOL    HW230852   2.305   0.784   0.535
 9985SOL     OW30853   1.300   1.339   1.583
 9985SOL    HW130854   1.365   1.275   1.625
 9985SOL    HW230855   1.250   1.293   1.510
 9986SOL     OW30856   5.266   4.747   4.993
 9986SOL    HW130857   5.181   4.761   4.944
 9986SOL    HW230858   5.261   4.662   5.045
 9987SOL     OW30859   0.047   4.280   6.048
 9987SOL    HW130860   0.080   4.332   6.127
 9987SOL    HW230861   0.016   4.344   5.977
 9988SOL     OW30862   6.909   6.663   4.662
 9988SOL    HW130863   6.831   6.714   4.627
 9988SOL    HW230864   6.908   6.571   4.625
 9989SOL     OW30865   0.710   3.337   4.726
 9989SOL    HW130866   0.716   3.370   4.820
 9989SOL    HW230867   0.753   3.403   4.665
 9990SOL     OW30868   1.068   4.966   2.203
 9990SOL    HW130869   1.122   4.977   2.120
 9990SOL    HW230870   0.974   4.943   2.179
 9991SOL     OW30871   3.816   1.950   3.313
 9991SOL    HW130872   3.908   1.935   3.278
 9991SOL    HW230873   3.818   2.021   3.384
 9992SOL     OW30874   6.592   5.473   6.299
 9992SOL    HW130875   6.616   5.406   6.228
 9992SOL    HW230876   6.636   5.560   6.278
 9993SOL     OW30877   0.819   1.063   1.860
 9993SOL    HW130878   0.761   1.027   1.933
 9993SOL    HW230879   0.834   1.161   1.875
 9994SOL     OW30880   6.021   4.714   3.162
 9994SOL    HW130881   6.113   4.726   3.126
 9994SOL    HW230882   5.955   4.742   3.092
 9995SOL     OW30883   5.261   1.341   4.741
 9995SOL    HW130884   5.213   1.275   4.683
 9995SOL    HW230885   5.208   1.426   4.745
 9996SOL     OW30886   2.173   3.327   0.147
 9996SOL    HW130887   2.262   3.297   0.113
 9996SOL    HW230888   2.173   3.427   0.156
 9997SOL     OW30889   2.780   6.967   4.747
 9997SOL    HW130890   2.752   0.017   4.803
 9997SOL    HW230891   2.701   6.930   4.698
 9998SOL     OW30892   5.913   6.362   5.207
 9998SOL    HW130893   5.962   6.351   5.294
 9998SOL    HW230894   5.823   6.401   5.224
 9999SOL     OW30895   6.580   2.983   4.533
 9999SOL    HW130896   6.527   2.899   4.546
 9999SOL    HW230897   6.555   3.050   4.603
10000SOL     OW30898   0.114   3.844   6.810
10000SOL    HW130899   0.168   3.798   6.739
10000SOL    HW230900   0.061   3.776   6.860
10001SOL     OW30901   4.089   0.140   2.724
10001SOL    HW130902   4.023   0.211   2.700
10001SOL    HW230903   4.041   0.058   2.755
10002SOL     OW30904   0.746   1.344   1.885
10002SOL    HW130905   0.789   1.385   1.805
10002SOL    HW230906   0.649   1.327   1.867
10003SOL     OW30907   5.150   2.203   3.586
10003SOL    HW130908   5.168   2.192   3.684
10003SOL    HW230909   5.101   2.289   3.571
10004SOL     OW30910   0.255   2.186   2.926
10004SOL    HW130911   0.341   2.161   2.971
10004SOL    HW230912   0.261   2.166   2.828
10005SOL     OW30913   5.388   6.945   4.645
10005SOL    HW130914   5.486   6.954   4.659
10005SOL    HW230915   5.341   6.947   4.733
10006SOL     OW30916   4.660   1.307   4.710
10006SOL    HW130917   4.628   1.263   4.794
10006SOL    HW230918   4.758   1.322   4.716
10007SOL     OW30919   6.422   3.403   4.409
10007SOL    HW130920   6.423   3.381   4.312
10007SOL    HW230921   6.332   3.438   4.435
10008SOL     OW30922   3.937   0.039   4.066
10008SOL    HW130923   3.912   0.005   4.157
10008SOL    HW230924   3.874   0.002   3.998
10009SOL     OW30925   0.925   4.276   1.958
10009SOL    HW130926   0.948   4.190   1.912
10009SOL    HW230927   0.972   4.281   2.046
10010SOL     OW30928   6.695   1.535   6.231
10010SOL    HW130929   6.718   1.437   6.234
10010SOL    HW230930   6.703   1.573   6.323
10011SOL     OW30931   0.159   6.738   4.656
10011SOL    HW130932   0.199   6.709   4.569
10011SOL    HW230933   0.061   6.720   4.654
10012SOL     OW30934   5.802   0.282   4.408
10012SOL    HW130935   5.714   0.299   4.453
10012SOL    HW230936   5.869   0.254   4.477
10013SOL     OW30937   1.464   0.992   2.129
10013SOL    HW130938   1.555   0.955   2.146
10013SOL    HW230939   1.405   0.920   2.092
10014SOL     OW30940   2.168   5.252   5.713
10014SOL    HW130941   2.237   5.187   5.681
10014SOL    HW230942   2.089   5.251   5.651
10015SOL     OW30943   2.304   4.902   6.913
10015SOL    HW130944   2.250   4.837   6.966
10015SOL    HW230945   2.244   4.952   6.851
10016SOL     OW30946   2.600   0.810   5.699
10016SOL    HW130947   2.698   0.812   5.676
10016SOL    HW230948   2.590   0.816   5.799
10017SOL     OW30949   0.764   2.213   4.280
10017SOL    HW130950   0.829   2.266   4.225
10017SOL    HW230951   0.719   2.145   4.222
10018SOL     OW30952   4.916   6.822   6.190
10018SOL    HW130953   4.848   6.839   6.118
10018SOL    HW230954   4.870   6.783   6.270
10019SOL     OW30955   1.954   1.121   2.178
10019SOL    HW130956   2.027   1.052   2.174
10019SOL    HW230957   1.946   1.155   2.272
10020SOL     OW30958   7.026   2.649   0.097
10020SOL    HW130959   6.961   2.671   0.170
10020SOL    HW230960   0.036   2.733   0.058
10021SOL     OW30961   5.481   3.234   1.622
10021SOL    HW130962   5.531   3.232   1.709
10021SOL    HW230963   5.463   3.141   1.592
10022SOL     OW30964   1.799   0.481   6.417
10022SOL    HW130965   1.739   0.514   6.490
10022SOL    HW230966   1.846   0.558   6.374
10023SOL     OW30967   0.161   3.270   1.117
10023SOL    HW130968   0.167   3.191   1.056
10023SOL    HW230969   0.147   3.238   1.211
10024SOL     OW30970   1.448   4.797   3.356
10024SOL    HW130971   1.399   4.848   3.426
10024SOL    HW230972   1.546   4.816   3.363
10025SOL     OW30973   1.373   1.658   0.476
10025SOL    HW130974   1.358   1.656   0.377
10025SOL    HW230975   1.330   1.578   0.518
10026SOL     OW30976   6.997   0.393   3.928
10026SOL    HW130977   6.960   0.429   4.014
10026SOL    HW230978   6.943   0.427   3.852
10027SOL     OW30979   5.108   2.391   5.929
10027SOL    HW130980   5.051   2.312   5.905
10027SOL    HW230981   5.180   2.361   5.992
10028SOL     OW30982   2.170   0.600   1.211
10028SOL    HW130983   2.084   0.577   1.256
10028SOL    HW230984   2.221   0.664   1.269
10029SOL     OW30985   5.099   1.692   4.115
10029SOL    HW130986   5.114   1.776   4.064
10029SOL    HW230987   5.000   1.678   4.127
10030SOL     OW30988   1.360   0.853   2.960
10030SOL    HW130989   1.301   0.931   2.938
10030SOL    HW230990   1.435   0.849   2.894
10031SOL     OW30991   6.672   4.438   3.924
10031SOL    HW130992   6.589   4.391   3.957
10031SOL    HW230993   6.679   4.528   3.967
10032SOL     OW30994   2.871   1.111   5.409
10032SOL    HW130995   2.882   1.187   5.345
10032SOL    HW230996   2.871   1.024   5.359
10033SOL     OW30997   5.575   2.853   4.654
10033SOL    HW130998   5.631   2.927   4.690
10033SOL    HW230999   5.581   2.774   4.716
10034SOL     OW31000   4.925   0.193   6.269
10034SOL    HW131001   4.835   0.149   6.268
10034SOL    HW231002   4.997   0.124   6.264
10035SOL     OW31003   0.198   6.603   3.647
10035SOL    HW131004   0.200   6.683   3.706
10035SOL    HW231005   0.275   6.606   3.583
10036SOL     OW31006   6.815   0.474   0.109
10036SOL    HW131007   6.840   0.558   0.062
10036SOL    HW231008   6.896   0.417   0.122
10037SOL     OW31009   0.152   6.902   1.041
10037SOL    HW131010   0.078   6.958   1.004
10037SOL    HW231011   0.158   6.817   0.989
10038SOL     OW31012   6.625   0.323   0.672
10038SOL    HW131013   6.582   0.272   0.598
10038SOL    HW231014   6.612   0.274   0.758
10039SOL     OW31015   3.377   0.534   3.320
10039SOL    HW131016   3.335   0.509   3.407
10039SOL    HW231017   3.309   0.530   3.247
10040SOL     OW31018   0.273   2.131   1.252
10040SOL    HW131019   0.349   2.077   1.215
10040SOL    HW231020   0.300   2.172   1.339
10041SOL     OW31021   1.376   5.903   0.901
10041SOL    HW131022   1.424   5.876   0.984
10041SOL    HW231023   1.379   5.828   0.835
10042SOL     OW31024   6.395   2.464   3.342
10042SOL    HW131025   6.327   2.473   3.270
10042SOL    HW231026   6.367   2.391   3.405
10043SOL     OW31027   0.657   3.115   4.967
10043SOL    HW131028   0.642   3.043   5.036
10043SOL    HW231029   0.642   3.077   4.876
10044SOL     OW31030   3.869   2.058   6.246
10044SOL    HW131031   3.769   2.049   6.247
10044SOL    HW231032   3.908   1.973   6.209
10045SOL     OW31033   2.109   0.787   0.218
10045SOL    HW131034   2.188   0.798   0.279
10045SOL    HW231035   2.092   0.690   0.203
10046SOL     OW31036   1.025   5.189   1.141
10046SOL    HW131037   0.928   5.214   1.134
10046SOL    HW231038   1.058   5.209   1.233
10047SOL     OW31039   1.238   3.839   0.676
10047SOL    HW131040   1.288   3.783   0.609
10047SOL    HW231041   1.260   3.935   0.662
10048SOL     OW31042   5.627   5.142   2.170
10048SOL    HW131043   5.705   5.081   2.157
10048SOL    HW231044   5.555   5.119   2.105
10049SOL     OW31045   5.789   1.211   5.234
10049SOL    HW131046   5.707   1.257   5.201
10049SOL    HW231047   5.790   1.117   5.200
10050SOL     OW31048   0.095   2.935   6.106
10050SOL    HW131049   7.025   2.922   6.085
10050SOL    HW231050   0.108   2.931   6.205
10051SOL     OW31051   2.131   1.786   4.509
10051SOL    HW131052   2.069   1.709   4.523
10051SOL    HW231053   2.099   1.865   4.562
10052SOL     OW31054   1.409   0.479   3.136
10052SOL    HW131055   1.417   0.486   3.037
10052SOL    HW231056   1.397   0.571   3.174
10053SOL     OW31057   5.774   5.238   3.072
10053SOL    HW131058   5.836   5.296   3.020
10053SOL    HW231059   5.720   5.182   3.008
10054SOL     OW31060   6.922   4.311   4.375
10054SOL    HW131061   6.938   4.264   4.461
10054SOL    HW231062   6.836   4.280   4.335
10055SOL     OW31063   1.638   2.461   6.563
10055SOL    HW131064   1.653   2.501   6.653
10055SOL    HW231065   1.724   2.423   6.529
10056SOL     OW31066   6.562   2.036   4.429
10056SOL    HW131067   6.619   2.076   4.501
10056SOL    HW231068   6.497   1.972   4.470
10057SOL     OW31069   5.251   5.128   5.823
10057SOL    HW131070   5.325   5.065   5.799
10057SOL    HW231071   5.166   5.099   5.778
10058SOL     OW31072   0.154   4.107   4.834
10058SOL    HW131073   0.200   4.052   4.904
10058SOL    HW231074   0.100   4.047   4.774
10059SOL     OW31075   5.558   6.817   6.308
10059SOL    HW131076   5.657   6.818   6.319
10059SOL    HW231077   5.514   6.839   6.395
10060SOL     OW31078   3.108   1.803   1.880
10060SOL    HW131079   3.088   1.900   1.887
10060SOL    HW231080   3.206   1.788   1.892
10061SOL     OW31081   3.220   0.230   2.218
10061SOL    HW131082   3.139   0.219   2.161
10061SOL    HW231083   3.209   0.310   2.277
10062SOL     OW31084   0.779   6.564   4.857
10062SOL    HW131085   0.750   6.470   4.873
10062SOL    HW231086   0.874   6.565   4.825
10063SOL     OW31087   2.839   2.205   4.671
10063SOL    HW131088   2.802   2.156   4.592
10063SOL    HW231089   2.883   2.289   4.641
10064SOL     OW31090   2.692   0.524   2.187
10064SOL    HW131091   2.640   0.606   2.164
10064SOL    HW231092   2.789   0.541   2.171
10065SOL     OW31093   0.092   1.790   1.508
10065SOL    HW131094   0.091   1.839   1.420
10065SOL    HW231095   0.036   1.708   1.501
10066SOL     OW31096   6.709   4.937   3.448
10066SOL    HW131097   6.758   5.018   3.483
10066SOL    HW231098   6.626   4.966   3.401
10067SOL     OW31099   6.869   3.714   5.336
10067SOL    HW131100   6.847   3.780   5.408
10067SOL    HW231101   6.873   3.622   5.375
10068SOL     OW31102   1.433   2.527   2.190
10068SOL    HW131103   1.406   2.543   2.095
10068SOL    HW231104   1.503   2.593   2.217
10069SOL     OW31105   3.256   4.868   0.900
10069SOL    HW131106   3.245   4.786   0.844
10069SOL    HW231107   3.176   4.927   0.890
10070SOL     OW31108   5.105   0.105   0.673
10070SOL    HW131109   5.020   0.079   0.718
10070SOL    HW231110   5.147   0.023   0.632
10071SOL     OW31111   5.365   0.910   5.847
10071SOL    HW131112   5.458   0.941   5.829
10071SOL    HW231113   5.307   0.988   5.867
10072SOL     OW31114   6.397   3.190   2.021
10072SOL    HW131115   6.487   3.149   2.003
10072SOL    HW231116   6.407   3.289   2.031
10073SOL     OW31117   5.391   5.268   5.045
10073SOL    HW131118   5.419   5.360   5.075
10073SOL    HW231119   5.380   5.209   5.125
10074SOL     OW31120   2.400   4.452   0.657
10074SOL    HW131121   2.457   4.433   0.578
10074SOL    HW231122   2.449   4.513   0.720
10075SOL     OW31123   1.261   3.198   1.732
10075SOL    HW131124   1.186   3.263   1.720
10075SOL    HW231125   1.281   3.187   1.829
10076SOL     OW31126   5.790   4.215   4.003
10076SOL    HW131127   5.864   4.164   3.960
10076SOL    HW231128   5.745   4.158   4.072
10077SOL     OW31129   4.757   3.588   6.502
10077SOL    HW131130   4.709   3.509   6.466
10077SOL    HW231131   4.702   3.670   6.487
10078SOL     OW31132   6.330   4.955   4.493
10078SOL    HW131133   6.245   4.904   4.504
10078SOL    HW231134   6.326   5.040   4.545
10079SOL     OW31135   5.154   4.297   3.591
10079SOL    HW131136   5.108   4.227   3.538
10079SOL    HW231137   5.087   4.347   3.646
10080SOL     OW31138   4.867   1.548   5.449
10080SOL    HW131139   4.863   1.540   5.350
10080SOL    HW231140   4.776   1.538   5.488
10081SOL     OW31141   1.125   4.618   0.040
10081SOL    HW131142   1.027   4.617   0.060
10081SOL    HW231143   1.155   4.712   0.023
10082SOL     OW31144   0.951   4.441   0.729
10082SOL    HW131145   1.030   4.441   0.668
10082SOL    HW231146   0.981   4.460   0.823
10083SOL     OW31147   2.664   6.135   2.273
10083SOL    HW131148   2.761   6.158   2.259
10083SOL    HW231149   2.632   6.080   2.196
10084SOL     OW31150   1.250   2.580   4.433
10084SOL    HW131151   1.346   2.578   4.460
10084SOL    HW231152   1.210   2.490   4.446
10085SOL     OW31153   4.810   6.984   1.679
10085SOL    HW131154   4.871   6.937   1.742
10085SOL    HW231155   4.779   6.920   1.608
10086SOL     OW31156   4.221   6.486   2.937
10086SOL    HW131157   4.310   6.527   2.956
10086SOL    HW231158   4.151   6.557   2.937
10087SOL     OW31159   1.914   6.399   4.994
10087SOL    HW131160   1.887   6.342   4.917
10087SOL    HW231161   2.007   6.376   5.022
10088SOL     OW31162   6.241   2.614   1.390
10088SOL    HW131163   6.336   2.583   1.400
10088SOL    HW231164   6.179   2.537   1.406
10089SOL     OW31165   4.186   0.375   2.035
10089SOL    HW131166   4.166   0.417   2.124
10089SOL    HW231167   4.228   0.443   1.975
10090SOL     OW31168   1.929   6.207   2.960
10090SOL    HW131169   1.830   6.198   2.972
10090SOL    HW231170   1.954   6.303   2.959
10091SOL     OW31171   5.783   5.165   4.564
10091SOL    HW131172   5.729   5.177   4.647
10091SOL    HW231173   5.869   5.120   4.586
10092SOL     OW31174   0.827   1.770   3.395
10092SOL    HW131175   0.780   1.795   3.311
10092SOL    HW231176   0.764   1.780   3.473
10093SOL     OW31177   4.718   3.904   6.368
10093SOL    HW131178   4.649   3.849   6.414
10093SOL    HW231179   4.705   3.898   6.269
10094SOL     OW31180   3.657   2.017   0.558
10094SOL    HW131181   3.613   2.040   0.645
10094SOL    HW231182   3.723   2.088   0.534
10095SOL     OW31183   4.048   3.190   5.527
10095SOL    HW131184   4.044   3.164   5.624
10095SOL    HW231185   4.100   3.274   5.517
10096SOL     OW31186   6.542   3.427   2.144
10096SOL    HW131187   6.621   3.412   2.203
10096SOL    HW231188   6.481   3.495   2.185
10097SOL     OW31189   1.099   1.520   1.014
10097SOL    HW131190   1.179   1.555   1.064
10097SOL    HW231191   1.097   1.559   0.922
10098SOL     OW31192   3.537   6.273   4.677
10098SOL    HW131193   3.463   6.215   4.711
10098SOL    HW231194   3.574   6.328   4.752
10099SOL     OW31195   6.997   5.035   3.271
10099SOL    HW131196   6.951   5.053   3.184
10099SOL    HW231197   6.992   4.938   3.293
10100SOL     OW31198   5.268   4.878   4.075
10100SOL    HW131199   5.265   4.961   4.020
10100SOL    HW231200   5.336   4.889   4.148
10101SOL     OW31201   6.639   2.740   0.358
10101SOL    HW131202   6.588   2.736   0.272
10101SOL    HW231203   6.621   2.657   0.411
10102SOL     OW31204   6.403   4.860   3.159
10102SOL    HW131205   6.345   4.779   3.153
10102SOL    HW231206   6.401   4.896   3.252
10103SOL     OW31207   0.457   6.484   6.686
10103SOL    HW131208   0.444   6.385   6.678
10103SOL    HW231209   0.514   6.504   6.766
10104SOL     OW31210   3.026   0.971   4.550
10104SOL    HW131211   2.956   0.906   4.522
10104SOL    HW231212   3.027   0.979   4.650
10105SOL     OW31213   2.994   1.328   3.404
10105SOL    HW131214   2.987   1.420   3.368
10105SOL    HW231215   2.946   1.322   3.491
10106SOL     OW31216   5.661   4.215   1.566
10106SOL    HW131217   5.653   4.299   1.513
10106SOL    HW231218   5.571   4.170   1.570
10107SOL     OW31219   5.176   5.458   6.227
10107SOL    HW131220   5.150   5.368   6.193
10107SOL    HW231221   5.185   5.522   6.151
10108SOL     OW31222   2.522   2.359   5.305
10108SOL    HW131223   2.506   2.266   5.339
10108SOL    HW231224   2.460   2.423   5.352
10109SOL     OW31225   1.041   2.895   0.991
10109SOL    HW131226   1.058   2.947   0.907
10109SOL    HW231227   1.126   2.850   1.020
10110SOL     OW31228   6.486   5.664   1.614
10110SOL    HW131229   6.462   5.756   1.583
10110SOL    HW231230   6.402   5.610   1.625
10111SOL     OW31231   6.136   2.721   1.608
10111SOL    HW131232   6.177   2.709   1.518
10111SOL    HW231233   6.182   2.660   1.673
10112SOL     OW31234   6.904   2.842   4.243
10112SOL    HW131235   6.972   2.874   4.177
10112SOL    HW231236   6.814   2.841   4.201
10113SOL     OW31237   6.912   6.460   5.702
10113SOL    HW131238   6.881   6.397   5.773
10113SOL    HW231239   6.963   6.535   5.744
10114SOL     OW31240   4.890   3.342   1.848
10114SOL    HW131241   4.949   3.330   1.927
10114SOL    HW231242   4.819   3.410   1.869
10115SOL     OW31243   3.567   3.078   6.045
10115SOL    HW131244   3.527   3.167   6.022
10115SOL    HW231245   3.522   3.006   5.992
10116SOL     OW31246   0.472   0.359   6.462
10116SOL    HW131247   0.492   0.425   6.390
10116SOL    HW231248   0.495   0.398   6.551
10117SOL     OW31249   6.808   4.509   1.400
10117SOL    HW131250   6.781   4.453   1.478
10117SOL    HW231251   6.908   4.512   1.393
10118SOL     OW31252   3.945   5.144   4.087
10118SOL    HW131253   3.977   5.058   4.125
10118SOL    HW231254   3.918   5.131   3.991
10119SOL     OW31255   6.003   6.545   6.675
10119SOL    HW131256   6.050   6.458   6.688
10119SOL    HW231257   6.027   6.584   6.586
10120SOL     OW31258   2.448   2.593   2.748
10120SOL    HW131259   2.375   2.525   2.757
10120SOL    HW231260   2.500   2.576   2.664
10121SOL     OW31261   6.977   5.568   1.506
10121SOL    HW131262   6.976   5.513   1.422
10121SOL    HW231263   6.887   5.568   1.548
10122SOL     OW31264   1.802   0.252   3.239
10122SOL    HW131265   1.883   0.279   3.291
10122SOL    HW231266   1.775   0.327   3.178
10123SOL     OW31267   6.153   6.069   6.138
10123SOL    HW131268   6.068   6.039   6.095
10123SOL    HW231269   6.192   5.994   6.191
10124SOL     OW31270   2.646   5.147   2.348
10124SOL    HW131271   2.741   5.141   2.319
10124SOL    HW231272   2.642   5.170   2.445
10125SOL     OW31273   1.427   1.020   5.069
10125SOL    HW131274   1.333   1.041   5.042
10125SOL    HW231275   1.470   1.103   5.106
10126SOL     OW31276   6.598   6.112   5.006
10126SOL    HW131277   6.509   6.148   4.977
10126SOL    HW231278   6.653   6.186   5.045
10127SOL     OW31279   2.377   0.021   5.576
10127SOL    HW131280   2.389   6.956   5.539
10127SOL    HW231281   2.279   0.042   5.582
10128SOL     OW31282   2.555   2.164   7.026
10128SOL    HW131283   2.495   2.105   0.052
10128SOL    HW231284   2.519   2.257   7.024
10129SOL     OW31285   6.403   2.190   4.751
10129SOL    HW131286   6.380   2.243   4.833
10129SOL    HW231287   6.501   2.201   4.731
10130SOL     OW31288   1.398   2.244   3.266
10130SOL    HW131289   1.391   2.308   3.343
10130SOL    HW231290   1.447   2.288   3.191
10131SOL     OW31291   1.789   0.011   5.443
10131SOL    HW131292   1.703   0.047   5.482
10131SOL    HW231293   1.841   0.086   5.402
10132SOL     OW31294   5.559   0.575   2.402
10132SOL    HW131295   5.615   0.543   2.479
10132SOL    HW231296   5.464   0.581   2.431
10133SOL     OW31297   4.553   6.055   1.418
10133SOL    HW131298   4.600   6.128   1.469
10133SOL    HW231299   4.620   6.005   1.363
10134SOL     OW31300   0.194   6.489   3.237
10134SOL    HW131301   0.147   6.401   3.228
10134SOL    HW231302   0.293   6.473   3.248
10135SOL     OW31303   6.639   6.461   3.465
10135SOL    HW131304   6.675   6.437   3.555
10135SOL    HW231305   6.614   6.558   3.465
10136SOL     OW31306   4.454   1.106   3.723
10136SOL    HW131307   4.416   1.031   3.777
10136SOL    HW231308   4.554   1.105   3.729
10137SOL     OW31309   0.179   5.613   4.000
10137SOL    HW131310   0.243   5.594   4.074
10137SOL    HW231311   0.136   5.528   3.969
10138SOL     OW31312   7.011   2.510   1.850
10138SOL    HW131313   0.068   2.562   1.862
10138SOL    HW231314   0.006   2.415   1.830
10139SOL     OW31315   4.204   2.716   6.978
10139SOL    HW131316   4.170   2.680   6.891
10139SOL    HW231317   4.301   2.736   6.970
10140SOL     OW31318   6.715   5.677   5.274
10140SOL    HW131319   6.809   5.710   5.273
10140SOL    HW231320   6.659   5.736   5.332
10141SOL     OW31321   1.635   2.173   4.900
10141SOL    HW131322   1.716   2.229   4.911
10141SOL    HW231323   1.560   2.229   4.865
10142SOL     OW31324   5.161   5.754   2.174
10142SOL    HW131325   5.089   5.690   2.201
10142SOL    HW231326   5.151   5.839   2.224
10143SOL     OW31327   5.792   3.297   6.129
10143SOL    HW131328   5.836   3.338   6.210
10143SOL    HW231329   5.845   3.218   6.099
10144SOL     OW31330   3.758   0.408   0.568
10144SOL    HW131331   3.841   0.463   0.579
10144SOL    HW231332   3.678   0.464   0.589
10145SOL     OW31333   6.419   6.973   5.279
10145SOL    HW131334   6.341   6.911   5.287
10145SOL    HW231335   6.464   6.959   5.191
10146SOL     OW31336   1.666   3.076   5.554
10146SOL    HW131337   1.620   2.987   5.567
10146SOL    HW231338   1.761   3.061   5.527
10147SOL     OW31339   3.865   5.448   6.839
10147SOL    HW131340   3.801   5.370   6.838
10147SOL    HW231341   3.958   5.414   6.846
10148SOL     OW31342   0.595   5.190   6.864
10148SOL    HW131343   0.603   5.099   6.904
10148SOL    HW231344   0.565   5.182   6.769
10149SOL     OW31345   4.103   3.243   2.276
10149SOL    HW131346   4.141   3.336   2.274
10149SOL    HW231347   4.128   3.195   2.192
10150SOL     OW31348   4.969   4.130   1.583
10150SOL    HW131349   4.921   4.134   1.670
10150SOL    HW231350   4.904   4.140   1.508
10151SOL     OW31351   0.113   1.146   6.060
10151SOL    HW131352   0.140   1.240   6.036
10151SOL    HW231353   0.056   1.108   5.988
10152SOL     OW31354   3.978   6.914   3.426
10152SOL    HW131355   3.936   6.999   3.395
10152SOL    HW231356   4.022   6.929   3.514
10153SOL     OW31357   4.788   3.623   1.802
10153SOL    HW131358   4.842   3.654   1.881
10153SOL    HW231359   4.749   3.702   1.756
10154SOL     OW31360   4.113   5.392   4.966
10154SOL    HW131361   4.015   5.382   4.983
10154SOL    HW231362   4.155   5.301   4.956
10155SOL     OW31363   4.679   1.999   4.208
10155SOL    HW131364   4.633   1.951   4.283
10155SOL    HW231365   4.641   2.090   4.198
10156SOL     OW31366   4.030   2.249   6.076
10156SOL    HW131367   3.979   2.192   6.140
10156SOL    HW231368   4.062   2.332   6.123
10157SOL     OW31369   0.730   4.610   1.064
10157SOL    HW131370   0.699   4.550   0.991
10157SOL    HW231371   0.743   4.557   1.148
10158SOL     OW31372   5.490   5.167   0.382
10158SOL    HW131373   5.452   5.257   0.407
10158SOL    HW231374   5.575   5.180   0.330
10159SOL     OW31375   3.671   2.798   1.787
10159SOL    HW131376   3.685   2.698   1.788
10159SOL    HW231377   3.589   2.819   1.734
10160SOL     OW31378   0.152   4.444   2.548
10160SOL    HW131379   0.146   4.376   2.475
10160SOL    HW231380   0.062   4.483   2.565
10161SOL     OW31381   6.054   3.186   6.074
10161SOL    HW131382   6.094   3.189   5.983
10161SOL    HW231383   6.097   3.256   6.131
10162SOL     OW31384   1.665   2.138   2.341
10162SOL    HW131385   1.624   2.195   2.270
10162SOL    HW231386   1.643   2.176   2.431
10163SOL     OW31387   3.232   4.952   4.663
10163SOL    HW131388   3.198   4.897   4.739
10163SOL    HW231389   3.320   4.993   4.689
10164SOL     OW31390   0.346   1.171   4.003
10164SOL    HW131391   0.320   1.266   4.021
10164SOL    HW231392   0.338   1.118   4.087
10165SOL     OW31393   1.506   3.055   4.059
10165SOL    HW131394   1.603   3.033   4.046
10165SOL    HW231395   1.494   3.155   4.055
10166SOL     OW31396   3.017   5.818   3.031
10166SOL    HW131397   3.068   5.794   3.114
10166SOL    HW231398   3.053   5.903   2.993
10167SOL     OW31399   3.126   2.345   6.582
10167SOL    HW131400   3.104   2.248   6.585
10167SOL    HW231401   3.071   2.394   6.650
10168SOL     OW31402   0.300   0.711   6.210
10168SOL    HW131403   0.215   0.669   6.177
10168SOL    HW231404   0.295   0.810   6.197
10169SOL     OW31405   4.551   5.603   3.174
10169SOL    HW131406   4.549   5.524   3.234
10169SOL    HW231407   4.461   5.647   3.174
10170SOL     OW31408   4.963   6.882   0.591
10170SOL    HW131409   4.945   6.786   0.609
10170SOL    HW231410   4.910   6.938   0.655
10171SOL     OW31411   2.236   3.983   3.932
10171SOL    HW131412   2.203   3.912   3.994
10171SOL    HW231413   2.159   4.021   3.880
10172SOL     OW31414   0.362   0.734   2.489
10172SOL    HW131415   0.377   0.636   2.502
10172SOL    HW231416   0.334   0.775   2.575
10173SOL     OW31417   3.867   3.713   5.219
10173SOL    HW131418   3.867   3.785   5.288
10173SOL    HW231419   3.960   3.676   5.209
10174SOL     OW31420   5.222   4.497   1.226
10174SOL    HW131421   5.134   4.462   1.257
10174SOL    HW231422   5.213   4.537   1.135
10175SOL     OW31423   6.477   6.909   4.207
10175SOL    HW131424   6.536   6.975   4.161
10175SOL    HW231425   6.507   6.816   4.186
10176SOL     OW31426   6.855   0.964   4.722
10176SOL    HW131427   6.894   1.040   4.774
10176SOL    HW231428   6.873   0.976   4.625
10177SOL     OW31429   2.779   1.513   3.908
10177SOL    HW131430   2.785   1.553   3.816
10177SOL    HW231431   2.862   1.536   3.959
10178SOL     OW31432   0.462   1.500   1.713
10178SOL    HW131433   0.482   1.417   1.764
10178SOL    HW231434   0.364   1.519   1.716
10179SOL     OW31435   0.030   6.090   1.277
10179SOL    HW131436   0.101   6.156   1.255
10179SOL    HW231437   6.971   6.119   1.236
10180SOL     OW31438   3.067   6.683   6.173
10180SOL    HW131439   3.058   6.628   6.089
10180SOL    HW231440   3.158   6.723   6.177
10181SOL     OW31441   0.470   3.534   2.465
10181SOL    HW131442   0.375   3.511   2.482
10181SOL    HW231443   0.527   3.453   2.479
10182SOL     OW31444   3.872   0.346   0.322
10182SOL    HW131445   3.958   0.393   0.305
10182SOL    HW231446   3.811   0.405   0.374
10183SOL     OW31447   4.138   6.012   5.655
10183SOL    HW131448   4.127   5.915   5.632
10183SOL    HW231449   4.180   6.060   5.578
10184SOL     OW31450   5.531   3.008   4.973
10184SOL    HW131451   5.604   2.976   4.914
10184SOL    HW231452   5.523   2.948   5.053
10185SOL     OW31453   2.665   4.668   2.498
10185SOL    HW131454   2.654   4.575   2.532
10185SOL    HW231455   2.575   4.712   2.491
10186SOL     OW31456   3.468   2.891   0.550
10186SOL    HW131457   3.554   2.839   0.553
10186SOL    HW231458   3.488   2.989   0.547
10187SOL     OW31459   2.239   3.671   5.489
10187SOL    HW131460   2.253   3.717   5.402
10187SOL    HW231461   2.144   3.642   5.497
10188SOL     OW31462   2.055   6.663   6.984
10188SOL    HW131463   2.041   6.602   0.034
10188SOL    HW231464   1.979   6.654   6.919
10189SOL     OW31465   2.100   1.885   5.009
10189SOL    HW131466   2.195   1.857   4.997
10189SOL    HW231467   2.069   1.860   5.100
10190SOL     OW31468   4.006   4.056   0.902
10190SOL    HW131469   4.011   3.961   0.869
10190SOL    HW231470   4.022   4.057   1.001
10191SOL     OW31471   5.298   0.612   0.168
10191SOL    HW131472   5.304   0.682   0.097
10191SOL    HW231473   5.317   0.653   0.258
10192SOL     OW31474   2.025   1.189   4.176
10192SOL    HW131475   2.042   1.189   4.078
10192SOL    HW231476   1.942   1.241   4.196
10193SOL     OW31477   3.652   3.842   4.114
10193SOL    HW131478   3.706   3.758   4.106
10193SOL    HW231479   3.686   3.896   4.191
10194SOL     OW31480   3.066   6.050   2.857
10194SOL    HW131481   3.096   6.130   2.909
10194SOL    HW231482   3.142   6.013   2.805
10195SOL     OW31483   5.334   0.750   3.250
10195SOL    HW131484   5.395   0.750   3.330
10195SOL    HW231485   5.389   0.739   3.167
10196SOL     OW31486   5.214   4.233   4.544
10196SOL    HW131487   5.132   4.279   4.578
10196SOL    HW231488   5.283   4.229   4.616
10197SOL     OW31489   5.046   1.552   3.103
10197SOL    HW131490   5.127   1.514   3.146
10197SOL    HW231491   5.063   1.567   3.006
10198SOL     OW31492   3.419   1.095   1.590
10198SOL    HW131493   3.391   1.163   1.521
10198SOL    HW231494   3.361   1.104   1.671
10199SOL     OW31495   1.147   1.890   0.121
10199SOL    HW131496   1.108   1.857   0.036
10199SOL    HW231497   1.171   1.987   0.112
10200SOL     OW31498   5.660   6.296   4.613
10200SOL    HW131499   5.716   6.216   4.593
10200SOL    HW231500   5.564   6.268   4.623
10201SOL     OW31501   1.871   4.782   3.097
10201SOL    HW131502   1.824   4.855   3.147
10201SOL    HW231503   1.823   4.763   3.012
10202SOL     OW31504   0.575   2.048   3.652
10202SOL    HW131505   0.569   2.002   3.741
10202SOL    HW231506   0.667   2.087   3.642
10203SOL     OW31507   0.164   2.239   1.020
10203SOL    HW131508   0.223   2.215   1.097
10203SOL    HW231509   0.161   2.163   0.955
10204SOL     OW31510   2.722   5.848   4.370
10204SOL    HW131511   2.804   5.858   4.315
10204SOL    HW231512   2.735   5.892   4.459
10205SOL     OW31513   3.987   0.545   1.214
10205SOL    HW131514   4.019   0.465   1.264
10205SOL    HW231515   3.931   0.602   1.274
10206SOL     OW31516   5.417   6.882   6.537
10206SOL    HW131517   5.319   6.864   6.538
10206SOL    HW231518   5.447   6.914   6.626
10207SOL     OW31519   3.967   1.339   2.640
10207SOL    HW131520   4.053   1.337   2.589
10207SOL    HW231521   3.891   1.355   2.577
10208SOL     OW31522   6.640   3.355   5.828
10208SOL    HW131523   6.563   3.370   5.890
10208SOL    HW231524   6.612   3.292   5.755
10209SOL     OW31525   4.065   6.211   6.680
10209SOL    HW131526   4.074   6.245   6.587
10209SOL    HW231527   3.977   6.239   6.718
10210SOL     OW31528   5.478   5.469   0.339
10210SOL    HW131529   5.576   5.483   0.354
10210SOL    HW231530   5.428   5.551   0.365
10211SOL     OW31531   3.796   5.570   5.411
10211SOL    HW131532   3.880   5.518   5.394
10211SOL    HW231533   3.812   5.666   5.387
10212SOL     OW31534   6.038   6.355   6.166
10212SOL    HW131535   6.102   6.279   6.152
10212SOL    HW231536   6.082   6.441   6.139
10213SOL     OW31537   4.420   0.907   4.193
10213SOL    HW131538   4.508   0.870   4.223
10213SOL    HW231539   4.423   1.007   4.196
10214SOL     OW31540   0.873   0.670   0.221
10214SOL    HW131541   0.804   0.678   0.292
10214SOL    HW231542   0.942   0.604   0.248
10215SOL     OW31543   4.234   2.527   0.150
10215SOL    HW131544   4.202   2.441   0.111
10215SOL    HW231545   4.221   2.601   0.084
10216SOL     OW31546   5.268   0.330   3.008
10216SOL    HW131547   5.293   0.248   3.060
10216SOL    HW231548   5.335   0.402   3.028
10217SOL     OW31549   3.333   2.388   5.559
10217SOL    HW131550   3.248   2.336   5.568
10217SOL    HW231551   3.322   2.458   5.489
10218SOL     OW31552   3.113   2.076   6.599
10218SOL    HW131553   3.121   2.088   6.698
10218SOL    HW231554   3.104   1.978   6.578
10219SOL     OW31555   1.179   5.383   6.945
10219SOL    HW131556   1.153   5.322   7.020
10219SOL    HW231557   1.115   5.460   6.942
10220SOL     OW31558   4.076   2.220   0.221
10220SOL    HW131559   4.134   2.195   0.144
10220SOL    HW231560   4.121   2.197   0.307
10221SOL     OW31561   2.481   1.017   4.277
10221SOL    HW131562   2.439   1.050   4.361
10221SOL    HW231563   2.503   0.920   4.286
10222SOL     OW31564   1.926   4.987   5.605
10222SOL    HW131565   1.860   4.999   5.679
10222SOL    HW231566   2.015   4.962   5.644
10223SOL     OW31567   0.823   4.533   6.821
10223SOL    HW131568   0.899   4.586   6.784
10223SOL    HW231569   0.855   4.474   6.894
10224SOL     OW31570   2.709   0.180   4.899
10224SOL    HW131571   2.619   0.150   4.929
10224SOL    HW231572   2.701   0.232   4.814
10225SOL     OW31573   4.968   5.820   4.797
10225SOL    HW131574   5.019   5.897   4.760
10225SOL    HW231575   4.937   5.842   4.890
10226SOL     OW31576   6.524   2.634   6.441
10226SOL    HW131577   6.603   2.602   6.389
10226SOL    HW231578   6.443   2.582   6.413
10227SOL     OW31579   4.744   4.850   5.481
10227SOL    HW131580   4.728   4.941   5.443
10227SOL    HW231581   4.839   4.841   5.510
10228SOL     OW31582   0.976   3.179   2.004
10228SOL    HW131583   1.040   3.123   2.057
10228SOL    HW231584   0.975   3.147   1.910
10229SOL     OW31585   2.295   0.765   1.415
10229SOL    HW131586   2.271   0.742   1.509
10229SOL    HW231587   2.390   0.740   1.398
10230SOL     OW31588   6.518   6.729   3.470
10230SOL    HW131589   6.557   6.816   3.502
10230SOL    HW231590   6.461   6.746   3.389
10231SOL     OW31591   4.729   6.827   4.461
10231SOL    HW131592   4.722   6.925   4.442
10231SOL    HW231593   4.755   6.813   4.556
10232SOL     OW31594   3.891   1.695   3.464
10232SOL    HW131595   3.989   1.697   3.484
10232SOL    HW231596   3.871   1.756   3.387
10233SOL     OW31597   4.879   0.431   5.563
10233SOL    HW131598   4.801   0.398   5.510
10233SOL    HW231599   4.846   0.474   5.647
10234SOL     OW31600   4.439   5.742   1.233
10234SOL    HW131601   4.358   5.751   1.292
10234SOL    HW231602   4.444   5.820   1.171
10235SOL     OW31603   4.850   0.891   0.205
10235SOL    HW131604   4.883   0.862   0.295
10235SOL    HW231605   4.900   0.841   0.134
10236SOL     OW31606   1.722   5.855   1.525
10236SOL    HW131607   1.746   5.788   1.455
10236SOL    HW231608   1.669   5.811   1.597
10237SOL     OW31609   5.615   2.387   3.381
10237SOL    HW131610   5.519   2.378   3.408
10237SOL    HW231611   5.620   2.418   3.286
10238SOL     OW31612   4.469   6.094   4.723
10238SOL    HW131613   4.553   6.048   4.751
10238SOL    HW231614   4.490   6.187   4.692
10239SOL     OW31615   6.274   3.607   4.641
10239SOL    HW131616   6.248   3.670   4.568
10239SOL    HW231617   6.256   3.650   4.730
10240SOL     OW31618   4.865   3.737   3.458
10240SOL    HW131619   4.793   3.740   3.388
10240SOL    HW231620   4.867   3.824   3.506
10241SOL     OW31621   1.953   1.877   3.069
10241SOL    HW131622   1.956   1.961   3.015
10241SOL    HW231623   1.927   1.801   3.010
10242SOL     OW31624   1.231   5.568   6.007
10242SOL    HW131625   1.169   5.602   5.937
10242SOL    HW231626   1.325   5.571   5.972
10243SOL     OW31627   1.068   6.489   2.981
10243SOL    HW131628   1.105   6.460   3.069
10243SOL    HW231629   1.144   6.507   2.918
10244SOL     OW31630   1.473   5.478   0.290
10244SOL    HW131631   1.467   5.553   0.225
10244SOL    HW231632   1.489   5.392   0.240
10245SOL     OW31633   2.411   2.585   0.566
10245SOL    HW131634   2.457   2.642   0.634
10245SOL    HW231635   2.347   2.642   0.513
10246SOL     OW31636   3.014   3.265   4.345
10246SOL    HW131637   3.038   3.335   4.277
10246SOL    HW231638   3.004   3.307   4.435
10247SOL     OW31639   0.801   5.832   5.409
10247SOL    HW131640   0.862   5.754   5.390
10247SOL    HW231641   0.727   5.833   5.343
10248SOL     OW31642   5.857   0.878   3.589
10248SOL    HW131643   5.890   0.946   3.655
10248SOL    HW231644   5.920   0.874   3.512
10249SOL     OW31645   4.716   1.422   6.280
10249SOL    HW131646   4.626   1.403   6.320
10249SOL    HW231647   4.779   1.346   6.301
10250SOL     OW31648   5.364   6.884   0.593
10250SOL    HW131649   5.350   6.833   0.508
10250SOL    HW231650   5.462   6.904   0.605
10251SOL     OW31651   3.577   4.587   1.249
10251SOL    HW131652   3.561   4.686   1.255
10251SOL    HW231653   3.638   4.568   1.172
10252SOL     OW31654   0.261   4.437   1.235
10252SOL    HW131655   0.216   4.348   1.223
10252SOL    HW231656   0.353   4.423   1.270
10253SOL     OW31657   3.895   4.719   0.420
10253SOL    HW131658   3.898   4.677   0.511
10253SOL    HW231659   3.824   4.789   0.417
10254SOL     OW31660   2.368   1.331   4.645
10254SOL    HW131661   2.431   1.361   4.573
10254SOL    HW231662   2.280   1.378   4.634
10255SOL     OW31663   2.982   5.601   2.891
10255SOL    HW131664   2.923   5.616   2.812
10255SOL    HW231665   2.997   5.687   2.938
10256SOL     OW31666   5.872   6.567   0.223
10256SOL    HW131667   5.828   6.627   0.156
10256SOL    HW231668   5.817   6.565   0.307
10257SOL     OW31669   1.842   5.683   5.411
10257SOL    HW131670   1.941   5.685   5.423
10257SOL    HW231671   1.821   5.668   5.314
10258SOL     OW31672   4.069   0.570   3.454
10258SOL    HW131673   4.155   0.522   3.472
10258SOL    HW231674   4.072   0.660   3.497
10259SOL     OW31675   0.438   3.941   3.985
10259SOL    HW131676   0.481   3.873   3.924
10259SOL    HW231677   0.344   3.913   4.004
10260SOL     OW31678   0.073   5.774   2.455
10260SOL    HW131679   0.071   5.721   2.539
10260SOL    HW231680   0.131   5.728   2.388
10261SOL     OW31681   1.697   0.244   2.031
10261SOL    HW131682   1.767   0.231   1.960
10261SOL    HW231683   1.686   0.342   2.049
10262SOL     OW31684   1.316   6.446   3.818
10262SOL    HW131685   1.413   6.429   3.831
10262SOL    HW231686   1.304   6.530   3.765
10263SOL     OW31687   6.316   3.015   5.568
10263SOL    HW131688   6.321   3.086   5.498
10263SOL    HW231689   6.232   3.027   5.621
10264SOL     OW31690   0.497   6.743   7.023
10264SOL    HW131691   0.589   6.783   0.002
10264SOL    HW231692   0.502   6.658   6.971
10265SOL     OW31693   4.371   1.998   2.745
10265SOL    HW131694   4.400   2.084   2.702
10265SOL    HW231695   4.443   1.966   2.806
10266SOL     OW31696   4.113   3.714   6.722
10266SOL    HW131697   4.088   3.701   6.626
10266SOL    HW231698   4.131   3.811   6.739
10267SOL     OW31699   6.262   1.177   6.381
10267SOL    HW131700   6.294   1.272   6.372
10267SOL    HW231701   6.279   1.145   6.474
10268SOL     OW31702   6.374   3.754   1.278
10268SOL    HW131703   6.400   3.805   1.360
10268SOL    HW231704   6.451   3.754   1.214
10269SOL     OW31705   3.590   2.283   6.155
10269SOL    HW131706   3.647   2.350   6.202
10269SOL    HW231707   3.610   2.192   6.191
10270SOL     OW31708   2.943   6.318   1.797
10270SOL    HW131709   2.993   6.256   1.857
10270SOL    HW231710   3.005   6.386   1.760
10271SOL     OW31711   2.765   5.289   0.894
10271SOL    HW131712   2.754   5.209   0.835
10271SOL    HW231713   2.677   5.311   0.938
10272SOL     OW31714   1.971   2.245   4.455
10272SOL    HW131715   1.900   2.195   4.505
10272SOL    HW231716   1.948   2.247   4.358
10273SOL     OW31717   4.349   0.060   3.894
10273SOL    HW131718   4.310   0.137   3.944
10273SOL    HW231719   4.283   7.012   3.891
10274SOL     OW31720   2.696   4.792   6.599
10274SOL    HW131721   2.728   4.882   6.569
10274SOL    HW231722   2.644   4.802   6.683
10275SOL     OW31723   0.889   6.801   1.814
10275SOL    HW131724   0.970   6.747   1.794
10275SOL    HW231725   0.876   6.870   1.743
10276SOL     OW31726   0.892   6.075   6.723
10276SOL    HW131727   0.876   6.023   6.807
10276SOL    HW231728   0.814   6.136   6.707
10277SOL     OW31729   0.521   5.817   2.043
10277SOL    HW131730   0.456   5.770   1.984
10277SOL    HW231731   0.541   5.761   2.123
10278SOL     OW31732   6.582   0.041   5.775
10278SOL    HW131733   6.656   0.040   5.708
10278SOL    HW231734   6.494   0.030   5.729
10279SOL     OW31735   3.675   6.363   4.878
10279SOL    HW131736   3.759   6.415   4.863
10279SOL    HW231737   3.621   6.405   4.950
10280SOL     OW31738   3.659   2.686   6.780
10280SOL    HW131739   3.587   2.675   6.710
10280SOL    HW231740   3.636   2.762   6.840
10281SOL     OW31741   4.891   7.004   4.186
10281SOL    HW131742   4.965   0.029   4.143
10281SOL    HW231743   4.856   6.936   4.122
10282SOL     OW31744   1.158   2.798   4.542
10282SOL    HW131745   1.197   2.712   4.508
10282SOL    HW231746   1.130   2.786   4.637
10283SOL     OW31747   1.728   4.293   5.934
10283SOL    HW131748   1.665   4.359   5.894
10283SOL    HW231749   1.726   4.209   5.881
10284SOL     OW31750   4.835   2.937   0.186
10284SOL    HW131751   4.860   3.026   0.224
10284SOL    HW231752   4.908   2.871   0.206
10285SOL     OW31753   5.107   1.263   0.989
10285SOL    HW131754   5.035   1.299   1.048
10285SOL    HW231755   5.147   1.338   0.936
10286SOL     OW31756   4.414   0.874   3.890
10286SOL    HW131757   4.510   0.851   3.904
10286SOL    HW231758   4.358   0.829   3.959
10287SOL     OW31759   1.426   4.537   2.115
10287SOL    HW131760   1.426   4.621   2.169
10287SOL    HW231761   1.455   4.557   2.021
10288SOL     OW31762   4.800   6.409   4.472
10288SOL    HW131763   4.722   6.347   4.461
10288SOL    HW231764   4.834   6.437   4.383
10289SOL     OW31765   2.789   1.314   1.522
10289SOL    HW131766   2.753   1.301   1.614
10289SOL    HW231767   2.718   1.292   1.455
10290SOL     OW31768   3.216   3.337   2.191
10290SOL    HW131769   3.255   3.268   2.130
10290SOL    HW231770   3.173   3.409   2.137
10291SOL     OW31771   3.885   0.482   5.115
10291SOL    HW131772   3.913   0.559   5.058
10291SOL    HW231773   3.905   0.503   5.211
10292SOL     OW31774   0.598   2.083   4.938
10292SOL    HW131775   0.505   2.098   4.904
10292SOL    HW231776   0.597   2.010   5.007
10293SOL     OW31777   3.213   5.687   3.201
10293SOL    HW131778   3.231   5.590   3.219
10293SOL    HW231779   3.268   5.717   3.123
10294SOL     OW31780   6.797   1.497   3.022
10294SOL    HW131781   6.822   1.444   3.103
10294SOL    HW231782   6.749   1.438   2.956
10295SOL     OW31783   1.742   4.040   4.386
10295SOL    HW131784   1.832   4.024   4.425
10295SOL    HW231785   1.673   4.036   4.458
10296SOL     OW31786   6.715   2.926   1.810
10296SOL    HW131787   6.666   2.972   1.884
10296SOL    HW231788   6.756   2.994   1.749
10297SOL     OW31789   3.236   5.562   4.792
10297SOL    HW131790   3.289   5.478   4.780
10297SOL    HW231791   3.142   5.546   4.762
10298SOL     OW31792   5.734   3.191   3.195
10298SOL    HW131793   5.824   3.233   3.194
10298SOL    HW231794   5.673   3.242   3.256
10299SOL     OW31795   4.896   4.030   2.028
10299SOL    HW131796   4.897   3.933   2.006
10299SOL    HW231797   4.940   4.045   2.117
10300SOL     OW31798   0.860   5.094   1.589
10300SOL    HW131799   0.859   5.186   1.550
10300SOL    HW231800   0.826   5.028   1.521
10301SOL     OW31801   4.505   1.366   1.565
10301SOL    HW131802   4.498   1.427   1.645
10301SOL    HW231803   4.529   1.420   1.484
10302SOL     OW31804   2.095   4.278   4.181
10302SOL    HW131805   2.177   4.224   4.164
10302SOL    HW231806   2.095   4.309   4.276
10303SOL     OW31807   4.239   2.637   1.381
10303SOL    HW131808   4.246   2.660   1.478
10303SOL    HW231809   4.322   2.588   1.352
10304SOL     OW31810   6.087   6.468   3.686
10304SOL    HW131811   6.138   6.554   3.688
10304SOL    HW231812   6.147   6.394   3.715
10305SOL     OW31813   1.839   5.407   1.227
10305SOL    HW131814   1.921   5.418   1.171
10305SOL    HW231815   1.862   5.417   1.323
10306SOL     OW31816   4.143   4.392   1.125
10306SOL    HW131817   4.060   4.385   1.069
10306SOL    HW231818   4.163   4.489   1.142
10307SOL     OW31819   2.261   1.657   5.338
10307SOL    HW131820   2.302   1.643   5.428
10307SOL    HW231821   2.161   1.658   5.347
10308SOL     OW31822   2.696   5.415   3.595
10308SOL    HW131823   2.619   5.350   3.594
10308SOL    HW231824   2.689   5.476   3.516
10309SOL     OW31825   0.387   5.897   3.729
10309SOL    HW131826   0.369   5.865   3.636
10309SOL    HW231827   0.345   5.987   3.743
10310SOL     OW31828   3.547   2.880   4.738
10310SOL    HW131829   3.605   2.900   4.659
10310SOL    HW231830   3.594   2.907   4.822
10311SOL     OW31831   0.428   0.059   0.668
10311SOL    HW131832   0.353   7.026   0.639
10311SOL    HW231833   0.392   0.150   0.686
10312SOL     OW31834   2.360   4.812   0.915
10312SOL    HW131835   2.309   4.772   0.991
10312SOL    HW231836   2.410   4.892   0.948
10313SOL     OW31837   6.600   5.435   3.717
10313SOL    HW131838   6.579   5.343   3.683
10313SOL    HW231839   6.671   5.428   3.788
10314SOL     OW31840   6.398   5.277   5.413
10314SOL    HW131841   6.377   5.364   5.368
10314SOL    HW231842   6.369   5.201   5.354
10315SOL     OW31843   4.396   6.899   5.360
10315SOL    HW131844   4.426   6.811   5.398
10315SOL    HW231845   4.296   6.902   5.358
10316SOL     OW31846   0.215   3.943   2.911
10316SOL    HW131847   0.306   3.914   2.942
10316SOL    HW231848   0.208   4.043   2.920
10317SOL     OW31849   4.856   4.460   0.225
10317SOL    HW131850   4.871   4.552   0.191
10317SOL    HW231851   4.861   4.461   0.325
10318SOL     OW31852   6.128   5.581   2.938
10318SOL    HW131853   6.042   5.581   2.988
10318SOL    HW231854   6.131   5.502   2.876
10319SOL     OW31855   5.267   6.487   4.616
10319SOL    HW131856   5.314   6.477   4.704
10319SOL    HW231857   5.306   6.565   4.567
10320SOL     OW31858   4.500   5.568   2.268
10320SOL    HW131859   4.474   5.662   2.245
10320SOL    HW231860   4.511   5.560   2.367
10321SOL     OW31861   4.153   0.214   4.010
10321SOL    HW131862   4.113   0.301   3.983
10321SOL    HW231863   4.084   0.142   4.007
10322SOL     OW31864   0.678   2.290   6.925
10322SOL    HW131865   0.778   2.290   6.920
10322SOL    HW231866   0.649   2.245   7.009
10323SOL     OW31867   0.914   2.352   5.614
10323SOL    HW131868   0.876   2.423   5.555
10323SOL    HW231869   0.905   2.380   5.710
10324SOL     OW31870   3.650   2.981   4.495
10324SOL    HW131871   3.736   2.958   4.449
10324SOL    HW231872   3.575   2.976   4.429
10325SOL     OW31873   6.874   3.921   3.465
10325SOL    HW131874   6.947   3.881   3.410
10325SOL    HW231875   6.849   4.010   3.429
10326SOL     OW31876   5.464   2.139   1.276
10326SOL    HW131877   5.402   2.206   1.316
10326SOL    HW231878   5.418   2.091   1.202
10327SOL     OW31879   6.338   1.158   3.411
10327SOL    HW131880   6.313   1.113   3.496
10327SOL    HW231881   6.259   1.159   3.349
10328SOL     OW31882   6.244   3.987   2.621
10328SOL    HW131883   6.251   3.888   2.604
10328SOL    HW231884   6.297   4.010   2.703
10329SOL     OW31885   3.538   5.837   2.802
10329SOL    HW131886   3.621   5.870   2.848
10329SOL    HW231887   3.560   5.759   2.744
10330SOL     OW31888   2.995   3.887   0.914
10330SOL    HW131889   3.078   3.833   0.902
10330SOL    HW231890   2.915   3.828   0.910
10331SOL     OW31891   5.386   0.943   4.436
10331SOL    HW131892   5.339   0.931   4.348
10331SOL    HW231893   5.467   0.999   4.423
10332SOL     OW31894   0.715   1.227   6.257
10332SOL    HW131895   0.647   1.300   6.259
10332SOL    HW231896   0.765   1.226   6.343
10333SOL     OW31897   6.255   4.809   5.557
10333SOL    HW131898   6.301   4.767   5.635
10333SOL    HW231899   6.289   4.770   5.472
10334SOL     OW31900   0.930   4.939   4.928
10334SOL    HW131901   0.919   4.913   5.024
10334SOL    HW231902   0.986   5.022   4.924
10335SOL     OW31903   3.034   5.307   2.200
10335SOL    HW131904   3.063   5.217   2.168
10335SOL    HW231905   3.112   5.370   2.195
10336SOL     OW31906   5.067   0.045   2.718
10336SOL    HW131907   5.146   0.006   2.671
10336SOL    HW231908   5.005   0.087   2.652
10337SOL     OW31909   0.492   4.494   5.647
10337SOL    HW131910   0.414   4.441   5.679
10337SOL    HW231911   0.535   4.446   5.570
10338SOL     OW31912   2.632   5.018   2.648
10338SOL    HW131913   2.549   5.031   2.593
10338SOL    HW231914   2.707   4.988   2.589
10339SOL     OW31915   2.717   5.558   0.735
10339SOL    HW131916   2.786   5.494   0.701
10339SOL    HW231917   2.672   5.519   0.815
10340SOL     OW31918   1.600   6.354   0.474
10340SOL    HW131919   1.546   6.299   0.538
10340SOL    HW231920   1.638   6.433   0.521
10341SOL     OW31921   0.487   2.300   1.954
10341SOL    HW131922   0.429   2.338   1.881
10341SOL    HW231923   0.434   2.234   2.007
10342SOL     OW31924   3.940   6.335   4.339
10342SOL    HW131925   3.957   6.255   4.281
10342SOL    HW231926   3.880   6.309   4.415
10343SOL     OW31927   2.400   2.618   4.398
10343SOL    HW131928   2.431   2.604   4.492
10343SOL    HW231929   2.449   2.555   4.338
10344SOL     OW31930   4.209   3.179   1.723
10344SOL    HW131931   4.307   3.196   1.725
10344SOL    HW231932   4.160   3.265   1.707
10345SOL     OW31933   2.920   2.194   5.825
10345SOL    HW131934   2.971   2.129   5.769
10345SOL    HW231935   2.984   2.254   5.873
10346SOL     OW31936   6.156   5.628   0.807
10346SOL    HW131937   6.215   5.704   0.835
10346SOL    HW231938   6.077   5.664   0.757
10347SOL     OW31939   4.556   0.193   1.682
10347SOL    HW131940   4.530   0.139   1.602
10347SOL    HW231941   4.638   0.246   1.661
10348SOL     OW31942   6.747   4.901   5.750
10348SOL    HW131943   6.796   4.948   5.676
10348SOL    HW231944   6.730   4.965   5.825
10349SOL     OW31945   6.746   2.270   0.284
10349SOL    HW131946   6.686   2.337   0.327
10349SOL    HW231947   6.697   2.221   0.213
10350SOL     OW31948   2.067   4.726   4.560
10350SOL    HW131949   2.143   4.716   4.625
10350SOL    HW231950   2.038   4.821   4.557
10351SOL     OW31951   3.644   4.931   4.777
10351SOL    HW131952   3.623   4.928   4.680
10351SOL    HW231953   3.578   4.876   4.828
10352SOL     OW31954   6.725   0.797   0.397
10352SOL    HW131955   6.725   0.785   0.297
10352SOL    HW231956   6.809   0.843   0.425
10353SOL     OW31957   6.396   2.288   4.333
10353SOL    HW131958   6.407   2.266   4.236
10353SOL    HW231959   6.447   2.222   4.388
10354SOL     OW31960   6.072   2.774   1.233
10354SOL    HW131961   6.121   2.708   1.290
10354SOL    HW231962   6.112   2.865   1.245
10355SOL     OW31963   0.815   1.454   1.002
10355SOL    HW131964   0.900   1.505   1.012
10355SOL    HW231965   0.831   1.357   1.021
10356SOL     OW31966   5.618   2.277   6.667
10356SOL    HW131967   5.536   2.237   6.628
10356SOL    HW231968   5.617   2.376   6.652
10357SOL     OW31969   1.235   0.020   5.879
10357SOL    HW131970   1.172   6.985   5.926
10357SOL    HW231971   1.294   0.065   5.947
10358SOL     OW31972   0.327   2.448   2.985
10358SOL    HW131973   0.297   2.355   2.963
10358SOL    HW231974   0.300   2.510   2.912
10359SOL     OW31975   0.448   2.109   2.392
10359SOL    HW131976   0.437   2.018   2.432
10359SOL    HW231977   0.372   2.167   2.421
10360SOL     OW31978   6.093   3.881   1.014
10360SOL    HW131979   6.103   3.807   1.081
10360SOL    HW231980   6.046   3.959   1.056
10361SOL     OW31981   6.247   2.109   2.260
10361SOL    HW131982   6.289   2.169   2.191
10361SOL    HW231983   6.150   2.132   2.270
10362SOL     OW31984   1.209   5.382   2.040
10362SOL    HW131985   1.261   5.426   2.114
10362SOL    HW231986   1.117   5.362   2.071
10363SOL     OW31987   5.695   5.201   6.761
10363SOL    HW131988   5.745   5.143   6.697
10363SOL    HW231989   5.611   5.234   6.719
10364SOL     OW31990   5.469   5.654   2.638
10364SOL    HW131991   5.413   5.695   2.567
10364SOL    HW231992   5.453   5.701   2.725
10365SOL     OW31993   6.166   5.461   0.455
10365SOL    HW131994   6.261   5.442   0.482
10365SOL    HW231995   6.140   5.552   0.489
10366SOL     OW31996   2.846   6.735   4.062
10366SOL    HW131997   2.855   6.811   4.126
10366SOL    HW231998   2.937   6.696   4.045
10367SOL     OW31999   5.459   6.375   1.900
10367SOL    HW132000   5.361   6.356   1.903
10367SOL    HW232001   5.474   6.473   1.917
10368SOL     OW32002   0.943   5.368   2.181
10368SOL    HW132003   0.902   5.345   2.093
10368SOL    HW232004   0.920   5.297   2.248
10369SOL     OW32005   2.565   0.417   5.966
10369SOL    HW132006   2.516   0.333   5.989
10369SOL    HW232007   2.522   0.495   6.011
10370SOL     OW32008   2.190   1.551   5.717
10370SOL    HW132009   2.192   1.649   5.697
10370SOL    HW232010   2.185   1.537   5.816
10371SOL     OW32011   4.127   5.530   2.992
10371SOL    HW132012   4.033   5.559   2.973
10371SOL    HW232013   4.163   5.479   2.914
10372SOL     OW32014   2.465   6.601   1.122
10372SOL    HW132015   2.457   6.653   1.207
10372SOL    HW232016   2.482   6.504   1.143
10373SOL     OW32017   6.142   0.698   6.735
10373SOL    HW132018   6.157   0.681   6.638
10373SOL    HW232019   6.142   0.611   6.785
10374SOL     OW32020   2.642   5.073   3.342
10374SOL    HW132021   2.727   5.020   3.341
10374SOL    HW232022   2.602   5.072   3.250
10375SOL     OW32023   2.427   5.682   0.582
10375SOL    HW132024   2.448   5.589   0.615
10375SOL    HW232025   2.511   5.726   0.551
10376SOL     OW32026   2.317   4.833   3.609
10376SOL    HW132027   2.357   4.848   3.699
10376SOL    HW232028   2.365   4.888   3.540
10377SOL     OW32029   2.363   0.905   2.456
10377SOL    HW132030   2.263   0.894   2.458
10377SOL    HW232031   2.403   0.832   2.402
10378SOL     OW32032   0.731   6.056   5.122
10378SOL    HW132033   0.660   6.063   5.193
10378SOL    HW232034   0.688   6.028   5.036
10379SOL     OW32035   1.973   0.260   3.468
10379SOL    HW132036   2.071   0.252   3.450
10379SOL    HW232037   1.948   0.201   3.545
10380SOL     OW32038   3.688   1.492   4.055
10380SOL    HW132039   3.639   1.405   4.051
10380SOL    HW232040   3.784   1.477   4.033
10381SOL     OW32041   3.935   6.935   2.663
10381SOL    HW132042   3.956   6.949   2.566
10381SOL    HW232043   3.949   6.839   2.687
10382SOL     OW32044   4.228   5.534   2.124
10382SOL    HW132045   4.319   5.547   2.164
10382SOL    HW232046   4.212   5.436   2.109
10383SOL     OW32047   0.932   4.921   6.928
10383SOL    HW132048   0.988   5.003   6.917
10383SOL    HW232049   0.954   4.856   6.854
10384SOL     OW32050   5.007   5.666   1.255
10384SOL    HW132051   4.931   5.673   1.319
10384SOL    HW232052   5.082   5.725   1.285
10385SOL     OW32053   4.580   4.623   0.207
10385SOL    HW132054   4.528   4.659   0.285
10385SOL    HW232055   4.561   4.525   0.197
10386SOL     OW32056   0.199   0.570   1.202
10386SOL    HW132057   0.257   0.636   1.251
10386SOL    HW232058   0.241   0.479   1.207
10387SOL     OW32059   4.943   3.545   2.318
10387SOL    HW132060   5.041   3.556   2.334
10387SOL    HW232061   4.898   3.514   2.402
10388SOL     OW32062   1.645   0.128   5.087
10388SOL    HW132063   1.640   0.047   5.146
10388SOL    HW232064   1.581   0.118   5.011
10389SOL     OW32065   0.963   3.841   6.827
10389SOL    HW132066   0.948   3.920   6.887
10389SOL    HW232067   0.915   3.856   6.741
10390SOL     OW32068   2.064   2.517   1.957
10390SOL    HW132069   2.106   2.586   1.898
10390SOL    HW232070   2.055   2.431   1.906
10391SOL     OW32071   5.884   6.904   3.861
10391SOL    HW132072   5.802   6.959   3.844
10391SOL    HW232073   5.858   6.816   3.901
10392SOL     OW32074   6.664   4.248   4.290
10392SOL    HW132075   6.587   4.299   4.253
10392SOL    HW232076   6.653   4.151   4.269
10393SOL     OW32077   1.715   2.642   2.788
10393SOL    HW132078   1.678   2.732   2.812
10393SOL    HW232079   1.805   2.630   2.831
10394SOL     OW32080   3.207   0.284   4.190
10394SOL    HW132081   3.220   0.311   4.094
10394SOL    HW232082   3.151   0.353   4.236
10395SOL     OW32083   0.918   0.039   0.784
10395SOL    HW132084   0.915   6.972   0.750
10395SOL    HW232085   0.846   0.092   0.738
10396SOL     OW32086   3.345   2.132   5.016
10396SOL    HW132087   3.259   2.110   4.969
10396SOL    HW232088   3.332   2.214   5.072
10397SOL     OW32089   5.406   1.945   4.093
10397SOL    HW132090   5.438   1.996   4.014
10397SOL    HW232091   5.468   1.962   4.170
10398SOL     OW32092   5.929   2.577   2.547
10398SOL    HW132093   5.918   2.591   2.448
10398SOL    HW232094   5.984   2.652   2.585
10399SOL     OW32095   0.893   3.873   2.199
10399SOL    HW132096   0.976   3.820   2.185
10399SOL    HW232097   0.831   3.823   2.260
10400SOL     OW32098   2.252   6.235   0.937
10400SOL    HW132099   2.253   6.171   1.014
10400SOL    HW232100   2.344   6.242   0.898
10401SOL     OW32101   0.227   1.038   5.810
10401SOL    HW132102   0.288   0.959   5.819
10401SOL    HW232103   0.282   1.122   5.803
10402SOL     OW32104   6.842   3.430   5.410
10402SOL    HW132105   6.802   3.345   5.447
10402SOL    HW232106   6.816   3.440   5.314
10403SOL     OW32107   3.363   6.941   0.494
10403SOL    HW132108   3.402   6.936   0.586
10403SOL    HW232109   3.369   6.852   0.451
10404SOL     OW32110   6.596   6.617   6.090
10404SOL    HW132111   6.549   6.661   6.167
10404SOL    HW232112   6.541   6.627   6.007
10405SOL     OW32113   0.684   2.474   6.451
10405SOL    HW132114   0.635   2.553   6.488
10405SOL    HW232115   0.722   2.421   6.526
10406SOL     OW32116   1.829   5.150   1.446
10406SOL    HW132117   1.873   5.140   1.356
10406SOL    HW232118   1.751   5.088   1.452
10407SOL     OW32119   2.390   5.861   5.858
10407SOL    HW132120   2.472   5.804   5.854
10407SOL    HW232121   2.402   5.931   5.929
10408SOL     OW32122   3.791   1.255   7.023
10408SOL    HW132123   3.725   1.181   0.009
10408SOL    HW232124   3.776   1.297   6.934
10409SOL     OW32125   5.945   4.680   1.066
10409SOL    HW132126   5.886   4.726   1.133
10409SOL    HW232127   6.018   4.741   1.039
10410SOL     OW32128   4.844   0.323   0.755
10410SOL    HW132129   4.812   0.416   0.734
10410SOL    HW232130   4.917   0.328   0.823
10411SOL     OW32131   2.523   4.945   3.838
10411SOL    HW132132   2.580   4.977   3.913
10411SOL    HW232133   2.509   5.018   3.772
10412SOL     OW32134   5.590   0.038   0.711
10412SOL    HW132135   5.511   0.097   0.727
10412SOL    HW232136   5.672   0.094   0.701
10413SOL     OW32137   6.946   3.095   1.995
10413SOL    HW132138   6.868   3.042   2.025
10413SOL    HW232139   0.002   3.062   2.040
10414SOL     OW32140   5.075   2.627   4.373
10414SOL    HW132141   5.144   2.567   4.333
10414SOL    HW232142   5.006   2.572   4.419
10415SOL     OW32143   0.128   0.652   6.442
10415SOL    HW132144   0.040   0.643   6.395
10415SOL    HW232145   0.191   0.705   6.385
10416SOL     OW32146   5.342   3.487   4.196
10416SOL    HW132147   5.399   3.448   4.124
10416SOL    HW232148   5.343   3.427   4.275
10417SOL     OW32149   2.659   4.663   3.175
10417SOL    HW132150   2.564   4.670   3.146
10417SOL    HW232151   2.663   4.632   3.270
10418SOL     OW32152   1.707   5.411   5.781
10418SOL    HW132153   1.781   5.444   5.839
10418SOL    HW232154   1.666   5.329   5.822
10419SOL     OW32155   1.428   1.640   0.895
10419SOL    HW132156   1.397   1.599   0.981
10419SOL    HW232157   1.349   1.670   0.842
10420SOL     OW32158   0.552   3.392   3.333
10420SOL    HW132159   0.471   3.335   3.339
10420SOL    HW232160   0.525   3.489   3.329
10421SOL     OW32161   0.348   1.445   3.390
10421SOL    HW132162   0.332   1.413   3.484
10421SOL    HW232163   0.350   1.366   3.328
10422SOL     OW32164   5.686   3.497   5.952
10422SOL    HW132165   5.676   3.578   6.010
10422SOL    HW232166   5.723   3.422   6.007
10423SOL     OW32167   5.185   4.343   2.658
10423SOL    HW132168   5.147   4.388   2.577
10423SOL    HW232169   5.115   4.338   2.729
10424SOL     OW32170   4.791   1.941   6.344
10424SOL    HW132171   4.716   1.983   6.395
10424SOL    HW232172   4.770   1.844   6.327
10425SOL     OW32173   2.200   6.480   1.625
10425SOL    HW132174   2.145   6.426   1.562
10425SOL    HW232175   2.154   6.483   1.714
10426SOL     OW32176   6.589   3.656   0.352
10426SOL    HW132177   6.622   3.750   0.362
10426SOL    HW232178   6.658   3.593   0.387
10427SOL     OW32179   4.576   1.448   1.070
10427SOL    HW132180   4.478   1.461   1.059
10427SOL    HW232181   4.599   1.452   1.168
10428SOL     OW32182   4.638   1.225   4.431
10428SOL    HW132183   4.551   1.270   4.408
10428SOL    HW232184   4.655   1.236   4.529
10429SOL     OW32185   6.005   6.321   2.017
10429SOL    HW132186   5.919   6.332   1.968
10429SOL    HW232187   5.996   6.358   2.109
10430SOL     OW32188   3.947   6.588   3.131
10430SOL    HW132189   3.990   6.498   3.133
10430SOL    HW232190   3.904   6.606   3.220
10431SOL     OW32191   2.169   1.218   5.362
10431SOL    HW132192   2.203   1.256   5.448
10431SOL    HW232193   2.134   1.125   5.377
10432SOL     OW32194   5.421   1.132   5.151
10432SOL    HW132195   5.478   1.062   5.194
10432SOL    HW232196   5.361   1.173   5.220
10433SOL     OW32197   2.845   6.604   1.135
10433SOL    HW132198   2.890   6.536   1.077
10433SOL    HW232199   2.827   6.687   1.081
10434SOL     OW32200   2.651   2.052   4.177
10434SOL    HW132201   2.570   2.108   4.197
10434SOL    HW232202   2.626   1.980   4.113
10435SOL     OW32203   5.434   6.107   7.018
10435SOL    HW132204   5.414   6.011   0.009
10435SOL    HW232205   5.406   6.131   6.925
10436SOL     OW32206   1.333   0.166   2.067
10436SOL    HW132207   1.398   0.131   2.135
10436SOL    HW232208   1.376   0.238   2.014
10437SOL     OW32209   6.644   5.268   6.106
10437SOL    HW132210   6.686   5.319   6.031
10437SOL    HW232211   6.549   5.246   6.082
10438SOL     OW32212   3.512   6.644   6.125
10438SOL    HW132213   3.445   6.584   6.081
10438SOL    HW232214   3.604   6.623   6.091
10439SOL     OW32215   4.264   0.193   5.401
10439SOL    HW132216   4.335   0.131   5.435
10439SOL    HW232217   4.219   0.237   5.479
10440SOL     OW32218   2.422   6.059   0.389
10440SOL    HW132219   2.361   6.037   0.464
10440SOL    HW232220   2.391   6.142   0.343
10441SOL     OW32221   4.005   0.478   6.502
10441SOL    HW132222   4.052   0.566   6.495
10441SOL    HW232223   3.961   0.457   6.415
10442SOL     OW32224   4.383   6.005   5.766
10442SOL    HW132225   4.411   5.921   5.813
10442SOL    HW232226   4.290   5.994   5.731
10443SOL     OW32227   6.093   2.849   5.186
10443SOL    HW132228   6.030   2.920   5.154
10443SOL    HW232229   6.184   2.888   5.199
10444SOL     OW32230   3.591   4.990   3.802
10444SOL    HW132231   3.592   5.088   3.823
10444SOL    HW232232   3.501   4.963   3.770
10445SOL     OW32233   6.026   6.019   3.703
10445SOL    HW132234   5.948   6.010   3.642
10445SOL    HW232235   6.096   5.952   3.678
10446SOL     OW32236   0.870   6.440   6.583
10446SOL    HW132237   0.806   6.378   6.630
10446SOL    HW232238   0.937   6.475   6.649
10447SOL     OW32239   6.380   2.072   1.110
10447SOL    HW132240   6.300   2.035   1.157
10447SOL    HW232241   6.416   2.004   1.046
10448SOL     OW32242   3.521   4.081   2.256
10448SOL    HW132243   3.452   4.046   2.193
10448SOL    HW232244   3.483   4.157   2.308
10449SOL     OW32245   1.541   5.101   4.507
10449SOL    HW132246   1.545   5.167   4.581
10449SOL    HW232247   1.483   5.024   4.534
10450SOL     OW32248   6.875   3.124   0.686
10450SOL    HW132249   6.813   3.065   0.738
10450SOL    HW232250   6.963   3.077   0.674
10451SOL     OW32251   2.334   4.345   2.682
10451SOL    HW132252   2.419   4.350   2.630
10451SOL    HW232253   2.256   4.361   2.621
10452SOL     OW32254   0.994   3.774   5.099
10452SOL    HW132255   0.950   3.781   5.009
10452SOL    HW232256   1.018   3.866   5.132
10453SOL     OW32257   5.640   0.131   1.746
10453SOL    HW132258   5.615   0.227   1.737
10453SOL    HW232259   5.650   0.091   1.655
10454SOL     OW32260   4.898   3.497   2.626
10454SOL    HW132261   4.871   3.563   2.696
10454SOL    HW232262   4.894   3.404   2.664
10455SOL     OW32263   6.587   4.541   3.108
10455SOL    HW132264   6.544   4.574   3.192
10455SOL    HW232265   6.549   4.451   3.084
10456SOL     OW32266   3.717   6.184   0.899
10456SOL    HW132267   3.773   6.171   0.817
10456SOL    HW232268   3.774   6.216   0.974
10457SOL     OW32269   3.731   3.337   4.154
10457SOL    HW132270   3.775   3.413   4.105
10457SOL    HW232271   3.724   3.360   4.251
10458SOL     OW32272   6.612   6.727   1.749
10458SOL    HW132273   6.626   6.808   1.692
10458SOL    HW232274   6.698   6.704   1.795
10459SOL     OW32275   6.293   4.551   2.721
10459SOL    HW132276   6.258   4.639   2.690
10459SOL    HW232277   6.393   4.552   2.717
10460SOL     OW32278   2.222   5.228   1.835
10460SOL    HW132279   2.303   5.169   1.841
10460SOL    HW232280   2.251   5.323   1.829
10461SOL     OW32281   2.449   1.910   6.529
10461SOL    HW132282   2.354   1.937   6.512
10461SOL    HW232283   2.502   1.922   6.445
10462SOL     OW32284   5.355   6.626   1.321
10462SOL    HW132285   5.358   6.726   1.323
10462SOL    HW232286   5.337   6.592   1.414
10463SOL     OW32287   2.915   4.062   1.470
10463SOL    HW132288   2.984   3.997   1.439
10463SOL    HW232289   2.872   4.028   1.553
10464SOL     OW32290   5.237   0.153   1.549
10464SOL    HW132291   5.164   0.202   1.503
10464SOL    HW232292   5.321   0.160   1.495
10465SOL     OW32293   6.583   4.940   5.061
10465SOL    HW132294   6.642   4.915   4.984
10465SOL    HW232295   6.641   4.966   5.139
10466SOL     OW32296   5.000   6.479   6.639
10466SOL    HW132297   4.953   6.568   6.638
10466SOL    HW232298   5.093   6.491   6.606
10467SOL     OW32299   4.731   0.679   3.941
10467SOL    HW132300   4.778   0.727   4.015
10467SOL    HW232301   4.799   0.646   3.875
10468SOL     OW32302   3.382   5.718   2.992
10468SOL    HW132303   3.452   5.763   2.936
10468SOL    HW232304   3.390   5.619   2.982
10469SOL     OW32305   1.679   4.848   0.035
10469SOL    HW132306   1.607   4.779   0.037
10469SOL    HW232307   1.638   4.937   0.012
10470SOL     OW32308   2.798   1.763   4.121
10470SOL    HW132309   2.872   1.699   4.101
10470SOL    HW232310   2.783   1.821   4.041
10471SOL     OW32311   4.606   3.964   0.459
10471SOL    HW132312   4.608   3.913   0.373
10471SOL    HW232313   4.669   3.921   0.524
10472SOL     OW32314   4.812   1.643   3.157
10472SOL    HW132315   4.807   1.684   3.248
10472SOL    HW232316   4.907   1.625   3.134
10473SOL     OW32317   4.954   5.691   0.223
10473SOL    HW132318   5.004   5.694   0.137
10473SOL    HW232319   4.933   5.595   0.246
10474SOL     OW32320   5.076   0.735   4.482
10474SOL    HW132321   5.152   0.699   4.535
10474SOL    HW232322   5.032   0.809   4.533
10475SOL     OW32323   4.693   6.415   2.082
10475SOL    HW132324   4.751   6.483   2.036
10475SOL    HW232325   4.599   6.447   2.085
10476SOL     OW32326   0.257   4.777   0.353
10476SOL    HW132327   0.196   4.729   0.289
10476SOL    HW232328   0.347   4.788   0.310
10477SOL     OW32329   4.720   4.817   4.997
10477SOL    HW132330   4.749   4.850   4.907
10477SOL    HW232331   4.625   4.842   5.013
10478SOL     OW32332   0.583   6.194   2.397
10478SOL    HW132333   0.573   6.131   2.320
10478SOL    HW232334   0.649   6.265   2.373
10479SOL     OW32335   1.433   4.785   2.740
10479SOL    HW132336   1.343   4.761   2.776
10479SOL    HW232337   1.462   4.717   2.674
10480SOL     OW32338   5.815   0.334   2.329
10480SOL    HW132339   5.741   0.282   2.286
10480SOL    HW232340   5.892   0.273   2.347
10481SOL     OW32341   2.662   0.838   4.674
10481SOL    HW132342   2.671   0.933   4.644
10481SOL    HW232343   2.597   0.833   4.750
10482SOL     OW32344   1.264   5.303   5.389
10482SOL    HW132345   1.293   5.372   5.456
10482SOL    HW232346   1.313   5.218   5.406
10483SOL     OW32347   7.007   5.406   0.752
10483SOL    HW132348   6.942   5.369   0.818
10483SOL    HW232349   0.072   5.404   0.791
10484SOL     OW32350   6.091   2.038   1.400
10484SOL    HW132351   6.116   1.965   1.336
10484SOL    HW232352   6.066   1.998   1.488
10485SOL     OW32353   3.184   3.887   3.942
10485SOL    HW132354   3.101   3.831   3.946
10485SOL    HW232355   3.192   3.940   4.026
10486SOL     OW32356   5.803   5.481   4.935
10486SOL    HW132357   5.795   5.396   4.987
10486SOL    HW232358   5.813   5.557   4.999
10487SOL     OW32359   5.093   2.948   3.185
10487SOL    HW132360   5.107   2.850   3.200
10487SOL    HW232361   4.995   2.967   3.181
10488SOL     OW32362   0.146   2.360   5.506
10488SOL    HW132363   0.167   2.262   5.510
10488SOL    HW232364   0.053   2.373   5.471
10489SOL     OW32365   6.104   3.930   4.566
10489SOL    HW132366   6.170   3.971   4.628
10489SOL    HW232367   6.049   4.001   4.523
10490SOL     OW32368   5.774   6.972   6.964
10490SOL    HW132369   5.873   6.967   6.979
10490SOL    HW232370   5.735   6.880   6.964
10491SOL     OW32371   1.894   3.289   5.738
10491SOL    HW132372   1.899   3.190   5.755
10491SOL    HW232373   1.984   3.323   5.714
10492SOL     OW32374   3.388   5.771   0.230
10492SOL    HW132375   3.351   5.861   0.209
10492SOL    HW232376   3.430   5.772   0.321
10493SOL     OW32377   3.795   5.187   1.800
10493SOL    HW132378   3.719   5.245   1.831
10493SOL    HW232379   3.832   5.224   1.714
10494SOL     OW32380   0.680   4.321   4.143
10494SOL    HW132381   0.727   4.237   4.169
10494SOL    HW232382   0.720   4.356   4.058
10495SOL     OW32383   0.251   6.683   0.714
10495SOL    HW132384   0.265   6.595   0.669
10495SOL    HW232385   0.321   6.696   0.784
10496SOL     OW32386   0.223   4.831   6.320
10496SOL    HW132387   0.127   4.823   6.296
10496SOL    HW232388   0.276   4.763   6.269
10497SOL     OW32389   3.036   0.296   1.895
10497SOL    HW132390   3.118   0.340   1.857
10497SOL    HW232391   2.957   0.323   1.841
10498SOL     OW32392   4.408   3.592   6.360
10498SOL    HW132393   4.485   3.528   6.361
10498SOL    HW232394   4.389   3.621   6.267
10499SOL     OW32395   5.483   3.763   2.507
10499SOL    HW132396   5.578   3.782   2.531
10499SOL    HW232397   5.434   3.731   2.589
10500SOL     OW32398   1.130   3.408   5.081
10500SOL    HW132399   1.196   3.484   5.085
10500SOL    HW232400   1.179   3.322   5.093
10501SOL     OW32401   3.701   4.865   2.914
10501SOL    HW132402   3.676   4.953   2.954
10501SOL    HW232403   3.706   4.875   2.814
10502SOL     OW32404   3.240   3.285   2.467
10502SOL    HW132405   3.310   3.344   2.508
10502SOL    HW232406   3.243   3.295   2.367
10503SOL     OW32407   6.768   1.273   6.232
10503SOL    HW132408   6.711   1.197   6.263
10503SOL    HW232409   6.862   1.259   6.264
10504SOL     OW32410   0.591   3.977   6.109
10504SOL    HW132411   0.619   4.071   6.131
10504SOL    HW232412   0.492   3.975   6.093
10505SOL     OW32413   6.140   0.183   0.807
10505SOL    HW132414   6.043   0.165   0.821
10505SOL    HW232415   6.193   0.134   0.876
10506SOL     OW32416   1.169   4.455   5.816
10506SOL    HW132417   1.075   4.450   5.782
10506SOL    HW232418   1.223   4.515   5.757
10507SOL     OW32419   1.062   5.670   5.809
10507SOL    HW132420   0.965   5.673   5.784
10507SOL    HW232421   1.115   5.631   5.733
10508SOL     OW32422   1.928   5.677   6.429
10508SOL    HW132423   1.849   5.738   6.419
10508SOL    HW232424   1.946   5.631   6.341
10509SOL     OW32425   4.741   2.452   3.337
10509SOL    HW132426   4.760   2.518   3.410
10509SOL    HW232427   4.822   2.395   3.321
10510SOL     OW32428   5.540   5.761   3.663
10510SOL    HW132429   5.554   5.782   3.566
10510SOL    HW232430   5.442   5.746   3.680
10511SOL     OW32431   4.067   1.669   0.785
10511SOL    HW132432   4.024   1.735   0.723
10511SOL    HW232433   4.165   1.664   0.765
10512SOL     OW32434   3.961   1.828   5.496
10512SOL    HW132435   3.923   1.886   5.568
10512SOL    HW232436   4.018   1.883   5.435
10513SOL     OW32437   3.827   2.978   0.522
10513SOL    HW132438   3.827   2.955   0.425
10513SOL    HW232439   3.810   2.896   0.577
10514SOL     OW32440   1.598   4.749   1.787
10514SOL    HW132441   1.558   4.737   1.696
10514SOL    HW232442   1.585   4.665   1.840
10515SOL     OW32443   2.201   3.075   4.801
10515SOL    HW132444   2.195   3.173   4.787
10515SOL    HW232445   2.265   3.055   4.875
10516SOL     OW32446   4.960   1.955   2.129
10516SOL    HW132447   4.952   2.048   2.163
10516SOL    HW232448   5.052   1.940   2.093
10517SOL     OW32449   0.761   2.920   2.554
10517SOL    HW132450   0.847   2.902   2.602
10517SOL    HW232451   0.770   2.894   2.458
10518SOL     OW32452   0.993   5.643   2.267
10518SOL    HW132453   0.978   5.551   2.229
10518SOL    HW232454   0.905   5.685   2.288
10519SOL     OW32455   3.654   6.937   1.336
10519SOL    HW132456   3.620   6.964   1.426
10519SOL    HW232457   3.754   6.944   1.335
10520SOL     OW32458   1.630   2.897   6.360
10520SOL    HW132459   1.706   2.960   6.346
10520SOL    HW232460   1.644   2.846   6.445
10521SOL     OW32461   6.806   2.822   3.325
10521SOL    HW132462   6.853   2.776   3.400
10521SOL    HW232463   6.738   2.761   3.286
10522SOL     OW32464   5.718   1.459   3.960
10522SOL    HW132465   5.664   1.477   3.878
10522SOL    HW232466   5.696   1.526   4.031
10523SOL     OW32467   1.063   4.307   2.390
10523SOL    HW132468   1.031   4.213   2.403
10523SOL    HW232469   0.985   4.370   2.394
10524SOL     OW32470   7.000   5.794   4.602
10524SOL    HW132471   6.929   5.825   4.666
10524SOL    HW232472   0.023   5.718   4.642
10525SOL     OW32473   5.121   1.420   4.151
10525SOL    HW132474   5.176   1.401   4.232
10525SOL    HW232475   5.131   1.517   4.126
10526SOL     OW32476   1.539   5.453   6.280
10526SOL    HW132477   1.596   5.493   6.208
10526SOL    HW232478   1.443   5.468   6.259
10527SOL     OW32479   0.303   6.712   5.482
10527SOL    HW132480   0.402   6.721   5.491
10527SOL    HW232481   0.275   6.620   5.511
10528SOL     OW32482   2.162   4.858   5.124
10528SOL    HW132483   2.101   4.844   5.046
10528SOL    HW232484   2.119   4.822   5.207
10529SOL     OW32485   0.285   5.481   0.834
10529SOL    HW132486   0.240   5.554   0.885
10529SOL    HW232487   0.381   5.504   0.819
10530SOL     OW32488   6.886   6.367   1.630
10530SOL    HW132489   6.958   6.418   1.678
10530SOL    HW232490   6.799   6.416   1.638
10531SOL     OW32491   3.568   2.202   5.520
10531SOL    HW132492   3.483   2.234   5.563
10531SOL    HW232493   3.570   2.232   5.425
10532SOL     OW32494   4.699   6.219   5.947
10532SOL    HW132495   4.603   6.243   5.933
10532SOL    HW232496   4.714   6.124   5.919
10533SOL     OW32497   3.888   0.107   3.005
10533SOL    HW132498   3.798   0.074   2.977
10533SOL    HW232499   3.910   0.191   2.955
10534SOL     OW32500   1.745   6.191   3.716
10534SOL    HW132501   1.711   6.261   3.653
10534SOL    HW232502   1.744   6.102   3.671
10535SOL     OW32503   3.615   2.054   2.543
10535SOL    HW132504   3.682   2.057   2.469
10535SOL    HW232505   3.530   2.098   2.514
10536SOL     OW32506   5.547   3.422   5.255
10536SOL    HW132507   5.461   3.379   5.284
10536SOL    HW232508   5.527   3.502   5.198
10537SOL     OW32509   4.091   1.145   3.714
10537SOL    HW132510   4.132   1.054   3.714
10537SOL    HW232511   4.002   1.141   3.759
10538SOL     OW32512   7.015   2.807   3.545
10538SOL    HW132513   0.034   2.745   3.608
10538SOL    HW232514   6.930   2.840   3.586
10539SOL     OW32515   6.857   6.769   3.077
10539SOL    HW132516   6.863   6.671   3.091
10539SOL    HW232517   6.876   6.817   3.162
10540SOL     OW32518   1.870   4.240   0.120
10540SOL    HW132519   1.782   4.273   0.085
10540SOL    HW232520   1.893   4.290   0.204
10541SOL     OW32521   2.957   3.005   5.274
10541SOL    HW132522   2.868   3.047   5.291
10541SOL    HW232523   3.007   3.059   5.207
10542SOL     OW32524   4.851   6.347   2.946
10542SOL    HW132525   4.851   6.447   2.946
10542SOL    HW232526   4.771   6.313   2.897
10543SOL     OW32527   2.304   2.823   4.222
10543SOL    HW132528   2.288   2.788   4.130
10543SOL    HW232529   2.325   2.747   4.283
10544SOL     OW32530   3.045   1.186   2.454
10544SOL    HW132531   2.965   1.245   2.467
10544SOL    HW232532   3.095   1.217   2.373
10545SOL     OW32533   2.312   2.813   2.304
10545SOL    HW132534   2.266   2.814   2.392
10545SOL    HW232535   2.339   2.907   2.279
10546SOL     OW32536   2.588   6.796   6.988
10546SOL    HW132537   2.521   6.821   6.919
10546SOL    HW232538   2.573   6.849   0.044
10547SOL     OW32539   3.850   6.123   5.456
10547SOL    HW132540   3.804   6.148   5.541
10547SOL    HW232541   3.911   6.046   5.472
10548SOL     OW32542   0.678   6.245   3.348
10548SOL    HW132543   0.623   6.269   3.268
10548SOL    HW232544   0.743   6.319   3.366
10549SOL     OW32545   6.514   0.690   2.530
10549SOL    HW132546   6.501   0.606   2.582
10549SOL    HW232547   6.576   0.674   2.455
10550SOL     OW32548   5.006   5.390   2.974
10550SOL    HW132549   4.945   5.315   2.947
10550SOL    HW232550   4.997   5.406   3.073
10551SOL     OW32551   3.617   0.619   5.354
10551SOL    HW132552   3.580   0.613   5.261
10551SOL    HW232553   3.543   0.642   5.418
10552SOL     OW32554   3.113   6.977   3.667
10552SOL    HW132555   3.172   6.947   3.742
10552SOL    HW232556   3.048   0.018   3.702
10553SOL     OW32557   6.075   6.088   0.937
10553SOL    HW132558   6.088   6.038   1.022
10553SOL    HW232559   5.989   6.139   0.940
10554SOL     OW32560   6.200   6.590   2.358
10554SOL    HW132561   6.241   6.511   2.404
10554SOL    HW232562   6.244   6.605   2.270
10555SOL     OW32563   3.432   3.125   0.809
10555SOL    HW132564   3.410   3.035   0.846
10555SOL    HW232565   3.505   3.117   0.741
10556SOL     OW32566   2.694   1.730   1.827
10556SOL    HW132567   2.696   1.732   1.727
10556SOL    HW232568   2.641   1.807   1.861
10557SOL     OW32569   2.025   4.678   2.866
10557SOL    HW132570   2.004   4.773   2.844
10557SOL    HW232571   1.978   4.653   2.951
10558SOL     OW32572   3.985   4.839   4.583
10558SOL    HW132573   3.885   4.842   4.580
10558SOL    HW232574   4.016   4.852   4.678
10559SOL     OW32575   3.963   6.258   1.485
10559SOL    HW132576   3.914   6.242   1.399
10559SOL    HW232577   3.909   6.222   1.561
10560SOL     OW32578   5.273   6.449   3.396
10560SOL    HW132579   5.196   6.393   3.363
10560SOL    HW232580   5.265   6.461   3.495
10561SOL     OW32581   0.209   5.116   6.362
10561SOL    HW132582   0.225   5.018   6.350
10561SOL    HW232583   0.210   5.138   6.460
10562SOL     OW32584   4.173   6.069   2.380
10562SOL    HW132585   4.161   5.987   2.436
10562SOL    HW232586   4.195   6.147   2.439
10563SOL     OW32587   0.975   6.757   2.918
10563SOL    HW132588   0.969   6.787   3.013
10563SOL    HW232589   1.017   6.666   2.915
10564SOL     OW32590   5.129   4.614   3.309
10564SOL    HW132591   5.149   4.628   3.212
10564SOL    HW232592   5.155   4.521   3.335
10565SOL     OW32593   0.078   1.355   5.386
10565SOL    HW132594   0.157   1.300   5.414
10565SOL    HW232595   0.004   1.294   5.358
10566SOL     OW32596   3.458   1.547   0.693
10566SOL    HW132597   3.402   1.519   0.771
10566SOL    HW232598   3.511   1.469   0.661
10567SOL     OW32599   1.883   2.350   6.487
10567SOL    HW132600   1.886   2.402   6.572
10567SOL    HW232601   1.931   2.399   6.415
10568SOL     OW32602   4.924   2.162   5.843
10568SOL    HW132603   4.960   2.077   5.881
10568SOL    HW232604   4.873   2.211   5.914
10569SOL     OW32605   5.480   0.972   0.600
10569SOL    HW132606   5.526   0.920   0.527
10569SOL    HW232607   5.507   0.936   0.689
10570SOL     OW32608   2.074   3.546   3.059
10570SOL    HW132609   2.119   3.496   3.133
10570SOL    HW232610   1.976   3.546   3.074
10571SOL     OW32611   6.760   4.082   5.375
10571SOL    HW132612   6.705   4.109   5.295
10571SOL    HW232613   6.852   4.120   5.366
10572SOL     OW32614   6.476   4.237   0.916
10572SOL    HW132615   6.394   4.179   0.909
10572SOL    HW232616   6.449   4.333   0.912
10573SOL     OW32617   0.035   2.582   3.369
10573SOL    HW132618   0.020   2.486   3.392
10573SOL    HW232619   0.017   2.639   3.449
10574SOL     OW32620   6.044   2.488   2.839
10574SOL    HW132621   5.997   2.529   2.917
10574SOL    HW232622   6.016   2.535   2.755
10575SOL     OW32623   5.553   0.097   2.776
10575SOL    HW132624   5.527   0.192   2.755
10575SOL    HW232625   5.511   0.036   2.709
10576SOL     OW32626   1.210   3.794   4.598
10576SOL    HW132627   1.242   3.758   4.685
10576SOL    HW232628   1.255   3.744   4.523
10577SOL     OW32629   3.987   4.359   0.885
10577SOL    HW132630   4.053   4.420   0.841
10577SOL    HW232631   4.013   4.264   0.871
10578SOL     OW32632   0.736   3.738   2.373
10578SOL    HW132633   0.642   3.710   2.391
10578SOL    HW232634   0.779   3.771   2.457
10579SOL     OW32635   0.249   3.257   0.266
10579SOL    HW132636   0.323   3.305   0.219
10579SOL    HW232637   0.161   3.294   0.236
10580SOL     OW32638   5.246   0.113   6.557
10580SOL    HW132639   5.214   0.204   6.528
10580SOL    HW232640   5.345   0.109   6.548
10581SOL     OW32641   4.569   0.751   3.293
10581SOL    HW132642   4.522   0.794   3.370
10581SOL    HW232643   4.542   0.795   3.208
10582SOL     OW32644   6.426   3.237   6.301
10582SOL    HW132645   6.486   3.310   6.335
10582SOL    HW232646   6.422   3.163   6.368
10583SOL     OW32647   3.562   1.920   5.447
10583SOL    HW132648   3.631   1.902   5.377
10583SOL    HW232649   3.584   2.006   5.493
10584SOL     OW32650   0.907   0.199   3.410
10584SOL    HW132651   0.998   0.168   3.382
10584SOL    HW232652   0.882   0.279   3.356
10585SOL     OW32653   1.697   0.684   5.677
10585SOL    HW132654   1.732   0.718   5.590
10585SOL    HW232655   1.664   0.760   5.732
10586SOL     OW32656   4.405   4.239   5.365
10586SOL    HW132657   4.338   4.306   5.334
10586SOL    HW232658   4.358   4.163   5.409
10587SOL     OW32659   2.624   4.981   5.658
10587SOL    HW132660   2.693   5.020   5.597
10587SOL    HW232661   2.661   4.900   5.702
10588SOL     OW32662   1.601   3.595   3.479
10588SOL    HW132663   1.562   3.655   3.408
10588SOL    HW232664   1.681   3.639   3.519
10589SOL     OW32665   5.728   6.566   3.411
10589SOL    HW132666   5.772   6.564   3.501
10589SOL    HW232667   5.776   6.632   3.353
10590SOL     OW32668   0.917   5.135   2.818
10590SOL    HW132669   0.970   5.137   2.733
10590SOL    HW232670   0.931   5.047   2.864
10591SOL     OW32671   0.197   4.224   2.314
10591SOL    HW132672   0.179   4.126   2.313
10591SOL    HW232673   0.183   4.261   2.222
10592SOL     OW32674   0.438   2.370   5.035
10592SOL    HW132675   0.512   2.320   5.080
10592SOL    HW232676   0.477   2.427   4.962
10593SOL     OW32677   2.947   5.275   3.283
10593SOL    HW132678   2.932   5.353   3.223
10593SOL    HW232679   2.865   5.260   3.338
10594SOL     OW32680   3.288   5.541   3.734
10594SOL    HW132681   3.233   5.494   3.666
10594SOL    HW232682   3.231   5.604   3.787
10595SOL     OW32683   4.573   6.972   1.017
10595SOL    HW132684   4.477   6.944   1.021
10595SOL    HW232685   4.600   7.012   1.104
10596SOL     OW32686   4.898   3.263   6.954
10596SOL    HW132687   4.967   3.193   6.970
10596SOL    HW232688   4.811   3.234   6.994
10597SOL     OW32689   2.228   6.768   4.791
10597SOL    HW132690   2.282   6.818   4.859
10597SOL    HW232691   2.227   6.670   4.814
10598SOL     OW32692   3.358   0.687   0.008
10598SOL    HW132693   3.291   0.614   0.015
10598SOL    HW232694   3.428   0.662   6.968
10599SOL     OW32695   0.827   2.404   0.654
10599SOL    HW132696   0.856   2.336   0.721
10599SOL    HW232697   0.741   2.376   0.612
10600SOL     OW32698   4.037   0.937   1.757
10600SOL    HW132699   4.127   0.923   1.716
10600SOL    HW232700   4.027   0.879   1.837
10601SOL     OW32701   1.949   0.959   4.624
10601SOL    HW132702   1.947   0.886   4.692
10601SOL    HW232703   1.869   0.952   4.565
10602SOL     OW32704   6.364   0.329   1.594
10602SOL    HW132705   6.463   0.320   1.588
10602SOL    HW232706   6.321   0.244   1.561
10603SOL     OW32707   5.910   0.478   3.180
10603SOL    HW132708   5.957   0.498   3.094
10603SOL    HW232709   5.924   0.382   3.204
10604SOL     OW32710   4.963   1.621   5.051
10604SOL    HW132711   4.889   1.593   5.112
10604SOL    HW232712   5.033   1.550   5.049
10605SOL     OW32713   3.238   2.117   0.813
10605SOL    HW132714   3.142   2.109   0.786
10605SOL    HW232715   3.276   2.027   0.831
10606SOL     OW32716   6.717   0.837   0.102
10606SOL    HW132717   6.787   0.806   0.038
10606SOL    HW232718   6.682   0.926   0.073
10607SOL     OW32719   3.428   3.880   0.337
10607SOL    HW132720   3.471   3.812   0.396
10607SOL    HW232721   3.454   3.972   0.366
10608SOL     OW32722   5.369   4.266   3.771
10608SOL    HW132723   5.291   4.274   3.709
10608SOL    HW232724   5.423   4.185   3.747
10609SOL     OW32725   5.927   0.201   0.114
10609SOL    HW132726   6.001   0.134   0.120
10609SOL    HW232727   5.839   0.154   0.125
10610SOL     OW32728   0.559   1.700   3.502
10610SOL    HW132729   0.584   1.635   3.431
10610SOL    HW232730   0.573   1.659   3.592
10611SOL     OW32731   3.985   5.139   4.720
10611SOL    HW132732   3.984   5.158   4.622
10611SOL    HW232733   3.949   5.047   4.736
10612SOL     OW32734   6.369   2.580   3.846
10612SOL    HW132735   6.324   2.539   3.925
10612SOL    HW232736   6.419   2.509   3.796
10613SOL     OW32737   4.576   5.945   4.431
10613SOL    HW132738   4.491   5.987   4.399
10613SOL    HW232739   4.614   5.886   4.359
10614SOL     OW32740   3.874   2.263   5.842
10614SOL    HW132741   3.934   2.254   5.922
10614SOL    HW232742   3.803   2.330   5.860
10615SOL     OW32743   2.652   2.742   5.474
10615SOL    HW132744   2.735   2.720   5.421
10615SOL    HW232745   2.578   2.766   5.411
10616SOL     OW32746   1.482   5.807   0.395
10616SOL    HW132747   1.541   5.885   0.418
10616SOL    HW232748   1.509   5.728   0.450
10617SOL     OW32749   1.612   2.939   1.679
10617SOL    HW132750   1.557   2.909   1.601
10617SOL    HW232751   1.676   2.866   1.704
10618SOL     OW32752   1.009   4.549   4.029
10618SOL    HW132753   0.955   4.589   4.103
10618SOL    HW232754   1.080   4.614   4.001
10619SOL     OW32755   1.100   2.761   1.717
10619SOL    HW132756   1.171   2.754   1.646
10619SOL    HW232757   1.079   2.670   1.751
10620SOL     OW32758   3.110   0.626   5.749
10620SOL    HW132759   3.172   0.549   5.734
10620SOL    HW232760   3.136   0.675   5.831
10621SOL     OW32761   0.548   3.933   3.237
10621SOL    HW132762   0.495   4.017   3.247
10621SOL    HW232763   0.605   3.939   3.155
10622SOL     OW32764   4.444   2.137   0.151
10622SOL    HW132765   4.360   2.150   0.097
10622SOL    HW232766   4.519   2.187   0.108
10623SOL     OW32767   5.120   5.547   5.446
10623SOL    HW132768   5.181   5.626   5.442
10623SOL    HW232769   5.104   5.523   5.542
10624SOL     OW32770   0.355   1.864   0.102
10624SOL    HW132771   0.399   1.931   0.163
10624SOL    HW232772   0.341   1.779   0.152
10625SOL     OW32773   6.685   5.642   0.685
10625SOL    HW132774   6.599   5.657   0.636
10625SOL    HW232775   6.669   5.578   0.760
10626SOL     OW32776   5.449   2.956   1.495
10626SOL    HW132777   5.380   2.950   1.422
10626SOL    HW232778   5.540   2.956   1.454
10627SOL     OW32779   5.742   5.236   5.074
10627SOL    HW132780   5.702   5.209   5.161
10627SOL    HW232781   5.704   5.179   5.001
10628SOL     OW32782   3.032   6.493   0.332
10628SOL    HW132783   2.959   6.520   0.394
10628SOL    HW232784   3.025   6.395   0.311
10629SOL     OW32785   4.662   5.300   4.327
10629SOL    HW132786   4.589   5.369   4.324
10629SOL    HW232787   4.750   5.346   4.341
10630SOL     OW32788   3.946   0.975   1.514
10630SOL    HW132789   3.933   0.884   1.475
10630SOL    HW232790   3.977   0.966   1.609
10631SOL     OW32791   3.497   5.566   1.845
10631SOL    HW132792   3.596   5.575   1.834
10631SOL    HW232793   3.456   5.541   1.758
10632SOL     OW32794   5.548   6.559   4.559
10632SOL    HW132795   5.510   6.549   4.466
10632SOL    HW232796   5.589   6.473   4.587
10633SOL     OW32797   1.989   3.113   0.605
10633SOL    HW132798   2.035   3.172   0.672
10633SOL    HW232799   2.002   3.150   0.513
10634SOL     OW32800   0.029   4.998   6.765
10634SOL    HW132801   7.003   4.920   6.731
10634SOL    HW232802   0.050   4.985   6.862
10635SOL     OW32803   2.917   6.072   6.481
10635SOL    HW132804   3.002   6.022   6.498
10635SOL    HW232805   2.892   6.064   6.384
10636SOL     OW32806   6.350   2.994   7.023
10636SOL    HW132807   6.312   3.072   0.045
10636SOL    HW232808   6.301   2.982   6.937
10637SOL     OW32809   2.477   0.673   7.022
10637SOL    HW132810   2.443   0.598   0.050
10637SOL    HW232811   2.418   0.753   0.008
10638SOL     OW32812   4.970   5.123   0.784
10638SOL    HW132813   4.926   5.064   0.851
10638SOL    HW232814   4.900   5.176   0.736
10639SOL     OW32815   6.962   4.883   1.589
10639SOL    HW132816   6.906   4.863   1.509
10639SOL    HW232817   0.017   4.825   1.587
10640SOL     OW32818   4.193   6.045   3.519
10640SOL    HW132819   4.268   6.046   3.586
10640SOL    HW232820   4.118   6.102   3.552
10641SOL     OW32821   0.964   1.872   2.883
10641SOL    HW132822   0.986   1.936   2.810
10641SOL    HW232823   1.007   1.784   2.864
10642SOL     OW32824   6.794   2.892   6.176
10642SOL    HW132825   6.777   2.880   6.274
10642SOL    HW232826   6.747   2.975   6.144
10643SOL     OW32827   2.408   4.887   5.876
10643SOL    HW132828   2.450   4.920   5.961
10643SOL    HW232829   2.380   4.965   5.820
10644SOL     OW32830   6.780   3.305   3.040
10644SOL    HW132831   6.799   3.211   3.067
10644SOL    HW232832   6.847   3.367   3.080
10645SOL     OW32833   2.184   2.100   2.943
10645SOL    HW132834   2.119   2.155   2.995
10645SOL    HW232835   2.276   2.137   2.955
10646SOL     OW32836   5.607   6.978   3.832
10646SOL    HW132837   5.532   0.012   3.856
10646SOL    HW232838   5.606   6.960   3.734
10647SOL     OW32839   3.641   5.303   5.118
10647SOL    HW132840   3.571   5.374   5.113
10647SOL    HW232841   3.630   5.240   5.041
10648SOL     OW32842   4.640   4.213   5.508
10648SOL    HW132843   4.561   4.205   5.448
10648SOL    HW232844   4.724   4.197   5.455
10649SOL     OW32845   6.318   3.595   3.177
10649SOL    HW132846   6.253   3.578   3.103
10649SOL    HW232847   6.383   3.519   3.183
10650SOL     OW32848   0.753   0.646   2.739
10650SOL    HW132849   0.665   0.637   2.784
10650SOL    HW232850   0.760   0.737   2.697
10651SOL     OW32851   2.819   5.337   5.885
10651SOL    HW132852   2.722   5.361   5.897
10651SOL    HW232853   2.830   5.287   5.800
10652SOL     OW32854   1.701   0.205   6.971
10652SOL    HW132855   1.651   0.124   7.002
10652SOL    HW232856   1.792   0.205   7.012
10653SOL     OW32857   5.110   5.821   4.460
10653SOL    HW132858   5.095   5.888   4.533
10653SOL    HW232859   5.192   5.845   4.409
10654SOL     OW32860   6.730   2.146   4.176
10654SOL    HW132861   6.706   2.146   4.079
10654SOL    HW232862   6.647   2.151   4.232
10655SOL     OW32863   0.256   4.514   0.981
10655SOL    HW132864   0.250   4.471   1.071
10655SOL    HW232865   0.175   4.493   0.928
10656SOL     OW32866   5.478   2.131   4.693
10656SOL    HW132867   5.490   2.149   4.791
10656SOL    HW232868   5.453   2.035   4.680
10657SOL     OW32869   5.035   0.295   5.178
10657SOL    HW132870   4.979   0.361   5.229
10657SOL    HW232871   5.052   0.330   5.086
10658SOL     OW32872   0.893   1.740   5.539
10658SOL    HW132873   0.874   1.818   5.479
10658SOL    HW232874   0.985   1.748   5.576
10659SOL     OW32875   0.490   5.845   0.984
10659SOL    HW132876   0.440   5.890   0.910
10659SOL    HW232877   0.440   5.857   1.070
10660SOL     OW32878   5.459   2.736   5.906
10660SOL    HW132879   5.362   2.716   5.898
10660SOL    HW232880   5.493   2.703   5.994
10661SOL     OW32881   3.503   4.698   5.458
10661SOL    HW132882   3.455   4.610   5.451
10661SOL    HW232883   3.596   4.688   5.424
10662SOL     OW32884   2.876   0.902   1.309
10662SOL    HW132885   2.874   0.848   1.225
10662SOL    HW232886   2.930   0.985   1.294
10663SOL     OW32887   0.903   2.386   4.070
10663SOL    HW132888   0.971   2.457   4.051
10663SOL    HW232889   0.817   2.410   4.026
10664SOL     OW32890   1.086   5.258   4.630
10664SOL    HW132891   1.045   5.224   4.545
10664SOL    HW232892   1.162   5.318   4.610
10665SOL     OW32893   3.343   2.920   7.008
10665SOL    HW132894   3.428   2.972   7.006
10665SOL    HW232895   3.316   2.897   6.914
10666SOL     OW32896   3.727   3.736   1.383
10666SOL    HW132897   3.763   3.663   1.325
10666SOL    HW232898   3.766   3.823   1.354
10667SOL     OW32899   5.439   3.001   3.973
10667SOL    HW132900   5.399   2.983   4.062
10667SOL    HW232901   5.535   2.972   3.972
10668SOL     OW32902   3.293   2.659   6.108
10668SOL    HW132903   3.250   2.626   6.024
10668SOL    HW232904   3.392   2.665   6.093
10669SOL     OW32905   6.177   1.828   1.230
10669SOL    HW132906   6.215   1.785   1.312
10669SOL    HW232907   6.231   1.801   1.150
10670SOL     OW32908   4.864   3.813   4.279
10670SOL    HW132909   4.788   3.866   4.241
10670SOL    HW232910   4.864   3.823   4.379
10671SOL     OW32911   1.470   3.417   4.980
10671SOL    HW132912   1.567   3.413   4.960
10671SOL    HW232913   1.452   3.494   5.042
10672SOL     OW32914   5.985   3.405   2.604
10672SOL    HW132915   6.034   3.490   2.584
10672SOL    HW232916   5.993   3.384   2.701
10673SOL     OW32917   2.270   1.256   1.002
10673SOL    HW132918   2.291   1.217   1.092
10673SOL    HW232919   2.265   1.182   0.934
10674SOL     OW32920   3.269   3.421   3.917
10674SOL    HW132921   3.241   3.437   3.823
10674SOL    HW232922   3.305   3.506   3.957
10675SOL     OW32923   3.731   6.850   5.332
10675SOL    HW132924   3.754   6.760   5.369
10675SOL    HW232925   3.794   6.872   5.257
10676SOL     OW32926   1.464   6.978   5.747
10676SOL    HW132927   1.370   7.007   5.763
10676SOL    HW232928   1.499   7.022   5.664
10677SOL     OW32929   0.491   1.548   6.922
10677SOL    HW132930   0.503   1.641   6.889
10677SOL    HW232931   0.439   1.549   7.007
10678SOL     OW32932   3.984   5.680   2.134
10678SOL    HW132933   4.075   5.639   2.126
10678SOL    HW232934   3.916   5.620   2.092
10679SOL     OW32935   4.462   3.905   6.835
10679SOL    HW132936   4.537   3.960   6.872
10679SOL    HW232937   4.469   3.811   6.869
10680SOL     OW32938   4.245   1.487   5.096
10680SOL    HW132939   4.253   1.423   5.020
10680SOL    HW232940   4.240   1.581   5.061
10681SOL     OW32941   1.986   3.440   5.348
10681SOL    HW132942   2.065   3.414   5.293
10681SOL    HW232943   1.910   3.465   5.287
10682SOL     OW32944   5.130   3.398   6.619
10682SOL    HW132945   5.211   3.363   6.572
10682SOL    HW232946   5.055   3.333   6.608
10683SOL     OW32947   2.593   0.404   3.738
10683SOL    HW132948   2.495   0.420   3.753
10683SOL    HW232949   2.629   0.474   3.676
10684SOL     OW32950   4.543   4.679   1.820
10684SOL    HW132951   4.598   4.622   1.881
10684SOL    HW232952   4.572   4.664   1.725
10685SOL     OW32953   1.078   6.541   1.966
10685SOL    HW132954   1.166   6.497   1.952
10685SOL    HW232955   1.004   6.476   1.949
10686SOL     OW32956   2.415   0.954   6.968
10686SOL    HW132957   2.404   1.051   6.945
10686SOL    HW232958   2.512   0.933   6.979
10687SOL     OW32959   0.824   3.882   3.794
10687SOL    HW132960   0.728   3.857   3.799
10687SOL    HW232961   0.863   3.852   3.707
10688SOL     OW32962   5.093   1.093   2.992
10688SOL    HW132963   5.155   1.170   3.001
10688SOL    HW232964   5.016   1.104   3.056
10689SOL     OW32965   0.742   6.896   2.429
10689SOL    HW132966   0.692   6.898   2.343
10689SOL    HW232967   0.834   6.932   2.415
10690SOL     OW32968   0.544   6.608   4.229
10690SOL    HW132969   0.597   6.594   4.313
10690SOL    HW232970   0.449   6.583   4.245
10691SOL     OW32971   3.827   0.041   2.044
10691SOL    HW132972   3.733   0.075   2.044
10691SOL    HW232973   3.890   0.119   2.043
10692SOL     OW32974   2.197   1.242   4.373
10692SOL    HW132975   2.284   1.278   4.337
10692SOL    HW232976   2.136   1.220   4.297
10693SOL     OW32977   1.291   5.260   6.592
10693SOL    HW132978   1.361   5.327   6.614
10693SOL    HW232979   1.276   5.199   6.671
10694SOL     OW32980   4.306   0.960   5.280
10694SOL    HW132981   4.382   1.024   5.271
10694SOL    HW232982   4.325   0.878   5.225
10695SOL     OW32983   5.261   4.299   2.269
10695SOL    HW132984   5.326   4.225   2.252
10695SOL    HW232985   5.257   4.359   2.188
10696SOL     OW32986   6.367   4.865   3.859
10696SOL    HW132987   6.424   4.838   3.781
10696SOL    HW232988   6.423   4.869   3.942
10697SOL     OW32989   2.566   5.278   4.982
10697SOL    HW132990   2.563   5.252   4.885
10697SOL    HW232991   2.483   5.330   5.005
10698SOL     OW32992   3.662   3.337   7.013
10698SOL    HW132993   3.704   3.416   0.031
10698SOL    HW232994   3.665   3.350   6.914
10699SOL     OW32995   3.391   2.411   0.690
10699SOL    HW132996   3.336   2.327   0.690
10699SOL    HW232997   3.346   2.480   0.748
10700SOL     OW32998   4.855   0.556   1.318
10700SOL    HW132999   4.774   0.511   1.356
10700SOL    HW233000   4.830   0.646   1.282
10701SOL     OW33001   3.111   6.840   6.687
10701SOL    HW133002   3.180   6.871   6.621
10701SOL    HW233003   3.134   6.748   6.719
10702SOL     OW33004   5.628   2.546   1.348
10702SOL    HW133005   5.630   2.613   1.274
10702SOL    HW233006   5.614   2.454   1.310
10703SOL     OW33007   0.644   2.304   5.942
10703SOL    HW133008   0.636   2.227   5.879
10703SOL    HW233009   0.689   2.273   6.026
10704SOL     OW33010   5.016   6.832   1.848
10704SOL    HW133011   5.014   6.843   1.947
10704SOL    HW233012   5.098   6.876   1.811
10705SOL     OW33013   5.619   4.002   1.070
10705SOL    HW133014   5.577   3.932   1.128
10705SOL    HW233015   5.718   3.992   1.072
10706SOL     OW33016   4.002   0.155   0.823
10706SOL    HW133017   4.061   0.236   0.823
10706SOL    HW233018   3.906   0.183   0.820
10707SOL     OW33019   5.378   0.146   3.877
10707SOL    HW133020   5.406   0.171   3.785
10707SOL    HW233021   5.363   0.229   3.931
10708SOL     OW33022   4.042   1.632   2.191
10708SOL    HW133023   4.043   1.689   2.109
10708SOL    HW233024   4.080   1.542   2.169
10709SOL     OW33025   5.981   4.887   3.637
10709SOL    HW133026   5.944   4.972   3.599
10709SOL    HW233027   6.029   4.836   3.565
10710SOL     OW33028   5.173   1.706   3.708
10710SOL    HW133029   5.156   1.779   3.775
10710SOL    HW233030   5.271   1.703   3.687
10711SOL     OW33031   3.927   6.908   1.766
10711SOL    HW133032   3.911   6.818   1.726
10711SOL    HW233033   3.869   6.920   1.846
10712SOL     OW33034   5.328   6.862   2.836
10712SOL    HW133035   5.294   6.950   2.870
10712SOL    HW233036   5.368   6.811   2.913
10713SOL     OW33037   1.338   4.162   1.390
10713SOL    HW133038   1.396   4.123   1.462
10713SOL    HW233039   1.311   4.255   1.416
10714SOL     OW33040   3.115   3.998   4.933
10714SOL    HW133041   3.039   3.984   4.997
10714SOL    HW233042   3.156   3.909   4.911
10715SOL     OW33043   6.116   0.997   1.807
10715SOL    HW133044   6.123   1.076   1.747
10715SOL    HW233045   6.177   1.010   1.886
10716SOL     OW33046   5.486   1.470   3.772
10716SOL    HW133047   5.462   1.441   3.679
10716SOL    HW233048   5.414   1.444   3.835
10717SOL     OW33049   1.876   2.674   0.129
10717SOL    HW133050   1.819   2.596   0.154
10717SOL    HW233051   1.825   2.734   0.067
10718SOL     OW33052   2.007   5.138   5.187
10718SOL    HW133053   1.926   5.082   5.169
10718SOL    HW233054   2.063   5.096   5.258
10719SOL     OW33055   6.218   5.603   4.251
10719SOL    HW133056   6.280   5.667   4.298
10719SOL    HW233057   6.194   5.528   4.313
10720SOL     OW33058   6.866   5.167   3.465
10720SOL    HW133059   6.923   5.119   3.398
10720SOL    HW233060   6.810   5.235   3.418
10721SOL     OW33061   5.564   4.042   5.660
10721SOL    HW133062   5.544   3.960   5.606
10721SOL    HW233063   5.589   4.014   5.753
10722SOL     OW33064   6.647   4.276   5.614
10722SOL    HW133065   6.727   4.284   5.555
10722SOL    HW233066   6.589   4.201   5.582
10723SOL     OW33067   6.023   6.875   0.627
10723SOL    HW133068   5.941   6.879   0.685
10723SOL    HW233069   6.026   6.957   0.569
10724SOL     OW33070   6.659   6.178   0.262
10724SOL    HW133071   6.729   6.225   0.316
10724SOL    HW233072   6.692   6.165   0.169
10725SOL     OW33073   2.445   5.689   5.139
10725SOL    HW133074   2.408   5.780   5.126
10725SOL    HW233075   2.542   5.696   5.164
10726SOL     OW33076   5.458   1.440   4.582
10726SOL    HW133077   5.388   1.483   4.525
10726SOL    HW233078   5.414   1.399   4.663
10727SOL     OW33079   1.769   6.269   5.360
10727SOL    HW133080   1.715   6.228   5.434
10727SOL    HW233081   1.710   6.325   5.302
10728SOL     OW33082   5.825   6.176   0.888
10728SOL    HW133083   5.758   6.125   0.834
10728SOL    HW233084   5.789   6.193   0.980
10729SOL     OW33085   6.428   2.962   1.391
10729SOL    HW133086   6.331   2.962   1.366
10729SOL    HW233087   6.442   2.904   1.471
10730SOL     OW33088   4.863   0.114   2.270
10730SOL    HW133089   4.828   0.181   2.204
10730SOL    HW233090   4.787   0.075   2.322
10731SOL     OW33091   4.513   0.534   1.239
10731SOL    HW133092   4.533   0.484   1.323
10731SOL    HW233093   4.579   0.509   1.169
10732SOL     OW33094   0.766   4.659   5.105
10732SOL    HW133095   0.688   4.711   5.070
10732SOL    HW233096   0.834   4.722   5.142
10733SOL     OW33097   6.502   2.724   0.088
10733SOL    HW133098   6.525   2.720   7.018
10733SOL    HW233099   6.402   2.720   0.098
10734SOL     OW33100   6.771   2.630   1.831
10734SOL    HW133101   6.859   2.584   1.842
10734SOL    HW233102   6.786   2.727   1.814
10735SOL     OW33103   0.191   4.116   2.617
10735SOL    HW133104   0.219   4.204   2.655
10735SOL    HW233105   0.129   4.131   2.540
10736SOL     OW33106   2.827   0.360   3.362
10736SOL    HW133107   2.747   0.300   3.355
10736SOL    HW233108   2.798   0.451   3.393
10737SOL     OW33109   6.878   1.993   1.603
10737SOL    HW133110   6.941   1.930   1.558
10737SOL    HW233111   6.798   1.943   1.636
10738SOL     OW33112   4.320   0.570   3.200
10738SOL    HW133113   4.326   0.506   3.277
10738SOL    HW233114   4.375   0.651   3.219
10739SOL     OW33115   2.359   1.988   1.670
10739SOL    HW133116   2.403   2.078   1.661
10739SOL    HW233117   2.261   1.997   1.655
10740SOL     OW33118   5.232   4.864   3.402
10740SOL    HW133119   5.209   4.778   3.357
10740SOL    HW233120   5.238   4.849   3.501
10741SOL     OW33121   3.704   0.440   2.985
10741SOL    HW133122   3.792   0.430   2.938
10741SOL    HW233123   3.672   0.350   3.014
10742SOL     OW33124   6.601   5.504   0.909
10742SOL    HW133125   6.518   5.449   0.895
10742SOL    HW233126   6.575   5.592   0.948
10743SOL     OW33127   2.162   1.517   4.664
10743SOL    HW133128   2.122   1.541   4.752
10743SOL    HW233129   2.252   1.560   4.656
10744SOL     OW33130   3.981   1.647   1.272
10744SOL    HW133131   3.969   1.666   1.174
10744SOL    HW233132   3.958   1.551   1.290
10745SOL     OW33133   6.793   5.717   6.117
10745SOL    HW133134   6.827   5.811   6.107
10745SOL    HW233135   6.856   5.654   6.072
10746SOL     OW33136   0.258   4.368   5.737
10746SOL    HW133137   0.281   4.275   5.767
10746SOL    HW233138   0.190   4.363   5.664
10747SOL     OW33139   3.218   1.384   4.719
10747SOL    HW133140   3.168   1.471   4.722
10747SOL    HW233141   3.199   1.338   4.633
10748SOL     OW33142   5.396   1.231   2.434
10748SOL    HW133143   5.375   1.220   2.531
10748SOL    HW233144   5.348   1.161   2.381
10749SOL     OW33145   2.236   6.829   5.914
10749SOL    HW133146   2.333   6.826   5.887
10749SOL    HW233147   2.198   6.917   5.889
10750SOL     OW33148   3.728   0.478   6.367
10750SOL    HW133149   3.679   0.564   6.359
10750SOL    HW233150   3.665   0.402   6.351
10751SOL     OW33151   2.738   5.014   4.210
10751SOL    HW133152   2.744   4.923   4.170
10751SOL    HW233153   2.695   5.077   4.145
10752SOL     OW33154   4.733   5.445   3.925
10752SOL    HW133155   4.790   5.396   3.859
10752SOL    HW233156   4.788   5.469   4.005
10753SOL     OW33157   6.843   3.359   4.499
10753SOL    HW133158   6.907   3.416   4.551
10753SOL    HW233159   6.861   3.263   4.519
10754SOL     OW33160   1.898   0.044   2.363
10754SOL    HW133161   1.977   7.016   2.391
10754SOL    HW233162   1.815   7.016   2.370
10755SOL     OW33163   6.350   5.868   1.901
10755SOL    HW133164   6.367   5.918   1.985
10755SOL    HW233165   6.262   5.822   1.906
10756SOL     OW33166   0.065   6.553   5.244
10756SOL    HW133167   0.089   6.485   5.175
10756SOL    HW233168   0.051   6.642   5.201
10757SOL     OW33169   2.620   3.276   1.167
10757SOL    HW133170   2.539   3.334   1.178
10757SOL    HW233171   2.669   3.303   1.085
10758SOL     OW33172   0.608   5.553   4.331
10758SOL    HW133173   0.704   5.574   4.314
10758SOL    HW233174   0.580   5.595   4.418
10759SOL     OW33175   6.917   2.934   6.662
10759SOL    HW133176   6.939   2.950   6.759
10759SOL    HW233177   6.939   3.017   6.610
10760SOL     OW33178   6.257   1.017   3.654
10760SOL    HW133179   6.193   1.083   3.695
10760SOL    HW233180   6.254   0.932   3.706
10761SOL     OW33181   2.716   4.777   5.384
10761SOL    HW133182   2.727   4.852   5.448
10761SOL    HW233183   2.759   4.800   5.297
10762SOL     OW33184   3.361   0.643   4.321
10762SOL    HW133185   3.340   0.635   4.419
10762SOL    HW233186   3.285   0.688   4.275
10763SOL     OW33187   4.263   6.522   3.499
10763SOL    HW133188   4.307   6.602   3.540
10763SOL    HW233189   4.329   6.447   3.496
10764SOL     OW33190   6.047   0.179   4.548
10764SOL    HW133191   6.109   0.247   4.587
10764SOL    HW233192   6.086   0.142   4.464
10765SOL     OW33193   5.773   3.717   0.980
10765SOL    HW133194   5.825   3.714   0.894
10765SOL    HW233195   5.680   3.746   0.962
10766SOL     OW33196   3.939   2.642   1.647
10766SOL    HW133197   3.917   2.705   1.572
10766SOL    HW233198   3.864   2.643   1.713
10767SOL     OW33199   3.096   1.369   1.804
10767SOL    HW133200   3.187   1.398   1.834
10767SOL    HW233201   3.057   1.439   1.745
10768SOL     OW33202   6.852   5.473   0.349
10768SOL    HW133203   6.935   5.447   0.399
10768SOL    HW233204   6.776   5.414   0.378
10769SOL     OW33205   1.744   4.035   5.773
10769SOL    HW133206   1.747   4.006   5.678
10769SOL    HW233207   1.824   3.998   5.822
10770SOL     OW33208   4.473   6.244   2.949
10770SOL    HW133209   4.470   6.254   3.049
10770SOL    HW233210   4.411   6.311   2.907
10771SOL     OW33211   2.370   1.265   3.680
10771SOL    HW133212   2.371   1.184   3.622
10771SOL    HW233213   2.454   1.269   3.734
10772SOL     OW33214   5.392   5.157   3.635
10772SOL    HW133215   5.355   5.140   3.726
10772SOL    HW233216   5.470   5.219   3.642
10773SOL     OW33217   5.016   5.233   3.963
10773SOL    HW133218   5.093   5.296   3.974
10773SOL    HW233219   5.051   5.141   3.941
10774SOL     OW33220   1.178   0.750   3.689
10774SOL    HW133221   1.161   0.758   3.788
10774SOL    HW233222   1.144   0.832   3.643
10775SOL     OW33223   0.515   3.963   2.097
10775SOL    HW133224   0.584   3.928   2.034
10775SOL    HW233225   0.559   4.009   2.174
10776SOL     OW33226   1.470   0.174   6.479
10776SOL    HW133227   1.501   0.092   6.528
10776SOL    HW233228   1.515   0.178   6.390
10777SOL     OW33229   3.048   5.936   1.506
10777SOL    HW133230   2.973   5.995   1.537
10777SOL    HW233231   3.011   5.847   1.480
10778SOL     OW33232   6.171   5.874   3.102
10778SOL    HW133233   6.102   5.851   3.033
10778SOL    HW233234   6.228   5.948   3.069
10779SOL     OW33235   5.316   2.463   3.378
10779SOL    HW133236   5.315   2.438   3.281
10779SOL    HW233237   5.276   2.554   3.390
10780SOL     OW33238   0.560   1.065   3.080
10780SOL    HW133239   0.613   1.031   3.158
10780SOL    HW233240   0.475   1.106   3.112
10781SOL     OW33241   3.624   0.239   4.083
10781SOL    HW133242   3.682   0.264   4.006
10781SOL    HW233243   3.564   0.316   4.107
10782SOL     OW33244   6.779   5.452   3.928
10782SOL    HW133245   6.878   5.440   3.933
10782SOL    HW233246   6.734   5.367   3.956
10783SOL     OW33247   6.590   2.405   3.126
10783SOL    HW133248   6.578   2.502   3.104
10783SOL    HW233249   6.503   2.357   3.115
10784SOL     OW33250   2.693   1.049   4.512
10784SOL    HW133251   2.595   1.071   4.519
10784SOL    HW233252   2.735   1.109   4.443
10785SOL     OW33253   0.594   3.913   6.665
10785SOL    HW133254   0.527   3.928   6.593
10785SOL    HW233255   0.681   3.884   6.624
10786SOL     OW33256   0.853   5.382   3.143
10786SOL    HW133257   0.943   5.416   3.114
10786SOL    HW233258   0.865   5.296   3.192
10787SOL     OW33259   1.959   2.731   5.636
10787SOL    HW133260   2.040   2.673   5.641
10787SOL    HW233261   1.892   2.699   5.703
10788SOL     OW33262   5.763   3.844   6.561
10788SOL    HW133263   5.764   3.829   6.463
10788SOL    HW233264   5.857   3.852   6.595
10789SOL     OW33265   6.624   1.479   0.102
10789SOL    HW133266   6.721   1.500   0.088
10789SOL    HW233267   6.615   1.406   0.169
10790SOL     OW33268   0.068   6.769   2.943
10790SOL    HW133269   7.017   6.779   3.005
10790SOL    HW233270   0.091   6.672   2.934
10791SOL     OW33271   0.201   6.345   2.504
10791SOL    HW133272   0.220   6.440   2.529
10791SOL    HW233273   0.102   6.329   2.508
10792SOL     OW33274   3.710   4.006   5.229
10792SOL    HW133275   3.613   4.030   5.227
10792SOL    HW233276   3.738   3.986   5.323
10793SOL     OW33277   5.489   3.302   4.838
10793SOL    HW133278   5.390   3.310   4.847
10793SOL    HW233279   5.512   3.250   4.756
10794SOL     OW33280   3.596   3.234   3.752
10794SOL    HW133281   3.572   3.205   3.660
10794SOL    HW233282   3.529   3.198   3.817
10795SOL     OW33283   0.940   4.932   3.470
10795SOL    HW133284   1.004   4.861   3.440
10795SOL    HW233285   0.873   4.891   3.533
10796SOL     OW33286   1.935   6.237   4.771
10796SOL    HW133287   1.867   6.176   4.729
10796SOL    HW233288   1.945   6.319   4.715
10797SOL     OW33289   3.935   2.446   0.348
10797SOL    HW133290   3.968   2.427   0.441
10797SOL    HW233291   4.002   2.413   0.281
10798SOL     OW33292   0.084   1.856   0.262
10798SOL    HW133293   0.022   1.932   0.241
10798SOL    HW233294   0.152   1.887   0.329
10799SOL     OW33295   4.106   1.665   1.563
10799SOL    HW133296   4.047   1.696   1.488
10799SOL    HW233297   4.067   1.695   1.650
10800SOL     OW33298   1.141   0.029   1.447
10800SOL    HW133299   1.155   0.049   1.350
10800SOL    HW233300   1.191   6.973   1.472
10801SOL     OW33301   1.583   0.728   0.626
10801SOL    HW133302   1.518   0.717   0.703
10801SOL    HW233303   1.581   0.822   0.594
10802SOL     OW33304   6.708   0.240   3.671
10802SOL    HW133305   6.764   0.323   3.670
10802SOL    HW233306   6.611   0.266   3.679
10803SOL     OW33307   2.038   5.243   6.461
10803SOL    HW133308   2.016   5.169   6.524
10803SOL    HW233309   2.137   5.259   6.460
10804SOL     OW33310   6.872   3.778   4.529
10804SOL    HW133311   6.929   3.716   4.473
10804SOL    HW233312   6.838   3.729   4.609
10805SOL     OW33313   6.310   1.093   5.494
10805SOL    HW133314   6.277   1.177   5.451
10805SOL    HW233315   6.349   1.032   5.425
10806SOL     OW33316   2.000   4.518   6.921
10806SOL    HW133317   1.902   4.503   6.909
10806SOL    HW233318   2.051   4.459   6.857
10807SOL     OW33319   3.200   6.758   4.347
10807SOL    HW133320   3.273   6.811   4.391
10807SOL    HW233321   3.194   6.668   4.390
10808SOL     OW33322   0.431   2.924   6.308
10808SOL    HW133323   0.352   2.869   6.282
10808SOL    HW233324   0.458   2.902   6.402
10809SOL     OW33325   2.279   6.261   4.692
10809SOL    HW133326   2.264   6.326   4.766
10809SOL    HW233327   2.224   6.180   4.708
10810SOL     OW33328   0.287   0.407   4.888
10810SOL    HW133329   0.216   0.414   4.817
10810SOL    HW233330   0.296   0.311   4.916
10811SOL     OW33331   4.807   4.916   4.749
10811SOL    HW133332   4.830   4.905   4.652
10811SOL    HW233333   4.833   5.008   4.779
10812SOL     OW33334   6.107   2.610   0.212
10812SOL    HW133335   6.064   2.676   0.151
10812SOL    HW233336   6.037   2.569   0.271
10813SOL     OW33337   0.617   4.600   6.085
10813SOL    HW133338   0.608   4.508   6.047
10813SOL    HW233339   0.592   4.667   6.015
10814SOL     OW33340   3.049   0.562   1.339
10814SOL    HW133341   3.060   0.511   1.254
10814SOL    HW233342   2.954   0.555   1.370
10815SOL     OW33343   5.537   0.856   4.899
10815SOL    HW133344   5.517   0.802   4.981
10815SOL    HW233345   5.489   0.816   4.821
10816SOL     OW33346   4.000   3.147   3.911
10816SOL    HW133347   3.920   3.087   3.919
10816SOL    HW233348   4.083   3.093   3.926
10817SOL     OW33349   2.117   6.378   3.271
10817SOL    HW133350   2.206   6.407   3.236
10817SOL    HW233351   2.130   6.304   3.337
10818SOL     OW33352   4.102   4.616   6.229
10818SOL    HW133353   4.195   4.618   6.265
10818SOL    HW233354   4.037   4.615   6.304
10819SOL     OW33355   6.747   5.971   5.790
10819SOL    HW133356   6.674   5.906   5.768
10819SOL    HW233357   6.824   5.922   5.832
10820SOL     OW33358   2.645   4.164   5.986
10820SOL    HW133359   2.577   4.091   5.993
10820SOL    HW233360   2.725   4.141   6.042
10821SOL     OW33361   4.742   5.572   2.957
10821SOL    HW133362   4.696   5.562   3.045
10821SOL    HW233363   4.710   5.656   2.912
10822SOL     OW33364   5.159   2.096   2.348
10822SOL    HW133365   5.146   2.113   2.446
10822SOL    HW233366   5.252   2.060   2.333
10823SOL     OW33367   5.956   6.741   2.559
10823SOL    HW133368   5.932   6.718   2.464
10823SOL    HW233369   5.883   6.794   2.601
10824SOL     OW33370   1.025   3.045   3.987
10824SOL    HW133371   1.061   2.991   3.911
10824SOL    HW233372   1.040   2.995   4.073
10825SOL     OW33373   0.557   2.141   0.129
10825SOL    HW133374   0.559   2.135   0.229
10825SOL    HW233375   0.463   2.158   0.099
10826SOL     OW33376   0.467   2.732   3.252
10826SOL    HW133377   0.546   2.743   3.313
10826SOL    HW233378   0.434   2.822   3.225
10827SOL     OW33379   6.771   3.637   4.734
10827SOL    HW133380   6.808   3.573   4.802
10827SOL    HW233381   6.677   3.609   4.712
10828SOL     OW33382   6.300   5.028   5.283
10828SOL    HW133383   6.354   4.977   5.216
10828SOL    HW233384   6.203   5.006   5.271
10829SOL     OW33385   3.949   3.226   5.249
10829SOL    HW133386   3.951   3.162   5.172
10829SOL    HW233387   3.964   3.176   5.334
10830SOL     OW33388   3.794   1.732   3.745
10830SOL    HW133389   3.815   1.650   3.799
10830SOL    HW233390   3.807   1.712   3.648
10831SOL     OW33391   3.872   0.772   3.575
10831SOL    HW133392   3.969   0.798   3.568
10831SOL    HW233393   3.826   0.797   3.490
10832SOL     OW33394   6.834   3.516   0.443
10832SOL    HW133395   6.826   3.566   0.529
10832SOL    HW233396   6.922   3.537   0.400
10833SOL     OW33397   0.349   1.027   6.812
10833SOL    HW133398   0.370   1.018   6.909
10833SOL    HW233399   0.279   0.960   6.786
10834SOL     OW33400   6.907   0.086   1.416
10834SOL    HW133401   6.964   0.007   1.394
10834SOL    HW233402   6.829   0.057   1.471
10835SOL     OW33403   0.271   2.002   6.083
10835SOL    HW133404   0.264   2.096   6.048
10835SOL    HW233405   0.367   1.982   6.103
10836SOL     OW33406   6.951   1.186   4.154
10836SOL    HW133407   6.935   1.182   4.056
10836SOL    HW233408   0.006   1.133   4.177
10837SOL     OW33409   0.375   3.306   2.776
10837SOL    HW133410   0.438   3.286   2.700
10837SOL    HW233411   0.341   3.400   2.766
10838SOL     OW33412   0.300   5.313   2.374
10838SOL    HW133413   0.319   5.245   2.303
10838SOL    HW233414   0.385   5.344   2.415
10839SOL     OW33415   5.306   2.396   1.630
10839SOL    HW133416   5.240   2.351   1.690
10839SOL    HW233417   5.286   2.494   1.627
10840SOL     OW33418   3.041   0.217   1.292
10840SOL    HW133419   3.139   0.227   1.308
10840SOL    HW233420   2.992   0.223   1.379
10841SOL     OW33421   1.999   5.351   4.899
10841SOL    HW133422   2.028   5.437   4.942
10841SOL    HW233423   2.041   5.274   4.946
10842SOL     OW33424   5.233   4.484   0.751
10842SOL    HW133425   5.315   4.468   0.806
10842SOL    HW233426   5.190   4.569   0.780
10843SOL     OW33427   2.391   2.196   1.382
10843SOL    HW133428   2.311   2.137   1.376
10843SOL    HW233429   2.364   2.291   1.369
10844SOL     OW33430   1.737   5.214   4.822
10844SOL    HW133431   1.775   5.122   4.825
10844SOL    HW233432   1.802   5.278   4.864
10845SOL     OW33433   4.112   0.151   4.636
10845SOL    HW133434   4.153   0.157   4.727
10845SOL    HW233435   4.143   0.227   4.580
10846SOL     OW33436   5.171   0.494   6.911
10846SOL    HW133437   5.136   0.402   6.894
10846SOL    HW233438   5.222   0.495   6.997
10847SOL     OW33439   2.029   0.724   6.528
10847SOL    HW133440   2.044   0.689   6.621
10847SOL    HW233441   2.104   0.695   6.469
10848SOL     OW33442   1.833   4.826   1.928
10848SOL    HW133443   1.832   4.798   2.024
10848SOL    HW233444   1.749   4.794   1.884
10849SOL     OW33445   1.983   6.777   4.389
10849SOL    HW133446   1.997   6.862   4.439
10849SOL    HW233447   1.885   6.762   4.377
10850SOL     OW33448   3.425   4.845   0.371
10850SOL    HW133449   3.405   4.747   0.364
10850SOL    HW233450   3.524   4.858   0.378
10851SOL     OW33451   1.985   5.085   0.540
10851SOL    HW133452   2.035   4.998   0.545
10851SOL    HW233453   2.014   5.135   0.458
10852SOL     OW33454   2.242   1.310   1.901
10852SOL    HW133455   2.198   1.333   1.988
10852SOL    HW233456   2.190   1.237   1.856
10853SOL     OW33457   2.567   1.918   6.227
10853SOL    HW133458   2.630   1.852   6.186
10853SOL    HW233459   2.476   1.904   6.189
10854SOL     OW33460   3.290   6.650   5.253
10854SOL    HW133461   3.225   6.580   5.224
10854SOL    HW233462   3.241   6.734   5.276
10855SOL     OW33463   3.402   1.166   6.749
10855SOL    HW133464   3.340   1.087   6.743
10855SOL    HW233465   3.408   1.197   6.844
10856SOL     OW33466   0.375   1.070   0.266
10856SOL    HW133467   0.289   1.020   0.272
10856SOL    HW233468   0.432   1.028   0.195
10857SOL     OW33469   6.669   2.012   2.544
10857SOL    HW133470   6.620   2.087   2.500
10857SOL    HW233471   6.638   2.003   2.639
10858SOL     OW33472   2.604   6.239   1.833
10858SOL    HW133473   2.550   6.162   1.799
10858SOL    HW233474   2.693   6.206   1.866
10859SOL     OW33475   1.759   5.474   3.596
10859SOL    HW133476   1.804   5.491   3.684
10859SOL    HW233477   1.723   5.560   3.560
10860SOL     OW33478   0.162   2.942   3.382
10860SOL    HW133479   0.222   2.875   3.338
10860SOL    HW233480   0.095   2.895   3.439
10861SOL     OW33481   4.113   3.636   5.133
10861SOL    HW133482   4.071   3.546   5.116
10861SOL    HW233483   4.135   3.679   5.046
10862SOL     OW33484   1.109   0.868   4.547
10862SOL    HW133485   1.042   0.939   4.525
10862SOL    HW233486   1.161   0.846   4.464
10863SOL     OW33487   3.276   6.161   4.726
10863SOL    HW133488   3.212   6.237   4.736
10863SOL    HW233489   3.233   6.087   4.673
10864SOL     OW33490   3.723   5.898   3.033
10864SOL    HW133491   3.814   5.900   3.076
10864SOL    HW233492   3.678   5.812   3.056
10865SOL     OW33493   6.471   1.760   6.079
10865SOL    HW133494   6.509   1.690   6.139
10865SOL    HW233495   6.374   1.742   6.063
10866SOL     OW33496   5.386   5.321   0.846
10866SOL    HW133497   5.330   5.240   0.826
10866SOL    HW233498   5.345   5.371   0.923
10867SOL     OW33499   3.460   1.886   0.436
10867SOL    HW133500   3.425   1.939   0.359
10867SOL    HW233501   3.547   1.925   0.467
10868SOL     OW33502   2.602   2.473   2.549
10868SOL    HW133503   2.583   2.521   2.464
10868SOL    HW233504   2.536   2.398   2.560
10869NA      NA33505   6.452   2.202   5.918
10870NA      NA33506   4.448   4.579   5.233
10871NA      NA33507   2.422   3.561   1.653
10872NA      NA33508   5.007   3.573   5.112
10873NA      NA33509   4.396   2.427   5.214
10874NA      NA33510   3.699   4.717   1.705
10875NA      NA33511   6.630   5.926   4.854
10876NA      NA33512   3.804   3.894   5.036
10877NA      NA33513   4.527   6.940   7.025
10878NA      NA33514   3.553   0.255   4.972
10879NA      NA33515   0.112   5.256   2.897
10880NA      NA33516   2.861   0.552   2.949
10881NA      NA33517   3.563   4.041   1.000
10882NA      NA33518   3.426   3.366   2.945
   7.02710   7.02710   7.02710
