Generated by trjconv : CNT in water t= 459.00000
33518
    1C        C    1   2.844   2.771   4.746
    1C        C    2   2.899   2.719   4.866
    1C        C    3   2.849   2.775   4.984
    1C        C    4   2.848   2.770   4.261
    1C        C    5   2.905   2.729   4.384
    1C        C    6   2.845   2.773   4.504
    1C        C    7   3.013   2.641   4.623
    1C        C    8   2.896   2.720   4.625
    1C        C    9   3.076   2.605   4.744
    1C        C   10   3.008   2.629   4.865
    1C        C   11   3.179   2.488   4.976
    1C        C   12   3.059   2.560   4.975
    1C        C   13   2.850   2.773   3.771
    1C        C   14   2.903   2.728   3.895
    1C        C   15   2.853   2.780   4.016
    1C        C   16   3.019   2.647   4.137
    1C        C   17   2.903   2.728   4.138
    1C        C   18   3.084   2.620   4.259
    1C        C   19   3.019   2.646   4.382
    1C        C   20   3.211   2.556   4.503
    1C        C   21   3.078   2.605   4.504
    1C        C   22   3.279   2.533   4.625
    1C        C   23   3.207   2.549   4.746
    1C        C   24   3.411   2.488   4.864
    1C        C   25   3.268   2.502   4.865
    1C        C   26   3.488   2.477   4.980
    1C        C   27   2.855   2.775   3.282
    1C        C   28   2.906   2.727   3.405
    1C        C   29   2.853   2.775   3.527
    1C        C   30   3.019   2.644   3.648
    1C        C   31   2.905   2.728   3.649
    1C        C   32   3.076   2.607   3.771
    1C        C   33   3.017   2.645   3.894
    1C        C   34   3.210   2.554   4.016
    1C        C   35   3.079   2.608   4.016
    1C        C   36   3.279   2.532   4.137
    1C        C   37   3.213   2.563   4.258
    1C        C   38   3.417   2.508   4.382
    1C        C   39   3.279   2.538   4.381
    1C        C   40   3.489   2.501   4.504
    1C        C   41   3.418   2.507   4.626
    1C        C   42   3.631   2.477   4.745
    1C        C   43   3.489   2.484   4.745
    1C        C   44   3.702   2.488   4.867
    1C        C   45   3.627   2.486   4.985
    1C        C   46   2.840   2.754   2.794
    1C        C   47   2.898   2.712   2.916
    1C        C   48   2.844   2.763   3.036
    1C        C   49   3.019   2.644   3.162
    1C        C   50   2.905   2.727   3.158
    1C        C   51   3.083   2.611   3.283
    1C        C   52   3.019   2.642   3.405
    1C        C   53   3.212   2.552   3.528
    1C        C   54   3.082   2.609   3.526
    1C        C   55   3.278   2.528   3.650
    1C        C   56   3.204   2.549   3.769
    1C        C   57   3.412   2.506   3.892
    1C        C   58   3.273   2.532   3.891
    1C        C   59   3.483   2.497   4.014
    1C        C   60   3.417   2.504   4.139
    1C        C   61   3.630   2.506   4.259
    1C        C   62   3.489   2.498   4.261
    1C        C   63   3.700   2.505   4.382
    1C        C   64   3.630   2.496   4.504
    1C        C   65   3.836   2.541   4.621
    1C        C   66   3.702   2.494   4.625
    1C        C   67   3.900   2.566   4.744
    1C        C   68   3.838   2.525   4.864
    1C        C   69   4.051   2.587   4.977
    1C        C   70   3.923   2.529   4.975
    1C        C   71   2.828   2.736   2.308
    1C        C   72   2.888   2.695   2.429
    1C        C   73   2.837   2.750   2.549
    1C        C   74   3.006   2.623   2.673
    1C        C   75   2.889   2.703   2.672
    1C        C   76   3.073   2.598   2.795
    1C        C   77   3.017   2.636   2.918
    1C        C   78   3.211   2.552   3.036
    1C        C   79   3.079   2.604   3.040
    1C        C   80   3.277   2.533   3.159
    1C        C   81   3.212   2.552   3.283
    1C        C   82   3.416   2.496   3.404
    1C        C   83   3.279   2.528   3.405
    1C        C   84   3.487   2.489   3.527
    1C        C   85   3.417   2.500   3.649
    1C        C   86   3.627   2.491   3.768
    1C        C   87   3.485   2.492   3.772
    1C        C   88   3.694   2.509   3.891
    1C        C   89   3.624   2.501   4.013
    1C        C   90   3.835   2.537   4.135
    1C        C   91   3.695   2.514   4.134
    1C        C   92   3.903   2.566   4.256
    1C        C   93   3.837   2.540   4.378
    1C        C   94   4.025   2.639   4.499
    1C        C   95   3.904   2.565   4.500
    1C        C   96   4.086   2.677   4.621
    1C        C   97   4.027   2.631   4.741
    1C        C   98   4.187   2.769   4.862
    1C        C   99   4.097   2.657   4.861
    1C        C  100   4.211   2.844   4.978
    1C        C  101   2.816   2.727   2.073
    1C        C  102   2.992   2.591   2.189
    1C        C  103   2.878   2.678   2.188
    1C        C  104   3.065   2.575   2.309
    1C        C  105   3.002   2.611   2.430
    1C        C  106   3.200   2.535   2.549
    1C        C  107   3.068   2.585   2.552
    1C        C  108   3.270   2.522   2.671
    1C        C  109   3.203   2.542   2.794
    1C        C  110   3.413   2.489   2.913
    1C        C  111   3.275   2.520   2.914
    1C        C  112   3.483   2.481   3.036
    1C        C  113   3.414   2.498   3.158
    1C        C  114   3.625   2.493   3.278
    1C        C  115   3.484   2.493   3.280
    1C        C  116   3.696   2.507   3.399
    1C        C  117   3.628   2.493   3.523
    1C        C  118   3.833   2.538   3.646
    1C        C  119   3.698   2.496   3.646
    1C        C  120   3.896   2.569   3.768
    1C        C  121   3.830   2.548   3.891
    1C        C  122   4.019   2.643   4.013
    1C        C  123   3.896   2.573   4.013
    1C        C  124   4.082   2.675   4.135
    1C        C  125   4.024   2.639   4.259
    1C        C  126   4.196   2.768   4.377
    1C        C  127   4.087   2.678   4.379
    1C        C  128   4.243   2.822   4.498
    1C        C  129   4.194   2.767   4.619
    1C        C  130   4.324   2.936   4.740
    1C        C  131   4.242   2.819   4.741
    1C        C  132   4.357   3.004   4.859
    1C        C  133   4.286   2.960   4.972
    1C        C  134   3.172   2.461   2.078
    1C        C  135   3.041   2.512   2.080
    1C        C  136   3.259   2.478   2.187
    1C        C  137   3.196   2.518   2.307
    1C        C  138   3.403   2.471   2.425
    1C        C  139   3.265   2.499   2.429
    1C        C  140   3.476   2.477   2.546
    1C        C  141   3.408   2.490   2.669
    1C        C  142   3.622   2.490   2.790
    1C        C  143   3.481   2.482   2.790
    1C        C  144   3.693   2.500   2.912
    1C        C  145   3.624   2.493   3.035
    1C        C  146   3.833   2.534   3.157
    1C        C  147   3.697   2.497   3.156
    1C        C  148   3.900   2.561   3.278
    1C        C  149   3.833   2.540   3.401
    1C        C  150   4.025   2.627   3.524
    1C        C  151   3.899   2.563   3.524
    1C        C  152   4.082   2.670   3.646
    1C        C  153   4.020   2.637   3.768
    1C        C  154   4.189   2.766   3.889
    1C        C  155   4.079   2.678   3.890
    1C        C  156   4.241   2.816   4.010
    1C        C  157   4.192   2.764   4.132
    1C        C  158   4.334   2.923   4.253
    1C        C  159   4.249   2.810   4.253
    1C        C  160   4.373   2.986   4.374
    1C        C  161   4.332   2.931   4.497
    1C        C  162   4.436   3.118   4.615
    1C        C  163   4.367   2.994   4.619
    1C        C  164   4.468   3.186   4.734
    1C        C  165   4.433   3.123   4.856
    1C        C  166   4.518   3.321   4.974
    1C        C  167   4.484   3.187   4.970
    1C        C  168   3.477   2.427   2.076
    1C        C  169   3.399   2.462   2.187
    1C        C  170   3.619   2.459   2.306
    1C        C  171   3.477   2.459   2.305
    1C        C  172   3.690   2.484   2.426
    1C        C  173   3.617   2.479   2.546
    1C        C  174   3.825   2.535   2.668
    1C        C  175   3.690   2.494   2.667
    1C        C  176   3.895   2.556   2.789
    1C        C  177   3.830   2.533   2.912
    1C        C  178   4.025   2.618   3.034
    1C        C  179   3.899   2.555   3.034
    1C        C  180   4.086   2.662   3.154
    1C        C  181   4.026   2.626   3.276
    1C        C  182   4.195   2.749   3.398
    1C        C  183   4.084   2.663   3.400
    1C        C  184   4.244   2.804   3.519
    1C        C  185   4.191   2.761   3.643
    1C        C  186   4.334   2.917   3.765
    1C        C  187   4.241   2.811   3.765
    1C        C  188   4.373   2.979   3.886
    1C        C  189   4.332   2.924   4.010
    1C        C  190   4.444   3.105   4.128
    1C        C  191   4.373   2.983   4.131
    1C        C  192   4.472   3.172   4.249
    1C        C  193   4.446   3.108   4.372
    1C        C  194   4.508   3.314   4.491
    1C        C  195   4.467   3.179   4.492
    1C        C  196   4.523   3.388   4.610
    1C        C  197   4.511   3.321   4.734
    1C        C  198   4.557   3.534   4.851
    1C        C  199   4.536   3.393   4.855
    1C        C  200   4.579   3.619   4.965
    1C        C  201   3.616   2.415   2.073
    1C        C  202   3.826   2.510   2.183
    1C        C  203   3.695   2.453   2.186
    1C        C  204   3.895   2.540   2.303
    1C        C  205   3.827   2.519   2.425
    1C        C  206   4.017   2.619   2.544
    1C        C  207   3.894   2.550   2.546
    1C        C  208   4.079   2.656   2.665
    1C        C  209   4.019   2.625   2.789
    1C        C  210   4.192   2.747   2.909
    1C        C  211   4.082   2.659   2.911
    1C        C  212   4.243   2.800   3.030
    1C        C  213   4.195   2.752   3.154
    1C        C  214   4.328   2.915   3.273
    1C        C  215   4.246   2.800   3.276
    1C        C  216   4.364   2.975   3.396
    1C        C  217   4.328   2.917   3.520
    1C        C  218   4.432   3.102   3.638
    1C        C  219   4.371   2.975   3.642
    1C        C  220   4.463   3.168   3.759
    1C        C  221   4.435   3.106   3.883
    1C        C  222   4.507   3.306   4.002
    1C        C  223   4.468   3.170   4.005
    1C        C  224   4.517   3.379   4.123
    1C        C  225   4.506   3.309   4.245
    1C        C  226   4.524   3.522   4.368
    1C        C  227   4.517   3.380   4.366
    1C        C  228   4.524   3.598   4.487
    1C        C  229   4.534   3.529   4.610
    1C        C  230   4.507   3.742   4.725
    1C        C  231   4.542   3.605   4.729
    1C        C  232   4.497   3.818   4.844
    1C        C  233   4.541   3.753   4.960
    1C        C  234   4.015   2.610   2.064
    1C        C  235   3.894   2.542   2.065
    1C        C  236   4.081   2.650   2.181
    1C        C  237   4.020   2.608   2.301
    1C        C  238   4.192   2.739   2.422
    1C        C  239   4.081   2.650   2.422
    1C        C  240   4.245   2.787   2.543
    1C        C  241   4.191   2.742   2.666
    1C        C  242   4.330   2.906   2.785
    1C        C  243   4.243   2.795   2.786
    1C        C  244   4.375   2.963   2.906
    1C        C  245   4.331   2.911   3.029
    1C        C  246   4.439   3.095   3.148
    1C        C  247   4.371   2.971   3.151
    1C        C  248   4.462   3.161   3.271
    1C        C  249   4.429   3.100   3.394
    1C        C  250   4.502   3.301   3.513
    1C        C  251   4.460   3.166   3.515
    1C        C  252   4.514   3.370   3.635
    1C        C  253   4.505   3.303   3.759
    1C        C  254   4.524   3.516   3.878
    1C        C  255   4.522   3.375   3.880
    1C        C  256   4.517   3.588   3.999
    1C        C  257   4.519   3.520   4.123
    1C        C  258   4.487   3.729   4.240
    1C        C  259   4.515   3.591   4.245
    1C        C  260   4.475   3.801   4.360
    1C        C  261   4.498   3.737   4.484
    1C        C  262   4.428   3.941   4.605
    1C        C  263   4.482   3.810   4.604
    1C        C  264   4.400   4.009   4.725
    1C        C  265   4.435   3.945   4.845
    1C        C  266   4.320   4.130   4.957
    1C        C  267   4.394   4.012   4.962
    1C        C  268   4.260   2.776   2.064
    1C        C  269   4.192   2.737   2.180
    1C        C  270   4.340   2.894   2.301
    1C        C  271   4.247   2.786   2.301
    1C        C  272   4.379   2.956   2.422
    1C        C  273   4.338   2.893   2.542
    1C        C  274   4.438   3.085   2.660
    1C        C  275   4.374   2.959   2.661
    1C        C  276   4.469   3.152   2.781
    1C        C  277   4.445   3.086   2.904
    1C        C  278   4.499   3.294   3.026
    1C        C  279   4.467   3.156   3.024
    1C        C  280   4.513   3.365   3.146
    1C        C  281   4.501   3.297   3.269
    1C        C  282   4.517   3.511   3.389
    1C        C  283   4.513   3.370   3.390
    1C        C  284   4.512   3.581   3.512
    1C        C  285   4.517   3.511   3.635
    1C        C  286   4.495   3.725   3.751
    1C        C  287   4.514   3.585   3.755
    1C        C  288   4.480   3.795   3.873
    1C        C  289   4.497   3.728   3.996
    1C        C  290   4.426   3.930   4.116
    1C        C  291   4.476   3.798   4.117
    1C        C  292   4.396   3.996   4.238
    1C        C  293   4.432   3.936   4.360
    1C        C  294   4.320   4.120   4.479
    1C        C  295   4.398   4.002   4.481
    1C        C  296   4.281   4.184   4.598
    1C        C  297   4.330   4.133   4.721
    1C        C  298   4.199   4.312   4.838
    1C        C  299   4.285   4.197   4.839
    1C        C  300   4.165   4.397   4.948
    1C        C  301   4.351   2.881   2.062
    1C        C  302   4.467   3.068   2.176
    1C        C  303   4.392   2.946   2.179
    1C        C  304   4.483   3.143   2.296
    1C        C  305   4.446   3.080   2.416
    1C        C  306   4.506   3.284   2.535
    1C        C  307   4.471   3.148   2.538
    1C        C  308   4.511   3.357   2.656
    1C        C  309   4.502   3.290   2.780
    1C        C  310   4.525   3.500   2.899
    1C        C  311   4.514   3.360   2.902
    1C        C  312   4.517   3.574   3.020
    1C        C  313   4.519   3.507   3.144
    1C        C  314   4.489   3.717   3.265
    1C        C  315   4.519   3.578   3.265
    1C        C  316   4.476   3.788   3.386
    1C        C  317   4.498   3.722   3.509
    1C        C  318   4.433   3.928   3.627
    1C        C  319   4.479   3.794   3.629
    1C        C  320   4.395   3.987   3.750
    1C        C  321   4.420   3.923   3.873
    1C        C  322   4.313   4.109   3.991
    1C        C  323   4.390   3.991   3.993
    1C        C  324   4.276   4.170   4.114
    1C        C  325   4.321   4.116   4.236
    1C        C  326   4.182   4.279   4.354
    1C        C  327   4.280   4.177   4.356
    1C        C  328   4.129   4.331   4.474
    1C        C  329   4.183   4.286   4.597
    1C        C  330   4.019   4.428   4.712
    1C        C  331   4.133   4.343   4.716
    1C        C  332   3.968   4.486   4.831
    1C        C  333   4.049   4.475   4.944
    1C        C  334   4.550   3.265   2.061
    1C        C  335   4.536   3.125   2.065
    1C        C  336   4.537   3.349   2.172
    1C        C  337   4.514   3.282   2.294
    1C        C  338   4.527   3.497   2.412
    1C        C  339   4.519   3.356   2.414
    1C        C  340   4.525   3.569   2.534
    1C        C  341   4.520   3.498   2.655
    1C        C  342   4.492   3.709   2.774
    1C        C  343   4.517   3.570   2.777
    1C        C  344   4.481   3.782   2.895
    1C        C  345   4.493   3.713   3.018
    1C        C  346   4.427   3.915   3.139
    1C        C  347   4.475   3.781   3.140
    1C        C  348   4.399   3.982   3.260
    1C        C  349   4.428   3.921   3.383
    1C        C  350   4.317   4.103   3.502
    1C        C  351   4.399   3.988   3.504
    1C        C  352   4.273   4.160   3.624
    1C        C  353   4.315   4.104   3.746
    1C        C  354   4.171   4.261   3.865
    1C        C  355   4.270   4.160   3.867
    1C        C  356   4.119   4.313   3.986
    1C        C  357   4.174   4.267   4.108
    1C        C  358   4.009   4.398   4.232
    1C        C  359   4.125   4.317   4.231
    1C        C  360   3.951   4.447   4.350
    1C        C  361   4.014   4.413   4.472
    1C        C  362   3.824   4.517   4.594
    1C        C  363   3.952   4.457   4.591
    1C        C  364   3.761   4.551   4.715
    1C        C  365   3.838   4.540   4.834
    1C        C  366   3.628   4.588   4.950
    1C        C  367   3.765   4.566   4.951
    1C        C  368   4.513   3.564   2.052
    1C        C  369   4.523   3.489   2.170
    1C        C  370   4.503   3.705   2.287
    1C        C  371   4.527   3.566   2.289
    1C        C  372   4.487   3.778   2.407
    1C        C  373   4.505   3.709   2.529
    1C        C  374   4.423   3.906   2.649
    1C        C  375   4.477   3.776   2.651
    1C        C  376   4.393   3.971   2.771
    1C        C  377   4.428   3.913   2.895
    1C        C  378   4.320   4.096   3.011
    1C        C  379   4.397   3.979   3.016
    1C        C  380   4.275   4.152   3.133
    1C        C  381   4.319   4.099   3.256
    1C        C  382   4.171   4.251   3.376
    1C        C  383   4.271   4.152   3.378
    1C        C  384   4.119   4.302   3.497
    1C        C  385   4.173   4.260   3.621
    1C        C  386   4.002   4.387   3.744
    1C        C  387   4.118   4.307   3.742
    1C        C  388   3.941   4.427   3.865
    1C        C  389   4.002   4.392   3.987
    1C        C  390   3.817   4.491   4.108
    1C        C  391   3.944   4.430   4.111
    1C        C  392   3.750   4.515   4.230
    1C        C  393   3.823   4.506   4.351
    1C        C  394   3.616   4.557   4.473
    1C        C  395   3.755   4.536   4.472
    1C        C  396   3.544   4.565   4.595
    1C        C  397   3.621   4.567   4.713
    1C        C  398   3.410   4.553   4.838
    1C        C  399   3.549   4.574   4.835
    1C        C  400   3.343   4.518   4.956
    1C        C  401   4.495   3.702   2.053
    1C        C  402   4.451   3.916   2.166
    1C        C  403   4.485   3.779   2.169
    1C        C  404   4.416   3.980   2.288
    1C        C  405   4.438   3.910   2.409
    1C        C  406   4.327   4.096   2.524
    1C        C  407   4.402   3.977   2.528
    1C        C  408   4.274   4.146   2.645
    1C        C  409   4.313   4.087   2.768
    1C        C  410   4.169   4.246   2.888
    1C        C  411   4.271   4.147   2.888
    1C        C  412   4.118   4.292   3.011
    1C        C  413   4.174   4.250   3.135
    1C        C  414   4.000   4.378   3.253
    1C        C  415   4.116   4.298   3.254
    1C        C  416   3.940   4.412   3.376
    1C        C  417   4.001   4.380   3.499
    1C        C  418   3.810   4.474   3.621
    1C        C  419   3.939   4.416   3.621
    1C        C  420   3.743   4.504   3.742
    1C        C  421   3.812   4.484   3.864
    1C        C  422   3.608   4.534   3.989
    1C        C  423   3.747   4.510   3.987
    1C        C  424   3.539   4.544   4.112
    1C        C  425   3.610   4.537   4.233
    1C        C  426   3.398   4.556   4.359
    1C        C  427   3.540   4.554   4.354
    1C        C  428   3.329   4.552   4.482
    1C        C  429   3.403   4.565   4.602
    1C        C  430   3.190   4.522   4.724
    1C        C  431   3.330   4.548   4.721
    1C        C  432   3.123   4.495   4.846
    1C        C  433   3.206   4.494   4.958
    1C        C  434   4.379   4.123   2.049
    1C        C  435   4.437   3.996   2.051
    1C        C  436   4.301   4.162   2.163
    1C        C  437   4.338   4.099   2.285
    1C        C  438   4.181   4.251   2.402
    1C        C  439   4.284   4.154   2.403
    1C        C  440   4.123   4.296   2.522
    1C        C  441   4.171   4.243   2.643
    1C        C  442   4.002   4.374   2.766
    1C        C  443   4.116   4.290   2.765
    1C        C  444   3.939   4.407   2.887
    1C        C  445   3.998   4.366   3.009
    1C        C  446   3.809   4.467   3.132
    1C        C  447   3.937   4.408   3.130
    1C        C  448   3.742   4.492   3.254
    1C        C  449   3.811   4.469   3.376
    1C        C  450   3.607   4.528   3.498
    1C        C  451   3.744   4.494   3.498
    1C        C  452   3.537   4.545   3.620
    1C        C  453   3.606   4.538   3.743
    1C        C  454   3.396   4.547   3.866
    1C        C  455   3.538   4.542   3.866
    1C        C  456   3.328   4.536   3.989
    1C        C  457   3.397   4.542   4.112
    1C        C  458   3.194   4.505   4.237
    1C        C  459   3.330   4.543   4.236
    1C        C  460   3.126   4.487   4.360
    1C        C  461   3.194   4.514   4.481
    1C        C  462   2.995   4.439   4.603
    1C        C  463   3.126   4.491   4.603
    1C        C  464   2.929   4.405   4.724
    1C        C  465   2.989   4.443   4.847
    1C        C  466   2.803   4.337   4.962
    1C        C  467   2.906   4.431   4.963
    1C        C  468   4.125   4.293   2.042
    1C        C  469   4.188   4.250   2.160
    1C        C  470   4.005   4.371   2.277
    1C        C  471   4.125   4.294   2.279
    1C        C  472   3.939   4.397   2.399
    1C        C  473   4.001   4.368   2.522
    1C        C  474   3.810   4.463   2.643
    1C        C  475   3.939   4.406   2.644
    1C        C  476   3.741   4.485   2.765
    1C        C  477   3.809   4.461   2.887
    1C        C  478   3.605   4.517   3.010
    1C        C  479   3.743   4.486   3.009
    1C        C  480   3.534   4.528   3.131
    1C        C  481   3.604   4.520   3.254
    1C        C  482   3.395   4.536   3.379
    1C        C  483   3.536   4.535   3.377
    1C        C  484   3.323   4.539   3.501
    1C        C  485   3.396   4.552   3.621
    1C        C  486   3.188   4.509   3.746
    1C        C  487   3.326   4.543   3.744
    1C        C  488   3.123   4.486   3.869
    1C        C  489   3.189   4.509   3.992
    1C        C  490   3.000   4.418   4.115
    1C        C  491   3.126   4.483   4.115
    1C        C  492   2.940   4.386   4.239
    1C        C  493   2.998   4.427   4.361
    1C        C  494   2.828   4.301   4.486
    1C        C  495   2.934   4.395   4.483
    1C        C  496   2.775   4.257   4.609
    1C        C  497   2.816   4.319   4.729
    1C        C  498   2.668   4.163   4.845
    1C        C  499   2.749   4.279   4.846
    1C        C  500   2.596   4.116   4.956
    1C        C  501   3.999   4.351   2.042
    1C        C  502   3.809   4.461   2.156
    1C        C  503   3.935   4.399   2.157
    1C        C  504   3.741   4.480   2.278
    1C        C  505   3.808   4.449   2.399
    1C        C  506   3.605   4.515   2.520
    1C        C  507   3.743   4.482   2.520
    1C        C  508   3.531   4.520   2.640
    1C        C  509   3.603   4.512   2.761
    1C        C  510   3.395   4.527   2.888
    1C        C  511   3.537   4.522   2.886
    1C        C  512   3.325   4.522   3.010
    1C        C  513   3.393   4.535   3.133
    1C        C  514   3.187   4.499   3.254
    1C        C  515   3.324   4.534   3.256
    1C        C  516   3.123   4.474   3.378
    1C        C  517   3.186   4.505   3.500
    1C        C  518   2.996   4.420   3.625
    1C        C  519   3.121   4.486   3.624
    1C        C  520   2.940   4.380   3.748
    1C        C  521   3.000   4.417   3.870
    1C        C  522   2.835   4.285   3.996
    1C        C  523   2.943   4.376   3.993
    1C        C  524   2.790   4.236   4.121
    1C        C  525   2.837   4.289   4.243
    1C        C  526   2.694   4.134   4.366
    1C        C  527   2.783   4.243   4.365
    1C        C  528   2.656   4.075   4.488
    1C        C  529   2.691   4.143   4.607
    1C        C  530   2.590   3.956   4.732
    1C        C  531   2.645   4.087   4.728
    1C        C  532   2.543   3.903   4.855
    1C        C  533   2.528   3.994   4.965
    1C        C  534   3.615   4.559   2.040
    1C        C  535   3.747   4.513   2.041
    1C        C  536   3.534   4.536   2.155
    1C        C  537   3.603   4.514   2.277
    1C        C  538   3.392   4.525   2.401
    1C        C  539   3.533   4.525   2.399
    1C        C  540   3.319   4.519   2.522
    1C        C  541   3.390   4.526   2.644
    1C        C  542   3.184   4.488   2.767
    1C        C  543   3.321   4.521   2.768
    1C        C  544   3.116   4.471   2.890
    1C        C  545   3.187   4.492   3.011
    1C        C  546   2.995   4.404   3.134
    1C        C  547   3.119   4.472   3.133
    1C        C  548   2.937   4.373   3.259
    1C        C  549   2.997   4.410   3.381
    1C        C  550   2.831   4.281   3.506
    1C        C  551   2.938   4.374   3.505
    1C        C  552   2.783   4.233   3.629
    1C        C  553   2.835   4.286   3.750
    1C        C  554   2.710   4.116   3.876
    1C        C  555   2.788   4.234   3.873
    1C        C  556   2.670   4.059   3.998
    1C        C  557   2.704   4.124   4.119
    1C        C  558   2.606   3.941   4.246
    1C        C  559   2.663   4.070   4.243
    1C        C  560   2.579   3.877   4.368
    1C        C  561   2.596   3.947   4.490
    1C        C  562   2.525   3.749   4.615
    1C        C  563   2.563   3.885   4.613
    1C        C  564   2.511   3.682   4.738
    1C        C  565   2.523   3.761   4.856
    1C        C  566   2.536   3.546   4.976
    1C        C  567   2.535   3.685   4.973
    1C        C  568   3.323   4.481   2.041
    1C        C  569   3.393   4.517   2.156
    1C        C  570   3.184   4.480   2.282
    1C        C  571   3.321   4.518   2.279
    1C        C  572   3.114   4.459   2.403
    1C        C  573   3.182   4.487   2.523
    1C        C  574   2.989   4.401   2.648
    1C        C  575   3.114   4.467   2.646
    1C        C  576   2.931   4.363   2.771
    1C        C  577   2.993   4.403   2.892
    1C        C  578   2.824   4.274   3.018
    1C        C  579   2.933   4.364   3.014
    1C        C  580   2.779   4.224   3.142
    1C        C  581   2.832   4.279   3.261
    1C        C  582   2.706   4.110   3.385
    1C        C  583   2.785   4.227   3.384
    1C        C  584   2.671   4.051   3.509
    1C        C  585   2.703   4.117   3.630
    1C        C  586   2.603   3.934   3.754
    1C        C  587   2.669   4.058   3.754
    1C        C  588   2.575   3.871   3.878
    1C        C  589   2.605   3.933   4.001
    1C        C  590   2.538   3.736   4.128
    1C        C  591   2.583   3.870   4.125
    1C        C  592   2.527   3.670   4.252
    1C        C  593   2.544   3.740   4.374
    1C        C  594   2.510   3.532   4.497
    1C        C  595   2.526   3.672   4.496
    1C        C  596   2.514   3.466   4.622
    1C        C  597   2.512   3.540   4.742
    1C        C  598   2.534   3.325   4.862
    1C        C  599   2.527   3.466   4.861
    1C        C  600   2.535   3.246   4.978
    1C        C  601   3.191   4.439   2.045
    1C        C  602   2.982   4.394   2.161
    1C        C  603   3.114   4.449   2.161
    1C        C  604   2.923   4.361   2.286
    1C        C  605   2.987   4.398   2.406
    1C        C  606   2.821   4.267   2.530
    1C        C  607   2.928   4.359   2.529
    1C        C  608   2.769   4.220   2.653
    1C        C  609   2.821   4.274   2.773
    1C        C  610   2.688   4.110   2.897
    1C        C  611   2.773   4.223   2.896
    1C        C  612   2.655   4.050   3.020
    1C        C  613   2.695   4.110   3.142
    1C        C  614   2.600   3.923   3.266
    1C        C  615   2.660   4.051   3.265
    1C        C  616   2.571   3.861   3.390
    1C        C  617   2.603   3.927   3.511
    1C        C  618   2.534   3.729   3.640
    1C        C  619   2.576   3.864   3.634
    1C        C  620   2.521   3.663   3.764
    1C        C  621   2.538   3.735   3.885
    1C        C  622   2.508   3.524   4.008
    1C        C  623   2.525   3.665   4.007
    1C        C  624   2.507   3.456   4.132
    1C        C  625   2.508   3.530   4.253
    1C        C  626   2.530   3.322   4.382
    1C        C  627   2.503   3.460   4.375
    1C        C  628   2.550   3.252   4.503
    1C        C  629   2.534   3.326   4.623
    1C        C  630   2.590   3.116   4.742
    1C        C  631   2.548   3.252   4.742
    1C        C  632   2.613   3.046   4.864
    1C        C  633   2.567   3.109   4.984
    1C        C  634   2.781   4.305   2.056
    1C        C  635   2.889   4.394   2.052
    1C        C  636   2.751   4.228   2.169
    1C        C  637   2.811   4.272   2.289
    1C        C  638   2.679   4.105   2.412
    1C        C  639   2.764   4.218   2.410
    1C        C  640   2.637   4.048   2.534
    1C        C  641   2.681   4.110   2.653
    1C        C  642   2.589   3.920   2.780
    1C        C  643   2.646   4.050   2.776
    1C        C  644   2.567   3.853   2.902
    1C        C  645   2.594   3.922   3.022
    1C        C  646   2.526   3.722   3.150
    1C        C  647   2.570   3.857   3.145
    1C        C  648   2.511   3.655   3.273
    1C        C  649   2.530   3.726   3.393
    1C        C  650   2.511   3.519   3.517
    1C        C  651   2.520   3.660   3.518
    1C        C  652   2.512   3.451   3.641
    1C        C  653   2.510   3.522   3.764
    1C        C  654   2.525   3.312   3.891
    1C        C  655   2.513   3.453   3.887
    1C        C  656   2.544   3.248   4.016
    1C        C  657   2.532   3.317   4.138
    1C        C  658   2.603   3.120   4.258
    1C        C  659   2.549   3.250   4.261
    1C        C  660   2.630   3.054   4.380
    1C        C  661   2.598   3.120   4.501
    1C        C  662   2.708   2.936   4.623
    1C        C  663   2.628   3.052   4.622
    1C        C  664   2.749   2.877   4.744
    1C        C  665   2.699   2.932   4.866
    1C        C  666   2.745   2.868   4.981
    1C        C  667   2.679   4.022   2.055
    1C        C  668   2.686   4.103   2.169
    1C        C  669   2.588   3.912   2.293
    1C        C  670   2.649   4.040   2.290
    1C        C  671   2.555   3.850   2.415
    1C        C  672   2.581   3.919   2.536
    1C        C  673   2.520   3.718   2.660
    1C        C  674   2.558   3.854   2.659
    1C        C  675   2.505   3.648   2.781
    1C        C  676   2.528   3.717   2.902
    1C        C  677   2.503   3.512   3.031
    1C        C  678   2.517   3.653   3.027
    1C        C  679   2.501   3.442   3.153
    1C        C  680   2.501   3.514   3.275
    1C        C  681   2.530   3.304   3.401
    1C        C  682   2.506   3.444   3.398
    1C        C  683   2.551   3.240   3.525
    1C        C  684   2.535   3.312   3.646
    1C        C  685   2.602   3.114   3.771
    1C        C  686   2.548   3.245   3.769
    1C        C  687   2.635   3.054   3.894
    1C        C  688   2.600   3.119   4.015
    1C        C  689   2.716   2.939   4.140
    1C        C  690   2.637   3.056   4.136
    1C        C  691   2.758   2.879   4.261
    1C        C  692   2.710   2.938   4.380
    1C        C  693   2.751   2.878   4.502
    1C        C  694   2.628   3.891   2.055
    1C        C  695   2.532   3.703   2.175
    1C        C  696   2.581   3.835   2.175
    1C        C  697   2.500   3.639   2.297
    1C        C  698   2.517   3.713   2.415
    1C        C  699   2.482   3.506   2.541
    1C        C  700   2.506   3.646   2.539
    1C        C  701   2.489   3.437   2.663
    1C        C  702   2.494   3.507   2.786
    1C        C  703   2.528   3.301   2.909
    1C        C  704   2.502   3.439   2.910
    1C        C  705   2.540   3.234   3.033
    1C        C  706   2.524   3.302   3.155
    1C        C  707   2.597   3.104   3.279
    1C        C  708   2.548   3.236   3.278
    1C        C  709   2.625   3.042   3.402
    1C        C  710   2.601   3.108   3.525
    1C        C  711   2.710   2.930   3.649
    1C        C  712   2.632   3.048   3.649
    1C        C  713   2.756   2.878   3.772
    1C        C  714   2.712   2.935   3.893
    1C        C  715   2.758   2.885   4.017
    1C        C  716   2.454   3.498   2.062
    1C        C  717   2.498   3.631   2.060
    1C        C  718   2.469   3.421   2.181
    1C        C  719   2.479   3.498   2.300
    1C        C  720   2.509   3.290   2.426
    1C        C  721   2.482   3.428   2.423
    1C        C  722   2.539   3.224   2.548
    1C        C  723   2.516   3.298   2.666
    1C        C  724   2.592   3.099   2.791
    1C        C  725   2.538   3.229   2.788
    1C        C  726   2.624   3.035   2.913
    1C        C  727   2.587   3.100   3.033
    1C        C  728   2.710   2.927   3.158
    1C        C  729   2.624   3.040   3.156
    1C        C  730   2.756   2.875   3.281
    1C        C  731   2.707   2.927   3.403
    1C        C  732   2.751   2.873   3.526
    1C        C  733   2.488   3.195   2.074
    1C        C  734   2.490   3.279   2.186
    1C        C  735   2.583   3.084   2.305
    1C        C  736   2.524   3.214   2.308
    1C        C  737   2.617   3.023   2.427
    1C        C  738   2.592   3.094   2.547
    1C        C  739   2.698   2.912   2.670
    1C        C  740   2.626   3.033   2.670
    1C        C  741   2.744   2.858   2.793
    1C        C  742   2.701   2.917   2.913
    1C        C  743   2.753   2.871   3.036
    1C        C  744   2.549   3.070   2.070
    1C        C  745   2.686   2.898   2.186
    1C        C  746   2.613   3.019   2.184
    1C        C  747   2.734   2.842   2.307
    1C        C  748   2.691   2.903   2.427
    1C        C  749   2.740   2.852   2.549
    1C        C  750   2.734   2.839   2.068
    1C        C  751   3.674   2.313   1.982
    1C        O  752   3.714   2.202   2.026
    1C        O  753   3.657   2.328   1.844
    1C        C  754   4.648   3.058   1.996
    1C        O  755   4.643   3.019   1.876
    1C        O  756   4.721   2.964   2.070
    1C        C  757   4.441   4.209   1.945
    1C        O  758   4.537   4.285   1.976
    1C        O  759   4.393   4.224   1.815
    1C        C  760   3.585   4.645   1.923
    1C        O  761   3.657   4.747   1.907
    1C        O  762   3.530   4.589   1.807
    1C        C  763   2.875   4.521   1.977
    1C        O  764   2.859   4.527   1.852
    1C        O  765   2.804   4.626   2.036
    1C        C  766   2.356   3.473   1.954
    1C        O  767   2.393   3.476   1.834
    1C        O  768   2.222   3.514   1.963
    1C        C  769   4.696   3.596   5.053
    1C        O  770   4.703   3.527   5.158
    1C        O  771   4.807   3.681   5.045
    1C        C  772   4.261   4.451   5.047
    1C        O  773   4.236   4.456   5.170
    1C        O  774   4.373   4.527   5.011
    1C        C  775   4.146   2.515   5.065
    1C        O  776   4.208   2.411   5.029
    1C        O  777   4.157   2.562   5.196
    1C        C  778   2.899   4.535   5.069
    1C        O  779   2.837   4.643   5.048
    1C        O  780   2.953   4.513   5.196
    1C        C  781   2.474   3.035   5.072
    1C        O  782   2.350   3.054   5.070
    1C        O  783   2.513   2.989   5.197
    1C        C  784   2.432   3.980   5.076
    1C        O  785   2.308   3.961   5.067
    1C        O  786   2.476   3.981   5.209
    1C        C  787   2.947   2.427   2.003
    1C        O  788   2.932   2.441   1.879
    1C        O  789   2.924   2.297   2.048
    1C        C  790   3.195   2.389   5.085
    1C        O  791   3.224   2.270   5.056
    1C        O  792   3.176   2.426   5.219
    1C        H  793   4.307   3.000   5.069
    1C        H  794   4.218   2.787   5.068
    1C        H  795   4.516   3.124   5.050
    1C        H  796   4.569   3.353   5.063
    1C        H  797   4.573   3.817   5.040
    1C        H  798   4.368   3.954   5.047
    1C        H  799   4.308   4.178   5.052
    1C        H  800   4.035   4.549   5.021
    1C        H  801   3.818   4.614   5.031
    1C        H  802   3.592   4.661   5.019
    1C        H  803   3.399   4.479   5.039
    1C        H  804   3.157   4.488   5.053
    1C        H  805   3.917   2.445   5.041
    1C        H  806   3.660   2.543   5.070
    1C        H  807   2.994   2.541   5.059
    1C        H  808   3.441   2.419   5.056
    1C        H  809   2.860   2.718   5.074
    1C        H  810   2.680   2.870   5.066
    1C        H  811   2.490   3.286   5.066
    1C        H  812   2.539   3.496   5.070
    1C        H  813   2.532   3.739   5.066
    1C        H  814   2.598   4.173   5.047
    1C        H  815   2.753   4.316   5.054
    1C        H  816   2.762   2.901   1.985
    1C        H  817   2.809   2.664   1.987
    1C        H  818   3.209   2.430   1.983
    1C        H  819   3.431   2.442   1.981
    1C        H  820   3.867   2.501   1.970
    1C        H  821   4.057   2.625   1.967
    1C        H  822   4.241   2.725   1.972
    1C        H  823   4.427   2.878   1.986
    1C        H  824   4.546   3.312   1.965
    1C        H  825   4.570   3.527   1.968
    1C        H  826   4.489   3.747   1.956
    1C        H  827   3.816   4.560   1.973
    1C        H  828   3.946   4.344   1.950
    1C        H  829   4.193   4.338   1.972
    1C        H  830   4.505   3.970   1.973
    1C        H  831   2.612   3.847   1.959
    1C        H  832   2.698   4.067   1.960
    1C        H  833   2.705   4.321   1.983
    1C        H  834   3.381   4.441   1.961
    1C        H  835   3.137   4.431   1.952
    1C        H  836   2.552   3.017   1.978
    1C        H  837   2.435   3.228   1.987
    1C        H  838   2.470   3.692   1.976
    2V3OU   H29  839   2.805   3.546   5.174
    2V3OU   C27  840   2.787   3.497   5.273
    2V3OU   H27  841   2.729   3.567   5.338
    2V3OU   H28  842   2.729   3.405   5.248
    2V3OU   O11  843   2.908   3.471   5.346
    2V3OU   C15  844   2.923   3.390   5.457
    2V3OU   C13  845   3.053   3.375   5.510
    2V3OU   C14  846   3.075   3.269   5.598
    2V3OU   C16  847   2.970   3.185   5.634
    2V3OU    H6  848   2.990   3.106   5.708
    2V3OU   C12  849   3.215   3.229   5.624
    2V3OU    O2  850   3.241   3.123   5.686
    2V3OU   C10  851   3.325   3.312   5.574
    2V3OU    C8  852   3.458   3.273   5.582
    2V3OU   O10  853   3.487   3.155   5.643
    2V3OU   H26  854   3.399   3.114   5.655
    2V3OU    C6  855   3.565   3.351   5.526
    2V3OU    C5  856   3.535   3.468   5.457
    2V3OU    C4  857   3.702   3.294   5.525
    2V3OU    H4  858   3.720   3.227   5.615
    2V3OU    H5  859   3.711   3.224   5.437
    2V3OU    C2  860   3.816   3.396   5.521
    2V3OU    O6  861   3.807   3.478   5.637
    2V3OU   H21  862   3.761   3.557   5.604
    2V3OU    C3  863   3.781   3.493   5.408
    2V3OU    H2  864   3.862   3.571   5.403
    2V3OU    H3  865   3.780   3.435   5.312
    2V3OU   C25  866   3.951   3.326   5.504
    2V3OU    O7  867   4.004   3.297   5.397
    2V3OU   C26  868   4.028   3.284   5.629
    2V3OU   H22  869   4.067   3.384   5.660
    2V3OU   H23  870   4.113   3.216   5.601
    2V3OU    O8  871   3.969   3.207   5.732
    2V3OU   H24  872   3.925   3.264   5.797
    2V3OU    C1  873   3.646   3.562   5.420
    2V3OU    H1  874   3.623   3.619   5.326
    2V3OU    O3  875   3.660   3.655   5.528
    2V3OU   C19  876   3.618   3.791   5.520
    2V3OU    H9  877   3.522   3.800   5.462
    2V3OU    O4  878   3.713   3.846   5.431
    2V3OU   C20  879   3.843   3.876   5.483
    2V3OU   H10  880   3.891   3.776   5.506
    2V3OU   C24  881   3.610   3.858   5.658
    2V3OU   H16  882   3.542   3.795   5.720
    2V3OU   H17  883   3.562   3.958   5.644
    2V3OU   C23  884   3.750   3.873   5.717
    2V3OU   H15  885   3.800   3.772   5.736
    2V3OU    N1  886   3.739   3.955   5.836
    2V3OU   H19  887   3.816   3.927   5.893
    2V3OU   H20  888   3.657   3.936   5.891
    2V3OU   C21  889   3.845   3.948   5.618
    2V3OU   H11  890   3.951   3.930   5.654
    2V3OU    O5  891   3.823   4.088   5.613
    2V3OU   H18  892   3.789   4.105   5.702
    2V3OU   C22  893   3.915   3.948   5.370
    2V3OU   H12  894   3.863   4.045   5.347
    2V3OU   H13  895   3.906   3.890   5.275
    2V3OU   H14  896   4.022   3.961   5.397
    2V3OU   C11  897   3.157   3.476   5.489
    2V3OU    O1  898   3.128   3.591   5.449
    2V3OU    C9  899   3.297   3.428   5.496
    2V3OU    C7  900   3.398   3.503   5.437
    2V3OU    O9  901   3.387   3.620   5.365
    2V3OU   H25  902   3.291   3.637   5.364
    2V3OU   C17  903   2.817   3.308   5.501
    2V3OU    H7  904   2.720   3.346   5.470
    2V3OU   C18  905   2.839   3.208   5.595
    2V3OU    H8  906   2.760   3.141   5.631
    3SOL     OW  907   4.145   3.551   3.961
    3SOL    HW1  908   4.240   3.548   3.993
    3SOL    HW2  909   4.084   3.547   4.040
    4SOL     OW  910   0.049   0.136   0.361
    4SOL    HW1  911   0.146   0.117   0.374
    4SOL    HW2  912   0.004   0.145   0.450
    5SOL     OW  913   5.277   2.205   0.868
    5SOL    HW1  914   5.235   2.123   0.829
    5SOL    HW2  915   5.237   2.224   0.958
    6SOL     OW  916   5.307   0.854   2.219
    6SOL    HW1  917   5.304   0.757   2.194
    6SOL    HW2  918   5.261   0.868   2.306
    7SOL     OW  919   1.211   4.329   4.412
    7SOL    HW1  920   1.119   4.292   4.421
    7SOL    HW2  921   1.278   4.257   4.429
    8SOL     OW  922   1.477   3.693   4.911
    8SOL    HW1  923   1.574   3.698   4.932
    8SOL    HW2  924   1.438   3.785   4.911
    9SOL     OW  925   0.191   0.931   6.400
    9SOL    HW1  926   0.213   0.856   6.337
    9SOL    HW2  927   0.113   0.982   6.364
   10SOL     OW  928   5.137   4.749   2.294
   10SOL    HW1  929   5.194   4.688   2.239
   10SOL    HW2  930   5.045   4.754   2.253
   11SOL     OW  931   2.452   2.340   0.348
   11SOL    HW1  932   2.541   2.294   0.344
   11SOL    HW2  933   2.382   2.280   0.309
   12SOL     OW  934   3.552   4.929   2.883
   12SOL    HW1  935   3.512   4.957   2.971
   12SOL    HW2  936   3.478   4.900   2.821
   13SOL     OW  937   5.601   6.213   1.395
   13SOL    HW1  938   5.511   6.245   1.368
   13SOL    HW2  939   5.612   6.221   1.494
   14SOL     OW  940   4.683   5.452   5.113
   14SOL    HW1  941   4.652   5.361   5.140
   14SOL    HW2  942   4.667   5.465   5.015
   15SOL     OW  943   0.276   6.520   6.275
   15SOL    HW1  944   0.226   6.492   6.193
   15SOL    HW2  945   0.373   6.527   6.254
   16SOL     OW  946   1.466   4.365   4.961
   16SOL    HW1  947   1.539   4.358   4.893
   16SOL    HW2  948   1.422   4.454   4.954
   17SOL     OW  949   6.858   2.049   5.181
   17SOL    HW1  950   6.881   2.075   5.275
   17SOL    HW2  951   6.912   1.969   5.155
   18SOL     OW  952   2.056   1.088   5.951
   18SOL    HW1  953   2.142   1.128   5.984
   18SOL    HW2  954   1.990   1.161   5.932
   19SOL     OW  955   2.626   0.211   3.270
   19SOL    HW1  956   2.678   0.133   3.305
   19SOL    HW2  957   2.684   0.292   3.268
   20SOL     OW  958   6.753   1.665   5.574
   20SOL    HW1  959   6.712   1.744   5.529
   20SOL    HW2  960   6.680   1.607   5.612
   21SOL     OW  961   2.912   4.758   3.176
   21SOL    HW1  962   2.913   4.856   3.196
   21SOL    HW2  963   2.893   4.707   3.259
   22SOL     OW  964   1.499   0.667   6.546
   22SOL    HW1  965   1.485   0.743   6.610
   22SOL    HW2  966   1.507   0.702   6.453
   23SOL     OW  967   5.991   4.699   1.389
   23SOL    HW1  968   5.902   4.719   1.347
   23SOL    HW2  969   5.998   4.747   1.477
   24SOL     OW  970   4.538   0.637   0.684
   24SOL    HW1  971   4.611   0.700   0.710
   24SOL    HW2  972   4.482   0.678   0.612
   25SOL     OW  973   1.511   0.838   4.692
   25SOL    HW1  974   1.467   0.770   4.751
   25SOL    HW2  975   1.451   0.916   4.679
   26SOL     OW  976   1.034   3.046   0.021
   26SOL    HW1  977   1.082   2.964   7.013
   26SOL    HW2  978   0.962   3.019   0.085
   27SOL     OW  979   5.867   1.287   1.102
   27SOL    HW1  980   5.848   1.210   1.040
   27SOL    HW2  981   5.915   1.359   1.052
   28SOL     OW  982   2.604   0.979   5.459
   28SOL    HW1  983   2.531   1.029   5.505
   28SOL    HW2  984   2.652   1.041   5.397
   29SOL     OW  985   0.623   0.424   1.171
   29SOL    HW1  986   0.545   0.457   1.223
   29SOL    HW2  987   0.600   0.338   1.127
   30SOL     OW  988   4.741   0.545   4.720
   30SOL    HW1  989   4.760   0.499   4.807
   30SOL    HW2  990   4.820   0.600   4.693
   31SOL     OW  991   1.267   3.657   5.541
   31SOL    HW1  992   1.268   3.610   5.453
   31SOL    HW2  993   1.352   3.709   5.553
   32SOL     OW  994   3.282   0.525   1.331
   32SOL    HW1  995   3.265   0.446   1.273
   32SOL    HW2  996   3.296   0.606   1.274
   33SOL     OW  997   1.282   5.269   6.450
   33SOL    HW1  998   1.196   5.225   6.472
   33SOL    HW2  999   1.333   5.289   6.534
   34SOL     OW 1000   2.078   5.078   5.608
   34SOL    HW1 1001   2.135   5.153   5.642
   34SOL    HW2 1002   2.124   5.034   5.530
   35SOL     OW 1003   2.613   3.416   6.899
   35SOL    HW1 1004   2.712   3.406   6.911
   35SOL    HW2 1005   2.589   3.393   6.804
   36SOL     OW 1006   4.482   1.059   4.260
   36SOL    HW1 1007   4.394   1.011   4.253
   36SOL    HW2 1008   4.540   1.035   4.183
   37SOL     OW 1009   2.854   0.402   4.164
   37SOL    HW1 1010   2.920   0.327   4.162
   37SOL    HW2 1011   2.819   0.413   4.257
   38SOL     OW 1012   0.268   4.156   2.699
   38SOL    HW1 1013   0.224   4.073   2.733
   38SOL    HW2 1014   0.339   4.132   2.633
   39SOL     OW 1015   6.871   5.286   6.950
   39SOL    HW1 1016   6.969   5.307   6.950
   39SOL    HW2 1017   6.858   5.190   6.926
   40SOL     OW 1018   3.835   1.211   6.933
   40SOL    HW1 1019   3.757   1.159   6.896
   40SOL    HW2 1020   3.819   1.309   6.920
   41SOL     OW 1021   5.357   3.848   1.774
   41SOL    HW1 1022   5.365   3.800   1.686
   41SOL    HW2 1023   5.326   3.942   1.758
   42SOL     OW 1024   2.848   5.460   6.018
   42SOL    HW1 1025   2.768   5.423   5.971
   42SOL    HW2 1026   2.819   5.505   6.102
   43SOL     OW 1027   3.789   6.942   5.044
   43SOL    HW1 1028   3.873   6.924   4.993
   43SOL    HW2 1029   3.757   0.011   5.023
   44SOL     OW 1030   7.022   0.864   5.559
   44SOL    HW1 1031   6.946   0.929   5.566
   44SOL    HW2 1032   6.990   0.773   5.586
   45SOL     OW 1033   2.629   5.374   6.747
   45SOL    HW1 1034   2.570   5.440   6.702
   45SOL    HW2 1035   2.641   5.399   6.843
   46SOL     OW 1036   0.447   3.301   4.449
   46SOL    HW1 1037   0.466   3.341   4.359
   46SOL    HW2 1038   0.524   3.317   4.510
   47SOL     OW 1039   5.759   3.117   1.068
   47SOL    HW1 1040   5.844   3.129   1.016
   47SOL    HW2 1041   5.772   3.051   1.141
   48SOL     OW 1042   6.152   3.477   1.096
   48SOL    HW1 1043   6.121   3.548   1.034
   48SOL    HW2 1044   6.252   3.474   1.096
   49SOL     OW 1045   3.859   4.187   0.106
   49SOL    HW1 1046   3.849   4.209   0.203
   49SOL    HW2 1047   3.950   4.151   0.089
   50SOL     OW 1048   6.264   2.937   6.842
   50SOL    HW1 1049   6.281   2.839   6.851
   50SOL    HW2 1050   6.228   2.973   6.928
   51SOL     OW 1051   2.185   5.721   3.177
   51SOL    HW1 1052   2.182   5.817   3.205
   51SOL    HW2 1053   2.270   5.704   3.126
   52SOL     OW 1054   6.146   2.490   1.376
   52SOL    HW1 1055   6.122   2.570   1.321
   52SOL    HW2 1056   6.089   2.488   1.459
   53SOL     OW 1057   4.036   0.218   1.943
   53SOL    HW1 1058   4.131   0.188   1.953
   53SOL    HW2 1059   4.008   0.270   2.024
   54SOL     OW 1060   5.543   0.186   6.501
   54SOL    HW1 1061   5.616   0.246   6.534
   54SOL    HW2 1062   5.491   0.233   6.430
   55SOL     OW 1063   1.084   3.101   6.653
   55SOL    HW1 1064   1.057   3.147   6.738
   55SOL    HW2 1065   1.159   3.038   6.672
   56SOL     OW 1066   0.851   2.792   6.848
   56SOL    HW1 1067   0.944   2.766   6.875
   56SOL    HW2 1068   0.832   2.885   6.879
   57SOL     OW 1069   4.448   6.324   6.949
   57SOL    HW1 1070   4.510   6.395   6.982
   57SOL    HW2 1071   4.369   6.318   7.011
   58SOL     OW 1072   0.535   0.535   6.930
   58SOL    HW1 1073   0.488   0.477   6.998
   58SOL    HW2 1074   0.468   0.596   6.888
   59SOL     OW 1075   5.103   3.267   5.483
   59SOL    HW1 1076   5.083   3.185   5.429
   59SOL    HW2 1077   5.184   3.251   5.539
   60SOL     OW 1078   5.430   1.214   2.814
   60SOL    HW1 1079   5.460   1.134   2.866
   60SOL    HW2 1080   5.503   1.246   2.755
   61SOL     OW 1081   7.003   5.899   4.608
   61SOL    HW1 1082   6.989   5.996   4.626
   61SOL    HW2 1083   6.993   5.881   4.510
   62SOL     OW 1084   5.930   2.889   2.224
   62SOL    HW1 1085   5.931   2.989   2.234
   62SOL    HW2 1086   6.016   2.859   2.183
   63SOL     OW 1087   4.311   6.480   5.537
   63SOL    HW1 1088   4.363   6.538   5.599
   63SOL    HW2 1089   4.247   6.535   5.484
   64SOL     OW 1090   0.953   4.130   5.482
   64SOL    HW1 1091   0.930   4.118   5.579
   64SOL    HW2 1092   0.960   4.227   5.460
   65SOL     OW 1093   0.479   6.692   5.058
   65SOL    HW1 1094   0.419   6.692   5.137
   65SOL    HW2 1095   0.459   6.612   5.001
   66SOL     OW 1096   3.990   0.855   2.224
   66SOL    HW1 1097   3.937   0.922   2.173
   66SOL    HW2 1098   4.038   0.902   2.299
   67SOL     OW 1099   0.004   3.157   1.845
   67SOL    HW1 1100   7.002   3.127   1.753
   67SOL    HW2 1101   0.047   3.248   1.840
   68SOL     OW 1102   0.132   1.932   5.517
   68SOL    HW1 1103   0.210   1.948   5.578
   68SOL    HW2 1104   0.108   1.835   5.520
   69SOL     OW 1105   0.789   5.877   6.571
   69SOL    HW1 1106   0.858   5.894   6.501
   69SOL    HW2 1107   0.825   5.814   6.640
   70SOL     OW 1108   5.179   3.562   4.454
   70SOL    HW1 1109   5.177   3.519   4.364
   70SOL    HW2 1110   5.086   3.582   4.484
   71SOL     OW 1111   4.821   2.016   5.019
   71SOL    HW1 1112   4.907   2.067   5.026
   71SOL    HW2 1113   4.806   1.988   4.924
   72SOL     OW 1114   0.005   0.310   3.593
   72SOL    HW1 1115   6.962   0.239   3.620
   72SOL    HW2 1116   0.059   0.277   3.516
   73SOL     OW 1117   3.009   1.042   0.665
   73SOL    HW1 1118   3.000   0.981   0.586
   73SOL    HW2 1119   2.918   1.066   0.698
   74SOL     OW 1120   2.609   1.991   0.828
   74SOL    HW1 1121   2.545   1.961   0.899
   74SOL    HW2 1122   2.652   2.077   0.856
   75SOL     OW 1123   3.378   3.596   0.838
   75SOL    HW1 1124   3.327   3.572   0.921
   75SOL    HW2 1125   3.314   3.630   0.769
   76SOL     OW 1126   3.583   4.908   5.294
   76SOL    HW1 1127   3.491   4.870   5.282
   76SOL    HW2 1128   3.580   5.007   5.278
   77SOL     OW 1129   0.306   5.000   4.381
   77SOL    HW1 1130   0.296   4.908   4.418
   77SOL    HW2 1131   0.253   5.065   4.435
   78SOL     OW 1132   4.801   1.510   1.183
   78SOL    HW1 1133   4.883   1.535   1.130
   78SOL    HW2 1134   4.721   1.553   1.141
   79SOL     OW 1135   0.934   4.424   3.165
   79SOL    HW1 1136   0.902   4.467   3.080
   79SOL    HW2 1137   1.030   4.398   3.154
   80SOL     OW 1138   3.864   0.830   4.970
   80SOL    HW1 1139   3.810   0.909   5.000
   80SOL    HW2 1140   3.891   0.842   4.874
   81SOL     OW 1141   4.365   5.909   1.706
   81SOL    HW1 1142   4.366   5.810   1.690
   81SOL    HW2 1143   4.397   5.956   1.624
   82SOL     OW 1144   2.888   6.412   2.109
   82SOL    HW1 1145   2.861   6.316   2.105
   82SOL    HW2 1146   2.879   6.446   2.203
   83SOL     OW 1147   5.476   1.169   4.541
   83SOL    HW1 1148   5.497   1.135   4.450
   83SOL    HW2 1149   5.436   1.260   4.535
   84SOL     OW 1150   5.004   2.572   2.249
   84SOL    HW1 1151   5.012   2.481   2.209
   84SOL    HW2 1152   4.988   2.639   2.176
   85SOL     OW 1153   2.380   6.845   4.229
   85SOL    HW1 1154   2.290   6.876   4.261
   85SOL    HW2 1155   2.446   6.849   4.304
   86SOL     OW 1156   6.131   0.479   0.172
   86SOL    HW1 1157   6.214   0.461   0.225
   86SOL    HW2 1158   6.054   0.430   0.212
   87SOL     OW 1159   2.337   4.198   6.426
   87SOL    HW1 1160   2.366   4.155   6.340
   87SOL    HW2 1161   2.392   4.280   6.442
   88SOL     OW 1162   3.616   4.000   0.866
   88SOL    HW1 1163   3.681   3.926   0.849
   88SOL    HW2 1164   3.553   4.007   0.789
   89SOL     OW 1165   3.158   4.039   3.981
   89SOL    HW1 1166   3.216   4.109   3.940
   89SOL    HW2 1167   3.214   3.975   4.033
   90SOL     OW 1168   4.961   3.603   2.339
   90SOL    HW1 1169   5.026   3.574   2.269
   90SOL    HW2 1170   4.922   3.692   2.314
   91SOL     OW 1171   4.432   5.590   5.524
   91SOL    HW1 1172   4.340   5.552   5.523
   91SOL    HW2 1173   4.466   5.599   5.431
   92SOL     OW 1174   5.219   3.497   6.289
   92SOL    HW1 1175   5.161   3.579   6.288
   92SOL    HW2 1176   5.171   3.423   6.336
   93SOL     OW 1177   2.958   3.212   2.051
   93SOL    HW1 1178   2.930   3.308   2.058
   93SOL    HW2 1179   3.017   3.188   2.128
   94SOL     OW 1180   3.162   1.698   4.976
   94SOL    HW1 1181   3.216   1.754   4.913
   94SOL    HW2 1182   3.064   1.714   4.957
   95SOL     OW 1183   0.733   0.418   3.993
   95SOL    HW1 1184   0.819   0.441   4.040
   95SOL    HW2 1185   0.661   0.480   4.023
   96SOL     OW 1186   6.107   4.909   0.136
   96SOL    HW1 1187   6.155   4.968   0.071
   96SOL    HW2 1188   6.172   4.846   0.179
   97SOL     OW 1189   2.039   4.829   5.765
   97SOL    HW1 1190   2.038   4.901   5.695
   97SOL    HW2 1191   2.127   4.829   5.811
   98SOL     OW 1192   1.807   2.040   3.340
   98SOL    HW1 1193   1.803   1.966   3.273
   98SOL    HW2 1194   1.716   2.057   3.378
   99SOL     OW 1195   3.653   3.760   4.969
   99SOL    HW1 1196   3.650   3.828   5.043
   99SOL    HW2 1197   3.747   3.748   4.939
  100SOL     OW 1198   6.577   1.572   4.874
  100SOL    HW1 1199   6.675   1.569   4.892
  100SOL    HW2 1200   6.546   1.667   4.876
  101SOL     OW 1201   6.461   3.480   2.492
  101SOL    HW1 1202   6.449   3.465   2.590
  101SOL    HW2 1203   6.508   3.566   2.477
  102SOL     OW 1204   4.618   6.643   0.395
  102SOL    HW1 1205   4.557   6.575   0.354
  102SOL    HW2 1206   4.690   6.666   0.329
  103SOL     OW 1207   3.591   1.168   2.209
  103SOL    HW1 1208   3.542   1.127   2.132
  103SOL    HW2 1209   3.595   1.267   2.196
  104SOL     OW 1210   6.528   4.716   2.163
  104SOL    HW1 1211   6.481   4.672   2.239
  104SOL    HW2 1212   6.615   4.670   2.146
  105SOL     OW 1213   6.400   1.081   5.488
  105SOL    HW1 1214   6.366   0.990   5.462
  105SOL    HW2 1215   6.353   1.151   5.435
  106SOL     OW 1216   4.940   4.647   1.434
  106SOL    HW1 1217   4.995   4.637   1.517
  106SOL    HW2 1218   4.908   4.557   1.404
  107SOL     OW 1219   5.773   0.214   0.930
  107SOL    HW1 1220   5.702   0.284   0.923
  107SOL    HW2 1221   5.776   0.180   1.024
  108SOL     OW 1222   2.715   1.400   4.228
  108SOL    HW1 1223   2.690   1.441   4.316
  108SOL    HW2 1224   2.777   1.324   4.244
  109SOL     OW 1225   1.775   1.008   4.243
  109SOL    HW1 1226   1.774   0.909   4.255
  109SOL    HW2 1227   1.681   1.041   4.234
  110SOL     OW 1228   3.406   4.396   5.843
  110SOL    HW1 1229   3.336   4.332   5.811
  110SOL    HW2 1230   3.372   4.446   5.923
  111SOL     OW 1231   6.226   2.222   1.397
  111SOL    HW1 1232   6.146   2.170   1.427
  111SOL    HW2 1233   6.201   2.319   1.390
  112SOL     OW 1234   4.970   6.445   6.610
  112SOL    HW1 1235   4.912   6.492   6.544
  112SOL    HW2 1236   5.007   6.361   6.568
  113SOL     OW 1237   0.389   6.177   2.093
  113SOL    HW1 1238   0.384   6.146   1.998
  113SOL    HW2 1239   0.466   6.133   2.139
  114SOL     OW 1240   6.857   2.729   2.645
  114SOL    HW1 1241   6.763   2.711   2.675
  114SOL    HW2 1242   6.862   2.719   2.545
  115SOL     OW 1243   5.592   0.488   3.581
  115SOL    HW1 1244   5.493   0.505   3.590
  115SOL    HW2 1245   5.639   0.529   3.659
  116SOL     OW 1246   0.550   5.295   0.218
  116SOL    HW1 1247   0.514   5.370   0.162
  116SOL    HW2 1248   0.475   5.249   0.264
  117SOL     OW 1249   2.252   2.159   0.302
  117SOL    HW1 1250   2.219   2.121   0.215
  117SOL    HW2 1251   2.188   2.134   0.375
  118SOL     OW 1252   0.256   1.862   3.063
  118SOL    HW1 1253   0.284   1.814   3.146
  118SOL    HW2 1254   0.335   1.904   3.021
  119SOL     OW 1255   6.098   6.816   6.068
  119SOL    HW1 1256   6.152   6.899   6.054
  119SOL    HW2 1257   6.158   6.741   6.096
  120SOL     OW 1258   5.158   2.593   5.012
  120SOL    HW1 1259   5.102   2.511   5.000
  120SOL    HW2 1260   5.104   2.673   4.987
  121SOL     OW 1261   1.086   5.047   6.882
  121SOL    HW1 1262   1.133   4.959   6.879
  121SOL    HW2 1263   1.033   5.055   6.966
  122SOL     OW 1264   0.136   4.397   6.360
  122SOL    HW1 1265   0.062   4.460   6.336
  122SOL    HW2 1266   0.101   4.304   6.362
  123SOL     OW 1267   0.988   2.081   2.008
  123SOL    HW1 1268   1.025   2.139   2.080
  123SOL    HW2 1269   1.060   2.056   1.944
  124SOL     OW 1270   1.919   3.062   0.092
  124SOL    HW1 1271   1.866   3.017   0.164
  124SOL    HW2 1272   1.963   3.144   0.129
  125SOL     OW 1273   4.425   3.270   0.607
  125SOL    HW1 1274   4.454   3.180   0.576
  125SOL    HW2 1275   4.485   3.340   0.567
  126SOL     OW 1276   4.134   3.617   4.631
  126SOL    HW1 1277   4.122   3.715   4.618
  126SOL    HW2 1278   4.203   3.583   4.568
  127SOL     OW 1279   0.510   5.543   5.970
  127SOL    HW1 1280   0.529   5.446   5.957
  127SOL    HW2 1281   0.523   5.592   5.884
  128SOL     OW 1282   4.456   2.992   0.043
  128SOL    HW1 1283   4.435   2.898   0.015
  128SOL    HW2 1284   4.544   3.020   0.004
  129SOL     OW 1285   1.287   5.349   1.741
  129SOL    HW1 1286   1.255   5.427   1.794
  129SOL    HW2 1287   1.385   5.336   1.758
  130SOL     OW 1288   6.649   2.846   4.424
  130SOL    HW1 1289   6.659   2.946   4.424
  130SOL    HW2 1290   6.600   2.818   4.507
  131SOL     OW 1291   0.334   2.343   3.343
  131SOL    HW1 1292   0.291   2.428   3.313
  131SOL    HW2 1293   0.345   2.345   3.443
  132SOL     OW 1294   3.791   3.130   2.272
  132SOL    HW1 1295   3.878   3.127   2.223
  132SOL    HW2 1296   3.751   3.221   2.262
  133SOL     OW 1297   5.364   6.422   5.900
  133SOL    HW1 1298   5.443   6.466   5.857
  133SOL    HW2 1299   5.385   6.325   5.916
  134SOL     OW 1300   5.696   1.626   1.511
  134SOL    HW1 1301   5.699   1.595   1.416
  134SOL    HW2 1302   5.709   1.548   1.572
  135SOL     OW 1303   4.831   3.005   3.791
  135SOL    HW1 1304   4.858   3.069   3.863
  135SOL    HW2 1305   4.868   3.036   3.703
  136SOL     OW 1306   3.210   0.225   6.702
  136SOL    HW1 1307   3.137   0.209   6.636
  136SOL    HW2 1308   3.295   0.184   6.669
  137SOL     OW 1309   3.116   3.620   6.098
  137SOL    HW1 1310   3.036   3.599   6.154
  137SOL    HW2 1311   3.175   3.539   6.092
  138SOL     OW 1312   1.046   4.950   6.214
  138SOL    HW1 1313   1.103   4.878   6.252
  138SOL    HW2 1314   1.079   4.974   6.122
  139SOL     OW 1315   1.755   6.285   1.248
  139SOL    HW1 1316   1.824   6.271   1.177
  139SOL    HW2 1317   1.709   6.198   1.267
  140SOL     OW 1318   3.269   0.750   1.169
  140SOL    HW1 1319   3.172   0.742   1.145
  140SOL    HW2 1320   3.325   0.729   1.088
  141SOL     OW 1321   6.904   2.895   0.668
  141SOL    HW1 1322   6.947   2.856   0.586
  141SOL    HW2 1323   6.950   2.981   0.691
  142SOL     OW 1324   1.412   4.386   1.877
  142SOL    HW1 1325   1.482   4.372   1.807
  142SOL    HW2 1326   1.323   4.398   1.833
  143SOL     OW 1327   4.678   6.089   2.174
  143SOL    HW1 1328   4.774   6.062   2.186
  143SOL    HW2 1329   4.619   6.009   2.182
  144SOL     OW 1330   3.436   4.944   3.984
  144SOL    HW1 1331   3.523   4.943   4.034
  144SOL    HW2 1332   3.451   4.908   3.891
  145SOL     OW 1333   6.714   4.640   3.227
  145SOL    HW1 1334   6.736   4.733   3.254
  145SOL    HW2 1335   6.628   4.612   3.269
  146SOL     OW 1336   5.484   1.239   6.343
  146SOL    HW1 1337   5.571   1.222   6.295
  146SOL    HW2 1338   5.463   1.162   6.403
  147SOL     OW 1339   5.079   1.217   4.905
  147SOL    HW1 1340   5.050   1.296   4.959
  147SOL    HW2 1341   5.026   1.137   4.932
  148SOL     OW 1342   1.179   5.661   0.710
  148SOL    HW1 1343   1.257   5.669   0.772
  148SOL    HW2 1344   1.119   5.587   0.743
  149SOL     OW 1345   1.811   2.235   4.745
  149SOL    HW1 1346   1.876   2.190   4.683
  149SOL    HW2 1347   1.834   2.213   4.839
  150SOL     OW 1348   4.475   1.378   4.998
  150SOL    HW1 1349   4.467   1.288   4.954
  150SOL    HW2 1350   4.383   1.415   5.013
  151SOL     OW 1351   4.010   2.880   1.358
  151SOL    HW1 1352   3.944   2.895   1.283
  151SOL    HW2 1353   4.000   2.952   1.426
  152SOL     OW 1354   0.051   2.684   0.949
  152SOL    HW1 1355   0.009   2.596   0.929
  152SOL    HW2 1356   7.016   2.735   1.012
  153SOL     OW 1357   2.668   1.242   3.551
  153SOL    HW1 1358   2.730   1.301   3.500
  153SOL    HW2 1359   2.583   1.291   3.569
  154SOL     OW 1360   6.398   1.606   2.573
  154SOL    HW1 1361   6.358   1.672   2.637
  154SOL    HW2 1362   6.334   1.589   2.499
  155SOL     OW 1363   0.457   6.898   2.005
  155SOL    HW1 1364   0.394   6.965   2.045
  155SOL    HW2 1365   0.523   6.945   1.947
  156SOL     OW 1366   5.038   2.489   0.467
  156SOL    HW1 1367   5.052   2.582   0.432
  156SOL    HW2 1368   5.042   2.491   0.567
  157SOL     OW 1369   3.599   5.537   0.287
  157SOL    HW1 1370   3.500   5.530   0.292
  157SOL    HW2 1371   3.641   5.481   0.359
  158SOL     OW 1372   0.028   2.793   3.493
  158SOL    HW1 1373   0.083   2.722   3.449
  158SOL    HW2 1374   6.966   2.804   3.443
  159SOL     OW 1375   6.151   5.028   0.388
  159SOL    HW1 1376   6.089   4.960   0.427
  159SOL    HW2 1377   6.143   5.028   0.288
  160SOL     OW 1378   6.513   6.982   2.007
  160SOL    HW1 1379   6.587   6.990   2.073
  160SOL    HW2 1380   6.451   6.909   2.034
  161SOL     OW 1381   0.708   6.068   0.817
  161SOL    HW1 1382   0.739   6.044   0.909
  161SOL    HW2 1383   0.720   5.988   0.757
  162SOL     OW 1384   4.388   6.674   6.877
  162SOL    HW1 1385   4.401   6.645   6.972
  162SOL    HW2 1386   4.456   6.743   6.853
  163SOL     OW 1387   0.217   4.395   2.951
  163SOL    HW1 1388   0.316   4.383   2.941
  163SOL    HW2 1389   0.171   4.309   2.930
  164SOL     OW 1390   2.891   1.891   3.944
  164SOL    HW1 1391   2.985   1.916   3.968
  164SOL    HW2 1392   2.836   1.974   3.933
  165SOL     OW 1393   0.372   6.004   3.167
  165SOL    HW1 1394   0.347   5.907   3.170
  165SOL    HW2 1395   0.436   6.025   3.241
  166SOL     OW 1396   6.426   4.187   3.355
  166SOL    HW1 1397   6.403   4.090   3.366
  166SOL    HW2 1398   6.343   4.238   3.333
  167SOL     OW 1399   2.707   2.025   6.738
  167SOL    HW1 1400   2.621   2.026   6.790
  167SOL    HW2 1401   2.686   2.020   6.641
  168SOL     OW 1402   4.799   4.040   1.596
  168SOL    HW1 1403   4.876   3.980   1.618
  168SOL    HW2 1404   4.758   4.011   1.509
  169SOL     OW 1405   4.769   1.805   1.100
  169SOL    HW1 1406   4.688   1.750   1.120
  169SOL    HW2 1407   4.741   1.900   1.081
  170SOL     OW 1408   0.072   5.876   2.203
  170SOL    HW1 1409   0.098   5.962   2.246
  170SOL    HW2 1410   6.999   5.858   2.220
  171SOL     OW 1411   3.671   3.829   0.595
  171SOL    HW1 1412   3.648   3.920   0.561
  171SOL    HW2 1413   3.706   3.773   0.520
  172SOL     OW 1414   6.946   2.356   6.472
  172SOL    HW1 1415   6.987   2.265   6.481
  172SOL    HW2 1416   6.873   2.368   6.539
  173SOL     OW 1417   6.885   1.648   4.166
  173SOL    HW1 1418   6.831   1.632   4.084
  173SOL    HW2 1419   6.827   1.692   4.235
  174SOL     OW 1420   5.798   5.456   5.132
  174SOL    HW1 1421   5.747   5.539   5.159
  174SOL    HW2 1422   5.751   5.412   5.056
  175SOL     OW 1423   0.160   6.917   1.475
  175SOL    HW1 1424   0.172   6.831   1.525
  175SOL    HW2 1425   0.089   6.905   1.405
  176SOL     OW 1426   6.007   4.199   1.404
  176SOL    HW1 1427   5.972   4.127   1.463
  176SOL    HW2 1428   5.938   4.224   1.337
  177SOL     OW 1429   5.902   3.030   4.380
  177SOL    HW1 1430   5.906   3.005   4.283
  177SOL    HW2 1431   5.820   2.989   4.421
  178SOL     OW 1432   1.992   6.206   5.904
  178SOL    HW1 1433   1.970   6.194   6.001
  178SOL    HW2 1434   1.912   6.179   5.849
  179SOL     OW 1435   3.473   4.635   1.064
  179SOL    HW1 1436   3.482   4.597   1.156
  179SOL    HW2 1437   3.428   4.569   1.005
  180SOL     OW 1438   3.894   1.363   0.406
  180SOL    HW1 1439   3.942   1.319   0.330
  180SOL    HW2 1440   3.890   1.300   0.484
  181SOL     OW 1441   3.431   2.189   5.578
  181SOL    HW1 1442   3.435   2.089   5.574
  181SOL    HW2 1443   3.361   2.222   5.514
  182SOL     OW 1444   4.296   2.758   6.780
  182SOL    HW1 1445   4.375   2.700   6.761
  182SOL    HW2 1446   4.276   2.815   6.701
  183SOL     OW 1447   3.280   1.603   3.434
  183SOL    HW1 1448   3.377   1.591   3.411
  183SOL    HW2 1449   3.273   1.637   3.528
  184SOL     OW 1450   5.275   6.009   3.563
  184SOL    HW1 1451   5.181   6.030   3.533
  184SOL    HW2 1452   5.337   6.078   3.527
  185SOL     OW 1453   6.850   0.543   4.012
  185SOL    HW1 1454   6.816   0.516   4.102
  185SOL    HW2 1455   6.950   0.553   4.015
  186SOL     OW 1456   4.412   6.586   4.125
  186SOL    HW1 1457   4.461   6.501   4.109
  186SOL    HW2 1458   4.462   6.662   4.084
  187SOL     OW 1459   4.033   6.323   1.500
  187SOL    HW1 1460   4.044   6.420   1.519
  187SOL    HW2 1461   3.959   6.310   1.434
  188SOL     OW 1462   1.313   3.302   3.495
  188SOL    HW1 1463   1.269   3.359   3.564
  188SOL    HW2 1464   1.385   3.248   3.539
  189SOL     OW 1465   6.114   5.053   6.103
  189SOL    HW1 1466   6.163   5.137   6.126
  189SOL    HW2 1467   6.178   4.987   6.063
  190SOL     OW 1468   6.033   0.583   6.924
  190SOL    HW1 1469   6.009   0.671   6.966
  190SOL    HW2 1470   6.063   0.519   6.994
  191SOL     OW 1471   0.147   1.143   5.119
  191SOL    HW1 1472   0.106   1.233   5.129
  191SOL    HW2 1473   0.223   1.134   5.183
  192SOL     OW 1474   0.592   5.170   0.707
  192SOL    HW1 1475   0.621   5.215   0.792
  192SOL    HW2 1476   0.672   5.132   0.661
  193SOL     OW 1477   2.706   6.211   6.809
  193SOL    HW1 1478   2.705   6.190   6.907
  193SOL    HW2 1479   2.637   6.156   6.763
  194SOL     OW 1480   4.286   6.559   2.414
  194SOL    HW1 1481   4.253   6.475   2.456
  194SOL    HW2 1482   4.301   6.543   2.316
  195SOL     OW 1483   3.902   0.812   0.845
  195SOL    HW1 1484   3.876   0.906   0.823
  195SOL    HW2 1485   3.861   0.785   0.932
  196SOL     OW 1486   3.081   2.181   0.382
  196SOL    HW1 1487   3.032   2.268   0.374
  196SOL    HW2 1488   3.015   2.107   0.395
  197SOL     OW 1489   2.591   6.394   0.331
  197SOL    HW1 1490   2.544   6.380   0.419
  197SOL    HW2 1491   2.654   6.471   0.339
  198SOL     OW 1492   4.050   0.864   6.756
  198SOL    HW1 1493   4.037   0.814   6.670
  198SOL    HW2 1494   4.133   0.919   6.750
  199SOL     OW 1495   0.363   0.384   2.995
  199SOL    HW1 1496   0.429   0.311   3.009
  199SOL    HW2 1497   0.372   0.421   2.902
  200SOL     OW 1498   0.230   4.010   3.380
  200SOL    HW1 1499   0.156   3.951   3.412
  200SOL    HW2 1500   0.225   4.019   3.281
  201SOL     OW 1501   4.287   1.698   6.330
  201SOL    HW1 1502   4.207   1.743   6.369
  201SOL    HW2 1503   4.354   1.679   6.402
  202SOL     OW 1504   3.326   0.299   2.783
  202SOL    HW1 1505   3.422   0.284   2.805
  202SOL    HW2 1506   3.271   0.222   2.816
  203SOL     OW 1507   5.462   2.814   6.653
  203SOL    HW1 1508   5.495   2.720   6.662
  203SOL    HW2 1509   5.400   2.835   6.728
  204SOL     OW 1510   2.414   6.191   1.135
  204SOL    HW1 1511   2.490   6.137   1.169
  204SOL    HW2 1512   2.449   6.268   1.081
  205SOL     OW 1513   6.095   0.812   0.246
  205SOL    HW1 1514   6.192   0.788   0.248
  205SOL    HW2 1515   6.046   0.761   0.316
  206SOL     OW 1516   1.042   4.397   1.289
  206SOL    HW1 1517   1.028   4.495   1.302
  206SOL    HW2 1518   1.003   4.347   1.367
  207SOL     OW 1519   4.886   0.811   5.372
  207SOL    HW1 1520   4.961   0.865   5.334
  207SOL    HW2 1521   4.901   0.798   5.470
  208SOL     OW 1522   3.822   4.718   6.328
  208SOL    HW1 1523   3.782   4.773   6.255
  208SOL    HW2 1524   3.768   4.635   6.340
  209SOL     OW 1525   6.604   5.831   5.681
  209SOL    HW1 1526   6.596   5.930   5.677
  209SOL    HW2 1527   6.558   5.797   5.763
  210SOL     OW 1528   4.205   2.241   1.814
  210SOL    HW1 1529   4.181   2.330   1.776
  210SOL    HW2 1530   4.127   2.205   1.866
  211SOL     OW 1531   1.668   2.144   1.677
  211SOL    HW1 1532   1.595   2.195   1.632
  211SOL    HW2 1533   1.754   2.196   1.672
  212SOL     OW 1534   0.856   5.389   3.803
  212SOL    HW1 1535   0.789   5.390   3.730
  212SOL    HW2 1536   0.947   5.376   3.765
  213SOL     OW 1537   4.758   2.677   0.015
  213SOL    HW1 1538   4.777   2.582   7.010
  213SOL    HW2 1539   4.749   2.680   0.115
  214SOL     OW 1540   1.551   0.332   2.586
  214SOL    HW1 1541   1.637   0.317   2.635
  214SOL    HW2 1542   1.568   0.388   2.506
  215SOL     OW 1543   3.244   3.196   2.615
  215SOL    HW1 1544   3.287   3.153   2.536
  215SOL    HW2 1545   3.208   3.286   2.589
  216SOL     OW 1546   0.785   6.225   5.888
  216SOL    HW1 1547   0.809   6.219   5.791
  216SOL    HW2 1548   0.726   6.305   5.902
  217SOL     OW 1549   0.644   2.616   3.194
  217SOL    HW1 1550   0.631   2.531   3.144
  217SOL    HW2 1551   0.633   2.599   3.292
  218SOL     OW 1552   1.252   4.075   5.480
  218SOL    HW1 1553   1.301   4.089   5.567
  218SOL    HW2 1554   1.154   4.072   5.497
  219SOL     OW 1555   4.745   4.752   6.894
  219SOL    HW1 1556   4.755   4.785   6.800
  219SOL    HW2 1557   4.815   4.795   6.952
  220SOL     OW 1558   3.280   5.218   0.515
  220SOL    HW1 1559   3.209   5.202   0.583
  220SOL    HW2 1560   3.240   5.212   0.423
  221SOL     OW 1561   5.983   2.051   4.250
  221SOL    HW1 1562   5.967   2.025   4.155
  221SOL    HW2 1563   5.978   2.150   4.259
  222SOL     OW 1564   1.525   6.541   4.900
  222SOL    HW1 1565   1.444   6.488   4.876
  222SOL    HW2 1566   1.533   6.544   5.000
  223SOL     OW 1567   6.444   3.608   1.545
  223SOL    HW1 1568   6.530   3.592   1.593
  223SOL    HW2 1569   6.425   3.530   1.485
  224SOL     OW 1570   2.985   2.216   1.740
  224SOL    HW1 1571   2.961   2.290   1.802
  224SOL    HW2 1572   3.039   2.252   1.664
  225SOL     OW 1573   6.556   0.396   6.946
  225SOL    HW1 1574   6.525   0.475   7.000
  225SOL    HW2 1575   6.497   0.385   6.867
  226SOL     OW 1576   6.371   5.465   0.868
  226SOL    HW1 1577   6.328   5.416   0.943
  226SOL    HW2 1578   6.391   5.559   0.896
  227SOL     OW 1579   1.604   3.144   4.052
  227SOL    HW1 1580   1.634   3.215   4.115
  227SOL    HW2 1581   1.619   3.054   4.094
  228SOL     OW 1582   3.902   0.352   3.450
  228SOL    HW1 1583   3.887   0.295   3.369
  228SOL    HW2 1584   3.881   0.299   3.532
  229SOL     OW 1585   5.562   5.290   2.432
  229SOL    HW1 1586   5.543   5.350   2.509
  229SOL    HW2 1587   5.502   5.314   2.356
  230SOL     OW 1588   1.609   4.231   5.805
  230SOL    HW1 1589   1.549   4.171   5.858
  230SOL    HW2 1590   1.565   4.251   5.717
  231SOL     OW 1591   0.753   1.979   6.820
  231SOL    HW1 1592   0.814   2.017   6.750
  231SOL    HW2 1593   0.723   2.052   6.881
  232SOL     OW 1594   1.950   5.173   6.527
  232SOL    HW1 1595   1.890   5.249   6.502
  232SOL    HW2 1596   2.045   5.197   6.508
  233SOL     OW 1597   2.543   1.149   6.010
  233SOL    HW1 1598   2.619   1.113   5.955
  233SOL    HW2 1599   2.535   1.247   5.994
  234SOL     OW 1600   2.741   5.900   6.952
  234SOL    HW1 1601   2.704   5.913   6.860
  234SOL    HW2 1602   2.818   5.963   6.966
  235SOL     OW 1603   3.136   3.364   4.890
  235SOL    HW1 1604   3.085   3.282   4.864
  235SOL    HW2 1605   3.164   3.356   4.986
  236SOL     OW 1606   0.208   2.507   5.499
  236SOL    HW1 1607   0.305   2.489   5.482
  236SOL    HW2 1608   0.185   2.480   5.592
  237SOL     OW 1609   0.482   7.006   1.628
  237SOL    HW1 1610   0.455   6.911   1.617
  237SOL    HW2 1611   0.581   7.014   1.617
  238SOL     OW 1612   5.535   2.390   2.304
  238SOL    HW1 1613   5.459   2.326   2.293
  238SOL    HW2 1614   5.576   2.410   2.215
  239SOL     OW 1615   0.407   5.974   0.232
  239SOL    HW1 1616   0.500   5.964   0.268
  239SOL    HW2 1617   0.355   6.036   0.290
  240SOL     OW 1618   6.650   3.632   5.732
  240SOL    HW1 1619   6.691   3.558   5.679
  240SOL    HW2 1620   6.553   3.612   5.747
  241SOL     OW 1621   0.598   0.902   2.861
  241SOL    HW1 1622   0.543   0.973   2.905
  241SOL    HW2 1623   0.683   0.941   2.826
  242SOL     OW 1624   1.990   3.026   3.868
  242SOL    HW1 1625   2.088   3.026   3.849
  242SOL    HW2 1626   1.940   3.050   3.785
  243SOL     OW 1627   4.792   0.409   4.978
  243SOL    HW1 1628   4.799   0.453   5.068
  243SOL    HW2 1629   4.875   0.357   4.960
  244SOL     OW 1630   6.530   1.507   5.622
  244SOL    HW1 1631   6.569   1.453   5.547
  244SOL    HW2 1632   6.433   1.526   5.602
  245SOL     OW 1633   6.167   1.484   3.603
  245SOL    HW1 1634   6.250   1.447   3.644
  245SOL    HW2 1635   6.149   1.439   3.516
  246SOL     OW 1636   4.917   3.498   2.835
  246SOL    HW1 1637   5.016   3.514   2.824
  246SOL    HW2 1638   4.883   3.556   2.909
  247SOL     OW 1639   3.044   1.501   3.322
  247SOL    HW1 1640   3.124   1.544   3.364
  247SOL    HW2 1641   2.968   1.502   3.387
  248SOL     OW 1642   6.022   1.304   2.717
  248SOL    HW1 1643   6.097   1.309   2.650
  248SOL    HW2 1644   6.002   1.395   2.752
  249SOL     OW 1645   3.185   0.208   3.718
  249SOL    HW1 1646   3.150   0.196   3.625
  249SOL    HW2 1647   3.241   0.129   3.743
  250SOL     OW 1648   4.752   3.223   5.911
  250SOL    HW1 1649   4.840   3.268   5.923
  250SOL    HW2 1650   4.730   3.217   5.814
  251SOL     OW 1651   2.668   2.367   0.801
  251SOL    HW1 1652   2.768   2.360   0.802
  251SOL    HW2 1653   2.637   2.389   0.708
  252SOL     OW 1654   0.446   1.351   6.096
  252SOL    HW1 1655   0.527   1.303   6.063
  252SOL    HW2 1656   0.407   1.301   6.173
  253SOL     OW 1657   2.578   3.886   6.010
  253SOL    HW1 1658   2.518   3.871   5.931
  253SOL    HW2 1659   2.669   3.849   5.990
  254SOL     OW 1660   5.961   3.493   5.100
  254SOL    HW1 1661   5.894   3.443   5.155
  254SOL    HW2 1662   6.014   3.429   5.044
  255SOL     OW 1663   3.607   2.155   3.901
  255SOL    HW1 1664   3.668   2.216   3.952
  255SOL    HW2 1665   3.658   2.109   3.829
  256SOL     OW 1666   6.631   5.946   6.792
  256SOL    HW1 1667   6.541   5.903   6.791
  256SOL    HW2 1668   6.696   5.885   6.837
  257SOL     OW 1669   2.957   5.550   5.790
  257SOL    HW1 1670   2.931   5.527   5.884
  257SOL    HW2 1671   2.956   5.468   5.734
  258SOL     OW 1672   5.335   4.011   4.090
  258SOL    HW1 1673   5.396   4.089   4.074
  258SOL    HW2 1674   5.352   3.974   4.181
  259SOL     OW 1675   1.114   2.308   3.294
  259SOL    HW1 1676   1.209   2.332   3.312
  259SOL    HW2 1677   1.083   2.354   3.210
  260SOL     OW 1678   6.331   0.242   6.485
  260SOL    HW1 1679   6.358   0.148   6.463
  260SOL    HW2 1680   6.375   0.306   6.423
  261SOL     OW 1681   1.011   2.083   2.701
  261SOL    HW1 1682   1.041   2.003   2.648
  261SOL    HW2 1683   1.059   2.084   2.789
  262SOL     OW 1684   1.066   5.207   1.820
  262SOL    HW1 1685   1.153   5.238   1.782
  262SOL    HW2 1686   1.066   5.224   1.919
  263SOL     OW 1687   1.178   2.057   4.606
  263SOL    HW1 1688   1.181   2.152   4.575
  263SOL    HW2 1689   1.194   2.054   4.705
  264SOL     OW 1690   3.009   4.989   6.281
  264SOL    HW1 1691   3.098   5.011   6.241
  264SOL    HW2 1692   2.949   4.953   6.210
  265SOL     OW 1693   5.283   4.948   5.185
  265SOL    HW1 1694   5.312   4.865   5.138
  265SOL    HW2 1695   5.268   5.021   5.118
  266SOL     OW 1696   3.929   2.565   0.506
  266SOL    HW1 1697   4.020   2.538   0.475
  266SOL    HW2 1698   3.915   2.537   0.601
  267SOL     OW 1699   1.346   1.450   5.667
  267SOL    HW1 1700   1.307   1.509   5.596
  267SOL    HW2 1701   1.402   1.505   5.728
  268SOL     OW 1702   3.650   5.494   4.352
  268SOL    HW1 1703   3.688   5.449   4.433
  268SOL    HW2 1704   3.572   5.550   4.378
  269SOL     OW 1705   1.107   1.032   6.221
  269SOL    HW1 1706   1.077   0.970   6.150
  269SOL    HW2 1707   1.105   1.126   6.187
  270SOL     OW 1708   5.078   1.053   3.804
  270SOL    HW1 1709   5.128   1.130   3.844
  270SOL    HW2 1710   5.100   0.969   3.853
  271SOL     OW 1711   1.501   0.955   0.126
  271SOL    HW1 1712   1.517   0.859   0.151
  271SOL    HW2 1713   1.409   0.965   0.087
  272SOL     OW 1714   4.046   5.931   2.794
  272SOL    HW1 1715   4.055   5.924   2.695
  272SOL    HW2 1716   3.964   5.985   2.816
  273SOL     OW 1717   2.655   6.913   5.296
  273SOL    HW1 1718   2.708   6.861   5.363
  273SOL    HW2 1719   2.570   6.944   5.338
  274SOL     OW 1720   5.836   1.887   1.462
  274SOL    HW1 1721   5.762   1.944   1.497
  274SOL    HW2 1722   5.823   1.792   1.491
  275SOL     OW 1723   5.779   6.019   5.145
  275SOL    HW1 1724   5.724   6.053   5.222
  275SOL    HW2 1725   5.851   6.085   5.124
  276SOL     OW 1726   6.429   6.522   3.667
  276SOL    HW1 1727   6.494   6.452   3.638
  276SOL    HW2 1728   6.343   6.479   3.694
  277SOL     OW 1729   5.007   1.199   5.500
  277SOL    HW1 1730   5.005   1.197   5.400
  277SOL    HW2 1731   4.969   1.286   5.533
  278SOL     OW 1732   6.249   2.879   3.103
  278SOL    HW1 1733   6.150   2.891   3.098
  278SOL    HW2 1734   6.290   2.955   3.154
  279SOL     OW 1735   0.062   3.321   4.710
  279SOL    HW1 1736   0.061   3.419   4.730
  279SOL    HW2 1737   0.073   3.270   4.796
  280SOL     OW 1738   3.198   1.132   2.881
  280SOL    HW1 1739   3.283   1.184   2.883
  280SOL    HW2 1740   3.125   1.184   2.925
  281SOL     OW 1741   5.443   5.677   3.729
  281SOL    HW1 1742   5.508   5.750   3.748
  281SOL    HW2 1743   5.407   5.688   3.636
  282SOL     OW 1744   2.706   1.761   0.426
  282SOL    HW1 1745   2.767   1.794   0.354
  282SOL    HW2 1746   2.671   1.671   0.402
  283SOL     OW 1747   6.735   2.292   4.832
  283SOL    HW1 1748   6.649   2.256   4.867
  283SOL    HW2 1749   6.802   2.297   4.906
  284SOL     OW 1750   5.070   6.137   3.443
  284SOL    HW1 1751   5.035   6.197   3.515
  284SOL    HW2 1752   4.994   6.087   3.401
  285SOL     OW 1753   4.279   0.474   6.033
  285SOL    HW1 1754   4.260   0.554   6.089
  285SOL    HW2 1755   4.193   0.427   6.010
  286SOL     OW 1756   1.861   5.162   5.215
  286SOL    HW1 1757   1.811   5.148   5.301
  286SOL    HW2 1758   1.955   5.128   5.226
  287SOL     OW 1759   2.999   0.133   6.216
  287SOL    HW1 1760   2.950   0.058   6.260
  287SOL    HW2 1761   3.025   0.107   6.123
  288SOL     OW 1762   3.855   0.343   1.200
  288SOL    HW1 1763   3.759   0.332   1.224
  288SOL    HW2 1764   3.912   0.314   1.277
  289SOL     OW 1765   6.292   5.928   3.297
  289SOL    HW1 1766   6.225   5.863   3.335
  289SOL    HW2 1767   6.250   6.019   3.292
  290SOL     OW 1768   3.128   0.617   6.056
  290SOL    HW1 1769   3.073   0.556   6.112
  290SOL    HW2 1770   3.225   0.594   6.066
  291SOL     OW 1771   2.901   6.765   5.170
  291SOL    HW1 1772   2.961   6.765   5.090
  291SOL    HW2 1773   2.806   6.759   5.139
  292SOL     OW 1774   4.486   0.115   4.366
  292SOL    HW1 1775   4.505   0.203   4.323
  292SOL    HW2 1776   4.526   0.041   4.312
  293SOL     OW 1777   6.047   6.978   2.310
  293SOL    HW1 1778   5.957   6.959   2.350
  293SOL    HW2 1779   6.067   0.052   2.318
  294SOL     OW 1780   6.535   0.729   6.121
  294SOL    HW1 1781   6.436   0.738   6.129
  294SOL    HW2 1782   6.560   0.711   6.026
  295SOL     OW 1783   1.241   1.451   4.574
  295SOL    HW1 1784   1.270   1.540   4.608
  295SOL    HW2 1785   1.184   1.463   4.492
  296SOL     OW 1786   6.975   2.170   1.072
  296SOL    HW1 1787   6.896   2.115   1.098
  296SOL    HW2 1788   0.028   2.110   1.048
  297SOL     OW 1789   5.227   3.302   3.563
  297SOL    HW1 1790   5.210   3.218   3.511
  297SOL    HW2 1791   5.216   3.284   3.660
  298SOL     OW 1792   3.952   0.518   6.178
  298SOL    HW1 1793   3.967   0.615   6.156
  298SOL    HW2 1794   3.921   0.511   6.273
  299SOL     OW 1795   1.041   0.896   6.886
  299SOL    HW1 1796   0.952   0.939   6.900
  299SOL    HW2 1797   1.030   0.797   6.880
  300SOL     OW 1798   4.488   0.113   3.575
  300SOL    HW1 1799   4.553   0.178   3.536
  300SOL    HW2 1800   4.537   0.043   3.627
  301SOL     OW 1801   6.632   5.824   1.496
  301SOL    HW1 1802   6.567   5.758   1.459
  301SOL    HW2 1803   6.724   5.784   1.495
  302SOL     OW 1804   0.348   5.615   1.582
  302SOL    HW1 1805   0.356   5.517   1.596
  302SOL    HW2 1806   0.440   5.656   1.580
  303SOL     OW 1807   5.709   5.987   3.445
  303SOL    HW1 1808   5.677   5.998   3.351
  303SOL    HW2 1809   5.664   6.054   3.503
  304SOL     OW 1810   2.350   5.754   4.804
  304SOL    HW1 1811   2.279   5.733   4.871
  304SOL    HW2 1812   2.391   5.669   4.772
  305SOL     OW 1813   0.842   3.032   2.479
  305SOL    HW1 1814   0.925   3.001   2.525
  305SOL    HW2 1815   0.776   2.957   2.476
  306SOL     OW 1816   0.398   6.620   2.901
  306SOL    HW1 1817   0.369   6.594   2.809
  306SOL    HW2 1818   0.379   6.717   2.915
  307SOL     OW 1819   3.677   2.891   3.533
  307SOL    HW1 1820   3.589   2.847   3.552
  307SOL    HW2 1821   3.708   2.941   3.614
  308SOL     OW 1822   5.339   2.309   3.530
  308SOL    HW1 1823   5.413   2.366   3.495
  308SOL    HW2 1824   5.271   2.295   3.459
  309SOL     OW 1825   1.473   6.871   6.571
  309SOL    HW1 1826   1.404   6.807   6.535
  309SOL    HW2 1827   1.429   6.939   6.629
  310SOL     OW 1828   5.190   0.428   5.144
  310SOL    HW1 1829   5.125   0.361   5.108
  310SOL    HW2 1830   5.232   0.477   5.068
  311SOL     OW 1831   2.245   5.761   2.588
  311SOL    HW1 1832   2.245   5.826   2.512
  311SOL    HW2 1833   2.194   5.679   2.562
  312SOL     OW 1834   4.446   1.408   3.059
  312SOL    HW1 1835   4.415   1.486   3.112
  312SOL    HW2 1836   4.546   1.406   3.057
  313SOL     OW 1837   3.966   3.939   2.441
  313SOL    HW1 1838   4.043   3.888   2.478
  313SOL    HW2 1839   3.955   3.917   2.344
  314SOL     OW 1840   2.297   5.615   6.085
  314SOL    HW1 1841   2.304   5.696   6.026
  314SOL    HW2 1842   2.224   5.629   6.152
  315SOL     OW 1843   6.036   1.292   3.391
  315SOL    HW1 1844   6.116   1.246   3.352
  315SOL    HW2 1845   6.002   1.240   3.469
  316SOL     OW 1846   3.812   1.349   6.092
  316SOL    HW1 1847   3.862   1.435   6.093
  316SOL    HW2 1848   3.837   1.296   6.011
  317SOL     OW 1849   1.262   1.546   1.794
  317SOL    HW1 1850   1.357   1.531   1.767
  317SOL    HW2 1851   1.259   1.597   1.880
  318SOL     OW 1852   0.999   0.241   4.656
  318SOL    HW1 1853   0.965   0.249   4.750
  318SOL    HW2 1854   1.052   0.322   4.632
  319SOL     OW 1855   1.385   1.695   2.510
  319SOL    HW1 1856   1.381   1.738   2.420
  319SOL    HW2 1857   1.450   1.745   2.568
  320SOL     OW 1858   6.040   1.985   5.999
  320SOL    HW1 1859   6.089   1.917   6.054
  320SOL    HW2 1860   5.952   2.005   6.041
  321SOL     OW 1861   4.605   3.149   0.822
  321SOL    HW1 1862   4.564   3.215   0.886
  321SOL    HW2 1863   4.533   3.106   0.768
  322SOL     OW 1864   3.293   3.150   6.346
  322SOL    HW1 1865   3.371   3.206   6.375
  322SOL    HW2 1866   3.326   3.068   6.300
  323SOL     OW 1867   0.665   3.559   2.166
  323SOL    HW1 1868   0.662   3.589   2.261
  323SOL    HW2 1869   0.749   3.508   2.151
  324SOL     OW 1870   0.248   0.214   3.396
  324SOL    HW1 1871   0.260   0.292   3.335
  324SOL    HW2 1872   0.207   0.138   3.345
  325SOL     OW 1873   0.147   3.706   1.994
  325SOL    HW1 1874   0.081   3.631   1.994
  325SOL    HW2 1875   0.223   3.684   2.055
  326SOL     OW 1876   0.873   6.701   6.625
  326SOL    HW1 1877   0.843   6.723   6.533
  326SOL    HW2 1878   0.923   6.780   6.663
  327SOL     OW 1879   4.888   5.730   4.278
  327SOL    HW1 1880   4.866   5.751   4.373
  327SOL    HW2 1881   4.819   5.770   4.218
  328SOL     OW 1882   2.218   4.016   2.574
  328SOL    HW1 1883   2.213   3.947   2.502
  328SOL    HW2 1884   2.126   4.043   2.600
  329SOL     OW 1885   3.217   3.454   2.163
  329SOL    HW1 1886   3.247   3.477   2.070
  329SOL    HW2 1887   3.129   3.498   2.182
  330SOL     OW 1888   3.283   6.016   0.452
  330SOL    HW1 1889   3.193   6.000   0.492
  330SOL    HW2 1890   3.279   6.096   0.391
  331SOL     OW 1891   5.774   5.050   6.814
  331SOL    HW1 1892   5.819   5.003   6.890
  331SOL    HW2 1893   5.691   5.095   6.847
  332SOL     OW 1894   5.938   2.173   3.100
  332SOL    HW1 1895   6.031   2.138   3.087
  332SOL    HW2 1896   5.913   2.167   3.196
  333SOL     OW 1897   3.171   0.781   5.636
  333SOL    HW1 1898   3.187   0.774   5.538
  333SOL    HW2 1899   3.108   0.856   5.655
  334SOL     OW 1900   4.057   3.612   3.680
  334SOL    HW1 1901   4.071   3.545   3.607
  334SOL    HW2 1902   4.073   3.568   3.768
  335SOL     OW 1903   3.794   0.612   6.747
  335SOL    HW1 1904   3.789   0.534   6.809
  335SOL    HW2 1905   3.836   0.584   6.661
  336SOL     OW 1906   2.770   1.471   3.781
  336SOL    HW1 1907   2.829   1.486   3.860
  336SOL    HW2 1908   2.674   1.474   3.810
  337SOL     OW 1909   1.973   0.683   6.112
  337SOL    HW1 1910   1.923   0.728   6.038
  337SOL    HW2 1911   1.908   0.650   6.181
  338SOL     OW 1912   4.057   1.366   1.011
  338SOL    HW1 1913   4.034   1.444   1.070
  338SOL    HW2 1914   4.058   1.395   0.916
  339SOL     OW 1915   4.131   5.353   4.846
  339SOL    HW1 1916   4.148   5.330   4.750
  339SOL    HW2 1917   4.046   5.405   4.853
  340SOL     OW 1918   4.749   2.000   3.846
  340SOL    HW1 1919   4.827   1.939   3.831
  340SOL    HW2 1920   4.730   2.051   3.763
  341SOL     OW 1921   6.129   6.461   2.759
  341SOL    HW1 1922   6.207   6.404   2.737
  341SOL    HW2 1923   6.135   6.490   2.855
  342SOL     OW 1924   4.304   2.011   2.304
  342SOL    HW1 1925   4.385   2.049   2.259
  342SOL    HW2 1926   4.238   2.085   2.321
  343SOL     OW 1927   0.021   5.813   2.786
  343SOL    HW1 1928   0.108   5.853   2.813
  343SOL    HW2 1929   0.010   5.819   2.687
  344SOL     OW 1930   1.879   2.327   1.278
  344SOL    HW1 1931   1.914   2.410   1.234
  344SOL    HW2 1932   1.929   2.247   1.244
  345SOL     OW 1933   6.466   3.657   3.939
  345SOL    HW1 1934   6.546   3.714   3.958
  345SOL    HW2 1935   6.386   3.696   3.984
  346SOL     OW 1936   2.051   6.324   3.361
  346SOL    HW1 1937   2.140   6.312   3.317
  346SOL    HW2 1938   1.979   6.322   3.292
  347SOL     OW 1939   2.612   5.082   0.394
  347SOL    HW1 1940   2.683   5.014   0.412
  347SOL    HW2 1941   2.579   5.118   0.481
  348SOL     OW 1942   4.610   5.265   1.438
  348SOL    HW1 1943   4.687   5.327   1.449
  348SOL    HW2 1944   4.636   5.173   1.468
  349SOL     OW 1945   6.546   3.962   1.411
  349SOL    HW1 1946   6.453   3.925   1.410
  349SOL    HW2 1947   6.580   3.964   1.505
  350SOL     OW 1948   3.474   3.116   0.319
  350SOL    HW1 1949   3.558   3.131   0.371
  350SOL    HW2 1950   3.400   3.093   0.381
  351SOL     OW 1951   3.262   4.516   1.561
  351SOL    HW1 1952   3.184   4.479   1.612
  351SOL    HW2 1953   3.290   4.604   1.601
  352SOL     OW 1954   4.120   0.348   3.250
  352SOL    HW1 1955   4.068   0.264   3.234
  352SOL    HW2 1956   4.165   0.343   3.339
  353SOL     OW 1957   1.938   6.455   6.942
  353SOL    HW1 1958   1.983   6.533   6.898
  353SOL    HW2 1959   2.005   6.401   6.992
  354SOL     OW 1960   7.008   2.697   0.452
  354SOL    HW1 1961   0.055   2.628   0.472
  354SOL    HW2 1962   0.011   2.749   0.370
  355SOL     OW 1963   1.797   2.310   2.492
  355SOL    HW1 1964   1.842   2.263   2.567
  355SOL    HW2 1965   1.858   2.380   2.455
  356SOL     OW 1966   0.798   6.797   6.367
  356SOL    HW1 1967   0.832   6.886   6.337
  356SOL    HW2 1968   0.704   6.806   6.399
  357SOL     OW 1969   5.452   6.742   4.957
  357SOL    HW1 1970   5.441   6.828   5.006
  357SOL    HW2 1971   5.535   6.745   4.901
  358SOL     OW 1972   4.260   5.626   0.263
  358SOL    HW1 1973   4.276   5.693   0.191
  358SOL    HW2 1974   4.347   5.601   0.305
  359SOL     OW 1975   2.523   2.579   2.856
  359SOL    HW1 1976   2.609   2.566   2.805
  359SOL    HW2 1977   2.534   2.543   2.949
  360SOL     OW 1978   1.191   4.843   4.508
  360SOL    HW1 1979   1.193   4.943   4.515
  360SOL    HW2 1980   1.119   4.816   4.443
  361SOL     OW 1981   6.329   0.481   3.469
  361SOL    HW1 1982   6.356   0.398   3.518
  361SOL    HW2 1983   6.410   0.531   3.440
  362SOL     OW 1984   4.205   4.913   0.840
  362SOL    HW1 1985   4.233   4.828   0.795
  362SOL    HW2 1986   4.145   4.892   0.917
  363SOL     OW 1987   5.144   5.196   2.144
  363SOL    HW1 1988   5.176   5.288   2.119
  363SOL    HW2 1989   5.212   5.128   2.116
  364SOL     OW 1990   0.610   6.060   6.494
  364SOL    HW1 1991   0.664   5.983   6.528
  364SOL    HW2 1992   0.512   6.039   6.503
  365SOL     OW 1993   5.082   1.673   3.339
  365SOL    HW1 1994   5.060   1.653   3.243
  365SOL    HW2 1995   5.006   1.643   3.397
  366SOL     OW 1996   5.650   2.125   0.257
  366SOL    HW1 1997   5.631   2.220   0.231
  366SOL    HW2 1998   5.624   2.065   0.181
  367SOL     OW 1999   4.849   1.731   5.738
  367SOL    HW1 2000   4.755   1.718   5.705
  367SOL    HW2 2001   4.846   1.761   5.834
  368SOL     OW 2002   6.832   2.392   6.172
  368SOL    HW1 2003   6.865   2.477   6.131
  368SOL    HW2 2004   6.824   2.405   6.271
  369SOL     OW 2005   6.010   3.135   2.274
  369SOL    HW1 2006   5.955   3.184   2.341
  369SOL    HW2 2007   6.086   3.089   2.321
  370SOL     OW 2008   2.145   3.449   3.606
  370SOL    HW1 2009   2.229   3.473   3.655
  370SOL    HW2 2010   2.101   3.533   3.573
  371SOL     OW 2011   1.450   4.706   6.807
  371SOL    HW1 2012   1.526   4.712   6.741
  371SOL    HW2 2013   1.480   4.657   6.888
  372SOL     OW 2014   3.836   6.733   6.555
  372SOL    HW1 2015   3.772   6.686   6.494
  372SOL    HW2 2016   3.809   6.717   6.650
  373SOL     OW 2017   6.201   5.936   4.275
  373SOL    HW1 2018   6.134   5.871   4.312
  373SOL    HW2 2019   6.161   6.027   4.271
  374SOL     OW 2020   2.775   2.075   2.493
  374SOL    HW1 2021   2.712   2.123   2.554
  374SOL    HW2 2022   2.722   2.025   2.424
  375SOL     OW 2023   1.618   5.060   5.038
  375SOL    HW1 2024   1.630   4.974   5.087
  375SOL    HW2 2025   1.618   5.135   5.104
  376SOL     OW 2026   2.743   1.000   4.457
  376SOL    HW1 2027   2.711   0.979   4.364
  376SOL    HW2 2028   2.681   0.959   4.524
  377SOL     OW 2029   0.860   2.116   6.619
  377SOL    HW1 2030   0.907   2.128   6.532
  377SOL    HW2 2031   0.814   2.201   6.644
  378SOL     OW 2032   3.528   0.833   1.482
  378SOL    HW1 2033   3.616   0.866   1.518
  378SOL    HW2 2034   3.477   0.910   1.443
  379SOL     OW 2035   6.619   2.042   6.027
  379SOL    HW1 2036   6.617   1.942   6.022
  379SOL    HW2 2037   6.526   2.076   6.047
  380SOL     OW 2038   4.018   1.613   1.131
  380SOL    HW1 2039   4.036   1.682   1.201
  380SOL    HW2 2040   3.920   1.613   1.109
  381SOL     OW 2041   1.746   3.855   3.482
  381SOL    HW1 2042   1.800   3.825   3.560
  381SOL    HW2 2043   1.707   3.945   3.500
  382SOL     OW 2044   5.527   0.455   6.891
  382SOL    HW1 2045   5.523   0.388   6.818
  382SOL    HW2 2046   5.437   0.466   6.932
  383SOL     OW 2047   4.205   2.973   0.768
  383SOL    HW1 2048   4.295   3.007   0.743
  383SOL    HW2 2049   4.140   2.992   0.695
  384SOL     OW 2050   6.132   4.297   4.861
  384SOL    HW1 2051   6.141   4.218   4.923
  384SOL    HW2 2052   6.095   4.267   4.773
  385SOL     OW 2053   4.589   4.572   0.438
  385SOL    HW1 2054   4.637   4.535   0.517
  385SOL    HW2 2055   4.651   4.573   0.359
  386SOL     OW 2056   3.029   6.921   3.728
  386SOL    HW1 2057   2.989   6.894   3.640
  386SOL    HW2 2058   3.118   6.963   3.712
  387SOL     OW 2059   1.979   5.819   3.716
  387SOL    HW1 2060   1.898   5.763   3.732
  387SOL    HW2 2061   2.052   5.791   3.778
  388SOL     OW 2062   2.439   2.770   5.885
  388SOL    HW1 2063   2.424   2.671   5.890
  388SOL    HW2 2064   2.434   2.800   5.789
  389SOL     OW 2065   2.845   3.478   3.273
  389SOL    HW1 2066   2.746   3.476   3.287
  389SOL    HW2 2067   2.884   3.389   3.299
  390SOL     OW 2068   1.962   1.037   4.467
  390SOL    HW1 2069   1.913   1.057   4.382
  390SOL    HW2 2070   1.900   0.991   4.531
  391SOL     OW 2071   0.833   3.354   0.198
  391SOL    HW1 2072   0.918   3.380   0.245
  391SOL    HW2 2073   0.764   3.330   0.266
  392SOL     OW 2074   2.460   5.074   2.428
  392SOL    HW1 2075   2.383   5.019   2.461
  392SOL    HW2 2076   2.496   5.034   2.344
  393SOL     OW 2077   5.730   4.258   5.172
  393SOL    HW1 2078   5.720   4.279   5.270
  393SOL    HW2 2079   5.828   4.259   5.149
  394SOL     OW 2080   1.445   0.062   1.171
  394SOL    HW1 2081   1.464   0.152   1.208
  394SOL    HW2 2082   1.481   7.016   1.233
  395SOL     OW 2083   5.249   4.122   1.402
  395SOL    HW1 2084   5.205   4.111   1.313
  395SOL    HW2 2085   5.347   4.105   1.393
  396SOL     OW 2086   3.278   4.147   3.754
  396SOL    HW1 2087   3.234   4.224   3.707
  396SOL    HW2 2088   3.371   4.136   3.721
  397SOL     OW 2089   4.431   1.855   5.677
  397SOL    HW1 2090   4.378   1.794   5.736
  397SOL    HW2 2091   4.444   1.943   5.723
  398SOL     OW 2092   0.913   5.078   2.456
  398SOL    HW1 2093   0.887   5.013   2.384
  398SOL    HW2 2094   0.866   5.165   2.441
  399SOL     OW 2095   4.727   4.941   1.128
  399SOL    HW1 2096   4.668   5.016   1.097
  399SOL    HW2 2097   4.793   4.918   1.057
  400SOL     OW 2098   0.404   6.122   5.085
  400SOL    HW1 2099   0.382   6.199   5.145
  400SOL    HW2 2100   0.321   6.072   5.063
  401SOL     OW 2101   4.506   2.054   6.898
  401SOL    HW1 2102   4.457   2.031   6.982
  401SOL    HW2 2103   4.585   1.994   6.888
  402SOL     OW 2104   6.296   5.553   1.221
  402SOL    HW1 2105   6.257   5.473   1.176
  402SOL    HW2 2106   6.321   5.622   1.153
  403SOL     OW 2107   4.400   1.846   5.971
  403SOL    HW1 2108   4.332   1.778   6.002
  403SOL    HW2 2109   4.380   1.934   6.013
  404SOL     OW 2110   0.461   6.973   4.456
  404SOL    HW1 2111   0.512   6.928   4.383
  404SOL    HW2 2112   0.496   0.043   4.468
  405SOL     OW 2113   0.876   2.599   0.839
  405SOL    HW1 2114   0.866   2.500   0.827
  405SOL    HW2 2115   0.847   2.646   0.756
  406SOL     OW 2116   1.574   2.530   4.474
  406SOL    HW1 2117   1.504   2.586   4.518
  406SOL    HW2 2118   1.565   2.538   4.375
  407SOL     OW 2119   2.685   0.726   5.488
  407SOL    HW1 2120   2.716   0.687   5.401
  407SOL    HW2 2121   2.663   0.822   5.476
  408SOL     OW 2122   1.658   0.369   3.752
  408SOL    HW1 2123   1.683   0.274   3.731
  408SOL    HW2 2124   1.597   0.403   3.680
  409SOL     OW 2125   5.645   3.307   3.641
  409SOL    HW1 2126   5.705   3.387   3.649
  409SOL    HW2 2127   5.581   3.320   3.566
  410SOL     OW 2128   2.343   0.880   6.882
  410SOL    HW1 2129   2.290   0.962   6.907
  410SOL    HW2 2130   2.315   0.850   6.791
  411SOL     OW 2131   6.291   4.103   5.401
  411SOL    HW1 2132   6.390   4.100   5.412
  411SOL    HW2 2133   6.253   4.011   5.415
  412SOL     OW 2134   3.823   0.244   2.257
  412SOL    HW1 2135   3.829   0.194   2.343
  412SOL    HW2 2136   3.729   0.272   2.240
  413SOL     OW 2137   3.087   6.439   0.707
  413SOL    HW1 2138   3.138   6.414   0.789
  413SOL    HW2 2139   3.084   6.539   0.698
  414SOL     OW 2140   4.324   4.579   0.393
  414SOL    HW1 2141   4.420   4.583   0.419
  414SOL    HW2 2142   4.280   4.667   0.413
  415SOL     OW 2143   2.071   6.605   1.748
  415SOL    HW1 2144   2.119   6.636   1.666
  415SOL    HW2 2145   2.017   6.524   1.727
  416SOL     OW 2146   4.295   6.327   4.890
  416SOL    HW1 2147   4.309   6.291   4.982
  416SOL    HW2 2148   4.205   6.370   4.884
  417SOL     OW 2149   4.070   6.189   2.297
  417SOL    HW1 2150   4.106   6.129   2.225
  417SOL    HW2 2151   4.046   6.278   2.258
  418SOL     OW 2152   4.909   5.763   0.311
  418SOL    HW1 2153   4.846   5.730   0.241
  418SOL    HW2 2154   4.894   5.713   0.396
  419SOL     OW 2155   6.852   6.679   1.209
  419SOL    HW1 2156   6.753   6.671   1.206
  419SOL    HW2 2157   6.893   6.589   1.193
  420SOL     OW 2158   5.770   3.976   0.323
  420SOL    HW1 2159   5.847   3.913   0.335
  420SOL    HW2 2160   5.686   3.932   0.353
  421SOL     OW 2161   2.468   6.027   6.867
  421SOL    HW1 2162   2.406   6.105   6.869
  421SOL    HW2 2163   2.417   5.943   6.887
  422SOL     OW 2164   6.220   4.517   6.712
  422SOL    HW1 2165   6.143   4.525   6.648
  422SOL    HW2 2166   6.217   4.593   6.777
  423SOL     OW 2167   5.712   2.843   0.162
  423SOL    HW1 2168   5.763   2.907   0.220
  423SOL    HW2 2169   5.668   2.774   0.218
  424SOL     OW 2170   2.955   4.241   0.437
  424SOL    HW1 2171   2.894   4.301   0.489
  424SOL    HW2 2172   2.901   4.169   0.393
  425SOL     OW 2173   4.134   1.291   1.607
  425SOL    HW1 2174   4.045   1.335   1.619
  425SOL    HW2 2175   4.171   1.316   1.517
  426SOL     OW 2176   4.901   2.905   5.734
  426SOL    HW1 2177   4.846   2.852   5.799
  426SOL    HW2 2178   4.977   2.848   5.701
  427SOL     OW 2179   5.597   3.910   1.114
  427SOL    HW1 2180   5.618   3.825   1.163
  427SOL    HW2 2181   5.574   3.889   1.019
  428SOL     OW 2182   3.769   0.549   5.707
  428SOL    HW1 2183   3.714   0.628   5.679
  428SOL    HW2 2184   3.863   0.561   5.675
  429SOL     OW 2185   1.738   4.722   0.019
  429SOL    HW1 2186   1.828   4.725   7.000
  429SOL    HW2 2187   1.683   4.799   7.011
  430SOL     OW 2188   0.851   0.172   4.919
  430SOL    HW1 2189   0.919   0.114   4.964
  430SOL    HW2 2190   0.797   0.117   4.856
  431SOL     OW 2191   3.444   1.681   0.102
  431SOL    HW1 2192   3.539   1.713   0.109
  431SOL    HW2 2193   3.387   1.728   0.169
  432SOL     OW 2194   6.762   1.881   0.577
  432SOL    HW1 2195   6.746   1.838   0.665
  432SOL    HW2 2196   6.840   1.943   0.583
  433SOL     OW 2197   2.607   6.709   5.093
  433SOL    HW1 2198   2.601   6.791   5.150
  433SOL    HW2 2199   2.606   6.628   5.152
  434SOL     OW 2200   5.678   3.377   1.099
  434SOL    HW1 2201   5.702   3.281   1.084
  434SOL    HW2 2202   5.639   3.415   1.015
  435SOL     OW 2203   3.297   3.428   6.165
  435SOL    HW1 2204   3.290   3.367   6.243
  435SOL    HW2 2205   3.354   3.386   6.094
  436SOL     OW 2206   1.581   0.331   1.156
  436SOL    HW1 2207   1.595   0.322   1.057
  436SOL    HW2 2208   1.669   0.325   1.203
  437SOL     OW 2209   0.204   0.287   6.199
  437SOL    HW1 2210   0.180   0.353   6.270
  437SOL    HW2 2211   0.208   0.195   6.238
  438SOL     OW 2212   1.836   3.333   2.017
  438SOL    HW1 2213   1.774   3.260   2.046
  438SOL    HW2 2214   1.887   3.303   1.937
  439SOL     OW 2215   6.078   4.669   2.337
  439SOL    HW1 2216   6.072   4.616   2.253
  439SOL    HW2 2217   6.020   4.751   2.329
  440SOL     OW 2218   0.861   2.554   4.357
  440SOL    HW1 2219   0.871   2.457   4.381
  440SOL    HW2 2220   0.914   2.573   4.274
  441SOL     OW 2221   1.770   1.422   3.327
  441SOL    HW1 2222   1.774   1.444   3.230
  441SOL    HW2 2223   1.757   1.506   3.380
  442SOL     OW 2224   6.643   4.507   0.065
  442SOL    HW1 2225   6.568   4.491   0.129
  442SOL    HW2 2226   6.726   4.465   0.100
  443SOL     OW 2227   1.484   3.951   5.020
  443SOL    HW1 2228   1.440   3.899   5.094
  443SOL    HW2 2229   1.583   3.946   5.030
  444SOL     OW 2230   4.613   2.693   6.275
  444SOL    HW1 2231   4.524   2.696   6.230
  444SOL    HW2 2232   4.656   2.604   6.259
  445SOL     OW 2233   2.133   4.652   3.651
  445SOL    HW1 2234   2.158   4.749   3.653
  445SOL    HW2 2235   2.148   4.612   3.741
  446SOL     OW 2236   3.660   4.907   3.787
  446SOL    HW1 2237   3.758   4.921   3.796
  446SOL    HW2 2238   3.630   4.935   3.696
  447SOL     OW 2239   0.193   4.804   6.955
  447SOL    HW1 2240   0.161   4.889   6.997
  447SOL    HW2 2241   0.216   4.737   0.003
  448SOL     OW 2242   4.007   0.839   5.211
  448SOL    HW1 2243   3.941   0.853   5.138
  448SOL    HW2 2244   4.017   0.741   5.229
  449SOL     OW 2245   6.321   1.101   4.583
  449SOL    HW1 2246   6.413   1.131   4.560
  449SOL    HW2 2247   6.310   1.100   4.683
  450SOL     OW 2248   0.340   5.823   3.491
  450SOL    HW1 2249   0.349   5.921   3.512
  450SOL    HW2 2250   0.423   5.775   3.520
  451SOL     OW 2251   0.828   1.760   2.524
  451SOL    HW1 2252   0.906   1.816   2.495
  451SOL    HW2 2253   0.861   1.669   2.552
  452SOL     OW 2254   0.220   4.740   0.542
  452SOL    HW1 2255   0.136   4.695   0.575
  452SOL    HW2 2256   0.298   4.681   0.561
  453SOL     OW 2257   2.635   1.726   6.722
  453SOL    HW1 2258   2.573   1.761   6.652
  453SOL    HW2 2259   2.700   1.797   6.748
  454SOL     OW 2260   0.364   5.995   6.612
  454SOL    HW1 2261   0.372   6.083   6.658
  454SOL    HW2 2262   0.277   5.990   6.563
  455SOL     OW 2263   5.859   0.747   3.937
  455SOL    HW1 2264   5.857   0.655   3.897
  455SOL    HW2 2265   5.815   0.811   3.875
  456SOL     OW 2266   4.315   5.758   6.441
  456SOL    HW1 2267   4.324   5.740   6.343
  456SOL    HW2 2268   4.223   5.790   6.462
  457SOL     OW 2269   2.150   4.137   3.225
  457SOL    HW1 2270   2.141   4.041   3.252
  457SOL    HW2 2271   2.069   4.187   3.256
  458SOL     OW 2272   5.605   6.060   5.784
  458SOL    HW1 2273   5.667   6.043   5.860
  458SOL    HW2 2274   5.611   5.985   5.718
  459SOL     OW 2275   1.157   0.288   2.850
  459SOL    HW1 2276   1.117   0.339   2.926
  459SOL    HW2 2277   1.085   0.262   2.786
  460SOL     OW 2278   6.764   1.874   2.298
  460SOL    HW1 2279   6.860   1.898   2.290
  460SOL    HW2 2280   6.750   1.821   2.382
  461SOL     OW 2281   4.493   6.819   5.025
  461SOL    HW1 2282   4.431   6.836   5.101
  461SOL    HW2 2283   4.450   6.755   4.961
  462SOL     OW 2284   3.311   2.792   5.917
  462SOL    HW1 2285   3.392   2.846   5.890
  462SOL    HW2 2286   3.240   2.804   5.848
  463SOL     OW 2287   6.203   5.404   3.419
  463SOL    HW1 2288   6.141   5.385   3.495
  463SOL    HW2 2289   6.164   5.367   3.334
  464SOL     OW 2290   1.573   1.068   6.921
  464SOL    HW1 2291   1.567   1.033   7.015
  464SOL    HW2 2292   1.574   0.991   6.857
  465SOL     OW 2293   0.766   1.692   3.829
  465SOL    HW1 2294   0.786   1.601   3.793
  465SOL    HW2 2295   0.806   1.701   3.921
  466SOL     OW 2296   0.234   6.669   3.909
  466SOL    HW1 2297   0.202   6.580   3.939
  466SOL    HW2 2298   0.329   6.682   3.939
  467SOL     OW 2299   0.721   0.080   5.968
  467SOL    HW1 2300   0.762   0.013   5.907
  467SOL    HW2 2301   0.678   0.033   6.045
  468SOL     OW 2302   3.948   5.604   0.789
  468SOL    HW1 2303   3.853   5.636   0.779
  468SOL    HW2 2304   4.008   5.681   0.808
  469SOL     OW 2305   2.315   5.606   0.464
  469SOL    HW1 2306   2.378   5.628   0.539
  469SOL    HW2 2307   2.252   5.534   0.493
  470SOL     OW 2308   4.433   0.336   2.217
  470SOL    HW1 2309   4.383   0.256   2.184
  470SOL    HW2 2310   4.475   0.314   2.306
  471SOL     OW 2311   1.818   2.471   4.562
  471SOL    HW1 2312   1.788   2.388   4.609
  471SOL    HW2 2313   1.741   2.511   4.513
  472SOL     OW 2314   4.877   5.019   6.098
  472SOL    HW1 2315   4.847   5.085   6.166
  472SOL    HW2 2316   4.798   4.969   6.061
  473SOL     OW 2317   0.608   2.929   2.154
  473SOL    HW1 2318   0.635   2.870   2.230
  473SOL    HW2 2319   0.509   2.944   2.157
  474SOL     OW 2320   4.202   5.427   3.890
  474SOL    HW1 2321   4.169   5.398   3.800
  474SOL    HW2 2322   4.258   5.354   3.930
  475SOL     OW 2323   6.860   6.646   7.016
  475SOL    HW1 2324   6.900   6.641   6.925
  475SOL    HW2 2325   6.860   6.741   0.024
  476SOL     OW 2326   6.356   4.263   2.461
  476SOL    HW1 2327   6.314   4.203   2.529
  476SOL    HW2 2328   6.426   4.319   2.505
  477SOL     OW 2329   2.316   4.971   4.495
  477SOL    HW1 2330   2.406   4.993   4.457
  477SOL    HW2 2331   2.251   5.042   4.470
  478SOL     OW 2332   3.580   5.701   3.304
  478SOL    HW1 2333   3.673   5.678   3.277
  478SOL    HW2 2334   3.579   5.732   3.399
  479SOL     OW 2335   2.685   2.203   0.386
  479SOL    HW1 2336   2.698   2.118   0.437
  479SOL    HW2 2337   2.712   2.281   0.442
  480SOL     OW 2338   1.510   6.980   1.634
  480SOL    HW1 2339   1.468   7.010   1.720
  480SOL    HW2 2340   1.456   6.906   1.595
  481SOL     OW 2341   2.457   0.884   1.734
  481SOL    HW1 2342   2.449   0.785   1.730
  481SOL    HW2 2343   2.368   0.925   1.712
  482SOL     OW 2344   5.444   4.411   2.437
  482SOL    HW1 2345   5.465   4.319   2.468
  482SOL    HW2 2346   5.529   4.461   2.420
  483SOL     OW 2347   5.365   1.904   1.438
  483SOL    HW1 2348   5.337   1.950   1.354
  483SOL    HW2 2349   5.286   1.897   1.500
  484SOL     OW 2350   0.586   2.761   4.512
  484SOL    HW1 2351   0.527   2.841   4.517
  484SOL    HW2 2352   0.586   2.725   4.419
  485SOL     OW 2353   3.469   4.944   2.320
  485SOL    HW1 2354   3.448   5.021   2.261
  485SOL    HW2 2355   3.440   4.859   2.277
  486SOL     OW 2356   1.345   1.458   0.804
  486SOL    HW1 2357   1.328   1.419   0.894
  486SOL    HW2 2358   1.414   1.530   0.812
  487SOL     OW 2359   0.526   2.540   0.072
  487SOL    HW1 2360   0.525   2.626   0.123
  487SOL    HW2 2361   0.609   2.488   0.097
  488SOL     OW 2362   0.967   1.509   1.258
  488SOL    HW1 2363   1.029   1.542   1.328
  488SOL    HW2 2364   0.891   1.460   1.301
  489SOL     OW 2365   3.549   5.777   6.981
  489SOL    HW1 2366   3.479   5.812   0.020
  489SOL    HW2 2367   3.613   5.851   6.959
  490SOL     OW 2368   6.112   6.533   4.127
  490SOL    HW1 2369   6.160   6.450   4.096
  490SOL    HW2 2370   6.100   6.529   4.226
  491SOL     OW 2371   0.289   2.745   2.506
  491SOL    HW1 2372   0.323   2.680   2.574
  491SOL    HW2 2373   0.203   2.785   2.538
  492SOL     OW 2374   3.422   0.978   5.681
  492SOL    HW1 2375   3.425   1.035   5.763
  492SOL    HW2 2376   3.332   0.934   5.674
  493SOL     OW 2377   6.732   5.073   5.869
  493SOL    HW1 2378   6.709   5.013   5.946
  493SOL    HW2 2379   6.693   5.035   5.785
  494SOL     OW 2380   0.449   6.145   6.986
  494SOL    HW1 2381   0.547   6.160   6.974
  494SOL    HW2 2382   0.427   6.145   0.060
  495SOL     OW 2383   5.125   4.908   2.771
  495SOL    HW1 2384   5.140   4.961   2.855
  495SOL    HW2 2385   5.214   4.880   2.733
  496SOL     OW 2386   5.605   2.755   3.346
  496SOL    HW1 2387   5.629   2.846   3.313
  496SOL    HW2 2388   5.604   2.691   3.269
  497SOL     OW 2389   3.726   1.154   4.692
  497SOL    HW1 2390   3.676   1.098   4.627
  497SOL    HW2 2391   3.816   1.114   4.709
  498SOL     OW 2392   0.971   3.365   2.671
  498SOL    HW1 2393   0.936   3.342   2.581
  498SOL    HW2 2394   0.901   3.347   2.740
  499SOL     OW 2395   3.112   0.438   4.527
  499SOL    HW1 2396   3.013   0.440   4.534
  499SOL    HW2 2397   3.138   0.429   4.430
  500SOL     OW 2398   0.693   4.053   3.478
  500SOL    HW1 2399   0.774   4.064   3.420
  500SOL    HW2 2400   0.612   4.081   3.427
  501SOL     OW 2401   2.544   2.584   0.429
  501SOL    HW1 2402   2.486   2.503   0.427
  501SOL    HW2 2403   2.510   2.651   0.364
  502SOL     OW 2404   4.793   4.258   5.816
  502SOL    HW1 2405   4.711   4.248   5.872
  502SOL    HW2 2406   4.852   4.178   5.828
  503SOL     OW 2407   6.245   4.161   6.304
  503SOL    HW1 2408   6.276   4.184   6.212
  503SOL    HW2 2409   6.267   4.065   6.323
  504SOL     OW 2410   2.036   6.301   4.027
  504SOL    HW1 2411   1.988   6.255   3.952
  504SOL    HW2 2412   2.135   6.285   4.017
  505SOL     OW 2413   3.786   0.316   5.892
  505SOL    HW1 2414   3.775   0.389   5.824
  505SOL    HW2 2415   3.878   0.320   5.932
  506SOL     OW 2416   1.738   4.644   4.927
  506SOL    HW1 2417   1.655   4.620   4.978
  506SOL    HW2 2418   1.762   4.739   4.944
  507SOL     OW 2419   2.826   0.057   4.454
  507SOL    HW1 2420   2.733   0.094   4.453
  507SOL    HW2 2421   2.822   6.980   4.456
  508SOL     OW 2422   5.960   3.240   2.844
  508SOL    HW1 2423   6.010   3.189   2.774
  508SOL    HW2 2424   6.019   3.254   2.924
  509SOL     OW 2425   4.474   1.027   1.967
  509SOL    HW1 2426   4.518   1.093   2.028
  509SOL    HW2 2427   4.492   1.053   1.872
  510SOL     OW 2428   6.785   4.679   5.620
  510SOL    HW1 2429   6.716   4.621   5.663
  510SOL    HW2 2430   6.770   4.680   5.521
  511SOL     OW 2431   0.298   6.443   6.946
  511SOL    HW1 2432   0.303   6.407   0.016
  511SOL    HW2 2433   0.391   6.459   6.912
  512SOL     OW 2434   0.708   2.952   0.474
  512SOL    HW1 2435   0.759   3.024   0.521
  512SOL    HW2 2436   0.645   2.908   0.538
  513SOL     OW 2437   6.088   5.847   2.869
  513SOL    HW1 2438   6.076   5.760   2.917
  513SOL    HW2 2439   6.184   5.873   2.870
  514SOL     OW 2440   6.787   2.417   4.228
  514SOL    HW1 2441   6.864   2.354   4.242
  514SOL    HW2 2442   6.820   2.499   4.181
  515SOL     OW 2443   2.389   6.948   5.706
  515SOL    HW1 2444   2.303   6.981   5.666
  515SOL    HW2 2445   2.435   7.023   5.754
  516SOL     OW 2446   2.853   4.865   1.484
  516SOL    HW1 2447   2.832   4.789   1.545
  516SOL    HW2 2448   2.928   4.920   1.523
  517SOL     OW 2449   5.487   6.788   2.027
  517SOL    HW1 2450   5.427   6.795   1.948
  517SOL    HW2 2451   5.480   6.871   2.082
  518SOL     OW 2452   2.134   2.171   1.662
  518SOL    HW1 2453   2.054   2.195   1.606
  518SOL    HW2 2454   2.106   2.111   1.736
  519SOL     OW 2455   0.168   0.345   4.476
  519SOL    HW1 2456   0.197   0.349   4.572
  519SOL    HW2 2457   0.189   0.255   4.439
  520SOL     OW 2458   5.674   4.629   6.394
  520SOL    HW1 2459   5.581   4.656   6.369
  520SOL    HW2 2460   5.727   4.710   6.419
  521SOL     OW 2461   6.650   1.764   6.003
  521SOL    HW1 2462   6.639   1.761   6.102
  521SOL    HW2 2463   6.592   1.693   5.961
  522SOL     OW 2464   3.892   2.848   5.475
  522SOL    HW1 2465   3.894   2.762   5.424
  522SOL    HW2 2466   3.946   2.917   5.428
  523SOL     OW 2467   6.890   6.179   3.655
  523SOL    HW1 2468   6.804   6.214   3.617
  523SOL    HW2 2469   6.959   6.175   3.583
  524SOL     OW 2470   2.805   0.851   6.498
  524SOL    HW1 2471   2.749   0.769   6.511
  524SOL    HW2 2472   2.867   0.837   6.422
  525SOL     OW 2473   2.906   3.592   6.281
  525SOL    HW1 2474   2.868   3.500   6.273
  525SOL    HW2 2475   2.833   3.659   6.291
  526SOL     OW 2476   2.638   5.239   4.940
  526SOL    HW1 2477   2.639   5.141   4.962
  526SOL    HW2 2478   2.613   5.250   4.844
  527SOL     OW 2479   6.583   1.292   5.775
  527SOL    HW1 2480   6.664   1.237   5.758
  527SOL    HW2 2481   6.584   1.372   5.715
  528SOL     OW 2482   1.717   1.209   4.600
  528SOL    HW1 2483   1.636   1.211   4.542
  528SOL    HW2 2484   1.728   1.118   4.639
  529SOL     OW 2485   0.695   4.911   4.764
  529SOL    HW1 2486   0.697   4.877   4.859
  529SOL    HW2 2487   0.641   4.848   4.708
  530SOL     OW 2488   2.449   2.975   5.453
  530SOL    HW1 2489   2.421   3.065   5.486
  530SOL    HW2 2490   2.486   2.984   5.360
  531SOL     OW 2491   6.930   0.677   1.089
  531SOL    HW1 2492   6.890   0.765   1.061
  531SOL    HW2 2493   6.894   0.604   1.031
  532SOL     OW 2494   1.183   1.669   5.570
  532SOL    HW1 2495   1.186   1.746   5.507
  532SOL    HW2 2496   1.175   1.702   5.663
  533SOL     OW 2497   5.018   6.386   4.943
  533SOL    HW1 2498   5.110   6.426   4.945
  533SOL    HW2 2499   5.019   6.298   4.990
  534SOL     OW 2500   4.621   5.731   3.524
  534SOL    HW1 2501   4.570   5.690   3.449
  534SOL    HW2 2502   4.656   5.820   3.497
  535SOL     OW 2503   0.276   3.917   3.825
  535SOL    HW1 2504   0.365   3.895   3.867
  535SOL    HW2 2505   0.286   3.922   3.726
  536SOL     OW 2506   0.599   5.648   1.187
  536SOL    HW1 2507   0.652   5.627   1.270
  536SOL    HW2 2508   0.661   5.653   1.109
  537SOL     OW 2509   2.667   6.292   3.299
  537SOL    HW1 2510   2.704   6.372   3.251
  537SOL    HW2 2511   2.681   6.211   3.243
  538SOL     OW 2512   1.157   5.616   3.719
  538SOL    HW1 2513   1.241   5.653   3.679
  538SOL    HW2 2514   1.150   5.519   3.696
  539SOL     OW 2515   0.836   5.505   1.684
  539SOL    HW1 2516   0.887   5.502   1.770
  539SOL    HW2 2517   0.779   5.423   1.676
  540SOL     OW 2518   0.538   1.902   2.692
  540SOL    HW1 2519   0.527   1.970   2.620
  540SOL    HW2 2520   0.595   1.827   2.658
  541SOL     OW 2521   2.918   6.299   4.856
  541SOL    HW1 2522   3.002   6.251   4.828
  541SOL    HW2 2523   2.850   6.290   4.783
  542SOL     OW 2524   5.812   6.071   6.705
  542SOL    HW1 2525   5.827   6.028   6.794
  542SOL    HW2 2526   5.868   6.025   6.637
  543SOL     OW 2527   0.939   4.979   6.627
  543SOL    HW1 2528   0.974   5.031   6.549
  543SOL    HW2 2529   0.959   5.028   6.711
  544SOL     OW 2530   0.839   5.025   1.005
  544SOL    HW1 2531   0.776   5.092   0.964
  544SOL    HW2 2532   0.923   5.022   0.950
  545SOL     OW 2533   3.975   1.353   3.216
  545SOL    HW1 2534   4.069   1.351   3.250
  545SOL    HW2 2535   3.974   1.394   3.124
  546SOL     OW 2536   1.044   3.655   1.385
  546SOL    HW1 2537   0.974   3.583   1.381
  546SOL    HW2 2538   1.067   3.673   1.481
  547SOL     OW 2539   2.672   2.780   0.611
  547SOL    HW1 2540   2.661   2.866   0.561
  547SOL    HW2 2541   2.635   2.705   0.556
  548SOL     OW 2542   3.840   3.291   3.705
  548SOL    HW1 2543   3.928   3.260   3.669
  548SOL    HW2 2544   3.826   3.253   3.796
  549SOL     OW 2545   5.415   3.428   1.668
  549SOL    HW1 2546   5.352   3.494   1.627
  549SOL    HW2 2547   5.385   3.335   1.646
  550SOL     OW 2548   6.787   2.813   2.321
  550SOL    HW1 2549   6.848   2.742   2.285
  550SOL    HW2 2550   6.697   2.803   2.279
  551SOL     OW 2551   0.069   1.797   0.990
  551SOL    HW1 2552   0.119   1.789   1.076
  551SOL    HW2 2553   0.083   1.888   0.951
  552SOL     OW 2554   3.760   5.360   0.476
  552SOL    HW1 2555   3.844   5.368   0.530
  552SOL    HW2 2556   3.766   5.279   0.417
  553SOL     OW 2557   1.843   0.730   1.887
  553SOL    HW1 2558   1.943   0.731   1.887
  553SOL    HW2 2559   1.809   0.822   1.905
  554SOL     OW 2560   5.417   6.960   5.793
  554SOL    HW1 2561   5.486   6.895   5.822
  554SOL    HW2 2562   5.433   6.985   5.697
  555SOL     OW 2563   2.176   4.729   4.551
  555SOL    HW1 2564   2.249   4.795   4.532
  555SOL    HW2 2565   2.214   4.636   4.546
  556SOL     OW 2566   6.107   2.299   3.908
  556SOL    HW1 2567   6.100   2.397   3.889
  556SOL    HW2 2568   6.197   2.266   3.879
  557SOL     OW 2569   6.818   5.650   6.449
  557SOL    HW1 2570   6.890   5.582   6.436
  557SOL    HW2 2571   6.844   5.713   6.523
  558SOL     OW 2572   4.136   3.629   5.458
  558SOL    HW1 2573   4.215   3.591   5.507
  558SOL    HW2 2574   4.160   3.641   5.362
  559SOL     OW 2575   0.132   5.993   6.460
  559SOL    HW1 2576   0.160   5.933   6.385
  559SOL    HW2 2577   0.137   6.088   6.430
  560SOL     OW 2578   4.710   6.619   6.716
  560SOL    HW1 2579   4.702   6.619   6.616
  560SOL    HW2 2580   4.629   6.576   6.756
  561SOL     OW 2581   6.047   6.529   0.253
  561SOL    HW1 2582   6.086   6.475   0.178
  561SOL    HW2 2583   6.078   6.493   0.341
  562SOL     OW 2584   5.329   1.464   6.303
  562SOL    HW1 2585   5.337   1.494   6.208
  562SOL    HW2 2586   5.391   1.387   6.318
  563SOL     OW 2587   2.442   6.152   3.954
  563SOL    HW1 2588   2.540   6.137   3.969
  563SOL    HW2 2589   2.413   6.231   4.008
  564SOL     OW 2590   1.335   1.748   6.733
  564SOL    HW1 2591   1.326   1.837   6.689
  564SOL    HW2 2592   1.322   1.675   6.666
  565SOL     OW 2593   4.641   3.948   5.719
  565SOL    HW1 2594   4.543   3.932   5.732
  565SOL    HW2 2595   4.654   4.032   5.667
  566SOL     OW 2596   4.471   4.972   3.418
  566SOL    HW1 2597   4.532   5.047   3.445
  566SOL    HW2 2598   4.474   4.900   3.486
  567SOL     OW 2599   3.347   2.956   4.363
  567SOL    HW1 2600   3.284   3.030   4.344
  567SOL    HW2 2601   3.377   2.915   4.277
  568SOL     OW 2602   3.089   2.573   6.906
  568SOL    HW1 2603   3.162   2.618   6.855
  568SOL    HW2 2604   3.006   2.630   6.901
  569SOL     OW 2605   1.634   2.711   0.563
  569SOL    HW1 2606   1.644   2.612   0.554
  569SOL    HW2 2607   1.559   2.732   0.626
  570SOL     OW 2608   1.517   6.630   0.770
  570SOL    HW1 2609   1.546   6.714   0.817
  570SOL    HW2 2610   1.530   6.640   0.672
  571SOL     OW 2611   3.503   5.417   2.728
  571SOL    HW1 2612   3.502   5.331   2.676
  571SOL    HW2 2613   3.597   5.441   2.751
  572SOL     OW 2614   2.184   4.039   5.858
  572SOL    HW1 2615   2.162   4.028   5.955
  572SOL    HW2 2616   2.277   4.075   5.849
  573SOL     OW 2617   4.419   1.118   4.895
  573SOL    HW1 2618   4.350   1.075   4.954
  573SOL    HW2 2619   4.442   1.056   4.820
  574SOL     OW 2620   2.278   2.053   4.215
  574SOL    HW1 2621   2.191   2.083   4.175
  574SOL    HW2 2622   2.345   2.127   4.206
  575SOL     OW 2623   6.347   3.019   0.300
  575SOL    HW1 2624   6.433   2.985   0.262
  575SOL    HW2 2625   6.275   3.013   0.231
  576SOL     OW 2626   1.017   2.346   2.623
  576SOL    HW1 2627   0.987   2.251   2.619
  576SOL    HW2 2628   1.088   2.356   2.693
  577SOL     OW 2629   2.371   1.766   3.432
  577SOL    HW1 2630   2.348   1.762   3.335
  577SOL    HW2 2631   2.395   1.860   3.456
  578SOL     OW 2632   0.454   3.204   3.341
  578SOL    HW1 2633   0.483   3.231   3.433
  578SOL    HW2 2634   0.433   3.107   3.339
  579SOL     OW 2635   4.163   1.858   0.686
  579SOL    HW1 2636   4.160   1.957   0.673
  579SOL    HW2 2637   4.083   1.817   0.643
  580SOL     OW 2638   1.305   5.215   6.836
  580SOL    HW1 2639   1.364   5.137   6.816
  580SOL    HW2 2640   1.213   5.182   6.859
  581SOL     OW 2641   3.794   3.461   2.787
  581SOL    HW1 2642   3.773   3.558   2.800
  581SOL    HW2 2643   3.709   3.411   2.768
  582SOL     OW 2644   5.095   4.173   2.594
  582SOL    HW1 2645   5.150   4.213   2.667
  582SOL    HW2 2646   5.043   4.244   2.547
  583SOL     OW 2647   2.208   4.435   0.232
  583SOL    HW1 2648   2.206   4.478   0.322
  583SOL    HW2 2649   2.116   4.431   0.194
  584SOL     OW 2650   0.329   4.551   5.137
  584SOL    HW1 2651   0.413   4.525   5.089
  584SOL    HW2 2652   0.250   4.538   5.077
  585SOL     OW 2653   0.081   2.285   6.178
  585SOL    HW1 2654   0.002   2.340   6.207
  585SOL    HW2 2655   0.150   2.286   6.250
  586SOL     OW 2656   2.792   6.694   0.932
  586SOL    HW1 2657   2.847   6.627   0.982
  586SOL    HW2 2658   2.824   6.786   0.954
  587SOL     OW 2659   1.050   3.275   6.084
  587SOL    HW1 2660   0.978   3.207   6.068
  587SOL    HW2 2661   1.019   3.365   6.054
  588SOL     OW 2662   3.369   6.066   1.717
  588SOL    HW1 2663   3.379   6.146   1.657
  588SOL    HW2 2664   3.458   6.045   1.758
  589SOL     OW 2665   3.824   5.028   2.534
  589SOL    HW1 2666   3.731   5.029   2.496
  589SOL    HW2 2667   3.823   4.983   2.624
  590SOL     OW 2668   0.527   2.389   2.088
  590SOL    HW1 2669   0.562   2.482   2.090
  590SOL    HW2 2670   0.603   2.325   2.103
  591SOL     OW 2671   3.550   0.313   3.476
  591SOL    HW1 2672   3.637   0.345   3.513
  591SOL    HW2 2673   3.478   0.379   3.498
  592SOL     OW 2674   4.625   0.484   0.335
  592SOL    HW1 2675   4.665   0.574   0.353
  592SOL    HW2 2676   4.673   0.415   0.388
  593SOL     OW 2677   4.713   2.451   4.080
  593SOL    HW1 2678   4.748   2.508   4.005
  593SOL    HW2 2679   4.695   2.358   4.046
  594SOL     OW 2680   4.004   4.101   1.358
  594SOL    HW1 2681   4.080   4.080   1.296
  594SOL    HW2 2682   3.923   4.123   1.305
  595SOL     OW 2683   3.838   6.066   3.977
  595SOL    HW1 2684   3.858   6.160   3.950
  595SOL    HW2 2685   3.744   6.060   4.011
  596SOL     OW 2686   0.817   4.692   2.499
  596SOL    HW1 2687   0.906   4.647   2.504
  596SOL    HW2 2688   0.745   4.624   2.510
  597SOL     OW 2689   4.440   0.572   5.836
  597SOL    HW1 2690   4.393   0.520   5.907
  597SOL    HW2 2691   4.452   0.515   5.755
  598SOL     OW 2692   3.709   4.546   0.510
  598SOL    HW1 2693   3.772   4.557   0.587
  598SOL    HW2 2694   3.724   4.457   0.468
  599SOL     OW 2695   6.831   0.288   2.620
  599SOL    HW1 2696   6.738   0.322   2.631
  599SOL    HW2 2697   6.856   0.291   2.523
  600SOL     OW 2698   1.229   6.906   0.136
  600SOL    HW1 2699   1.219   6.840   0.061
  600SOL    HW2 2700   1.159   6.888   0.205
  601SOL     OW 2701   3.009   5.828   3.762
  601SOL    HW1 2702   2.942   5.887   3.807
  601SOL    HW2 2703   2.979   5.808   3.668
  602SOL     OW 2704   1.721   0.457   1.541
  602SOL    HW1 2705   1.704   0.509   1.457
  602SOL    HW2 2706   1.716   0.359   1.522
  603SOL     OW 2707   3.884   2.176   3.249
  603SOL    HW1 2708   3.852   2.081   3.251
  603SOL    HW2 2709   3.954   2.186   3.178
  604SOL     OW 2710   1.089   3.411   6.610
  604SOL    HW1 2711   1.109   3.424   6.513
  604SOL    HW2 2712   1.123   3.322   6.639
  605SOL     OW 2713   6.140   6.696   3.339
  605SOL    HW1 2714   6.208   6.717   3.409
  605SOL    HW2 2715   6.057   6.749   3.356
  606SOL     OW 2716   3.813   0.578   3.275
  606SOL    HW1 2717   3.852   0.535   3.356
  606SOL    HW2 2718   3.852   0.537   3.193
  607SOL     OW 2719   5.170   1.697   4.371
  607SOL    HW1 2720   5.231   1.627   4.408
  607SOL    HW2 2721   5.217   1.786   4.372
  608SOL     OW 2722   4.183   0.842   0.757
  608SOL    HW1 2723   4.254   0.891   0.807
  608SOL    HW2 2724   4.098   0.842   0.810
  609SOL     OW 2725   3.197   2.961   4.040
  609SOL    HW1 2726   3.252   2.899   4.095
  609SOL    HW2 2727   3.154   3.029   4.100
  610SOL     OW 2728   5.458   2.740   4.182
  610SOL    HW1 2729   5.451   2.721   4.084
  610SOL    HW2 2730   5.421   2.663   4.234
  611SOL     OW 2731   0.281   0.315   0.715
  611SOL    HW1 2732   0.345   0.375   0.763
  611SOL    HW2 2733   0.332   0.253   0.655
  612SOL     OW 2734   3.125   5.364   6.043
  612SOL    HW1 2735   3.037   5.409   6.032
  612SOL    HW2 2736   3.172   5.400   6.123
  613SOL     OW 2737   3.599   1.456   6.507
  613SOL    HW1 2738   3.688   1.497   6.528
  613SOL    HW2 2739   3.542   1.456   6.589
  614SOL     OW 2740   5.321   4.605   1.181
  614SOL    HW1 2741   5.276   4.517   1.166
  614SOL    HW2 2742   5.318   4.628   1.278
  615SOL     OW 2743   6.985   6.835   0.866
  615SOL    HW1 2744   0.008   6.783   0.938
  615SOL    HW2 2745   0.025   6.901   0.826
  616SOL     OW 2746   5.633   1.303   4.266
  616SOL    HW1 2747   5.715   1.331   4.216
  616SOL    HW2 2748   5.649   1.214   4.309
  617SOL     OW 2749   0.524   4.752   5.741
  617SOL    HW1 2750   0.609   4.804   5.749
  617SOL    HW2 2751   0.462   4.779   5.814
  618SOL     OW 2752   5.693   3.587   0.305
  618SOL    HW1 2753   5.745   3.582   0.220
  618SOL    HW2 2754   5.750   3.555   0.381
  619SOL     OW 2755   3.104   0.546   0.552
  619SOL    HW1 2756   3.076   0.583   0.641
  619SOL    HW2 2757   3.029   0.553   0.488
  620SOL     OW 2758   5.733   2.197   1.915
  620SOL    HW1 2759   5.749   2.103   1.885
  620SOL    HW2 2760   5.659   2.198   1.982
  621SOL     OW 2761   2.869   1.088   6.363
  621SOL    HW1 2762   2.872   1.040   6.451
  621SOL    HW2 2763   2.779   1.130   6.352
  622SOL     OW 2764   1.399   1.367   4.855
  622SOL    HW1 2765   1.375   1.412   4.768
  622SOL    HW2 2766   1.498   1.368   4.866
  623SOL     OW 2767   5.521   0.043   4.058
  623SOL    HW1 2768   5.600   0.102   4.040
  623SOL    HW2 2769   5.441   0.078   4.008
  624SOL     OW 2770   6.588   0.996   6.501
  624SOL    HW1 2771   6.528   1.024   6.576
  624SOL    HW2 2772   6.656   1.066   6.483
  625SOL     OW 2773   2.814   0.771   0.516
  625SOL    HW1 2774   2.892   0.826   0.488
  625SOL    HW2 2775   2.781   0.801   0.605
  626SOL     OW 2776   0.676   5.078   3.648
  626SOL    HW1 2777   0.772   5.082   3.676
  626SOL    HW2 2778   0.666   5.120   3.558
  627SOL     OW 2779   6.838   0.417   0.064
  627SOL    HW1 2780   6.741   0.431   0.081
  627SOL    HW2 2781   6.868   0.333   0.108
  628SOL     OW 2782   5.019   5.034   5.267
  628SOL    HW1 2783   5.114   5.018   5.294
  628SOL    HW2 2784   5.011   5.126   5.227
  629SOL     OW 2785   0.257   0.030   6.281
  629SOL    HW1 2786   0.192   6.978   6.276
  629SOL    HW2 2787   0.331   0.014   6.216
  630SOL     OW 2788   6.257   1.415   0.983
  630SOL    HW1 2789   6.218   1.476   1.052
  630SOL    HW2 2790   6.350   1.447   0.961
  631SOL     OW 2791   2.012   2.497   4.913
  631SOL    HW1 2792   2.096   2.513   4.862
  631SOL    HW2 2793   2.028   2.514   5.010
  632SOL     OW 2794   3.542   3.344   6.711
  632SOL    HW1 2795   3.494   3.383   6.790
  632SOL    HW2 2796   3.502   3.256   6.687
  633SOL     OW 2797   1.876   5.907   1.704
  633SOL    HW1 2798   1.826   5.839   1.758
  633SOL    HW2 2799   1.965   5.922   1.745
  634SOL     OW 2800   2.975   3.298   4.074
  634SOL    HW1 2801   2.935   3.317   4.163
  634SOL    HW2 2802   3.000   3.385   4.030
  635SOL     OW 2803   5.998   0.693   6.490
  635SOL    HW1 2804   6.023   0.773   6.545
  635SOL    HW2 2805   5.955   0.724   6.404
  636SOL     OW 2806   2.680   0.569   6.848
  636SOL    HW1 2807   2.774   0.535   6.857
  636SOL    HW2 2808   2.658   0.625   6.928
  637SOL     OW 2809   6.340   1.161   1.445
  637SOL    HW1 2810   6.414   1.094   1.453
  637SOL    HW2 2811   6.378   1.249   1.416
  638SOL     OW 2812   6.329   3.544   4.282
  638SOL    HW1 2813   6.417   3.510   4.248
  638SOL    HW2 2814   6.344   3.627   4.335
  639SOL     OW 2815   4.992   4.974   3.612
  639SOL    HW1 2816   4.965   4.879   3.630
  639SOL    HW2 2817   4.918   5.021   3.564
  640SOL     OW 2818   0.616   2.572   2.483
  640SOL    HW1 2819   0.609   2.479   2.449
  640SOL    HW2 2820   0.543   2.590   2.548
  641SOL     OW 2821   2.029   4.953   4.777
  641SOL    HW1 2822   2.108   4.898   4.749
  641SOL    HW2 2823   1.972   4.972   4.698
  642SOL     OW 2824   0.993   3.949   4.777
  642SOL    HW1 2825   0.984   3.928   4.874
  642SOL    HW2 2826   1.048   4.031   4.765
  643SOL     OW 2827   4.861   5.294   6.776
  643SOL    HW1 2828   4.891   5.237   6.853
  643SOL    HW2 2829   4.802   5.239   6.717
  644SOL     OW 2830   6.671   6.998   4.516
  644SOL    HW1 2831   6.670   6.979   4.614
  644SOL    HW2 2832   6.747   6.948   4.473
  645SOL     OW 2833   4.283   4.731   2.400
  645SOL    HW1 2834   4.293   4.758   2.304
  645SOL    HW2 2835   4.188   4.745   2.429
  646SOL     OW 2836   4.162   0.588   5.259
  646SOL    HW1 2837   4.234   0.615   5.322
  646SOL    HW2 2838   4.171   0.492   5.235
  647SOL     OW 2839   4.688   2.210   5.448
  647SOL    HW1 2840   4.754   2.175   5.382
  647SOL    HW2 2841   4.737   2.257   5.522
  648SOL     OW 2842   5.885   2.422   3.002
  648SOL    HW1 2843   5.799   2.449   3.046
  648SOL    HW2 2844   5.897   2.323   3.012
  649SOL     OW 2845   2.476   5.376   0.565
  649SOL    HW1 2846   2.463   5.285   0.605
  649SOL    HW2 2847   2.448   5.375   0.469
  650SOL     OW 2848   6.720   5.263   1.028
  650SOL    HW1 2849   6.787   5.287   1.098
  650SOL    HW2 2850   6.695   5.344   0.976
  651SOL     OW 2851   1.330   0.028   5.122
  651SOL    HW1 2852   1.403   0.018   5.055
  651SOL    HW2 2853   1.348   0.107   5.180
  652SOL     OW 2854   3.725   6.664   1.444
  652SOL    HW1 2855   3.643   6.708   1.408
  652SOL    HW2 2856   3.799   6.732   1.449
  653SOL     OW 2857   0.539   6.216   1.507
  653SOL    HW1 2858   0.542   6.129   1.457
  653SOL    HW2 2859   0.629   6.259   1.504
  654SOL     OW 2860   0.070   6.818   5.319
  654SOL    HW1 2861   0.156   6.866   5.332
  654SOL    HW2 2862   0.037   6.783   5.407
  655SOL     OW 2863   6.918   4.417   2.096
  655SOL    HW1 2864   6.986   4.377   2.159
  655SOL    HW2 2865   6.964   4.446   2.012
  656SOL     OW 2866   3.292   6.694   0.298
  656SOL    HW1 2867   3.248   6.706   0.387
  656SOL    HW2 2868   3.366   6.627   0.307
  657SOL     OW 2869   3.596   2.792   1.851
  657SOL    HW1 2870   3.500   2.817   1.862
  657SOL    HW2 2871   3.646   2.819   1.933
  658SOL     OW 2872   2.292   4.170   3.989
  658SOL    HW1 2873   2.203   4.184   4.033
  658SOL    HW2 2874   2.359   4.233   4.027
  659SOL     OW 2875   2.047   6.710   5.534
  659SOL    HW1 2876   1.985   6.662   5.472
  659SOL    HW2 2877   2.020   6.692   5.628
  660SOL     OW 2878   4.754   4.176   2.075
  660SOL    HW1 2879   4.669   4.197   2.027
  660SOL    HW2 2880   4.742   4.193   2.173
  661SOL     OW 2881   4.253   4.718   4.224
  661SOL    HW1 2882   4.272   4.626   4.191
  661SOL    HW2 2883   4.181   4.759   4.168
  662SOL     OW 2884   4.755   3.337   0.699
  662SOL    HW1 2885   4.841   3.384   0.718
  662SOL    HW2 2886   4.744   3.261   0.762
  663SOL     OW 2887   0.466   4.624   0.608
  663SOL    HW1 2888   0.489   4.603   0.513
  663SOL    HW2 2889   0.536   4.683   0.648
  664SOL     OW 2890   1.700   6.779   6.672
  664SOL    HW1 2891   1.611   6.810   6.640
  664SOL    HW2 2892   1.692   6.742   6.764
  665SOL     OW 2893   4.058   5.888   0.791
  665SOL    HW1 2894   4.053   5.981   0.826
  665SOL    HW2 2895   4.151   5.870   0.758
  666SOL     OW 2896   3.530   2.011   0.186
  666SOL    HW1 2897   3.568   2.080   0.125
  666SOL    HW2 2898   3.562   2.027   0.280
  667SOL     OW 2899   0.806   3.477   3.090
  667SOL    HW1 2900   0.876   3.546   3.106
  667SOL    HW2 2901   0.829   3.394   3.140
  668SOL     OW 2902   4.664   6.663   0.676
  668SOL    HW1 2903   4.635   6.638   0.584
  668SOL    HW2 2904   4.671   6.763   0.683
  669SOL     OW 2905   1.465   6.197   3.113
  669SOL    HW1 2906   1.526   6.256   3.060
  669SOL    HW2 2907   1.515   6.116   3.144
  670SOL     OW 2908   3.086   3.909   3.728
  670SOL    HW1 2909   3.097   3.971   3.806
  670SOL    HW2 2910   3.063   3.962   3.647
  671SOL     OW 2911   2.246   0.204   5.480
  671SOL    HW1 2912   2.287   0.117   5.453
  671SOL    HW2 2913   2.158   0.215   5.434
  672SOL     OW 2914   2.182   3.220   3.750
  672SOL    HW1 2915   2.160   3.278   3.672
  672SOL    HW2 2916   2.174   3.273   3.834
  673SOL     OW 2917   5.041   0.325   0.476
  673SOL    HW1 2918   4.999   0.412   0.499
  673SOL    HW2 2919   4.991   0.250   0.520
  674SOL     OW 2920   0.533   1.461   3.679
  674SOL    HW1 2921   0.479   1.386   3.642
  674SOL    HW2 2922   0.596   1.494   3.609
  675SOL     OW 2923   6.891   2.672   4.717
  675SOL    HW1 2924   6.943   2.627   4.644
  675SOL    HW2 2925   6.888   2.771   4.699
  676SOL     OW 2926   2.190   4.730   4.136
  676SOL    HW1 2927   2.146   4.801   4.191
  676SOL    HW2 2928   2.255   4.679   4.193
  677SOL     OW 2929   6.208   0.145   0.750
  677SOL    HW1 2930   6.259   0.081   0.808
  677SOL    HW2 2931   6.151   0.204   0.808
  678SOL     OW 2932   2.195   0.928   6.220
  678SOL    HW1 2933   2.207   0.839   6.176
  678SOL    HW2 2934   2.160   0.915   6.313
  679SOL     OW 2935   4.626   0.225   2.407
  679SOL    HW1 2936   4.659   0.272   2.489
  679SOL    HW2 2937   4.572   0.146   2.434
  680SOL     OW 2938   4.594   4.414   5.412
  680SOL    HW1 2939   4.501   4.380   5.427
  680SOL    HW2 2940   4.639   4.358   5.343
  681SOL     OW 2941   0.506   6.826   1.224
  681SOL    HW1 2942   0.563   6.748   1.249
  681SOL    HW2 2943   0.410   6.805   1.246
  682SOL     OW 2944   1.263   6.018   0.276
  682SOL    HW1 2945   1.165   6.013   0.258
  682SOL    HW2 2946   1.303   5.926   0.273
  683SOL     OW 2947   4.370   1.228   0.204
  683SOL    HW1 2948   4.302   1.300   0.189
  683SOL    HW2 2949   4.435   1.259   0.274
  684SOL     OW 2950   0.290   5.633   6.095
  684SOL    HW1 2951   0.381   5.636   6.053
  684SOL    HW2 2952   0.290   5.567   6.170
  685SOL     OW 2953   5.665   0.306   5.718
  685SOL    HW1 2954   5.754   0.315   5.672
  685SOL    HW2 2955   5.656   0.376   5.788
  686SOL     OW 2956   5.166   4.158   3.079
  686SOL    HW1 2957   5.138   4.203   2.994
  686SOL    HW2 2958   5.238   4.092   3.059
  687SOL     OW 2959   0.233   3.617   5.616
  687SOL    HW1 2960   0.195   3.685   5.679
  687SOL    HW2 2961   0.320   3.583   5.652
  688SOL     OW 2962   0.327   3.797   6.339
  688SOL    HW1 2963   0.321   3.881   6.393
  688SOL    HW2 2964   0.420   3.788   6.302
  689SOL     OW 2965   6.248   3.619   6.058
  689SOL    HW1 2966   6.276   3.561   5.982
  689SOL    HW2 2967   6.328   3.665   6.097
  690SOL     OW 2968   1.390   2.213   3.540
  690SOL    HW1 2969   1.478   2.222   3.586
  690SOL    HW2 2970   1.319   2.260   3.593
  691SOL     OW 2971   0.974   2.656   6.647
  691SOL    HW1 2972   1.017   2.697   6.567
  691SOL    HW2 2973   0.933   2.728   6.703
  692SOL     OW 2974   2.512   0.195   2.381
  692SOL    HW1 2975   2.480   0.106   2.416
  692SOL    HW2 2976   2.468   0.268   2.433
  693SOL     OW 2977   6.632   2.547   2.737
  693SOL    HW1 2978   6.656   2.476   2.671
  693SOL    HW2 2979   6.652   2.515   2.830
  694SOL     OW 2980   1.640   6.515   1.348
  694SOL    HW1 2981   1.556   6.523   1.294
  694SOL    HW2 2982   1.691   6.434   1.320
  695SOL     OW 2983   5.328   5.847   5.440
  695SOL    HW1 2984   5.411   5.886   5.481
  695SOL    HW2 2985   5.248   5.877   5.492
  696SOL     OW 2986   4.330   4.883   2.198
  696SOL    HW1 2987   4.370   4.838   2.118
  696SOL    HW2 2988   4.387   4.961   2.223
  697SOL     OW 2989   0.967   4.222   4.430
  697SOL    HW1 2990   0.927   4.223   4.339
  697SOL    HW2 2991   0.897   4.246   4.498
  698SOL     OW 2992   4.656   0.556   3.286
  698SOL    HW1 2993   4.642   0.628   3.218
  698SOL    HW2 2994   4.748   0.518   3.276
  699SOL     OW 2995   1.336   3.787   0.987
  699SOL    HW1 2996   1.389   3.833   1.059
  699SOL    HW2 2997   1.304   3.854   0.921
  700SOL     OW 2998   2.695   2.383   4.846
  700SOL    HW1 2999   2.759   2.311   4.819
  700SOL    HW2 3000   2.656   2.425   4.764
  701SOL     OW 3001   0.638   3.949   6.369
  701SOL    HW1 3002   0.706   3.890   6.411
  701SOL    HW2 3003   0.587   3.898   6.299
  702SOL     OW 3004   4.883   6.681   4.058
  702SOL    HW1 3005   4.940   6.761   4.075
  702SOL    HW2 3006   4.808   6.678   4.124
  703SOL     OW 3007   4.129   3.900   6.377
  703SOL    HW1 3008   4.082   3.967   6.319
  703SOL    HW2 3009   4.150   3.941   6.466
  704SOL     OW 3010   1.578   0.186   6.849
  704SOL    HW1 3011   1.502   0.245   6.877
  704SOL    HW2 3012   1.659   0.208   6.903
  705SOL     OW 3013   6.042   1.695   2.263
  705SOL    HW1 3014   5.954   1.726   2.300
  705SOL    HW2 3015   6.108   1.770   2.268
  706SOL     OW 3016   3.696   1.720   3.630
  706SOL    HW1 3017   3.600   1.748   3.637
  706SOL    HW2 3018   3.730   1.694   3.720
  707SOL     OW 3019   5.252   0.230   1.696
  707SOL    HW1 3020   5.179   0.195   1.636
  707SOL    HW2 3021   5.212   0.264   1.781
  708SOL     OW 3022   4.152   0.592   1.361
  708SOL    HW1 3023   4.191   0.630   1.444
  708SOL    HW2 3024   4.101   0.662   1.312
  709SOL     OW 3025   1.278   4.933   0.842
  709SOL    HW1 3026   1.252   4.917   0.937
  709SOL    HW2 3027   1.328   5.019   0.835
  710SOL     OW 3028   3.165   4.036   2.719
  710SOL    HW1 3029   3.180   4.112   2.655
  710SOL    HW2 3030   3.116   3.963   2.673
  711SOL     OW 3031   6.999   1.441   4.291
  711SOL    HW1 3032   6.972   1.516   4.232
  711SOL    HW2 3033   6.948   1.445   4.377
  712SOL     OW 3034   1.397   3.722   1.714
  712SOL    HW1 3035   1.387   3.724   1.615
  712SOL    HW2 3036   1.320   3.771   1.756
  713SOL     OW 3037   4.073   3.679   2.230
  713SOL    HW1 3038   4.150   3.686   2.294
  713SOL    HW2 3039   4.096   3.617   2.156
  714SOL     OW 3040   5.701   4.504   4.824
  714SOL    HW1 3041   5.646   4.588   4.828
  714SOL    HW2 3042   5.643   4.425   4.844
  715SOL     OW 3043   4.350   0.186   6.404
  715SOL    HW1 3044   4.431   0.227   6.447
  715SOL    HW2 3045   4.349   0.209   6.306
  716SOL     OW 3046   0.294   4.724   1.401
  716SOL    HW1 3047   0.245   4.694   1.483
  716SOL    HW2 3048   0.306   4.647   1.339
  717SOL     OW 3049   6.146   3.016   0.070
  717SOL    HW1 3050   6.094   2.932   0.052
  717SOL    HW2 3051   6.083   3.093   0.077
  718SOL     OW 3052   3.605   3.539   5.911
  718SOL    HW1 3053   3.593   3.441   5.898
  718SOL    HW2 3054   3.702   3.562   5.909
  719SOL     OW 3055   6.402   4.234   1.102
  719SOL    HW1 3056   6.328   4.302   1.111
  719SOL    HW2 3057   6.376   4.151   1.151
  720SOL     OW 3058   2.142   1.667   6.325
  720SOL    HW1 3059   2.123   1.753   6.372
  720SOL    HW2 3060   2.128   1.590   6.387
  721SOL     OW 3061   1.589   0.190   5.827
  721SOL    HW1 3062   1.615   0.105   5.872
  721SOL    HW2 3063   1.542   0.250   5.892
  722SOL     OW 3064   4.125   0.123   4.900
  722SOL    HW1 3065   4.086   0.169   4.820
  722SOL    HW2 3066   4.100   0.026   4.898
  723SOL     OW 3067   1.391   2.674   2.367
  723SOL    HW1 3068   1.408   2.771   2.388
  723SOL    HW2 3069   1.417   2.618   2.446
  724SOL     OW 3070   0.153   0.883   4.557
  724SOL    HW1 3071   0.104   0.953   4.506
  724SOL    HW2 3072   0.101   0.859   4.639
  725SOL     OW 3073   2.110   5.028   2.457
  725SOL    HW1 3074   2.102   4.958   2.529
  725SOL    HW2 3075   2.145   4.986   2.374
  726SOL     OW 3076   3.568   6.874   6.686
  726SOL    HW1 3077   3.557   6.776   6.666
  726SOL    HW2 3078   3.627   6.885   6.765
  727SOL     OW 3079   3.251   5.325   4.373
  727SOL    HW1 3080   3.302   5.252   4.419
  727SOL    HW2 3081   3.279   5.330   4.278
  728SOL     OW 3082   6.920   4.356   5.288
  728SOL    HW1 3083   6.828   4.346   5.251
  728SOL    HW2 3084   6.974   4.275   5.267
  729SOL     OW 3085   2.339   1.020   1.326
  729SOL    HW1 3086   2.260   1.080   1.336
  729SOL    HW2 3087   2.309   0.926   1.318
  730SOL     OW 3088   6.158   0.681   3.551
  730SOL    HW1 3089   6.153   0.718   3.458
  730SOL    HW2 3090   6.233   0.615   3.557
  731SOL     OW 3091   5.909   3.787   4.527
  731SOL    HW1 3092   5.944   3.704   4.570
  731SOL    HW2 3093   5.851   3.836   4.593
  732SOL     OW 3094   6.670   3.258   1.303
  732SOL    HW1 3095   6.767   3.273   1.284
  732SOL    HW2 3096   6.637   3.181   1.248
  733SOL     OW 3097   4.775   4.245   3.803
  733SOL    HW1 3098   4.825   4.317   3.852
  733SOL    HW2 3099   4.784   4.158   3.852
  734SOL     OW 3100   6.764   4.222   1.132
  734SOL    HW1 3101   6.675   4.263   1.155
  734SOL    HW2 3102   6.761   4.124   1.149
  735SOL     OW 3103   1.420   3.531   6.474
  735SOL    HW1 3104   1.336   3.577   6.444
  735SOL    HW2 3105   1.423   3.527   6.573
  736SOL     OW 3106   6.732   0.457   3.281
  736SOL    HW1 3107   6.754   0.464   3.184
  736SOL    HW2 3108   6.665   0.526   3.306
  737SOL     OW 3109   5.393   4.043   0.913
  737SOL    HW1 3110   5.426   3.969   0.854
  737SOL    HW2 3111   5.362   4.119   0.856
  738SOL     OW 3112   0.157   4.205   4.146
  738SOL    HW1 3113   0.188   4.159   4.063
  738SOL    HW2 3114   0.127   4.136   4.212
  739SOL     OW 3115   4.281   6.332   5.967
  739SOL    HW1 3116   4.255   6.309   5.873
  739SOL    HW2 3117   4.375   6.303   5.984
  740SOL     OW 3118   6.034   6.924   1.492
  740SOL    HW1 3119   6.043   6.832   1.453
  740SOL    HW2 3120   6.124   6.966   1.500
  741SOL     OW 3121   1.728   6.279   2.934
  741SOL    HW1 3122   1.773   6.190   2.947
  741SOL    HW2 3123   1.766   6.345   2.999
  742SOL     OW 3124   1.363   6.725   3.601
  742SOL    HW1 3125   1.382   6.715   3.504
  742SOL    HW2 3126   1.329   6.637   3.637
  743SOL     OW 3127   1.840   3.806   4.194
  743SOL    HW1 3128   1.751   3.769   4.219
  743SOL    HW2 3129   1.896   3.733   4.155
  744SOL     OW 3130   0.077   5.668   0.030
  744SOL    HW1 3131   7.015   5.622   0.055
  744SOL    HW2 3132   0.084   5.754   0.081
  745SOL     OW 3133   1.572   5.890   2.833
  745SOL    HW1 3134   1.640   5.821   2.806
  745SOL    HW2 3135   1.601   5.933   2.918
  746SOL     OW 3136   1.322   0.204   4.899
  746SOL    HW1 3137   1.256   0.243   4.964
  746SOL    HW2 3138   1.401   0.266   4.891
  747SOL     OW 3139   4.617   4.851   3.650
  747SOL    HW1 3140   4.661   4.764   3.672
  747SOL    HW2 3141   4.573   4.888   3.732
  748SOL     OW 3142   3.971   3.506   0.843
  748SOL    HW1 3143   3.908   3.429   0.832
  748SOL    HW2 3144   3.998   3.514   0.939
  749SOL     OW 3145   0.559   2.322   5.230
  749SOL    HW1 3146   0.564   2.359   5.137
  749SOL    HW2 3147   0.592   2.228   5.230
  750SOL     OW 3148   2.220   3.486   0.005
  750SOL    HW1 3149   2.142   3.548   7.021
  750SOL    HW2 3150   2.191   3.402   0.051
  751SOL     OW 3151   4.770   1.130   0.243
  751SOL    HW1 3152   4.767   1.041   0.197
  751SOL    HW2 3153   4.838   1.188   0.198
  752SOL     OW 3154   4.327   2.387   2.076
  752SOL    HW1 3155   4.368   2.427   1.994
  752SOL    HW2 3156   4.278   2.303   2.051
  753SOL     OW 3157   2.115   3.136   4.658
  753SOL    HW1 3158   2.154   3.068   4.595
  753SOL    HW2 3159   2.019   3.150   4.637
  754SOL     OW 3160   4.275   4.264   6.354
  754SOL    HW1 3161   4.299   4.361   6.348
  754SOL    HW2 3162   4.249   4.242   6.448
  755SOL     OW 3163   0.691   5.911   0.209
  755SOL    HW1 3164   0.675   6.005   0.240
  755SOL    HW2 3165   0.728   5.857   0.284
  756SOL     OW 3166   4.898   0.363   1.876
  756SOL    HW1 3167   4.926   0.346   1.781
  756SOL    HW2 3168   4.830   0.436   1.878
  757SOL     OW 3169   0.252   6.811   3.392
  757SOL    HW1 3170   0.221   6.732   3.338
  757SOL    HW2 3171   0.173   6.856   3.434
  758SOL     OW 3172   3.681   2.065   0.689
  758SOL    HW1 3173   3.767   2.108   0.718
  758SOL    HW2 3174   3.617   2.065   0.766
  759SOL     OW 3175   0.875   1.731   0.006
  759SOL    HW1 3176   0.783   1.771   0.001
  759SOL    HW2 3177   0.914   1.727   6.937
  760SOL     OW 3178   5.579   1.063   0.097
  760SOL    HW1 3179   5.484   1.087   0.078
  760SOL    HW2 3180   5.634   1.147   0.099
  761SOL     OW 3181   6.168   2.644   0.061
  761SOL    HW1 3182   6.248   2.640   0.002
  761SOL    HW2 3183   6.094   2.692   0.013
  762SOL     OW 3184   2.589   5.814   3.378
  762SOL    HW1 3185   2.524   5.884   3.350
  762SOL    HW2 3186   2.668   5.814   3.316
  763SOL     OW 3187   4.230   5.454   6.910
  763SOL    HW1 3188   4.267   5.474   7.001
  763SOL    HW2 3189   4.298   5.478   6.841
  764SOL     OW 3190   3.690   1.819   2.258
  764SOL    HW1 3191   3.771   1.767   2.284
  764SOL    HW2 3192   3.619   1.808   2.327
  765SOL     OW 3193   0.239   6.797   2.476
  765SOL    HW1 3194   0.301   6.719   2.466
  765SOL    HW2 3195   0.146   6.764   2.494
  766SOL     OW 3196   6.937   6.894   0.076
  766SOL    HW1 3197   7.017   6.844   0.109
  766SOL    HW2 3198   6.920   6.972   0.137
  767SOL     OW 3199   6.944   6.436   2.272
  767SOL    HW1 3200   6.864   6.495   2.268
  767SOL    HW2 3201   6.949   6.381   2.188
  768SOL     OW 3202   2.652   0.372   2.899
  768SOL    HW1 3203   2.679   0.413   2.812
  768SOL    HW2 3204   2.700   0.417   2.974
  769SOL     OW 3205   4.448   0.096   5.219
  769SOL    HW1 3206   4.410   0.131   5.305
  769SOL    HW2 3207   4.423   0.157   5.144
  770SOL     OW 3208   2.914   5.159   3.905
  770SOL    HW1 3209   2.974   5.111   3.841
  770SOL    HW2 3210   2.966   5.228   3.954
  771SOL     OW 3211   1.290   5.314   3.794
  771SOL    HW1 3212   1.338   5.351   3.874
  771SOL    HW2 3213   1.347   5.326   3.713
  772SOL     OW 3214   6.492   4.547   6.852
  772SOL    HW1 3215   6.412   4.489   6.834
  772SOL    HW2 3216   6.551   4.502   6.919
  773SOL     OW 3217   0.001   4.255   3.261
  773SOL    HW1 3218   6.965   4.306   3.199
  773SOL    HW2 3219   7.003   4.279   3.355
  774SOL     OW 3220   1.216   1.426   1.549
  774SOL    HW1 3221   1.281   1.350   1.552
  774SOL    HW2 3222   1.218   1.475   1.637
  775SOL     OW 3223   1.336   1.986   4.178
  775SOL    HW1 3224   1.262   1.923   4.158
  775SOL    HW2 3225   1.299   2.076   4.202
  776SOL     OW 3226   1.710   0.583   6.272
  776SOL    HW1 3227   1.650   0.662   6.266
  776SOL    HW2 3228   1.663   0.502   6.238
  777SOL     OW 3229   4.557   1.239   0.406
  777SOL    HW1 3230   4.623   1.177   0.364
  777SOL    HW2 3231   4.591   1.268   0.496
  778SOL     OW 3232   4.179   0.483   3.574
  778SOL    HW1 3233   4.109   0.498   3.504
  778SOL    HW2 3234   4.140   0.432   3.650
  779SOL     OW 3235   0.848   2.237   2.333
  779SOL    HW1 3236   0.774   2.269   2.392
  779SOL    HW2 3237   0.812   2.220   2.241
  780SOL     OW 3238   6.436   2.840   4.084
  780SOL    HW1 3239   6.462   2.779   4.160
  780SOL    HW2 3240   6.375   2.911   4.118
  781SOL     OW 3241   6.733   0.916   6.211
  781SOL    HW1 3242   6.727   1.014   6.189
  781SOL    HW2 3243   6.656   0.868   6.170
  782SOL     OW 3244   0.270   2.889   1.118
  782SOL    HW1 3245   0.306   2.821   1.182
  782SOL    HW2 3246   0.206   2.949   1.165
  783SOL     OW 3247   3.200   5.712   0.622
  783SOL    HW1 3248   3.299   5.715   0.637
  783SOL    HW2 3249   3.153   5.730   0.708
  784SOL     OW 3250   3.916   0.397   5.214
  784SOL    HW1 3251   3.851   0.461   5.254
  784SOL    HW2 3252   4.010   0.429   5.231
  785SOL     OW 3253   6.397   1.411   2.955
  785SOL    HW1 3254   6.396   1.357   2.871
  785SOL    HW2 3255   6.306   1.449   2.970
  786SOL     OW 3256   0.106   6.747   0.202
  786SOL    HW1 3257   0.020   6.701   0.226
  786SOL    HW2 3258   0.183   6.696   0.241
  787SOL     OW 3259   2.414   1.506   6.310
  787SOL    HW1 3260   2.495   1.539   6.262
  787SOL    HW2 3261   2.342   1.575   6.306
  788SOL     OW 3262   2.149   3.798   4.311
  788SOL    HW1 3263   2.160   3.721   4.374
  788SOL    HW2 3264   2.056   3.833   4.316
  789SOL     OW 3265   5.678   3.528   1.714
  789SOL    HW1 3266   5.683   3.571   1.805
  789SOL    HW2 3267   5.582   3.518   1.688
  790SOL     OW 3268   2.874   1.217   3.740
  790SOL    HW1 3269   2.829   1.147   3.684
  790SOL    HW2 3270   2.822   1.302   3.734
  791SOL     OW 3271   3.957   0.998   4.333
  791SOL    HW1 3272   3.879   0.963   4.281
  791SOL    HW2 3273   3.944   1.095   4.352
  792SOL     OW 3274   6.028   0.595   2.166
  792SOL    HW1 3275   6.041   0.581   2.068
  792SOL    HW2 3276   5.988   0.513   2.206
  793SOL     OW 3277   4.983   0.079   0.620
  793SOL    HW1 3278   4.965   0.054   0.715
  793SOL    HW2 3279   5.076   0.052   0.595
  794SOL     OW 3280   2.785   4.668   5.537
  794SOL    HW1 3281   2.793   4.569   5.527
  794SOL    HW2 3282   2.743   4.689   5.625
  795SOL     OW 3283   3.989   5.085   5.597
  795SOL    HW1 3284   3.959   5.009   5.540
  795SOL    HW2 3285   3.986   5.058   5.693
  796SOL     OW 3286   6.934   2.650   6.030
  796SOL    HW1 3287   6.881   2.713   6.087
  796SOL    HW2 3288   7.022   2.691   6.007
  797SOL     OW 3289   6.242   2.644   3.679
  797SOL    HW1 3290   6.231   2.547   3.660
  797SOL    HW2 3291   6.293   2.687   3.605
  798SOL     OW 3292   5.070   0.424   0.078
  798SOL    HW1 3293   5.050   0.339   0.029
  798SOL    HW2 3294   5.111   0.403   0.167
  799SOL     OW 3295   6.702   1.975   3.438
  799SOL    HW1 3296   6.800   1.984   3.455
  799SOL    HW2 3297   6.651   2.016   3.514
  800SOL     OW 3298   5.048   0.957   2.547
  800SOL    HW1 3299   5.002   1.010   2.476
  800SOL    HW2 3300   5.073   1.017   2.623
  801SOL     OW 3301   0.492   2.202   3.574
  801SOL    HW1 3302   0.564   2.225   3.640
  801SOL    HW2 3303   0.532   2.151   3.498
  802SOL     OW 3304   5.404   1.332   0.180
  802SOL    HW1 3305   5.412   1.428   0.206
  802SOL    HW2 3306   5.413   1.275   0.262
  803SOL     OW 3307   6.356   5.483   4.190
  803SOL    HW1 3308   6.282   5.439   4.139
  803SOL    HW2 3309   6.388   5.563   4.139
  804SOL     OW 3310   0.008   6.300   0.353
  804SOL    HW1 3311   6.954   6.265   0.405
  804SOL    HW2 3312   0.085   6.315   0.415
  805SOL     OW 3313   3.509   2.825   5.573
  805SOL    HW1 3314   3.572   2.899   5.597
  805SOL    HW2 3315   3.458   2.850   5.491
  806SOL     OW 3316   5.138   2.117   6.728
  806SOL    HW1 3317   5.067   2.157   6.669
  806SOL    HW2 3318   5.226   2.157   6.705
  807SOL     OW 3319   0.885   0.817   3.309
  807SOL    HW1 3320   0.887   0.909   3.270
  807SOL    HW2 3321   0.820   0.814   3.386
  808SOL     OW 3322   5.329   3.163   5.616
  808SOL    HW1 3323   5.268   3.112   5.676
  808SOL    HW2 3324   5.373   3.236   5.669
  809SOL     OW 3325   1.166   4.412   0.547
  809SOL    HW1 3326   1.197   4.470   0.471
  809SOL    HW2 3327   1.114   4.334   0.510
  810SOL     OW 3328   4.976   3.739   0.863
  810SOL    HW1 3329   4.890   3.722   0.911
  810SOL    HW2 3330   4.978   3.834   0.831
  811SOL     OW 3331   5.217   5.272   3.811
  811SOL    HW1 3332   5.263   5.193   3.771
  811SOL    HW2 3333   5.227   5.269   3.911
  812SOL     OW 3334   0.028   0.260   1.457
  812SOL    HW1 3335   0.126   0.268   1.478
  812SOL    HW2 3336   7.009   0.196   1.521
  813SOL     OW 3337   4.495   5.632   3.242
  813SOL    HW1 3338   4.442   5.673   3.167
  813SOL    HW2 3339   4.446   5.553   3.279
  814SOL     OW 3340   5.563   6.272   1.921
  814SOL    HW1 3341   5.553   6.365   1.955
  814SOL    HW2 3342   5.649   6.234   1.956
  815SOL     OW 3343   6.506   2.555   0.842
  815SOL    HW1 3344   6.533   2.543   0.747
  815SOL    HW2 3345   6.412   2.523   0.855
  816SOL     OW 3346   6.698   6.477   0.632
  816SOL    HW1 3347   6.766   6.534   0.678
  816SOL    HW2 3348   6.738   6.388   0.611
  817SOL     OW 3349   1.911   3.568   2.298
  817SOL    HW1 3350   1.919   3.585   2.200
  817SOL    HW2 3351   2.001   3.575   2.341
  818SOL     OW 3352   6.212   2.227   0.737
  818SOL    HW1 3353   6.151   2.256   0.811
  818SOL    HW2 3354   6.178   2.142   0.697
  819SOL     OW 3355   6.738   2.241   3.699
  819SOL    HW1 3356   6.673   2.178   3.741
  819SOL    HW2 3357   6.689   2.304   3.639
  820SOL     OW 3358   0.600   2.603   4.294
  820SOL    HW1 3359   0.573   2.507   4.298
  820SOL    HW2 3360   0.699   2.611   4.306
  821SOL     OW 3361   1.395   3.957   0.604
  821SOL    HW1 3362   1.438   3.878   0.562
  821SOL    HW2 3363   1.453   4.038   0.592
  822SOL     OW 3364   0.954   4.267   4.992
  822SOL    HW1 3365   0.984   4.275   4.897
  822SOL    HW2 3366   0.952   4.171   5.019
  823SOL     OW 3367   4.862   3.788   6.561
  823SOL    HW1 3368   4.835   3.707   6.508
  823SOL    HW2 3369   4.831   3.778   6.655
  824SOL     OW 3370   4.796   2.320   5.666
  824SOL    HW1 3371   4.891   2.291   5.679
  824SOL    HW2 3372   4.774   2.393   5.731
  825SOL     OW 3373   2.128   3.163   2.362
  825SOL    HW1 3374   2.158   3.075   2.327
  825SOL    HW2 3375   2.140   3.233   2.291
  826SOL     OW 3376   5.628   3.246   6.714
  826SOL    HW1 3377   5.616   3.282   6.807
  826SOL    HW2 3378   5.617   3.147   6.715
  827SOL     OW 3379   3.792   5.691   0.171
  827SOL    HW1 3380   3.790   5.652   0.079
  827SOL    HW2 3381   3.712   5.660   0.222
  828SOL     OW 3382   5.841   0.848   5.235
  828SOL    HW1 3383   5.851   0.942   5.204
  828SOL    HW2 3384   5.793   0.846   5.323
  829SOL     OW 3385   3.168   3.154   4.243
  829SOL    HW1 3386   3.144   3.172   4.338
  829SOL    HW2 3387   3.096   3.187   4.183
  830SOL     OW 3388   4.646   4.027   5.207
  830SOL    HW1 3389   4.602   4.109   5.169
  830SOL    HW2 3390   4.577   3.959   5.229
  831SOL     OW 3391   5.919   0.714   4.834
  831SOL    HW1 3392   5.953   0.806   4.815
  831SOL    HW2 3393   5.840   0.719   4.895
  832SOL     OW 3394   1.950   2.081   0.087
  832SOL    HW1 3395   1.892   2.039   0.157
  832SOL    HW2 3396   2.004   2.011   0.041
  833SOL     OW 3397   6.487   6.737   6.361
  833SOL    HW1 3398   6.573   6.700   6.327
  833SOL    HW2 3399   6.496   6.762   6.458
  834SOL     OW 3400   3.068   3.520   3.923
  834SOL    HW1 3401   3.150   3.574   3.905
  834SOL    HW2 3402   2.994   3.582   3.950
  835SOL     OW 3403   3.158   6.542   4.114
  835SOL    HW1 3404   3.136   6.563   4.209
  835SOL    HW2 3405   3.257   6.540   4.102
  836SOL     OW 3406   3.058   0.147   0.121
  836SOL    HW1 3407   3.099   0.200   0.196
  836SOL    HW2 3408   3.124   0.135   0.048
  837SOL     OW 3409   5.100   0.730   6.158
  837SOL    HW1 3410   5.085   0.711   6.255
  837SOL    HW2 3411   5.195   0.759   6.144
  838SOL     OW 3412   1.957   5.838   4.393
  838SOL    HW1 3413   2.012   5.918   4.418
  838SOL    HW2 3414   1.948   5.778   4.472
  839SOL     OW 3415   2.842   1.536   3.510
  839SOL    HW1 3416   2.848   1.635   3.496
  839SOL    HW2 3417   2.827   1.517   3.607
  840SOL     OW 3418   0.829   1.077   6.912
  840SOL    HW1 3419   0.740   1.106   6.878
  840SOL    HW2 3420   0.866   1.146   6.974
  841SOL     OW 3421   6.736   3.681   6.955
  841SOL    HW1 3422   6.795   3.734   6.895
  841SOL    HW2 3423   6.761   3.584   6.951
  842SOL     OW 3424   4.154   5.329   2.848
  842SOL    HW1 3425   4.090   5.325   2.771
  842SOL    HW2 3426   4.223   5.257   2.837
  843SOL     OW 3427   6.326   2.299   2.203
  843SOL    HW1 3428   6.321   2.285   2.301
  843SOL    HW2 3429   6.275   2.227   2.156
  844SOL     OW 3430   5.233   5.672   0.348
  844SOL    HW1 3431   5.221   5.681   0.447
  844SOL    HW2 3432   5.144   5.666   0.303
  845SOL     OW 3433   0.032   4.370   4.685
  845SOL    HW1 3434   0.057   4.339   4.593
  845SOL    HW2 3435   0.044   4.469   4.692
  846SOL     OW 3436   6.431   1.385   6.993
  846SOL    HW1 3437   6.455   1.481   6.974
  846SOL    HW2 3438   6.505   1.325   6.963
  847SOL     OW 3439   5.584   3.119   1.393
  847SOL    HW1 3440   5.522   3.061   1.339
  847SOL    HW2 3441   5.556   3.116   1.489
  848SOL     OW 3442   6.243   0.217   5.796
  848SOL    HW1 3443   6.234   0.277   5.716
  848SOL    HW2 3444   6.236   0.122   5.767
  849SOL     OW 3445   0.559   5.132   4.979
  849SOL    HW1 3446   0.546   5.034   4.992
  849SOL    HW2 3447   0.536   5.180   5.064
  850SOL     OW 3448   4.309   1.008   2.968
  850SOL    HW1 3449   4.397   0.988   3.012
  850SOL    HW2 3450   4.295   1.107   2.964
  851SOL     OW 3451   0.360   0.945   0.344
  851SOL    HW1 3452   0.382   0.851   0.317
  851SOL    HW2 3453   0.424   1.008   0.300
  852SOL     OW 3454   2.389   3.003   6.384
  852SOL    HW1 3455   2.342   2.931   6.435
  852SOL    HW2 3456   2.329   3.083   6.377
  853SOL     OW 3457   1.438   2.737   1.873
  853SOL    HW1 3458   1.363   2.802   1.882
  853SOL    HW2 3459   1.446   2.707   1.778
  854SOL     OW 3460   5.351   5.570   2.695
  854SOL    HW1 3461   5.396   5.640   2.750
  854SOL    HW2 3462   5.364   5.480   2.738
  855SOL     OW 3463   5.769   0.062   1.964
  855SOL    HW1 3464   5.787   0.040   1.868
  855SOL    HW2 3465   5.751   7.001   2.015
  856SOL     OW 3466   1.973   6.051   5.201
  856SOL    HW1 3467   2.032   6.104   5.140
  856SOL    HW2 3468   1.956   6.103   5.285
  857SOL     OW 3469   5.880   3.536   0.898
  857SOL    HW1 3470   5.918   3.473   0.830
  857SOL    HW2 3471   5.952   3.597   0.930
  858SOL     OW 3472   3.344   5.089   1.742
  858SOL    HW1 3473   3.355   5.167   1.804
  858SOL    HW2 3474   3.276   5.027   1.779
  859SOL     OW 3475   0.131   4.662   6.665
  859SOL    HW1 3476   0.123   4.575   6.617
  859SOL    HW2 3477   0.111   4.649   6.762
  860SOL     OW 3478   2.864   4.625   1.068
  860SOL    HW1 3479   2.813   4.602   1.151
  860SOL    HW2 3480   2.930   4.552   1.048
  861SOL     OW 3481   3.183   5.907   5.649
  861SOL    HW1 3482   3.096   5.947   5.621
  861SOL    HW2 3483   3.233   5.972   5.706
  862SOL     OW 3484   5.321   4.278   5.027
  862SOL    HW1 3485   5.306   4.353   5.092
  862SOL    HW2 3486   5.237   4.225   5.017
  863SOL     OW 3487   0.009   1.050   1.213
  863SOL    HW1 3488   6.980   1.135   1.210
  863SOL    HW2 3489   0.098   1.064   1.170
  864SOL     OW 3490   5.707   4.070   2.640
  864SOL    HW1 3491   5.789   4.022   2.609
  864SOL    HW2 3492   5.731   4.165   2.662
  865SOL     OW 3493   1.999   0.050   3.760
  865SOL    HW1 3494   1.962   0.052   3.668
  865SOL    HW2 3495   1.961   0.127   3.813
  866SOL     OW 3496   3.434   2.073   1.942
  866SOL    HW1 3497   3.420   2.093   2.039
  866SOL    HW2 3498   3.531   2.061   1.924
  867SOL     OW 3499   3.061   2.909   6.688
  867SOL    HW1 3500   3.021   2.843   6.752
  867SOL    HW2 3501   3.037   3.002   6.717
  868SOL     OW 3502   5.682   1.294   2.996
  868SOL    HW1 3503   5.658   1.197   2.996
  868SOL    HW2 3504   5.770   1.306   3.044
  869SOL     OW 3505   6.107   6.131   1.476
  869SOL    HW1 3506   6.016   6.125   1.517
  869SOL    HW2 3507   6.125   6.048   1.422
  870SOL     OW 3508   6.314   1.839   1.335
  870SOL    HW1 3509   6.409   1.865   1.354
  870SOL    HW2 3510   6.286   1.875   1.246
  871SOL     OW 3511   5.671   2.224   1.487
  871SOL    HW1 3512   5.633   2.164   1.416
  871SOL    HW2 3513   5.699   2.310   1.446
  872SOL     OW 3514   6.487   2.470   3.982
  872SOL    HW1 3515   6.579   2.497   4.009
  872SOL    HW2 3516   6.430   2.551   3.971
  873SOL     OW 3517   3.091   6.914   4.027
  873SOL    HW1 3518   3.174   6.947   3.981
  873SOL    HW2 3519   3.015   6.915   3.963
  874SOL     OW 3520   1.309   3.885   5.243
  874SOL    HW1 3521   1.309   3.961   5.309
  874SOL    HW2 3522   1.296   3.799   5.292
  875SOL     OW 3523   5.637   3.801   0.037
  875SOL    HW1 3524   5.714   3.738   0.026
  875SOL    HW2 3525   5.662   3.890   7.023
  876SOL     OW 3526   0.153   3.384   1.815
  876SOL    HW1 3527   0.138   3.471   1.767
  876SOL    HW2 3528   0.240   3.345   1.788
  877SOL     OW 3529   4.946   6.109   6.836
  877SOL    HW1 3530   4.867   6.063   6.877
  877SOL    HW2 3531   5.030   6.077   6.879
  878SOL     OW 3532   2.936   5.115   0.514
  878SOL    HW1 3533   2.994   5.092   0.592
  878SOL    HW2 3534   2.913   5.212   0.517
  879SOL     OW 3535   3.972   2.161   2.775
  879SOL    HW1 3536   4.054   2.218   2.768
  879SOL    HW2 3537   3.928   2.154   2.686
  880SOL     OW 3538   3.393   5.452   0.581
  880SOL    HW1 3539   3.326   5.526   0.580
  880SOL    HW2 3540   3.346   5.364   0.568
  881SOL     OW 3541   3.547   5.137   5.029
  881SOL    HW1 3542   3.461   5.102   5.066
  881SOL    HW2 3543   3.537   5.154   4.931
  882SOL     OW 3544   1.542   0.509   4.230
  882SOL    HW1 3545   1.538   0.423   4.179
  882SOL    HW2 3546   1.535   0.586   4.166
  883SOL     OW 3547   3.308   5.539   6.324
  883SOL    HW1 3548   3.280   5.445   6.348
  883SOL    HW2 3549   3.352   5.539   6.235
  884SOL     OW 3550   5.479   3.189   1.914
  884SOL    HW1 3551   5.563   3.169   1.966
  884SOL    HW2 3552   5.459   3.286   1.920
  885SOL     OW 3553   5.361   5.998   0.796
  885SOL    HW1 3554   5.328   6.078   0.746
  885SOL    HW2 3555   5.351   6.015   0.894
  886SOL     OW 3556   4.504   2.018   6.623
  886SOL    HW1 3557   4.545   2.011   6.714
  886SOL    HW2 3558   4.577   2.028   6.555
  887SOL     OW 3559   4.131   6.642   5.414
  887SOL    HW1 3560   4.066   6.692   5.471
  887SOL    HW2 3561   4.093   6.629   5.323
  888SOL     OW 3562   6.129   5.543   2.931
  888SOL    HW1 3563   6.227   5.549   2.949
  888SOL    HW2 3564   6.099   5.448   2.939
  889SOL     OW 3565   0.803   6.416   5.062
  889SOL    HW1 3566   0.864   6.460   4.996
  889SOL    HW2 3567   0.849   6.336   5.101
  890SOL     OW 3568   2.583   4.663   2.199
  890SOL    HW1 3569   2.664   4.626   2.155
  890SOL    HW2 3570   2.593   4.762   2.210
  891SOL     OW 3571   5.335   3.062   0.121
  891SOL    HW1 3572   5.399   3.077   0.045
  891SOL    HW2 3573   5.357   3.123   0.196
  892SOL     OW 3574   2.629   4.915   1.310
  892SOL    HW1 3575   2.707   4.906   1.372
  892SOL    HW2 3576   2.556   4.965   1.356
  893SOL     OW 3577   1.380   0.348   0.423
  893SOL    HW1 3578   1.320   0.425   0.402
  893SOL    HW2 3579   1.328   0.278   0.472
  894SOL     OW 3580   1.080   5.549   4.403
  894SOL    HW1 3581   1.105   5.516   4.312
  894SOL    HW2 3582   1.140   5.625   4.428
  895SOL     OW 3583   2.223   6.643   4.538
  895SOL    HW1 3584   2.167   6.586   4.598
  895SOL    HW2 3585   2.166   6.713   4.495
  896SOL     OW 3586   5.818   6.980   2.748
  896SOL    HW1 3587   5.826   7.012   2.842
  896SOL    HW2 3588   5.827   6.880   2.746
  897SOL     OW 3589   5.037   1.928   6.910
  897SOL    HW1 3590   5.043   1.836   6.872
  897SOL    HW2 3591   5.072   1.995   6.845
  898SOL     OW 3592   5.469   6.248   3.074
  898SOL    HW1 3593   5.416   6.246   2.989
  898SOL    HW2 3594   5.413   6.283   3.149
  899SOL     OW 3595   0.400   4.209   6.300
  899SOL    HW1 3596   0.353   4.247   6.220
  899SOL    HW2 3597   0.483   4.261   6.319
  900SOL     OW 3598   0.752   5.631   3.422
  900SOL    HW1 3599   0.765   5.728   3.442
  900SOL    HW2 3600   0.658   5.616   3.390
  901SOL     OW 3601   5.970   1.050   4.114
  901SOL    HW1 3602   5.981   1.002   4.202
  901SOL    HW2 3603   6.032   1.128   4.111
  902SOL     OW 3604   0.075   6.432   0.635
  902SOL    HW1 3605   0.002   6.488   0.673
  902SOL    HW2 3606   0.159   6.486   0.628
  903SOL     OW 3607   1.342   4.800   0.568
  903SOL    HW1 3608   1.376   4.875   0.512
  903SOL    HW2 3609   1.305   4.837   0.654
  904SOL     OW 3610   1.785   1.673   3.434
  904SOL    HW1 3611   1.827   1.683   3.524
  904SOL    HW2 3612   1.855   1.683   3.363
  905SOL     OW 3613   5.826   1.777   5.184
  905SOL    HW1 3614   5.798   1.767   5.089
  905SOL    HW2 3615   5.747   1.762   5.244
  906SOL     OW 3616   6.785   3.232   5.849
  906SOL    HW1 3617   6.700   3.180   5.857
  906SOL    HW2 3618   6.770   3.324   5.885
  907SOL     OW 3619   6.255   2.290   2.726
  907SOL    HW1 3620   6.353   2.292   2.747
  907SOL    HW2 3621   6.206   2.351   2.788
  908SOL     OW 3622   1.970   0.949   4.060
  908SOL    HW1 3623   1.927   0.959   3.970
  908SOL    HW2 3624   1.901   0.961   4.131
  909SOL     OW 3625   4.215   1.441   1.856
  909SOL    HW1 3626   4.293   1.445   1.794
  909SOL    HW2 3627   4.133   1.474   1.810
  910SOL     OW 3628   1.846   1.690   0.806
  910SOL    HW1 3629   1.767   1.667   0.750
  910SOL    HW2 3630   1.927   1.696   0.748
  911SOL     OW 3631   0.141   4.686   1.656
  911SOL    HW1 3632   0.085   4.769   1.657
  911SOL    HW2 3633   0.227   4.704   1.705
  912SOL     OW 3634   0.832   6.552   5.977
  912SOL    HW1 3635   0.864   6.590   6.064
  912SOL    HW2 3636   0.885   6.592   5.902
  913SOL     OW 3637   3.129   1.044   2.372
  913SOL    HW1 3638   3.153   1.137   2.397
  913SOL    HW2 3639   3.044   1.018   2.419
  914SOL     OW 3640   3.141   6.271   2.360
  914SOL    HW1 3641   3.118   6.243   2.454
  914SOL    HW2 3642   3.123   6.195   2.298
  915SOL     OW 3643   0.371   2.660   0.849
  915SOL    HW1 3644   0.279   2.669   0.888
  915SOL    HW2 3645   0.399   2.564   0.850
  916SOL     OW 3646   2.087   3.217   2.665
  916SOL    HW1 3647   2.141   3.165   2.730
  916SOL    HW2 3648   2.128   3.211   2.574
  917SOL     OW 3649   3.803   1.538   0.685
  917SOL    HW1 3650   3.779   1.556   0.589
  917SOL    HW2 3651   3.792   1.622   0.738
  918SOL     OW 3652   2.007   0.320   6.098
  918SOL    HW1 3653   1.948   0.241   6.113
  918SOL    HW2 3654   1.963   0.382   6.033
  919SOL     OW 3655   2.552   5.678   2.427
  919SOL    HW1 3656   2.506   5.765   2.410
  919SOL    HW2 3657   2.616   5.658   2.353
  920SOL     OW 3658   2.213   0.818   4.112
  920SOL    HW1 3659   2.238   0.733   4.064
  920SOL    HW2 3660   2.120   0.844   4.087
  921SOL     OW 3661   5.658   5.424   4.650
  921SOL    HW1 3662   5.617   5.443   4.562
  921SOL    HW2 3663   5.709   5.504   4.681
  922SOL     OW 3664   2.783   3.635   6.723
  922SOL    HW1 3665   2.821   3.668   6.810
  922SOL    HW2 3666   2.853   3.643   6.652
  923SOL     OW 3667   3.246   0.068   6.373
  923SOL    HW1 3668   3.169   0.078   6.310
  923SOL    HW2 3669   3.284   6.999   6.365
  924SOL     OW 3670   5.386   2.704   3.504
  924SOL    HW1 3671   5.458   2.740   3.444
  924SOL    HW2 3672   5.423   2.694   3.597
  925SOL     OW 3673   0.421   1.569   3.878
  925SOL    HW1 3674   0.327   1.534   3.876
  925SOL    HW2 3675   0.475   1.522   3.808
  926SOL     OW 3676   4.961   5.880   0.944
  926SOL    HW1 3677   5.030   5.855   1.012
  926SOL    HW2 3678   4.967   5.979   0.926
  927SOL     OW 3679   3.852   5.068   4.969
  927SOL    HW1 3680   3.802   5.063   5.055
  927SOL    HW2 3681   3.800   5.121   4.902
  928SOL     OW 3682   1.780   1.895   0.960
  928SOL    HW1 3683   1.781   1.808   0.910
  928SOL    HW2 3684   1.788   1.877   1.058
  929SOL     OW 3685   0.013   2.509   2.714
  929SOL    HW1 3686   6.968   2.579   2.697
  929SOL    HW2 3687   0.033   2.504   2.812
  930SOL     OW 3688   4.975   5.999   4.189
  930SOL    HW1 3689   4.889   6.050   4.189
  930SOL    HW2 3690   4.994   5.967   4.097
  931SOL     OW 3691   1.651   2.935   2.912
  931SOL    HW1 3692   1.598   2.876   2.851
  931SOL    HW2 3693   1.718   2.986   2.859
  932SOL     OW 3694   4.249   6.832   0.721
  932SOL    HW1 3695   4.298   6.782   0.650
  932SOL    HW2 3696   4.172   6.881   0.679
  933SOL     OW 3697   1.678   6.015   3.100
  933SOL    HW1 3698   1.759   6.031   3.044
  933SOL    HW2 3699   1.704   6.016   3.196
  934SOL     OW 3700   3.313   1.164   5.267
  934SOL    HW1 3701   3.393   1.114   5.298
  934SOL    HW2 3702   3.237   1.101   5.253
  935SOL     OW 3703   4.028   3.287   6.482
  935SOL    HW1 3704   3.985   3.328   6.401
  935SOL    HW2 3705   4.001   3.339   6.564
  936SOL     OW 3706   1.121   1.374   1.077
  936SOL    HW1 3707   1.080   1.433   1.148
  936SOL    HW2 3708   1.079   1.396   0.989
  937SOL     OW 3709   4.743   2.006   4.760
  937SOL    HW1 3710   4.718   2.073   4.690
  937SOL    HW2 3711   4.697   1.920   4.742
  938SOL     OW 3712   0.374   2.494   6.802
  938SOL    HW1 3713   0.461   2.536   6.828
  938SOL    HW2 3714   0.309   2.502   6.878
  939SOL     OW 3715   6.034   1.259   5.484
  939SOL    HW1 3716   6.111   1.270   5.422
  939SOL    HW2 3717   6.032   1.165   5.519
  940SOL     OW 3718   6.769   1.129   3.944
  940SOL    HW1 3719   6.778   1.161   4.038
  940SOL    HW2 3720   6.802   1.035   3.937
  941SOL     OW 3721   5.686   2.265   4.378
  941SOL    HW1 3722   5.629   2.267   4.296
  941SOL    HW2 3723   5.722   2.172   4.391
  942SOL     OW 3724   5.942   0.068   5.490
  942SOL    HW1 3725   6.018   0.004   5.499
  942SOL    HW2 3726   5.870   0.026   5.435
  943SOL     OW 3727   5.300   2.272   1.508
  943SOL    HW1 3728   5.296   2.251   1.410
  943SOL    HW2 3729   5.215   2.318   1.535
  944SOL     OW 3730   5.392   4.531   4.018
  944SOL    HW1 3731   5.433   4.441   4.002
  944SOL    HW2 3732   5.464   4.597   4.038
  945SOL     OW 3733   5.811   4.389   4.606
  945SOL    HW1 3734   5.757   4.315   4.566
  945SOL    HW2 3735   5.756   4.439   4.673
  946SOL     OW 3736   5.874   2.235   5.184
  946SOL    HW1 3737   5.824   2.225   5.098
  946SOL    HW2 3738   5.948   2.302   5.172
  947SOL     OW 3739   2.080   2.398   6.151
  947SOL    HW1 3740   1.986   2.419   6.177
  947SOL    HW2 3741   2.096   2.428   6.057
  948SOL     OW 3742   4.066   2.174   0.535
  948SOL    HW1 3743   4.022   2.155   0.447
  948SOL    HW2 3744   4.154   2.126   0.539
  949SOL     OW 3745   6.141   5.816   6.529
  949SOL    HW1 3746   6.217   5.873   6.498
  949SOL    HW2 3747   6.054   5.857   6.502
  950SOL     OW 3748   4.291   5.187   0.840
  950SOL    HW1 3749   4.290   5.205   0.938
  950SOL    HW2 3750   4.259   5.094   0.823
  951SOL     OW 3751   1.001   1.576   2.662
  951SOL    HW1 3752   1.035   1.652   2.715
  951SOL    HW2 3753   1.077   1.523   2.626
  952SOL     OW 3754   5.676   1.247   2.670
  952SOL    HW1 3755   5.775   1.257   2.677
  952SOL    HW2 3756   5.654   1.153   2.646
  953SOL     OW 3757   4.783   6.593   6.319
  953SOL    HW1 3758   4.719   6.565   6.391
  953SOL    HW2 3759   4.828   6.512   6.281
  954SOL     OW 3760   6.321   6.723   0.426
  954SOL    HW1 3761   6.282   6.813   0.407
  954SOL    HW2 3762   6.419   6.724   0.408
  955SOL     OW 3763   0.400   6.569   2.447
  955SOL    HW1 3764   0.485   6.620   2.461
  955SOL    HW2 3765   0.407   6.481   2.494
  956SOL     OW 3766   1.259   2.492   1.233
  956SOL    HW1 3767   1.233   2.468   1.139
  956SOL    HW2 3768   1.226   2.584   1.254
  957SOL     OW 3769   1.717   5.230   4.583
  957SOL    HW1 3770   1.689   5.206   4.490
  957SOL    HW2 3771   1.675   5.167   4.648
  958SOL     OW 3772   4.718   2.365   1.242
  958SOL    HW1 3773   4.707   2.457   1.279
  958SOL    HW2 3774   4.797   2.363   1.181
  959SOL     OW 3775   2.396   4.381   2.890
  959SOL    HW1 3776   2.361   4.421   2.806
  959SOL    HW2 3777   2.342   4.301   2.914
  960SOL     OW 3778   1.646   5.512   4.513
  960SOL    HW1 3779   1.624   5.417   4.534
  960SOL    HW2 3780   1.694   5.554   4.591
  961SOL     OW 3781   4.010   6.920   1.669
  961SOL    HW1 3782   4.069   6.889   1.744
  961SOL    HW2 3783   4.039   7.011   1.640
  962SOL     OW 3784   1.890   0.274   3.880
  962SOL    HW1 3785   1.795   0.305   3.888
  962SOL    HW2 3786   1.933   0.273   3.970
  963SOL     OW 3787   6.623   0.209   0.654
  963SOL    HW1 3788   6.600   0.127   0.602
  963SOL    HW2 3789   6.549   0.276   0.646
  964SOL     OW 3790   5.887   3.302   1.745
  964SOL    HW1 3791   5.848   3.214   1.771
  964SOL    HW2 3792   5.819   3.374   1.758
  965SOL     OW 3793   0.385   2.366   0.233
  965SOL    HW1 3794   0.427   2.277   0.250
  965SOL    HW2 3795   0.443   2.420   0.172
  966SOL     OW 3796   6.668   2.464   2.995
  966SOL    HW1 3797   6.709   2.423   3.076
  966SOL    HW2 3798   6.574   2.492   3.015
  967SOL     OW 3799   1.742   5.784   1.498
  967SOL    HW1 3800   1.798   5.833   1.565
  967SOL    HW2 3801   1.656   5.755   1.541
  968SOL     OW 3802   5.131   3.042   3.020
  968SOL    HW1 3803   5.110   3.140   3.027
  968SOL    HW2 3804   5.076   3.002   2.947
  969SOL     OW 3805   4.892   5.639   5.825
  969SOL    HW1 3806   4.822   5.581   5.785
  969SOL    HW2 3807   4.850   5.721   5.864
  970SOL     OW 3808   4.406   2.488   5.309
  970SOL    HW1 3809   4.401   2.526   5.401
  970SOL    HW2 3810   4.316   2.487   5.268
  971SOL     OW 3811   6.743   1.608   1.517
  971SOL    HW1 3812   6.719   1.512   1.508
  971SOL    HW2 3813   6.783   1.624   1.607
  972SOL     OW 3814   6.196   5.031   0.954
  972SOL    HW1 3815   6.216   4.936   0.929
  972SOL    HW2 3816   6.186   5.086   0.871
  973SOL     OW 3817   5.873   4.361   5.898
  973SOL    HW1 3818   5.915   4.449   5.920
  973SOL    HW2 3819   5.866   4.352   5.798
  974SOL     OW 3820   2.454   1.295   3.712
  974SOL    HW1 3821   2.500   1.230   3.771
  974SOL    HW2 3822   2.458   1.387   3.752
  975SOL     OW 3823   3.203   6.402   5.751
  975SOL    HW1 3824   3.104   6.413   5.753
  975SOL    HW2 3825   3.240   6.441   5.666
  976SOL     OW 3826   0.082   4.612   3.411
  976SOL    HW1 3827   0.149   4.547   3.375
  976SOL    HW2 3828   7.015   4.569   3.411
  977SOL     OW 3829   1.994   0.787   3.682
  977SOL    HW1 3830   1.930   0.833   3.744
  977SOL    HW2 3831   1.998   0.838   3.596
  978SOL     OW 3832   5.374   3.823   4.328
  978SOL    HW1 3833   5.362   3.724   4.324
  978SOL    HW2 3834   5.461   3.844   4.373
  979SOL     OW 3835   6.246   0.903   2.916
  979SOL    HW1 3836   6.181   0.976   2.937
  979SOL    HW2 3837   6.214   0.852   2.836
  980SOL     OW 3838   5.361   2.117   4.547
  980SOL    HW1 3839   5.370   2.215   4.566
  980SOL    HW2 3840   5.437   2.068   4.590
  981SOL     OW 3841   0.712   1.985   4.783
  981SOL    HW1 3842   0.677   1.959   4.693
  981SOL    HW2 3843   0.671   1.927   4.853
  982SOL     OW 3844   0.895   3.234   1.853
  982SOL    HW1 3845   0.845   3.206   1.935
  982SOL    HW2 3846   0.895   3.334   1.846
  983SOL     OW 3847   6.408   2.116   3.126
  983SOL    HW1 3848   6.455   2.041   3.173
  983SOL    HW2 3849   6.462   2.145   3.047
  984SOL     OW 3850   4.554   1.558   4.436
  984SOL    HW1 3851   4.635   1.602   4.396
  984SOL    HW2 3852   4.535   1.472   4.388
  985SOL     OW 3853   3.415   5.665   0.987
  985SOL    HW1 3854   3.348   5.591   0.982
  985SOL    HW2 3855   3.482   5.645   1.058
  986SOL     OW 3856   4.272   4.762   6.337
  986SOL    HW1 3857   4.303   4.670   6.313
  986SOL    HW2 3858   4.246   4.765   6.433
  987SOL     OW 3859   4.164   6.778   2.545
  987SOL    HW1 3860   4.141   6.750   2.638
  987SOL    HW2 3861   4.200   6.700   2.494
  988SOL     OW 3862   3.558   3.435   1.027
  988SOL    HW1 3863   3.618   3.416   0.949
  988SOL    HW2 3864   3.463   3.429   0.998
  989SOL     OW 3865   0.911   6.726   5.502
  989SOL    HW1 3866   0.951   6.816   5.524
  989SOL    HW2 3867   0.812   6.731   5.512
  990SOL     OW 3868   4.205   0.441   3.913
  990SOL    HW1 3869   4.299   0.458   3.882
  990SOL    HW2 3870   4.171   0.357   3.870
  991SOL     OW 3871   0.585   1.506   5.019
  991SOL    HW1 3872   0.667   1.449   5.023
  991SOL    HW2 3873   0.612   1.601   5.003
  992SOL     OW 3874   0.396   3.434   0.192
  992SOL    HW1 3875   0.391   3.344   0.148
  992SOL    HW2 3876   0.347   3.501   0.137
  993SOL     OW 3877   2.817   4.763   2.925
  993SOL    HW1 3878   2.867   4.754   3.011
  993SOL    HW2 3879   2.742   4.697   2.923
  994SOL     OW 3880   3.392   2.963   2.950
  994SOL    HW1 3881   3.387   3.008   3.039
  994SOL    HW2 3882   3.312   2.989   2.895
  995SOL     OW 3883   1.712   1.700   5.443
  995SOL    HW1 3884   1.632   1.744   5.482
  995SOL    HW2 3885   1.699   1.689   5.344
  996SOL     OW 3886   2.156   3.921   2.820
  996SOL    HW1 3887   2.223   3.942   2.749
  996SOL    HW2 3888   2.079   3.871   2.780
  997SOL     OW 3889   0.258   0.762   1.734
  997SOL    HW1 3890   0.292   0.819   1.809
  997SOL    HW2 3891   0.158   0.770   1.728
  998SOL     OW 3892   4.179   0.141   2.285
  998SOL    HW1 3893   4.206   0.125   2.190
  998SOL    HW2 3894   4.145   0.235   2.295
  999SOL     OW 3895   6.829   5.665   1.253
  999SOL    HW1 3896   6.908   5.661   1.192
  999SOL    HW2 3897   6.858   5.694   1.344
 1000SOL     OW 3898   2.721   2.343   4.152
 1000SOL    HW1 3899   2.652   2.276   4.126
 1000SOL    HW2 3900   2.809   2.297   4.164
 1001SOL     OW 3901   5.106   0.426   5.895
 1001SOL    HW1 3902   5.202   0.399   5.894
 1001SOL    HW2 3903   5.099   0.523   5.915
 1002SOL     OW 3904   5.997   1.398   0.228
 1002SOL    HW1 3905   5.964   1.325   0.168
 1002SOL    HW2 3906   6.096   1.410   0.215
 1003SOL     OW 3907   3.502   6.280   2.423
 1003SOL    HW1 3908   3.479   6.218   2.348
 1003SOL    HW2 3909   3.506   6.374   2.389
 1004SOL     OW 3910   6.387   6.727   0.120
 1004SOL    HW1 3911   6.352   6.805   0.172
 1004SOL    HW2 3912   6.484   6.714   0.140
 1005SOL     OW 3913   0.710   0.419   2.708
 1005SOL    HW1 3914   0.715   0.483   2.785
 1005SOL    HW2 3915   0.630   0.359   2.720
 1006SOL     OW 3916   2.638   5.263   1.295
 1006SOL    HW1 3917   2.663   5.214   1.212
 1006SOL    HW2 3918   2.553   5.225   1.332
 1007SOL     OW 3919   0.124   1.043   3.154
 1007SOL    HW1 3920   0.195   0.978   3.126
 1007SOL    HW2 3921   0.159   1.136   3.149
 1008SOL     OW 3922   1.102   3.466   3.874
 1008SOL    HW1 3923   1.167   3.530   3.915
 1008SOL    HW2 3924   1.151   3.394   3.827
 1009SOL     OW 3925   0.745   6.479   4.607
 1009SOL    HW1 3926   0.764   6.575   4.589
 1009SOL    HW2 3927   0.677   6.472   4.680
 1010SOL     OW 3928   3.979   2.578   0.773
 1010SOL    HW1 3929   3.937   2.509   0.833
 1010SOL    HW2 3930   3.937   2.667   0.791
 1011SOL     OW 3931   2.180   5.772   3.893
 1011SOL    HW1 3932   2.254   5.839   3.885
 1011SOL    HW2 3933   2.131   5.786   3.979
 1012SOL     OW 3934   5.440   5.329   0.176
 1012SOL    HW1 3935   5.360   5.292   0.130
 1012SOL    HW2 3936   5.413   5.371   0.262
 1013SOL     OW 3937   0.824   0.733   1.084
 1013SOL    HW1 3938   0.729   0.738   1.053
 1013SOL    HW2 3939   0.858   0.639   1.072
 1014SOL     OW 3940   5.081   6.354   6.030
 1014SOL    HW1 3941   5.131   6.392   5.952
 1014SOL    HW2 3942   5.142   6.298   6.085
 1015SOL     OW 3943   3.649   5.783   4.568
 1015SOL    HW1 3944   3.704   5.756   4.489
 1015SOL    HW2 3945   3.646   5.883   4.574
 1016SOL     OW 3946   3.759   2.715   1.229
 1016SOL    HW1 3947   3.798   2.677   1.312
 1016SOL    HW2 3948   3.729   2.809   1.246
 1017SOL     OW 3949   4.122   2.948   0.436
 1017SOL    HW1 3950   4.154   3.041   0.454
 1017SOL    HW2 3951   4.173   2.910   0.359
 1018SOL     OW 3952   0.853   2.709   3.833
 1018SOL    HW1 3953   0.778   2.764   3.798
 1018SOL    HW2 3954   0.857   2.622   3.782
 1019SOL     OW 3955   0.140   1.589   6.534
 1019SOL    HW1 3956   0.162   1.667   6.592
 1019SOL    HW2 3957   0.044   1.593   6.507
 1020SOL     OW 3958   2.520   1.340   1.299
 1020SOL    HW1 3959   2.536   1.439   1.300
 1020SOL    HW2 3960   2.572   1.297   1.372
 1021SOL     OW 3961   6.844   1.170   0.629
 1021SOL    HW1 3962   6.766   1.127   0.674
 1021SOL    HW2 3963   6.816   1.259   0.591
 1022SOL     OW 3964   3.978   3.334   6.116
 1022SOL    HW1 3965   3.934   3.385   6.042
 1022SOL    HW2 3966   4.065   3.376   6.139
 1023SOL     OW 3967   5.824   0.616   2.499
 1023SOL    HW1 3968   5.852   0.536   2.446
 1023SOL    HW2 3969   5.892   0.689   2.486
 1024SOL     OW 3970   6.699   1.616   3.953
 1024SOL    HW1 3971   6.678   1.713   3.942
 1024SOL    HW2 3972   6.688   1.569   3.865
 1025SOL     OW 3973   3.343   4.955   0.882
 1025SOL    HW1 3974   3.366   4.988   0.791
 1025SOL    HW2 3975   3.405   4.996   0.949
 1026SOL     OW 3976   2.256   2.215   6.980
 1026SOL    HW1 3977   2.190   2.287   7.003
 1026SOL    HW2 3978   2.208   2.127   6.977
 1027SOL     OW 3979   2.828   5.069   2.367
 1027SOL    HW1 3980   2.888   5.128   2.313
 1027SOL    HW2 3981   2.882   5.024   2.439
 1028SOL     OW 3982   1.640   5.943   0.765
 1028SOL    HW1 3983   1.618   5.899   0.678
 1028SOL    HW2 3984   1.589   6.028   0.773
 1029SOL     OW 3985   2.301   0.175   6.773
 1029SOL    HW1 3986   2.258   0.088   6.747
 1029SOL    HW2 3987   2.372   0.158   6.841
 1030SOL     OW 3988   4.270   3.638   5.208
 1030SOL    HW1 3989   4.358   3.590   5.205
 1030SOL    HW2 3990   4.231   3.642   5.117
 1031SOL     OW 3991   2.449   5.325   1.647
 1031SOL    HW1 3992   2.453   5.235   1.690
 1031SOL    HW2 3993   2.354   5.354   1.639
 1032SOL     OW 3994   1.471   1.277   4.522
 1032SOL    HW1 3995   1.384   1.323   4.539
 1032SOL    HW2 3996   1.455   1.194   4.470
 1033SOL     OW 3997   2.436   5.605   1.806
 1033SOL    HW1 3998   2.458   5.619   1.709
 1033SOL    HW2 3999   2.503   5.651   1.863
 1034SOL     OW 4000   2.199   4.923   3.672
 1034SOL    HW1 4001   2.174   5.019   3.690
 1034SOL    HW2 4002   2.265   4.893   3.740
 1035SOL     OW 4003   3.582   0.820   4.805
 1035SOL    HW1 4004   3.499   0.871   4.784
 1035SOL    HW2 4005   3.635   0.870   4.874
 1036SOL     OW 4006   4.374   2.736   1.123
 1036SOL    HW1 4007   4.283   2.706   1.153
 1036SOL    HW2 4008   4.390   2.705   1.029
 1037SOL     OW 4009   2.442   1.066   0.433
 1037SOL    HW1 4010   2.448   0.968   0.412
 1037SOL    HW2 4011   2.379   1.080   0.509
 1038SOL     OW 4012   2.010   1.088   5.442
 1038SOL    HW1 4013   2.035   1.176   5.481
 1038SOL    HW2 4014   1.941   1.044   5.500
 1039SOL     OW 4015   3.794   2.056   4.224
 1039SOL    HW1 4016   3.850   2.073   4.143
 1039SOL    HW2 4017   3.699   2.042   4.196
 1040SOL     OW 4018   5.879   4.268   2.718
 1040SOL    HW1 4019   5.967   4.250   2.675
 1040SOL    HW2 4020   5.892   4.327   2.798
 1041SOL     OW 4021   0.256   1.319   4.467
 1041SOL    HW1 4022   0.339   1.302   4.413
 1041SOL    HW2 4023   0.265   1.275   4.557
 1042SOL     OW 4024   5.464   5.006   0.924
 1042SOL    HW1 4025   5.393   5.054   0.976
 1042SOL    HW2 4026   5.421   4.949   0.854
 1043SOL     OW 4027   2.917   2.032   6.220
 1043SOL    HW1 4028   2.841   2.038   6.154
 1043SOL    HW2 4029   2.923   1.938   6.254
 1044SOL     OW 4030   3.770   3.218   1.684
 1044SOL    HW1 4031   3.718   3.160   1.747
 1044SOL    HW2 4032   3.809   3.161   1.612
 1045SOL     OW 4033   2.837   1.473   2.871
 1045SOL    HW1 4034   2.824   1.507   2.964
 1045SOL    HW2 4035   2.853   1.374   2.873
 1046SOL     OW 4036   3.763   6.991   1.037
 1046SOL    HW1 4037   3.783   6.893   1.042
 1046SOL    HW2 4038   3.704   7.010   0.959
 1047SOL     OW 4039   0.995   4.699   2.759
 1047SOL    HW1 4040   0.937   4.626   2.796
 1047SOL    HW2 4041   1.057   4.662   2.691
 1048SOL     OW 4042   5.087   4.164   4.920
 1048SOL    HW1 4043   4.993   4.130   4.923
 1048SOL    HW2 4044   5.092   4.243   4.859
 1049SOL     OW 4045   0.286   3.955   4.750
 1049SOL    HW1 4046   0.359   4.023   4.760
 1049SOL    HW2 4047   0.210   3.996   4.698
 1050SOL     OW 4048   3.641   0.262   6.828
 1050SOL    HW1 4049   3.557   0.301   6.867
 1050SOL    HW2 4050   3.719   0.293   6.882
 1051SOL     OW 4051   4.750   4.479   6.939
 1051SOL    HW1 4052   4.737   4.470   0.015
 1051SOL    HW2 4053   4.756   4.576   6.915
 1052SOL     OW 4054   3.562   0.285   5.233
 1052SOL    HW1 4055   3.535   0.250   5.143
 1052SOL    HW2 4056   3.590   0.381   5.225
 1053SOL     OW 4057   4.686   4.625   4.023
 1053SOL    HW1 4058   4.656   4.570   4.101
 1053SOL    HW2 4059   4.609   4.680   3.990
 1054SOL     OW 4060   3.262   5.419   4.815
 1054SOL    HW1 4061   3.254   5.515   4.788
 1054SOL    HW2 4062   3.271   5.413   4.914
 1055SOL     OW 4063   4.631   6.086   5.072
 1055SOL    HW1 4064   4.633   6.160   5.004
 1055SOL    HW2 4065   4.657   6.123   5.161
 1056SOL     OW 4066   1.911   6.248   5.416
 1056SOL    HW1 4067   1.822   6.207   5.400
 1056SOL    HW2 4068   1.909   6.300   5.502
 1057SOL     OW 4069   2.856   3.647   2.655
 1057SOL    HW1 4070   2.811   3.691   2.733
 1057SOL    HW2 4071   2.876   3.552   2.677
 1058SOL     OW 4072   3.319   1.313   1.834
 1058SOL    HW1 4073   3.272   1.287   1.918
 1058SOL    HW2 4074   3.261   1.292   1.756
 1059SOL     OW 4075   4.562   1.319   1.497
 1059SOL    HW1 4076   4.548   1.256   1.573
 1059SOL    HW2 4077   4.550   1.413   1.528
 1060SOL     OW 4078   1.181   2.290   5.900
 1060SOL    HW1 4079   1.204   2.193   5.888
 1060SOL    HW2 4080   1.171   2.333   5.811
 1061SOL     OW 4081   3.928   5.384   1.848
 1061SOL    HW1 4082   3.992   5.315   1.815
 1061SOL    HW2 4083   3.923   5.459   1.781
 1062SOL     OW 4084   5.938   6.194   5.644
 1062SOL    HW1 4085   5.845   6.199   5.682
 1062SOL    HW2 4086   5.959   6.099   5.620
 1063SOL     OW 4087   1.721   2.932   0.255
 1063SOL    HW1 4088   1.629   2.968   0.268
 1063SOL    HW2 4089   1.717   2.833   0.243
 1064SOL     OW 4090   0.249   3.005   1.900
 1064SOL    HW1 4091   0.150   3.022   1.894
 1064SOL    HW2 4092   0.272   2.979   1.993
 1065SOL     OW 4093   5.964   6.766   4.590
 1065SOL    HW1 4094   5.928   6.851   4.630
 1065SOL    HW2 4095   5.990   6.783   4.495
 1066SOL     OW 4096   4.666   0.579   3.653
 1066SOL    HW1 4097   4.620   0.565   3.566
 1066SOL    HW2 4098   4.711   0.669   3.653
 1067SOL     OW 4099   2.104   2.949   1.938
 1067SOL    HW1 4100   2.143   2.904   2.019
 1067SOL    HW2 4101   2.122   2.893   1.857
 1068SOL     OW 4102   0.366   3.721   2.454
 1068SOL    HW1 4103   0.272   3.703   2.481
 1068SOL    HW2 4104   0.406   3.789   2.516
 1069SOL     OW 4105   4.203   4.020   1.182
 1069SOL    HW1 4106   4.207   3.925   1.213
 1069SOL    HW2 4107   4.201   4.022   1.082
 1070SOL     OW 4108   2.241   0.983   0.676
 1070SOL    HW1 4109   2.158   0.996   0.729
 1070SOL    HW2 4110   2.312   0.942   0.734
 1071SOL     OW 4111   3.794   6.599   3.480
 1071SOL    HW1 4112   3.749   6.686   3.458
 1071SOL    HW2 4113   3.893   6.609   3.470
 1072SOL     OW 4114   3.588   6.451   2.638
 1072SOL    HW1 4115   3.510   6.419   2.691
 1072SOL    HW2 4116   3.615   6.381   2.572
 1073SOL     OW 4117   2.671   4.632   2.656
 1073SOL    HW1 4118   2.658   4.644   2.754
 1073SOL    HW2 4119   2.688   4.720   2.613
 1074SOL     OW 4120   0.715   4.911   1.625
 1074SOL    HW1 4121   0.639   4.926   1.562
 1074SOL    HW2 4122   0.786   4.979   1.609
 1075SOL     OW 4123   5.609   4.823   4.414
 1075SOL    HW1 4124   5.660   4.783   4.489
 1075SOL    HW2 4125   5.672   4.846   4.339
 1076SOL     OW 4126   0.370   4.335   3.630
 1076SOL    HW1 4127   0.388   4.324   3.728
 1076SOL    HW2 4128   0.312   4.260   3.598
 1077SOL     OW 4129   4.412   0.298   0.996
 1077SOL    HW1 4130   4.314   0.286   0.981
 1077SOL    HW2 4131   4.427   0.366   1.068
 1078SOL     OW 4132   1.258   2.225   1.429
 1078SOL    HW1 4133   1.262   2.293   1.502
 1078SOL    HW2 4134   1.223   2.268   1.345
 1079SOL     OW 4135   2.783   5.325   3.581
 1079SOL    HW1 4136   2.722   5.402   3.562
 1079SOL    HW2 4137   2.730   5.250   3.620
 1080SOL     OW 4138   1.650   4.898   4.376
 1080SOL    HW1 4139   1.638   4.990   4.337
 1080SOL    HW2 4140   1.564   4.848   4.366
 1081SOL     OW 4141   1.570   0.491   0.549
 1081SOL    HW1 4142   1.509   0.424   0.507
 1081SOL    HW2 4143   1.518   0.573   0.572
 1082SOL     OW 4144   1.294   6.966   5.954
 1082SOL    HW1 4145   1.306   0.002   6.033
 1082SOL    HW2 4146   1.384   6.947   5.913
 1083SOL     OW 4147   3.604   3.382   2.072
 1083SOL    HW1 4148   3.536   3.347   2.136
 1083SOL    HW2 4149   3.587   3.479   2.055
 1084SOL     OW 4150   5.865   4.044   1.066
 1084SOL    HW1 4151   5.885   3.967   1.127
 1084SOL    HW2 4152   5.766   4.055   1.059
 1085SOL     OW 4153   1.769   4.671   4.052
 1085SOL    HW1 4154   1.700   4.601   4.034
 1085SOL    HW2 4155   1.726   4.747   4.101
 1086SOL     OW 4156   4.234   4.647   2.033
 1086SOL    HW1 4157   4.183   4.603   2.107
 1086SOL    HW2 4158   4.265   4.578   1.968
 1087SOL     OW 4159   4.487   2.690   5.711
 1087SOL    HW1 4160   4.489   2.789   5.696
 1087SOL    HW2 4161   4.395   2.655   5.691
 1088SOL     OW 4162   5.186   4.396   4.291
 1088SOL    HW1 4163   5.282   4.375   4.274
 1088SOL    HW2 4164   5.140   4.314   4.327
 1089SOL     OW 4165   0.136   0.082   3.850
 1089SOL    HW1 4166   0.182   0.106   3.765
 1089SOL    HW2 4167   0.096   7.014   3.842
 1090SOL     OW 4168   1.597   1.685   6.780
 1090SOL    HW1 4169   1.600   1.629   6.862
 1090SOL    HW2 4170   1.507   1.729   6.772
 1091SOL     OW 4171   1.692   1.656   4.755
 1091SOL    HW1 4172   1.665   1.686   4.664
 1091SOL    HW2 4173   1.725   1.735   4.808
 1092SOL     OW 4174   2.399   4.029   1.466
 1092SOL    HW1 4175   2.344   4.026   1.550
 1092SOL    HW2 4176   2.425   4.123   1.447
 1093SOL     OW 4177   0.217   1.935   2.758
 1093SOL    HW1 4178   0.316   1.936   2.750
 1093SOL    HW2 4179   0.190   1.876   2.834
 1094SOL     OW 4180   0.112   6.710   1.083
 1094SOL    HW1 4181   0.047   6.776   1.120
 1094SOL    HW2 4182   0.184   6.693   1.150
 1095SOL     OW 4183   5.834   3.365   6.184
 1095SOL    HW1 4184   5.898   3.441   6.175
 1095SOL    HW2 4185   5.798   3.362   6.277
 1096SOL     OW 4186   3.447   4.359   1.703
 1096SOL    HW1 4187   3.357   4.393   1.676
 1096SOL    HW2 4188   3.496   4.429   1.753
 1097SOL     OW 4189   1.249   5.406   5.424
 1097SOL    HW1 4190   1.187   5.389   5.501
 1097SOL    HW2 4191   1.241   5.333   5.357
 1098SOL     OW 4192   4.516   1.986   2.559
 1098SOL    HW1 4193   4.501   1.955   2.465
 1098SOL    HW2 4194   4.612   1.972   2.584
 1099SOL     OW 4195   4.110   1.841   4.150
 1099SOL    HW1 4196   4.058   1.857   4.066
 1099SOL    HW2 4197   4.089   1.749   4.185
 1100SOL     OW 4198   0.465   0.833   7.022
 1100SOL    HW1 4199   0.400   0.907   7.005
 1100SOL    HW2 4200   0.434   0.779   0.077
 1101SOL     OW 4201   5.437   3.379   0.833
 1101SOL    HW1 4202   5.490   3.462   0.848
 1101SOL    HW2 4203   5.492   3.313   0.782
 1102SOL     OW 4204   0.636   4.415   3.515
 1102SOL    HW1 4205   0.541   4.392   3.535
 1102SOL    HW2 4206   0.643   4.512   3.492
 1103SOL     OW 4207   1.284   2.143   2.013
 1103SOL    HW1 4208   1.210   2.170   2.074
 1103SOL    HW2 4209   1.321   2.224   1.968
 1104SOL     OW 4210   3.666   4.816   6.140
 1104SOL    HW1 4211   3.595   4.750   6.164
 1104SOL    HW2 4212   3.664   4.833   6.042
 1105SOL     OW 4213   4.875   4.045   6.494
 1105SOL    HW1 4214   4.855   3.947   6.492
 1105SOL    HW2 4215   4.963   4.061   6.539
 1106SOL     OW 4216   0.379   2.613   6.079
 1106SOL    HW1 4217   0.415   2.670   6.153
 1106SOL    HW2 4218   0.429   2.527   6.075
 1107SOL     OW 4219   0.753   0.194   0.545
 1107SOL    HW1 4220   0.761   0.283   0.590
 1107SOL    HW2 4221   0.797   0.124   0.601
 1108SOL     OW 4222   1.475   1.094   5.299
 1108SOL    HW1 4223   1.402   1.109   5.366
 1108SOL    HW2 4224   1.434   1.063   5.213
 1109SOL     OW 4225   4.102   0.239   3.770
 1109SOL    HW1 4226   4.004   0.252   3.752
 1109SOL    HW2 4227   4.114   0.170   3.841
 1110SOL     OW 4228   2.907   3.594   1.959
 1110SOL    HW1 4229   2.890   3.590   1.860
 1110SOL    HW2 4230   2.922   3.689   1.986
 1111SOL     OW 4231   5.721   0.480   0.065
 1111SOL    HW1 4232   5.664   0.490   7.006
 1111SOL    HW2 4233   5.775   0.396   0.057
 1112SOL     OW 4234   6.534   0.931   1.963
 1112SOL    HW1 4235   6.511   0.881   2.047
 1112SOL    HW2 4236   6.628   0.964   1.969
 1113SOL     OW 4237   6.794   3.456   2.417
 1113SOL    HW1 4238   6.766   3.367   2.381
 1113SOL    HW2 4239   6.716   3.518   2.416
 1114SOL     OW 4240   4.423   1.564   5.275
 1114SOL    HW1 4241   4.500   1.575   5.211
 1114SOL    HW2 4242   4.350   1.511   5.232
 1115SOL     OW 4243   2.792   3.681   0.981
 1115SOL    HW1 4244   2.888   3.705   0.965
 1115SOL    HW2 4245   2.772   3.593   0.937
 1116SOL     OW 4246   3.864   6.796   4.192
 1116SOL    HW1 4247   3.938   6.854   4.157
 1116SOL    HW2 4248   3.781   6.810   4.137
 1117SOL     OW 4249   2.857   2.895   0.915
 1117SOL    HW1 4250   2.774   2.869   0.966
 1117SOL    HW2 4251   2.931   2.911   0.980
 1118SOL     OW 4252   2.236   4.259   3.473
 1118SOL    HW1 4253   2.255   4.357   3.465
 1118SOL    HW2 4254   2.215   4.222   3.382
 1119SOL     OW 4255   4.428   3.972   1.390
 1119SOL    HW1 4256   4.472   4.012   1.471
 1119SOL    HW2 4257   4.350   4.027   1.364
 1120SOL     OW 4258   4.224   0.328   5.224
 1120SOL    HW1 4259   4.265   0.302   5.137
 1120SOL    HW2 4260   4.214   0.247   5.282
 1121SOL     OW 4261   5.634   3.053   2.325
 1121SOL    HW1 4262   5.674   2.975   2.276
 1121SOL    HW2 4263   5.688   3.071   2.407
 1122SOL     OW 4264   5.169   3.728   6.583
 1122SOL    HW1 4265   5.083   3.778   6.572
 1122SOL    HW2 4266   5.173   3.687   6.674
 1123SOL     OW 4267   4.385   0.861   2.628
 1123SOL    HW1 4268   4.438   0.805   2.563
 1123SOL    HW2 4269   4.414   0.841   2.721
 1124SOL     OW 4270   0.067   4.063   4.630
 1124SOL    HW1 4271   0.035   4.132   4.694
 1124SOL    HW2 4272   0.092   4.107   4.543
 1125SOL     OW 4273   3.550   3.238   4.860
 1125SOL    HW1 4274   3.565   3.329   4.899
 1125SOL    HW2 4275   3.517   3.176   4.932
 1126SOL     OW 4276   5.188   6.139   1.558
 1126SOL    HW1 4277   5.133   6.190   1.625
 1126SOL    HW2 4278   5.244   6.202   1.505
 1127SOL     OW 4279   1.923   4.753   6.817
 1127SOL    HW1 4280   1.881   4.687   6.755
 1127SOL    HW2 4281   1.894   4.845   6.793
 1128SOL     OW 4282   3.158   1.676   4.563
 1128SOL    HW1 4283   3.224   1.662   4.637
 1128SOL    HW2 4284   3.075   1.623   4.583
 1129SOL     OW 4285   5.278   0.499   6.628
 1129SOL    HW1 4286   5.180   0.478   6.632
 1129SOL    HW2 4287   5.330   0.419   6.654
 1130SOL     OW 4288   1.223   4.313   6.793
 1130SOL    HW1 4289   1.216   4.395   6.737
 1130SOL    HW2 4290   1.133   4.288   6.828
 1131SOL     OW 4291   0.579   5.940   5.615
 1131SOL    HW1 4292   0.581   5.944   5.715
 1131SOL    HW2 4293   0.566   5.846   5.585
 1132SOL     OW 4294   5.186   6.991   5.528
 1132SOL    HW1 4295   5.225   0.020   5.452
 1132SOL    HW2 4296   5.123   6.923   5.492
 1133SOL     OW 4297   0.193   3.537   1.394
 1133SOL    HW1 4298   0.135   3.544   1.313
 1133SOL    HW2 4299   0.244   3.451   1.391
 1134SOL     OW 4300   5.097   2.730   6.176
 1134SOL    HW1 4301   5.032   2.732   6.252
 1134SOL    HW2 4302   5.138   2.821   6.165
 1135SOL     OW 4303   2.872   2.285   3.118
 1135SOL    HW1 4304   2.879   2.281   3.218
 1135SOL    HW2 4305   2.919   2.206   3.078
 1136SOL     OW 4306   3.417   5.642   3.711
 1136SOL    HW1 4307   3.357   5.598   3.644
 1136SOL    HW2 4308   3.364   5.668   3.791
 1137SOL     OW 4309   1.261   1.587   6.000
 1137SOL    HW1 4310   1.196   1.514   5.981
 1137SOL    HW2 4311   1.268   1.601   6.098
 1138SOL     OW 4312   0.943   3.508   6.003
 1138SOL    HW1 4313   0.961   3.582   5.939
 1138SOL    HW2 4314   0.872   3.536   6.067
 1139SOL     OW 4315   1.376   6.163   2.447
 1139SOL    HW1 4316   1.415   6.185   2.536
 1139SOL    HW2 4317   1.339   6.246   2.405
 1140SOL     OW 4318   3.533   1.653   3.952
 1140SOL    HW1 4319   3.494   1.569   3.914
 1140SOL    HW2 4320   3.507   1.731   3.895
 1141SOL     OW 4321   6.264   5.829   5.361
 1141SOL    HW1 4322   6.206   5.750   5.379
 1141SOL    HW2 4323   6.298   5.825   5.267
 1142SOL     OW 4324   5.604   0.687   3.797
 1142SOL    HW1 4325   5.602   0.659   3.893
 1142SOL    HW2 4326   5.555   0.774   3.787
 1143SOL     OW 4327   4.095   1.566   2.864
 1143SOL    HW1 4328   4.005   1.536   2.893
 1143SOL    HW2 4329   4.105   1.665   2.880
 1144SOL     OW 4330   0.306   5.263   4.185
 1144SOL    HW1 4331   0.350   5.176   4.162
 1144SOL    HW2 4332   0.375   5.336   4.184
 1145SOL     OW 4333   0.126   5.737   4.903
 1145SOL    HW1 4334   0.176   5.769   4.823
 1145SOL    HW2 4335   0.185   5.678   4.959
 1146SOL     OW 4336   5.749   1.930   0.991
 1146SOL    HW1 4337   5.784   1.893   1.076
 1146SOL    HW2 4338   5.737   1.856   0.924
 1147SOL     OW 4339   0.277   3.247   2.162
 1147SOL    HW1 4340   0.177   3.260   2.165
 1147SOL    HW2 4341   0.317   3.283   2.246
 1148SOL     OW 4342   3.422   6.815   0.099
 1148SOL    HW1 4343   3.403   6.740   0.036
 1148SOL    HW2 4344   3.374   6.800   0.185
 1149SOL     OW 4345   6.639   3.240   2.378
 1149SOL    HW1 4346   6.647   3.205   2.285
 1149SOL    HW2 4347   6.544   3.266   2.396
 1150SOL     OW 4348   1.658   4.745   0.475
 1150SOL    HW1 4349   1.668   4.808   0.398
 1150SOL    HW2 4350   1.566   4.752   0.512
 1151SOL     OW 4351   5.716   4.866   6.612
 1151SOL    HW1 4352   5.737   4.932   6.684
 1151SOL    HW2 4353   5.628   4.822   6.633
 1152SOL     OW 4354   1.635   6.982   5.156
 1152SOL    HW1 4355   1.586   6.937   5.082
 1152SOL    HW2 4356   1.608   0.054   5.161
 1153SOL     OW 4357   2.618   5.333   2.751
 1153SOL    HW1 4358   2.591   5.237   2.757
 1153SOL    HW2 4359   2.538   5.390   2.733
 1154SOL     OW 4360   0.558   4.071   1.801
 1154SOL    HW1 4361   0.513   4.127   1.871
 1154SOL    HW2 4362   0.621   4.007   1.845
 1155SOL     OW 4363   3.913   5.745   1.950
 1155SOL    HW1 4364   4.009   5.749   1.923
 1155SOL    HW2 4365   3.901   5.672   2.018
 1156SOL     OW 4366   2.369   0.258   4.090
 1156SOL    HW1 4367   2.278   0.233   4.123
 1156SOL    HW2 4368   2.438   0.206   4.139
 1157SOL     OW 4369   0.300   2.775   3.819
 1157SOL    HW1 4370   0.352   2.706   3.868
 1157SOL    HW2 4371   0.228   2.812   3.879
 1158SOL     OW 4372   5.264   5.179   5.395
 1158SOL    HW1 4373   5.178   5.199   5.441
 1158SOL    HW2 4374   5.339   5.183   5.461
 1159SOL     OW 4375   3.934   5.082   3.571
 1159SOL    HW1 4376   3.842   5.096   3.532
 1159SOL    HW2 4377   3.999   5.064   3.497
 1160SOL     OW 4378   3.617   3.733   1.614
 1160SOL    HW1 4379   3.644   3.649   1.567
 1160SOL    HW2 4380   3.578   3.797   1.548
 1161SOL     OW 4381   5.444   0.889   3.715
 1161SOL    HW1 4382   5.365   0.860   3.768
 1161SOL    HW2 4383   5.418   0.900   3.619
 1162SOL     OW 4384   3.362   4.115   1.917
 1162SOL    HW1 4385   3.410   4.180   1.858
 1162SOL    HW2 4386   3.393   4.126   2.011
 1163SOL     OW 4387   5.233   1.615   2.846
 1163SOL    HW1 4388   5.286   1.699   2.834
 1163SOL    HW2 4389   5.200   1.584   2.757
 1164SOL     OW 4390   5.952   3.330   3.748
 1164SOL    HW1 4391   5.877   3.266   3.730
 1164SOL    HW2 4392   5.917   3.409   3.799
 1165SOL     OW 4393   0.779   4.716   3.164
 1165SOL    HW1 4394   0.783   4.677   3.072
 1165SOL    HW2 4395   0.870   4.710   3.206
 1166SOL     OW 4396   4.376   2.754   6.129
 1166SOL    HW1 4397   4.278   2.754   6.146
 1166SOL    HW2 4398   4.405   2.845   6.101
 1167SOL     OW 4399   4.744   1.227   5.026
 1167SOL    HW1 4400   4.743   1.167   4.946
 1167SOL    HW2 4401   4.713   1.318   5.000
 1168SOL     OW 4402   6.470   6.703   3.214
 1168SOL    HW1 4403   6.427   6.713   3.303
 1168SOL    HW2 4404   6.569   6.711   3.223
 1169SOL     OW 4405   0.629   3.594   1.693
 1169SOL    HW1 4406   0.560   3.560   1.630
 1169SOL    HW2 4407   0.585   3.641   1.769
 1170SOL     OW 4408   3.151   0.966   1.482
 1170SOL    HW1 4409   3.084   0.998   1.549
 1170SOL    HW2 4410   3.215   0.904   1.526
 1171SOL     OW 4411   3.087   6.074   0.816
 1171SOL    HW1 4412   3.101   6.107   0.723
 1171SOL    HW2 4413   3.126   5.983   0.825
 1172SOL     OW 4414   3.162   3.362   5.177
 1172SOL    HW1 4415   3.108   3.397   5.253
 1172SOL    HW2 4416   3.214   3.281   5.207
 1173SOL     OW 4417   3.407   1.124   6.623
 1173SOL    HW1 4418   3.330   1.180   6.591
 1173SOL    HW2 4419   3.376   1.031   6.642
 1174SOL     OW 4420   3.184   6.288   0.952
 1174SOL    HW1 4421   3.144   6.202   0.918
 1174SOL    HW2 4422   3.274   6.301   0.910
 1175SOL     OW 4423   6.047   4.742   5.645
 1175SOL    HW1 4424   5.948   4.739   5.659
 1175SOL    HW2 4425   6.076   4.837   5.632
 1176SOL     OW 4426   5.628   4.644   0.876
 1176SOL    HW1 4427   5.679   4.563   0.904
 1176SOL    HW2 4428   5.659   4.723   0.929
 1177SOL     OW 4429   6.638   2.781   5.951
 1177SOL    HW1 4430   6.698   2.712   5.910
 1177SOL    HW2 4431   6.651   2.783   6.050
 1178SOL     OW 4432   6.243   3.501   1.888
 1178SOL    HW1 4433   6.245   3.484   1.789
 1178SOL    HW2 4434   6.162   3.458   1.928
 1179SOL     OW 4435   2.274   5.170   6.614
 1179SOL    HW1 4436   2.328   5.206   6.690
 1179SOL    HW2 4437   2.256   5.243   6.548
 1180SOL     OW 4438   2.663   1.712   4.175
 1180SOL    HW1 4439   2.698   1.635   4.121
 1180SOL    HW2 4440   2.628   1.783   4.114
 1181SOL     OW 4441   1.905   4.295   3.293
 1181SOL    HW1 4442   1.811   4.330   3.293
 1181SOL    HW2 4443   1.967   4.366   3.259
 1182SOL     OW 4444   2.249   4.526   3.859
 1182SOL    HW1 4445   2.252   4.503   3.956
 1182SOL    HW2 4446   2.258   4.443   3.804
 1183SOL     OW 4447   4.463   6.050   0.753
 1183SOL    HW1 4448   4.474   6.131   0.812
 1183SOL    HW2 4449   4.419   6.077   0.668
 1184SOL     OW 4450   2.906   2.695   5.740
 1184SOL    HW1 4451   2.973   2.665   5.808
 1184SOL    HW2 4452   2.838   2.753   5.784
 1185SOL     OW 4453   1.529   0.705   0.226
 1185SOL    HW1 4454   1.527   0.605   0.226
 1185SOL    HW2 4455   1.553   0.738   0.318
 1186SOL     OW 4456   4.849   1.199   4.469
 1186SOL    HW1 4457   4.925   1.136   4.454
 1186SOL    HW2 4458   4.762   1.151   4.457
 1187SOL     OW 4459   6.021   0.549   5.237
 1187SOL    HW1 4460   6.038   0.493   5.156
 1187SOL    HW2 4461   5.932   0.526   5.275
 1188SOL     OW 4462   1.863   0.445   5.896
 1188SOL    HW1 4463   1.820   0.388   5.826
 1188SOL    HW2 4464   1.895   0.530   5.853
 1189SOL     OW 4465   5.450   0.622   1.775
 1189SOL    HW1 4466   5.535   0.570   1.769
 1189SOL    HW2 4467   5.439   0.659   1.867
 1190SOL     OW 4468   4.658   5.063   2.400
 1190SOL    HW1 4469   4.609   5.031   2.480
 1190SOL    HW2 4470   4.745   5.014   2.391
 1191SOL     OW 4471   3.383   5.971   6.682
 1191SOL    HW1 4472   3.303   5.962   6.742
 1191SOL    HW2 4473   3.367   5.918   6.598
 1192SOL     OW 4474   5.524   5.331   3.107
 1192SOL    HW1 4475   5.453   5.363   3.044
 1192SOL    HW2 4476   5.486   5.325   3.199
 1193SOL     OW 4477   5.008   0.535   3.949
 1193SOL    HW1 4478   4.983   0.508   4.042
 1193SOL    HW2 4479   4.983   0.630   3.933
 1194SOL     OW 4480   5.974   0.230   0.540
 1194SOL    HW1 4481   6.010   0.310   0.587
 1194SOL    HW2 4482   6.044   0.158   0.538
 1195SOL     OW 4483   5.342   0.662   6.364
 1195SOL    HW1 4484   5.342   0.731   6.291
 1195SOL    HW2 4485   5.314   0.705   6.450
 1196SOL     OW 4486   0.364   5.376   2.660
 1196SOL    HW1 4487   0.295   5.318   2.704
 1196SOL    HW2 4488   0.320   5.456   2.620
 1197SOL     OW 4489   3.916   5.666   5.886
 1197SOL    HW1 4490   3.868   5.578   5.891
 1197SOL    HW2 4491   3.887   5.724   5.963
 1198SOL     OW 4492   3.058   2.180   2.667
 1198SOL    HW1 4493   3.147   2.197   2.625
 1198SOL    HW2 4494   2.987   2.179   2.596
 1199SOL     OW 4495   4.232   3.981   1.761
 1199SOL    HW1 4496   4.270   4.061   1.806
 1199SOL    HW2 4497   4.250   3.986   1.662
 1200SOL     OW 4498   4.106   4.086   0.060
 1200SOL    HW1 4499   4.114   4.030   7.001
 1200SOL    HW2 4500   4.194   4.129   0.080
 1201SOL     OW 4501   1.375   1.021   5.056
 1201SOL    HW1 4502   1.351   0.928   5.083
 1201SOL    HW2 4503   1.347   1.037   4.962
 1202SOL     OW 4504   6.095   0.333   5.003
 1202SOL    HW1 4505   6.192   0.353   5.011
 1202SOL    HW2 4506   6.061   0.296   5.089
 1203SOL     OW 4507   5.485   0.041   0.913
 1203SOL    HW1 4508   5.442   0.040   1.004
 1203SOL    HW2 4509   5.525   6.974   0.895
 1204SOL     OW 4510   3.494   0.772   0.714
 1204SOL    HW1 4511   3.437   0.736   0.640
 1204SOL    HW2 4512   3.485   0.872   0.718
 1205SOL     OW 4513   6.412   2.663   4.947
 1205SOL    HW1 4514   6.424   2.762   4.948
 1205SOL    HW2 4515   6.494   2.620   4.909
 1206SOL     OW 4516   2.017   1.831   4.739
 1206SOL    HW1 4517   1.933   1.816   4.791
 1206SOL    HW2 4518   2.070   1.746   4.734
 1207SOL     OW 4519   5.907   0.033   6.611
 1207SOL    HW1 4520   5.974   0.104   6.635
 1207SOL    HW2 4521   5.815   0.071   6.619
 1208SOL     OW 4522   3.483   3.533   2.985
 1208SOL    HW1 4523   3.561   3.472   2.999
 1208SOL    HW2 4524   3.417   3.521   3.060
 1209SOL     OW 4525   5.323   5.249   4.411
 1209SOL    HW1 4526   5.316   5.216   4.505
 1209SOL    HW2 4527   5.346   5.173   4.350
 1210SOL     OW 4528   3.831   7.005   2.131
 1210SOL    HW1 4529   3.853   0.069   2.174
 1210SOL    HW2 4530   3.740   6.974   2.161
 1211SOL     OW 4531   0.586   4.502   5.028
 1211SOL    HW1 4532   0.650   4.578   5.029
 1211SOL    HW2 4533   0.630   4.421   4.988
 1212SOL     OW 4534   1.800   3.743   5.154
 1212SOL    HW1 4535   1.746   3.697   5.225
 1212SOL    HW2 4536   1.829   3.833   5.187
 1213SOL     OW 4537   6.070   2.179   5.460
 1213SOL    HW1 4538   5.975   2.148   5.459
 1213SOL    HW2 4539   6.080   2.258   5.399
 1214SOL     OW 4540   2.144   3.740   3.593
 1214SOL    HW1 4541   2.168   3.712   3.499
 1214SOL    HW2 4542   2.101   3.829   3.591
 1215SOL     OW 4543   0.988   4.797   1.787
 1215SOL    HW1 4544   1.059   4.811   1.718
 1215SOL    HW2 4545   0.998   4.707   1.829
 1216SOL     OW 4546   2.008   0.066   2.290
 1216SOL    HW1 4547   2.104   0.041   2.279
 1216SOL    HW2 4548   1.988   0.078   2.387
 1217SOL     OW 4549   1.152   6.478   1.892
 1217SOL    HW1 4550   1.228   6.414   1.894
 1217SOL    HW2 4551   1.187   6.572   1.889
 1218SOL     OW 4552   0.535   3.861   3.939
 1218SOL    HW1 4553   0.553   3.796   4.012
 1218SOL    HW2 4554   0.582   3.832   3.856
 1219SOL     OW 4555   3.806   6.198   1.665
 1219SOL    HW1 4556   3.744   6.249   1.605
 1219SOL    HW2 4557   3.900   6.228   1.648
 1220SOL     OW 4558   5.956   3.719   3.745
 1220SOL    HW1 4559   6.030   3.654   3.759
 1220SOL    HW2 4560   5.994   3.811   3.732
 1221SOL     OW 4561   4.977   3.612   0.067
 1221SOL    HW1 4562   4.926   3.643   0.147
 1221SOL    HW2 4563   5.060   3.565   0.096
 1222SOL     OW 4564   6.900   6.396   1.250
 1222SOL    HW1 4565   6.943   6.308   1.270
 1222SOL    HW2 4566   6.818   6.407   1.306
 1223SOL     OW 4567   5.938   6.705   6.445
 1223SOL    HW1 4568   6.023   6.666   6.408
 1223SOL    HW2 4569   5.914   6.787   6.393
 1224SOL     OW 4570   4.824   5.196   1.590
 1224SOL    HW1 4571   4.869   5.157   1.670
 1224SOL    HW2 4572   4.754   5.261   1.619
 1225SOL     OW 4573   4.728   2.447   0.455
 1225SOL    HW1 4574   4.817   2.460   0.499
 1225SOL    HW2 4575   4.741   2.416   0.361
 1226SOL     OW 4576   5.397   5.876   1.125
 1226SOL    HW1 4577   5.486   5.911   1.156
 1226SOL    HW2 4578   5.408   5.784   1.088
 1227SOL     OW 4579   5.911   3.816   5.552
 1227SOL    HW1 4580   5.879   3.889   5.491
 1227SOL    HW2 4581   5.996   3.844   5.596
 1228SOL     OW 4582   4.037   3.659   3.015
 1228SOL    HW1 4583   4.088   3.737   2.977
 1228SOL    HW2 4584   4.048   3.658   3.114
 1229SOL     OW 4585   2.410   5.630   3.058
 1229SOL    HW1 4586   2.413   5.614   2.959
 1229SOL    HW2 4587   2.405   5.542   3.105
 1230SOL     OW 4588   5.154   4.874   1.376
 1230SOL    HW1 4589   5.091   4.952   1.381
 1230SOL    HW2 4590   5.104   4.790   1.392
 1231SOL     OW 4591   1.668   2.391   6.690
 1231SOL    HW1 4592   1.632   2.483   6.705
 1231SOL    HW2 4593   1.621   2.349   6.612
 1232SOL     OW 4594   3.031   0.611   5.787
 1232SOL    HW1 4595   3.073   0.617   5.877
 1232SOL    HW2 4596   3.079   0.673   5.724
 1233SOL     OW 4597   0.147   6.014   5.006
 1233SOL    HW1 4598   0.139   5.929   4.954
 1233SOL    HW2 4599   0.058   6.042   5.041
 1234SOL     OW 4600   6.719   3.299   0.148
 1234SOL    HW1 4601   6.697   3.223   0.087
 1234SOL    HW2 4602   6.789   3.356   0.106
 1235SOL     OW 4603   6.408   5.482   0.299
 1235SOL    HW1 4604   6.382   5.408   0.361
 1235SOL    HW2 4605   6.394   5.570   0.344
 1236SOL     OW 4606   1.249   1.715   2.014
 1236SOL    HW1 4607   1.194   1.788   2.055
 1236SOL    HW2 4608   1.329   1.698   2.071
 1237SOL     OW 4609   1.053   6.797   4.583
 1237SOL    HW1 4610   1.132   6.742   4.610
 1237SOL    HW2 4611   1.008   6.833   4.665
 1238SOL     OW 4612   6.915   0.768   4.302
 1238SOL    HW1 4613   6.926   0.674   4.333
 1238SOL    HW2 4614   6.840   0.811   4.353
 1239SOL     OW 4615   6.338   4.956   4.564
 1239SOL    HW1 4616   6.396   4.917   4.636
 1239SOL    HW2 4617   6.387   4.954   4.477
 1240SOL     OW 4618   6.121   4.471   3.783
 1240SOL    HW1 4619   6.048   4.508   3.841
 1240SOL    HW2 4620   6.147   4.540   3.715
 1241SOL     OW 4621   5.132   4.830   4.927
 1241SOL    HW1 4622   5.054   4.811   4.986
 1241SOL    HW2 4623   5.198   4.755   4.933
 1242SOL     OW 4624   1.200   4.809   6.933
 1242SOL    HW1 4625   1.205   4.739   7.003
 1242SOL    HW2 4626   1.255   4.782   6.853
 1243SOL     OW 4627   0.640   4.708   4.585
 1243SOL    HW1 4628   0.542   4.702   4.562
 1243SOL    HW2 4629   0.693   4.656   4.518
 1244SOL     OW 4630   4.869   0.088   4.851
 1244SOL    HW1 4631   4.905   0.070   4.760
 1244SOL    HW2 4632   4.835   0.003   4.891
 1245SOL     OW 4633   5.051   6.560   1.512
 1245SOL    HW1 4634   5.016   6.652   1.532
 1245SOL    HW2 4635   4.987   6.492   1.546
 1246SOL     OW 4636   4.618   1.735   0.455
 1246SOL    HW1 4637   4.664   1.772   0.535
 1246SOL    HW2 4638   4.646   1.787   0.374
 1247SOL     OW 4639   6.799   6.792   3.654
 1247SOL    HW1 4640   6.746   6.730   3.596
 1247SOL    HW2 4641   6.820   6.746   3.741
 1248SOL     OW 4642   1.332   6.793   4.659
 1248SOL    HW1 4643   1.321   6.868   4.723
 1248SOL    HW2 4644   1.373   6.827   4.574
 1249SOL     OW 4645   5.618   4.620   6.855
 1249SOL    HW1 4646   5.543   4.671   6.813
 1249SOL    HW2 4647   5.702   4.674   6.851
 1250SOL     OW 4648   6.655   3.094   4.934
 1250SOL    HW1 4649   6.701   3.048   4.858
 1250SOL    HW2 4650   6.600   3.170   4.898
 1251SOL     OW 4651   2.919   0.555   2.893
 1251SOL    HW1 4652   3.009   0.544   2.850
 1251SOL    HW2 4653   2.914   0.643   2.940
 1252SOL     OW 4654   1.454   5.388   7.017
 1252SOL    HW1 4655   1.384   5.429   0.052
 1252SOL    HW2 4656   1.411   5.322   6.955
 1253SOL     OW 4657   3.471   1.042   0.800
 1253SOL    HW1 4658   3.491   1.118   0.737
 1253SOL    HW2 4659   3.376   1.048   0.830
 1254SOL     OW 4660   6.616   1.050   1.600
 1254SOL    HW1 4661   6.667   0.976   1.644
 1254SOL    HW2 4662   6.590   1.021   1.507
 1255SOL     OW 4663   5.577   1.565   5.231
 1255SOL    HW1 4664   5.604   1.476   5.267
 1255SOL    HW2 4665   5.525   1.553   5.146
 1256SOL     OW 4666   0.907   5.952   4.694
 1256SOL    HW1 4667   0.829   6.008   4.665
 1256SOL    HW2 4668   0.903   5.863   4.648
 1257SOL     OW 4669   0.187   5.520   4.051
 1257SOL    HW1 4670   0.234   5.517   4.139
 1257SOL    HW2 4671   0.090   5.497   4.064
 1258SOL     OW 4672   3.522   6.040   4.574
 1258SOL    HW1 4673   3.612   6.068   4.541
 1258SOL    HW2 4674   3.493   6.103   4.647
 1259SOL     OW 4675   5.585   0.539   4.060
 1259SOL    HW1 4676   5.679   0.511   4.080
 1259SOL    HW2 4677   5.540   0.467   4.007
 1260SOL     OW 4678   2.003   0.888   2.177
 1260SOL    HW1 4679   1.911   0.892   2.138
 1260SOL    HW2 4680   2.044   0.979   2.176
 1261SOL     OW 4681   6.398   4.418   6.343
 1261SOL    HW1 4682   6.493   4.447   6.351
 1261SOL    HW2 4683   6.371   4.369   6.426
 1262SOL     OW 4684   4.851   5.245   0.100
 1262SOL    HW1 4685   4.916   5.197   0.041
 1262SOL    HW2 4686   4.770   5.187   0.114
 1263SOL     OW 4687   0.397   2.279   1.858
 1263SOL    HW1 4688   0.421   2.304   1.952
 1263SOL    HW2 4689   0.360   2.359   1.810
 1264SOL     OW 4690   0.245   3.500   3.720
 1264SOL    HW1 4691   0.322   3.553   3.684
 1264SOL    HW2 4692   0.269   3.403   3.720
 1265SOL     OW 4693   6.816   4.298   5.580
 1265SOL    HW1 4694   6.847   4.210   5.616
 1265SOL    HW2 4695   6.891   4.343   5.532
 1266SOL     OW 4696   3.087   1.518   5.127
 1266SOL    HW1 4697   3.125   1.569   5.050
 1266SOL    HW2 4698   3.059   1.582   5.199
 1267SOL     OW 4699   0.141   5.061   2.883
 1267SOL    HW1 4700   0.233   5.024   2.869
 1267SOL    HW2 4701   0.077   4.987   2.903
 1268SOL     OW 4702   5.528   2.603   0.282
 1268SOL    HW1 4703   5.510   2.540   0.358
 1268SOL    HW2 4704   5.450   2.665   0.271
 1269SOL     OW 4705   6.710   5.373   5.623
 1269SOL    HW1 4706   6.770   5.446   5.657
 1269SOL    HW2 4707   6.764   5.310   5.567
 1270SOL     OW 4708   1.884   3.338   4.850
 1270SOL    HW1 4709   1.890   3.388   4.936
 1270SOL    HW2 4710   1.826   3.257   4.862
 1271SOL     OW 4711   3.571   1.514   3.006
 1271SOL    HW1 4712   3.545   1.520   2.909
 1271SOL    HW2 4713   3.491   1.532   3.063
 1272SOL     OW 4714   0.104   5.458   1.320
 1272SOL    HW1 4715   0.067   5.486   1.231
 1272SOL    HW2 4716   0.197   5.492   1.329
 1273SOL     OW 4717   2.944   5.780   6.565
 1273SOL    HW1 4718   2.861   5.818   6.606
 1273SOL    HW2 4719   2.940   5.680   6.566
 1274SOL     OW 4720   6.688   2.605   2.068
 1274SOL    HW1 4721   6.783   2.639   2.073
 1274SOL    HW2 4722   6.681   2.537   1.995
 1275SOL     OW 4723   3.454   1.820   4.525
 1275SOL    HW1 4724   3.392   1.759   4.475
 1275SOL    HW2 4725   3.527   1.766   4.567
 1276SOL     OW 4726   0.616   0.048   2.385
 1276SOL    HW1 4727   0.535   0.040   2.443
 1276SOL    HW2 4728   0.665   0.132   2.407
 1277SOL     OW 4729   7.018   0.273   3.979
 1277SOL    HW1 4730   0.050   0.191   3.965
 1277SOL    HW2 4731   7.017   0.297   4.075
 1278SOL     OW 4732   2.066   1.806   5.806
 1278SOL    HW1 4733   2.129   1.884   5.806
 1278SOL    HW2 4734   2.087   1.746   5.883
 1279SOL     OW 4735   3.018   6.046   0.491
 1279SOL    HW1 4736   2.950   6.011   0.556
 1279SOL    HW2 4737   2.997   6.011   0.400
 1280SOL     OW 4738   2.796   7.015   3.317
 1280SOL    HW1 4739   2.861   6.960   3.369
 1280SOL    HW2 4740   2.750   6.958   3.249
 1281SOL     OW 4741   1.211   6.145   2.999
 1281SOL    HW1 4742   1.235   6.089   2.920
 1281SOL    HW2 4743   1.293   6.164   3.052
 1282SOL     OW 4744   0.984   1.135   1.082
 1282SOL    HW1 4745   0.887   1.159   1.094
 1282SOL    HW2 4746   1.038   1.219   1.072
 1283SOL     OW 4747   5.598   5.366   4.943
 1283SOL    HW1 4748   5.546   5.415   5.012
 1283SOL    HW2 4749   5.599   5.418   4.857
 1284SOL     OW 4750   2.995   2.601   1.688
 1284SOL    HW1 4751   2.959   2.689   1.717
 1284SOL    HW2 4752   2.967   2.531   1.754
 1285SOL     OW 4753   4.792   2.971   5.495
 1285SOL    HW1 4754   4.850   2.945   5.573
 1285SOL    HW2 4755   4.834   2.938   5.411
 1286SOL     OW 4756   5.271   4.111   1.771
 1286SOL    HW1 4757   5.210   4.125   1.849
 1286SOL    HW2 4758   5.231   4.153   1.689
 1287SOL     OW 4759   6.836   6.093   6.654
 1287SOL    HW1 4760   6.892   6.010   6.650
 1287SOL    HW2 4761   6.742   6.068   6.676
 1288SOL     OW 4762   0.066   3.350   0.636
 1288SOL    HW1 4763   0.026   3.438   0.662
 1288SOL    HW2 4764   0.147   3.365   0.580
 1289SOL     OW 4765   6.911   6.238   2.458
 1289SOL    HW1 4766   6.927   6.274   2.366
 1289SOL    HW2 4767   6.813   6.239   2.477
 1290SOL     OW 4768   0.631   6.568   0.242
 1290SOL    HW1 4769   0.725   6.566   0.275
 1290SOL    HW2 4770   0.619   6.645   0.179
 1291SOL     OW 4771   1.452   6.057   0.027
 1291SOL    HW1 4772   1.482   5.976   7.000
 1291SOL    HW2 4773   1.365   6.038   0.072
 1292SOL     OW 4774   0.538   4.833   1.102
 1292SOL    HW1 4775   0.452   4.869   1.067
 1292SOL    HW2 4776   0.579   4.900   1.165
 1293SOL     OW 4777   0.455   2.014   6.660
 1293SOL    HW1 4778   0.519   1.984   6.589
 1293SOL    HW2 4779   0.428   2.109   6.641
 1294SOL     OW 4780   6.932   2.700   2.105
 1294SOL    HW1 4781   6.947   2.770   2.035
 1294SOL    HW2 4782   7.014   2.643   2.113
 1295SOL     OW 4783   5.264   2.687   1.961
 1295SOL    HW1 4784   5.251   2.598   2.004
 1295SOL    HW2 4785   5.196   2.751   1.995
 1296SOL     OW 4786   3.144   1.850   6.633
 1296SOL    HW1 4787   3.196   1.929   6.666
 1296SOL    HW2 4788   3.205   1.788   6.584
 1297SOL     OW 4789   6.770   1.453   5.196
 1297SOL    HW1 4790   6.801   1.425   5.105
 1297SOL    HW2 4791   6.767   1.553   5.201
 1298SOL     OW 4792   6.158   2.875   2.775
 1298SOL    HW1 4793   6.217   2.951   2.803
 1298SOL    HW2 4794   6.204   2.788   2.794
 1299SOL     OW 4795   1.402   4.129   4.421
 1299SOL    HW1 4796   1.491   4.126   4.376
 1299SOL    HW2 4797   1.413   4.105   4.518
 1300SOL     OW 4798   3.428   2.873   2.218
 1300SOL    HW1 4799   3.415   2.784   2.175
 1300SOL    HW2 4800   3.519   2.876   2.260
 1301SOL     OW 4801   0.871   6.580   4.027
 1301SOL    HW1 4802   0.924   6.556   3.945
 1301SOL    HW2 4803   0.773   6.577   4.005
 1302SOL     OW 4804   2.380   6.742   4.956
 1302SOL    HW1 4805   2.396   6.775   4.863
 1302SOL    HW2 4806   2.467   6.739   5.006
 1303SOL     OW 4807   3.465   1.506   0.962
 1303SOL    HW1 4808   3.469   1.517   0.863
 1303SOL    HW2 4809   3.549   1.462   0.995
 1304SOL     OW 4810   1.755   0.238   6.267
 1304SOL    HW1 4811   1.676   0.293   6.239
 1304SOL    HW2 4812   1.803   0.283   6.342
 1305SOL     OW 4813   4.335   0.246   4.539
 1305SOL    HW1 4814   4.375   0.288   4.621
 1305SOL    HW2 4815   4.407   0.211   4.480
 1306SOL     OW 4816   0.654   4.424   4.177
 1306SOL    HW1 4817   0.686   4.351   4.116
 1306SOL    HW2 4818   0.585   4.388   4.239
 1307SOL     OW 4819   1.123   3.058   4.417
 1307SOL    HW1 4820   1.127   3.151   4.379
 1307SOL    HW2 4821   1.215   3.019   4.418
 1308SOL     OW 4822   4.375   6.114   4.126
 1308SOL    HW1 4823   4.302   6.148   4.185
 1308SOL    HW2 4824   4.351   6.023   4.091
 1309SOL     OW 4825   6.123   2.426   4.645
 1309SOL    HW1 4826   6.219   2.412   4.669
 1309SOL    HW2 4827   6.115   2.445   4.548
 1310SOL     OW 4828   5.710   3.848   4.284
 1310SOL    HW1 4829   5.742   3.786   4.355
 1310SOL    HW2 4830   5.657   3.797   4.217
 1311SOL     OW 4831   6.165   6.735   5.153
 1311SOL    HW1 4832   6.227   6.731   5.074
 1311SOL    HW2 4833   6.093   6.666   5.142
 1312SOL     OW 4834   0.452   0.187   0.539
 1312SOL    HW1 4835   0.427   0.213   0.446
 1312SOL    HW2 4836   0.549   0.202   0.553
 1313SOL     OW 4837   3.039   5.172   4.882
 1313SOL    HW1 4838   2.944   5.197   4.866
 1313SOL    HW2 4839   3.095   5.201   4.804
 1314SOL     OW 4840   1.052   1.479   5.430
 1314SOL    HW1 4841   1.029   1.492   5.334
 1314SOL    HW2 4842   1.084   1.566   5.468
 1315SOL     OW 4843   2.139   1.689   1.784
 1315SOL    HW1 4844   2.162   1.592   1.782
 1315SOL    HW2 4845   2.178   1.735   1.705
 1316SOL     OW 4846   2.743   6.794   4.014
 1316SOL    HW1 4847   2.740   6.774   3.917
 1316SOL    HW2 4848   2.653   6.827   4.045
 1317SOL     OW 4849   6.898   5.084   4.509
 1317SOL    HW1 4850   6.806   5.122   4.518
 1317SOL    HW2 4851   6.958   5.152   4.466
 1318SOL     OW 4852   0.331   6.914   0.277
 1318SOL    HW1 4853   0.337   7.000   0.227
 1318SOL    HW2 4854   0.241   6.872   0.260
 1319SOL     OW 4855   6.279   1.392   0.223
 1319SOL    HW1 4856   6.332   1.397   0.139
 1319SOL    HW2 4857   6.296   1.304   0.268
 1320SOL     OW 4858   5.951   4.584   6.048
 1320SOL    HW1 4859   5.954   4.679   6.079
 1320SOL    HW2 4860   5.889   4.532   6.107
 1321SOL     OW 4861   3.774   2.405   0.293
 1321SOL    HW1 4862   3.823   2.377   0.210
 1321SOL    HW2 4863   3.838   2.409   0.369
 1322SOL     OW 4864   6.626   1.212   3.721
 1322SOL    HW1 4865   6.680   1.189   3.802
 1322SOL    HW2 4866   6.569   1.292   3.741
 1323SOL     OW 4867   0.665   1.796   5.024
 1323SOL    HW1 4868   0.580   1.829   4.982
 1323SOL    HW2 4869   0.699   1.865   5.088
 1324SOL     OW 4870   1.453   3.140   1.782
 1324SOL    HW1 4871   1.460   3.100   1.873
 1324SOL    HW2 4872   1.396   3.222   1.785
 1325SOL     OW 4873   2.848   6.276   3.514
 1325SOL    HW1 4874   2.794   6.257   3.432
 1325SOL    HW2 4875   2.793   6.327   3.580
 1326SOL     OW 4876   5.536   3.003   4.112
 1326SOL    HW1 4877   5.468   3.065   4.153
 1326SOL    HW2 4878   5.521   2.911   4.146
 1327SOL     OW 4879   3.715   4.884   3.321
 1327SOL    HW1 4880   3.705   4.940   3.238
 1327SOL    HW2 4881   3.808   4.850   3.327
 1328SOL     OW 4882   1.452   1.710   0.065
 1328SOL    HW1 4883   1.359   1.678   0.085
 1328SOL    HW2 4884   1.518   1.653   0.114
 1329SOL     OW 4885   0.750   0.894   0.809
 1329SOL    HW1 4886   0.831   0.949   0.831
 1329SOL    HW2 4887   0.759   0.857   0.716
 1330SOL     OW 4888   6.578   0.310   0.931
 1330SOL    HW1 4889   6.619   0.249   0.863
 1330SOL    HW2 4890   6.550   0.257   1.011
 1331SOL     OW 4891   5.916   0.254   2.027
 1331SOL    HW1 4892   5.850   0.192   1.984
 1331SOL    HW2 4893   5.868   0.335   2.061
 1332SOL     OW 4894   4.549   0.952   1.363
 1332SOL    HW1 4895   4.575   1.020   1.294
 1332SOL    HW2 4896   4.500   0.997   1.437
 1333SOL     OW 4897   3.928   3.771   4.978
 1333SOL    HW1 4898   4.011   3.718   4.960
 1333SOL    HW2 4899   3.929   3.854   4.922
 1334SOL     OW 4900   0.815   3.821   5.534
 1334SOL    HW1 4901   0.753   3.742   5.530
 1334SOL    HW2 4902   0.823   3.862   5.443
 1335SOL     OW 4903   2.105   5.591   2.924
 1335SOL    HW1 4904   2.198   5.569   2.895
 1335SOL    HW2 4905   2.108   5.639   3.012
 1336SOL     OW 4906   0.745   1.082   5.467
 1336SOL    HW1 4907   0.654   1.047   5.444
 1336SOL    HW2 4908   0.739   1.181   5.480
 1337SOL     OW 4909   1.720   2.473   6.237
 1337SOL    HW1 4910   1.764   2.487   6.148
 1337SOL    HW2 4911   1.768   2.526   6.307
 1338SOL     OW 4912   4.359   5.045   6.431
 1338SOL    HW1 4913   4.446   5.024   6.386
 1338SOL    HW2 4914   4.285   4.994   6.387
 1339SOL     OW 4915   6.915   4.065   5.742
 1339SOL    HW1 4916   6.996   4.026   5.785
 1339SOL    HW2 4917   6.838   4.061   5.807
 1340SOL     OW 4918   1.439   2.165   0.185
 1340SOL    HW1 4919   1.353   2.215   0.190
 1340SOL    HW2 4920   1.435   2.100   0.109
 1341SOL     OW 4921   3.088   1.381   3.750
 1341SOL    HW1 4922   3.157   1.333   3.695
 1341SOL    HW2 4923   3.005   1.325   3.755
 1342SOL     OW 4924   0.651   6.160   0.308
 1342SOL    HW1 4925   0.701   6.218   0.244
 1342SOL    HW2 4926   0.712   6.134   0.383
 1343SOL     OW 4927   3.816   6.078   2.878
 1343SOL    HW1 4928   3.783   6.024   2.955
 1343SOL    HW2 4929   3.826   6.173   2.905
 1344SOL     OW 4930   6.370   0.841   2.434
 1344SOL    HW1 4931   6.314   0.760   2.419
 1344SOL    HW2 4932   6.312   0.923   2.433
 1345SOL     OW 4933   0.760   0.614   2.512
 1345SOL    HW1 4934   0.850   0.642   2.547
 1345SOL    HW2 4935   0.710   0.565   2.583
 1346SOL     OW 4936   6.652   0.080   3.632
 1346SOL    HW1 4937   6.740   0.079   3.678
 1346SOL    HW2 4938   6.662   0.122   3.541
 1347SOL     OW 4939   6.234   6.202   3.323
 1347SOL    HW1 4940   6.219   6.290   3.369
 1347SOL    HW2 4941   6.149   6.169   3.284
 1348SOL     OW 4942   5.881   4.406   4.210
 1348SOL    HW1 4943   5.843   4.466   4.280
 1348SOL    HW2 4944   5.826   4.414   4.126
 1349SOL     OW 4945   3.713   2.644   6.965
 1349SOL    HW1 4946   3.638   2.581   6.986
 1349SOL    HW2 4947   3.756   2.674   0.027
 1350SOL     OW 4948   2.826   0.291   6.781
 1350SOL    HW1 4949   2.864   0.360   6.842
 1350SOL    HW2 4950   2.819   0.204   6.829
 1351SOL     OW 4951   7.009   1.305   3.471
 1351SOL    HW1 4952   6.922   1.271   3.507
 1351SOL    HW2 4953   7.012   1.405   3.478
 1352SOL     OW 4954   0.332   1.009   2.549
 1352SOL    HW1 4955   0.300   0.935   2.488
 1352SOL    HW2 4956   0.367   0.969   2.634
 1353SOL     OW 4957   0.714   4.298   4.865
 1353SOL    HW1 4958   0.807   4.270   4.889
 1353SOL    HW2 4959   0.714   4.340   4.774
 1354SOL     OW 4960   0.370   0.244   1.754
 1354SOL    HW1 4961   0.431   0.167   1.736
 1354SOL    HW2 4962   0.279   0.210   1.778
 1355SOL     OW 4963   5.003   3.355   6.572
 1355SOL    HW1 4964   5.080   3.306   6.530
 1355SOL    HW2 4965   5.038   3.431   6.626
 1356SOL     OW 4966   3.459   3.508   2.590
 1356SOL    HW1 4967   3.359   3.508   2.589
 1356SOL    HW2 4968   3.490   3.460   2.672
 1357SOL     OW 4969   2.745   2.842   5.895
 1357SOL    HW1 4970   2.676   2.881   5.834
 1357SOL    HW2 4971   2.797   2.916   5.938
 1358SOL     OW 4972   2.268   2.790   6.520
 1358SOL    HW1 4973   2.245   2.771   6.616
 1358SOL    HW2 4974   2.243   2.712   6.463
 1359SOL     OW 4975   6.366   2.657   0.245
 1359SOL    HW1 4976   6.385   2.559   0.255
 1359SOL    HW2 4977   6.284   2.670   0.189
 1360SOL     OW 4978   3.394   3.969   3.470
 1360SOL    HW1 4979   3.383   3.905   3.545
 1360SOL    HW2 4980   3.304   3.997   3.436
 1361SOL     OW 4981   0.798   6.070   6.766
 1361SOL    HW1 4982   0.790   5.991   6.705
 1361SOL    HW2 4983   0.863   6.049   6.840
 1362SOL     OW 4984   2.919   3.347   6.096
 1362SOL    HW1 4985   2.894   3.273   6.033
 1362SOL    HW2 4986   2.879   3.328   6.186
 1363SOL     OW 4987   6.264   5.588   2.357
 1363SOL    HW1 4988   6.326   5.518   2.391
 1363SOL    HW2 4989   6.173   5.549   2.344
 1364SOL     OW 4990   6.905   3.286   1.061
 1364SOL    HW1 4991   6.999   3.319   1.062
 1364SOL    HW2 4992   6.904   3.187   1.077
 1365SOL     OW 4993   0.413   3.621   6.721
 1365SOL    HW1 4994   0.344   3.618   6.647
 1365SOL    HW2 4995   0.474   3.698   6.705
 1366SOL     OW 4996   0.066   1.693   0.360
 1366SOL    HW1 4997   7.011   1.752   0.338
 1366SOL    HW2 4998   0.060   1.610   0.304
 1367SOL     OW 4999   0.134   5.859   4.113
 1367SOL    HW1 5000   0.072   5.932   4.142
 1367SOL    HW2 5001   0.131   5.849   4.014
 1368SOL     OW 5002   6.788   6.879   4.096
 1368SOL    HW1 5003   6.688   6.884   4.096
 1368SOL    HW2 5004   6.818   6.825   4.018
 1369SOL     OW 5005   3.016   6.303   2.624
 1369SOL    HW1 5006   2.968   6.216   2.635
 1369SOL    HW2 5007   2.997   6.362   2.702
 1370SOL     OW 5008   6.775   2.337   3.219
 1370SOL    HW1 5009   6.805   2.257   3.167
 1370SOL    HW2 5010   6.850   2.402   3.226
 1371SOL     OW 5011   5.758   1.647   4.953
 1371SOL    HW1 5012   5.743   1.549   4.964
 1371SOL    HW2 5013   5.808   1.663   4.868
 1372SOL     OW 5014   6.372   2.693   6.871
 1372SOL    HW1 5015   6.470   2.690   6.892
 1372SOL    HW2 5016   6.355   2.654   6.781
 1373SOL     OW 5017   4.654   2.695   2.119
 1373SOL    HW1 5018   4.693   2.785   2.099
 1373SOL    HW2 5019   4.561   2.691   2.082
 1374SOL     OW 5020   5.357   4.535   0.214
 1374SOL    HW1 5021   5.431   4.556   0.150
 1374SOL    HW2 5022   5.321   4.444   0.193
 1375SOL     OW 5023   5.785   5.897   4.870
 1375SOL    HW1 5024   5.830   5.952   4.799
 1375SOL    HW2 5025   5.807   5.936   4.960
 1376SOL     OW 5026   2.325   4.933   6.889
 1376SOL    HW1 5027   2.325   5.030   6.865
 1376SOL    HW2 5028   2.319   4.923   6.988
 1377SOL     OW 5029   1.566   2.126   2.937
 1377SOL    HW1 5030   1.481   2.075   2.927
 1377SOL    HW2 5031   1.551   2.207   2.994
 1378SOL     OW 5032   4.483   2.176   4.452
 1378SOL    HW1 5033   4.580   2.196   4.459
 1378SOL    HW2 5034   4.461   2.096   4.508
 1379SOL     OW 5035   5.626   5.235   1.040
 1379SOL    HW1 5036   5.634   5.169   1.115
 1379SOL    HW2 5037   5.715   5.249   0.998
 1380SOL     OW 5038   6.735   5.778   1.027
 1380SOL    HW1 5039   6.736   5.743   1.121
 1380SOL    HW2 5040   6.820   5.750   0.981
 1381SOL     OW 5041   6.205   2.213   5.878
 1381SOL    HW1 5042   6.252   2.152   5.942
 1381SOL    HW2 5043   6.107   2.214   5.899
 1382SOL     OW 5044   4.278   2.817   1.455
 1382SOL    HW1 5045   4.190   2.864   1.443
 1382SOL    HW2 5046   4.308   2.827   1.550
 1383SOL     OW 5047   1.089   0.712   1.853
 1383SOL    HW1 5048   1.101   0.776   1.777
 1383SOL    HW2 5049   1.179   0.677   1.881
 1384SOL     OW 5050   5.524   0.226   0.697
 1384SOL    HW1 5051   5.531   0.174   0.782
 1384SOL    HW2 5052   5.516   0.162   0.620
 1385SOL     OW 5053   1.772   5.429   2.695
 1385SOL    HW1 5054   1.858   5.407   2.648
 1385SOL    HW2 5055   1.731   5.346   2.731
 1386SOL     OW 5056   2.712   6.089   4.001
 1386SOL    HW1 5057   2.722   6.001   3.955
 1386SOL    HW2 5058   2.795   6.109   4.053
 1387SOL     OW 5059   4.149   6.114   1.635
 1387SOL    HW1 5060   4.241   6.082   1.616
 1387SOL    HW2 5061   4.125   6.188   1.572
 1388SOL     OW 5062   6.673   0.185   1.472
 1388SOL    HW1 5063   6.594   0.168   1.532
 1388SOL    HW2 5064   6.707   0.277   1.487
 1389SOL     OW 5065   6.895   0.975   3.081
 1389SOL    HW1 5066   6.990   0.990   3.107
 1389SOL    HW2 5067   6.836   1.035   3.136
 1390SOL     OW 5068   0.591   2.900   5.597
 1390SOL    HW1 5069   0.638   2.986   5.618
 1390SOL    HW2 5070   0.580   2.891   5.498
 1391SOL     OW 5071   6.753   1.721   3.636
 1391SOL    HW1 5072   6.791   1.636   3.674
 1391SOL    HW2 5073   6.814   1.756   3.565
 1392SOL     OW 5074   5.047   5.299   5.173
 1392SOL    HW1 5075   5.084   5.369   5.234
 1392SOL    HW2 5076   4.953   5.322   5.149
 1393SOL     OW 5077   4.945   6.620   5.986
 1393SOL    HW1 5078   4.847   6.600   5.997
 1393SOL    HW2 5079   4.998   6.540   6.013
 1394SOL     OW 5080   2.890   5.971   5.620
 1394SOL    HW1 5081   2.832   5.891   5.607
 1394SOL    HW2 5082   2.835   6.048   5.652
 1395SOL     OW 5083   3.029   4.528   5.857
 1395SOL    HW1 5084   3.048   4.573   5.944
 1395SOL    HW2 5085   3.063   4.434   5.860
 1396SOL     OW 5086   6.444   6.598   4.360
 1396SOL    HW1 5087   6.419   6.688   4.324
 1396SOL    HW2 5088   6.540   6.598   4.387
 1397SOL     OW 5089   6.074   0.342   4.537
 1397SOL    HW1 5090   6.045   0.384   4.451
 1397SOL    HW2 5091   6.040   0.397   4.613
 1398SOL     OW 5092   1.355   1.063   4.776
 1398SOL    HW1 5093   1.279   1.065   4.710
 1398SOL    HW2 5094   1.411   1.145   4.764
 1399SOL     OW 5095   3.010   6.122   1.213
 1399SOL    HW1 5096   3.022   6.155   1.307
 1399SOL    HW2 5097   3.087   6.061   1.190
 1400SOL     OW 5098   0.023   1.387   1.967
 1400SOL    HW1 5099   6.985   1.417   2.041
 1400SOL    HW2 5100   6.995   1.330   1.903
 1401SOL     OW 5101   0.609   2.033   5.225
 1401SOL    HW1 5102   0.573   1.984   5.305
 1401SOL    HW2 5103   0.699   2.071   5.248
 1402SOL     OW 5104   6.905   3.454   6.970
 1402SOL    HW1 5105   6.884   3.393   6.893
 1402SOL    HW2 5106   6.980   3.515   6.945
 1403SOL     OW 5107   2.792   0.266   1.844
 1403SOL    HW1 5108   2.866   0.332   1.852
 1403SOL    HW2 5109   2.778   0.221   1.933
 1404SOL     OW 5110   5.238   0.419   0.321
 1404SOL    HW1 5111   5.181   0.374   0.390
 1404SOL    HW2 5112   5.334   0.404   0.343
 1405SOL     OW 5113   1.833   3.877   1.448
 1405SOL    HW1 5114   1.821   3.960   1.394
 1405SOL    HW2 5115   1.929   3.850   1.448
 1406SOL     OW 5116   1.191   4.705   1.359
 1406SOL    HW1 5117   1.216   4.662   1.445
 1406SOL    HW2 5118   1.263   4.688   1.291
 1407SOL     OW 5119   6.266   1.311   2.196
 1407SOL    HW1 5120   6.214   1.349   2.120
 1407SOL    HW2 5121   6.281   1.214   2.182
 1408SOL     OW 5122   5.353   0.824   6.131
 1408SOL    HW1 5123   5.433   0.783   6.086
 1408SOL    HW2 5124   5.319   0.899   6.074
 1409SOL     OW 5125   0.051   0.570   4.425
 1409SOL    HW1 5126   0.093   0.482   4.445
 1409SOL    HW2 5127   0.008   0.607   4.507
 1410SOL     OW 5128   1.462   3.128   6.627
 1410SOL    HW1 5129   1.434   3.189   6.701
 1410SOL    HW2 5130   1.452   3.175   6.539
 1411SOL     OW 5131   2.048   6.507   2.972
 1411SOL    HW1 5132   2.095   6.593   2.994
 1411SOL    HW2 5133   2.025   6.505   2.875
 1412SOL     OW 5134   1.795   3.131   0.428
 1412SOL    HW1 5135   1.812   3.056   0.364
 1412SOL    HW2 5136   1.713   3.111   0.482
 1413SOL     OW 5137   2.264   0.663   4.430
 1413SOL    HW1 5138   2.285   0.740   4.370
 1413SOL    HW2 5139   2.201   0.693   4.502
 1414SOL     OW 5140   2.678   1.717   1.759
 1414SOL    HW1 5141   2.639   1.634   1.721
 1414SOL    HW2 5142   2.777   1.719   1.741
 1415SOL     OW 5143   2.860   6.301   4.587
 1415SOL    HW1 5144   2.776   6.349   4.562
 1415SOL    HW2 5145   2.904   6.268   4.504
 1416SOL     OW 5146   4.442   4.603   2.740
 1416SOL    HW1 5147   4.379   4.644   2.806
 1416SOL    HW2 5148   4.401   4.606   2.649
 1417SOL     OW 5149   2.783   2.303   6.629
 1417SOL    HW1 5150   2.857   2.367   6.647
 1417SOL    HW2 5151   2.804   2.214   6.670
 1418SOL     OW 5152   2.923   3.720   2.901
 1418SOL    HW1 5153   2.963   3.801   2.944
 1418SOL    HW2 5154   2.921   3.645   2.967
 1419SOL     OW 5155   2.644   6.927   4.636
 1419SOL    HW1 5156   2.565   6.871   4.662
 1419SOL    HW2 5157   2.720   6.908   4.697
 1420SOL     OW 5158   1.211   6.363   2.330
 1420SOL    HW1 5159   1.120   6.324   2.320
 1420SOL    HW2 5160   1.215   6.452   2.284
 1421SOL     OW 5161   1.939   2.680   3.245
 1421SOL    HW1 5162   2.017   2.633   3.204
 1421SOL    HW2 5163   1.966   2.719   3.333
 1422SOL     OW 5164   2.404   4.458   2.112
 1422SOL    HW1 5165   2.468   4.474   2.187
 1422SOL    HW2 5166   2.442   4.492   2.026
 1423SOL     OW 5167   5.907   6.199   1.642
 1423SOL    HW1 5168   5.937   6.276   1.698
 1423SOL    HW2 5169   5.823   6.223   1.593
 1424SOL     OW 5170   5.538   4.753   4.750
 1424SOL    HW1 5171   5.529   4.851   4.771
 1424SOL    HW2 5172   5.457   4.723   4.699
 1425SOL     OW 5173   1.464   6.097   4.071
 1425SOL    HW1 5174   1.489   6.087   4.167
 1425SOL    HW2 5175   1.364   6.100   4.062
 1426SOL     OW 5176   0.922   1.990   5.479
 1426SOL    HW1 5177   0.889   2.082   5.459
 1426SOL    HW2 5178   0.851   1.923   5.458
 1427SOL     OW 5179   6.994   0.302   3.177
 1427SOL    HW1 5180   7.014   0.207   3.200
 1427SOL    HW2 5181   6.902   0.308   3.138
 1428SOL     OW 5182   6.180   2.572   0.570
 1428SOL    HW1 5183   6.118   2.532   0.503
 1428SOL    HW2 5184   6.258   2.614   0.523
 1429SOL     OW 5185   6.319   1.530   0.447
 1429SOL    HW1 5186   6.302   1.497   0.354
 1429SOL    HW2 5187   6.321   1.452   0.510
 1430SOL     OW 5188   1.278   4.025   4.209
 1430SOL    HW1 5189   1.263   3.926   4.206
 1430SOL    HW2 5190   1.275   4.056   4.304
 1431SOL     OW 5191   2.205   1.829   1.536
 1431SOL    HW1 5192   2.217   1.914   1.587
 1431SOL    HW2 5193   2.276   1.821   1.466
 1432SOL     OW 5194   2.498   1.510   3.475
 1432SOL    HW1 5195   2.485   1.609   3.481
 1432SOL    HW2 5196   2.413   1.467   3.447
 1433SOL     OW 5197   4.220   0.931   3.624
 1433SOL    HW1 5198   4.256   0.851   3.577
 1433SOL    HW2 5199   4.156   0.902   3.695
 1434SOL     OW 5200   0.569   1.229   5.170
 1434SOL    HW1 5201   0.542   1.237   5.074
 1434SOL    HW2 5202   0.489   1.204   5.224
 1435SOL     OW 5203   5.982   1.261   2.261
 1435SOL    HW1 5204   5.929   1.332   2.308
 1435SOL    HW2 5205   6.076   1.293   2.248
 1436SOL     OW 5206   4.423   4.109   6.932
 1436SOL    HW1 5207   4.516   4.136   6.955
 1436SOL    HW2 5208   4.420   4.011   6.913
 1437SOL     OW 5209   2.861   1.621   4.002
 1437SOL    HW1 5210   2.851   1.719   3.982
 1437SOL    HW2 5211   2.956   1.594   3.989
 1438SOL     OW 5212   3.890   6.021   1.273
 1438SOL    HW1 5213   3.810   6.040   1.330
 1438SOL    HW2 5214   3.862   5.972   1.191
 1439SOL     OW 5215   0.124   6.098   1.542
 1439SOL    HW1 5216   0.185   6.177   1.544
 1439SOL    HW2 5217   0.051   6.109   1.609
 1440SOL     OW 5218   2.960   4.355   1.244
 1440SOL    HW1 5219   2.993   4.444   1.276
 1440SOL    HW2 5220   2.896   4.317   1.311
 1441SOL     OW 5221   6.579   0.748   1.585
 1441SOL    HW1 5222   6.484   0.762   1.614
 1441SOL    HW2 5223   6.582   0.715   1.491
 1442SOL     OW 5224   6.178   6.114   6.756
 1442SOL    HW1 5225   6.268   6.135   6.717
 1442SOL    HW2 5226   6.122   6.197   6.757
 1443SOL     OW 5227   0.421   2.599   2.704
 1443SOL    HW1 5228   0.420   2.658   2.785
 1443SOL    HW2 5229   0.373   2.513   2.725
 1444SOL     OW 5230   5.235   6.681   1.256
 1444SOL    HW1 5231   5.310   6.616   1.267
 1444SOL    HW2 5232   5.158   6.636   1.212
 1445SOL     OW 5233   0.586   3.626   3.025
 1445SOL    HW1 5234   0.654   3.560   3.059
 1445SOL    HW2 5235   0.609   3.652   2.931
 1446SOL     OW 5236   6.372   0.410   6.215
 1446SOL    HW1 5237   6.359   0.488   6.276
 1446SOL    HW2 5238   6.305   0.414   6.141
 1447SOL     OW 5239   5.327   5.335   3.308
 1447SOL    HW1 5240   5.247   5.320   3.365
 1447SOL    HW2 5241   5.376   5.416   3.338
 1448SOL     OW 5242   0.333   3.024   4.676
 1448SOL    HW1 5243   0.369   3.012   4.584
 1448SOL    HW2 5244   0.355   3.115   4.709
 1449SOL     OW 5245   1.939   4.137   4.902
 1449SOL    HW1 5246   1.950   4.172   4.995
 1449SOL    HW2 5247   2.027   4.106   4.867
 1450SOL     OW 5248   0.995   2.062   5.757
 1450SOL    HW1 5249   0.982   1.998   5.682
 1450SOL    HW2 5250   1.088   2.054   5.792
 1451SOL     OW 5251   1.588   6.295   2.243
 1451SOL    HW1 5252   1.554   6.357   2.314
 1451SOL    HW2 5253   1.687   6.296   2.241
 1452SOL     OW 5254   4.346   3.332   5.849
 1452SOL    HW1 5255   4.328   3.240   5.886
 1452SOL    HW2 5256   4.323   3.400   5.918
 1453SOL     OW 5257   0.753   4.392   5.391
 1453SOL    HW1 5258   0.834   4.374   5.335
 1453SOL    HW2 5259   0.740   4.491   5.399
 1454SOL     OW 5260   2.686   1.997   3.140
 1454SOL    HW1 5261   2.713   2.014   3.234
 1454SOL    HW2 5262   2.753   1.937   3.096
 1455SOL     OW 5263   1.309   6.000   2.797
 1455SOL    HW1 5264   1.286   6.007   2.699
 1455SOL    HW2 5265   1.405   5.972   2.806
 1456SOL     OW 5266   6.596   5.915   6.362
 1456SOL    HW1 5267   6.655   5.848   6.407
 1456SOL    HW2 5268   6.652   5.974   6.304
 1457SOL     OW 5269   0.819   4.171   0.530
 1457SOL    HW1 5270   0.755   4.243   0.556
 1457SOL    HW2 5271   0.782   4.082   0.555
 1458SOL     OW 5272   5.632   5.030   5.484
 1458SOL    HW1 5273   5.664   5.110   5.433
 1458SOL    HW2 5274   5.555   4.988   5.436
 1459SOL     OW 5275   4.995   0.282   5.671
 1459SOL    HW1 5276   5.004   0.184   5.690
 1459SOL    HW2 5277   5.024   0.334   5.751
 1460SOL     OW 5278   1.584   6.645   5.597
 1460SOL    HW1 5279   1.535   6.573   5.645
 1460SOL    HW2 5280   1.519   6.717   5.570
 1461SOL     OW 5281   0.024   3.651   2.855
 1461SOL    HW1 5282   0.069   3.621   2.939
 1461SOL    HW2 5283   7.022   3.572   2.801
 1462SOL     OW 5284   0.727   0.728   0.016
 1462SOL    HW1 5285   0.778   0.711   6.955
 1462SOL    HW2 5286   0.635   0.760   7.017
 1463SOL     OW 5287   1.742   5.552   6.710
 1463SOL    HW1 5288   1.817   5.614   6.731
 1463SOL    HW2 5289   1.671   5.560   6.780
 1464SOL     OW 5290   6.054   4.204   3.657
 1464SOL    HW1 5291   5.962   4.186   3.693
 1464SOL    HW2 5292   6.103   4.265   3.720
 1465SOL     OW 5293   2.057   1.592   3.839
 1465SOL    HW1 5294   2.014   1.604   3.750
 1465SOL    HW2 5295   2.122   1.517   3.835
 1466SOL     OW 5296   3.681   2.561   1.738
 1466SOL    HW1 5297   3.629   2.643   1.762
 1466SOL    HW2 5298   3.664   2.490   1.805
 1467SOL     OW 5299   1.205   0.683   3.984
 1467SOL    HW1 5300   1.253   0.698   3.897
 1467SOL    HW2 5301   1.178   0.770   4.023
 1468SOL     OW 5302   3.127   5.640   1.979
 1468SOL    HW1 5303   3.154   5.544   1.966
 1468SOL    HW2 5304   3.103   5.679   1.890
 1469SOL     OW 5305   6.452   6.139   3.577
 1469SOL    HW1 5306   6.366   6.160   3.530
 1469SOL    HW2 5307   6.450   6.045   3.611
 1470SOL     OW 5308   6.954   2.803   1.227
 1470SOL    HW1 5309   0.007   2.745   1.254
 1470SOL    HW2 5310   6.871   2.749   1.222
 1471SOL     OW 5311   6.684   6.807   0.895
 1471SOL    HW1 5312   6.783   6.820   0.885
 1471SOL    HW2 5313   6.645   6.885   0.944
 1472SOL     OW 5314   2.606   6.786   6.370
 1472SOL    HW1 5315   2.705   6.775   6.383
 1472SOL    HW2 5316   2.579   6.879   6.396
 1473SOL     OW 5317   3.289   4.971   5.078
 1473SOL    HW1 5318   3.199   5.014   5.073
 1473SOL    HW2 5319   3.288   4.899   5.147
 1474SOL     OW 5320   4.554   4.980   1.514
 1474SOL    HW1 5321   4.477   4.943   1.462
 1474SOL    HW2 5322   4.638   4.934   1.486
 1475SOL     OW 5323   4.956   0.917   0.524
 1475SOL    HW1 5324   5.043   0.869   0.513
 1475SOL    HW2 5325   4.951   0.957   0.615
 1476SOL     OW 5326   3.274   1.205   1.169
 1476SOL    HW1 5327   3.228   1.211   1.081
 1476SOL    HW2 5328   3.278   1.297   1.211
 1477SOL     OW 5329   4.369   6.708   0.498
 1477SOL    HW1 5330   4.448   6.717   0.438
 1477SOL    HW2 5331   4.350   6.611   0.514
 1478SOL     OW 5332   4.932   6.638   5.248
 1478SOL    HW1 5333   5.017   6.589   5.263
 1478SOL    HW2 5334   4.858   6.572   5.230
 1479SOL     OW 5335   3.754   4.058   1.999
 1479SOL    HW1 5336   3.733   4.121   1.925
 1479SOL    HW2 5337   3.837   4.006   1.977
 1480SOL     OW 5338   2.676   0.959   5.744
 1480SOL    HW1 5339   2.643   0.956   5.649
 1480SOL    HW2 5340   2.699   0.866   5.773
 1481SOL     OW 5341   5.363   2.626   5.200
 1481SOL    HW1 5342   5.415   2.711   5.210
 1481SOL    HW2 5343   5.320   2.624   5.109
 1482SOL     OW 5344   4.507   0.344   0.734
 1482SOL    HW1 5345   4.488   0.434   0.694
 1482SOL    HW2 5346   4.452   0.333   0.817
 1483SOL     OW 5347   4.355   1.572   5.797
 1483SOL    HW1 5348   4.327   1.593   5.890
 1483SOL    HW2 5349   4.289   1.510   5.755
 1484SOL     OW 5350   3.527   4.966   4.654
 1484SOL    HW1 5351   3.471   4.952   4.735
 1484SOL    HW2 5352   3.623   4.979   4.681
 1485SOL     OW 5353   5.147   1.232   3.145
 1485SOL    HW1 5354   5.192   1.315   3.113
 1485SOL    HW2 5355   5.082   1.200   3.077
 1486SOL     OW 5356   5.121   6.961   3.618
 1486SOL    HW1 5357   5.113   6.946   3.716
 1486SOL    HW2 5358   5.100   6.876   3.569
 1487SOL     OW 5359   0.014   0.758   0.376
 1487SOL    HW1 5360   7.020   0.822   0.451
 1487SOL    HW2 5361   7.015   0.801   0.289
 1488SOL     OW 5362   6.188   0.457   2.822
 1488SOL    HW1 5363   6.212   0.375   2.770
 1488SOL    HW2 5364   6.089   0.471   2.819
 1489SOL     OW 5365   4.207   4.743   6.608
 1489SOL    HW1 5366   4.221   4.677   6.682
 1489SOL    HW2 5367   4.209   4.836   6.646
 1490SOL     OW 5368   0.678   2.629   2.069
 1490SOL    HW1 5369   0.750   2.677   2.119
 1490SOL    HW2 5370   0.642   2.689   1.997
 1491SOL     OW 5371   6.662   3.539   1.652
 1491SOL    HW1 5372   6.681   3.485   1.734
 1491SOL    HW2 5373   6.729   3.613   1.644
 1492SOL     OW 5374   6.241   0.568   2.345
 1492SOL    HW1 5375   6.257   0.471   2.366
 1492SOL    HW2 5376   6.155   0.576   2.294
 1493SOL     OW 5377   4.491   1.363   5.586
 1493SOL    HW1 5378   4.506   1.287   5.649
 1493SOL    HW2 5379   4.395   1.390   5.588
 1494SOL     OW 5380   5.639   2.499   6.180
 1494SOL    HW1 5381   5.720   2.512   6.124
 1494SOL    HW2 5382   5.567   2.563   6.150
 1495SOL     OW 5383   5.745   3.560   3.713
 1495SOL    HW1 5384   5.662   3.607   3.682
 1495SOL    HW2 5385   5.814   3.627   3.737
 1496SOL     OW 5386   0.083   6.234   0.106
 1496SOL    HW1 5387   0.056   6.250   0.201
 1496SOL    HW2 5388   0.133   6.315   0.072
 1497SOL     OW 5389   5.171   2.004   2.956
 1497SOL    HW1 5390   5.202   2.080   2.900
 1497SOL    HW2 5391   5.193   1.918   2.909
 1498SOL     OW 5392   2.991   4.623   1.345
 1498SOL    HW1 5393   3.026   4.695   1.406
 1498SOL    HW2 5394   2.916   4.660   1.290
 1499SOL     OW 5395   7.016   3.810   5.768
 1499SOL    HW1 5396   0.009   3.844   5.860
 1499SOL    HW2 5397   6.918   3.808   5.749
 1500SOL     OW 5398   1.025   5.872   0.373
 1500SOL    HW1 5399   1.002   5.783   0.413
 1500SOL    HW2 5400   1.005   5.871   0.275
 1501SOL     OW 5401   5.915   1.414   6.250
 1501SOL    HW1 5402   5.995   1.404   6.310
 1501SOL    HW2 5403   5.930   1.489   6.186
 1502SOL     OW 5404   0.082   1.174   6.071
 1502SOL    HW1 5405   0.156   1.162   6.005
 1502SOL    HW2 5406   0.097   1.114   6.149
 1503SOL     OW 5407   0.652   3.832   1.948
 1503SOL    HW1 5408   0.568   3.779   1.961
 1503SOL    HW2 5409   0.721   3.803   2.014
 1504SOL     OW 5410   0.506   6.846   3.566
 1504SOL    HW1 5411   0.415   6.810   3.548
 1504SOL    HW2 5412   0.531   6.911   3.495
 1505SOL     OW 5413   5.752   6.780   5.148
 1505SOL    HW1 5414   5.694   6.738   5.078
 1505SOL    HW2 5415   5.709   6.770   5.238
 1506SOL     OW 5416   1.526   0.816   1.242
 1506SOL    HW1 5417   1.444   0.872   1.253
 1506SOL    HW2 5418   1.550   0.811   1.145
 1507SOL     OW 5419   1.161   1.856   4.412
 1507SOL    HW1 5420   1.234   1.810   4.360
 1507SOL    HW2 5421   1.201   1.907   4.488
 1508SOL     OW 5422   0.676   1.309   0.397
 1508SOL    HW1 5423   0.615   1.250   0.449
 1508SOL    HW2 5424   0.622   1.367   0.335
 1509SOL     OW 5425   5.431   1.524   5.010
 1509SOL    HW1 5426   5.406   1.543   4.915
 1509SOL    HW2 5427   5.354   1.482   5.057
 1510SOL     OW 5428   3.551   6.924   3.640
 1510SOL    HW1 5429   3.601   7.000   3.682
 1510SOL    HW2 5430   3.594   6.838   3.667
 1511SOL     OW 5431   3.378   3.941   4.191
 1511SOL    HW1 5432   3.447   4.005   4.223
 1511SOL    HW2 5433   3.287   3.976   4.214
 1512SOL     OW 5434   6.514   5.714   0.866
 1512SOL    HW1 5435   6.447   5.758   0.926
 1512SOL    HW2 5436   6.606   5.726   0.904
 1513SOL     OW 5437   3.055   6.767   5.787
 1513SOL    HW1 5438   3.011   6.805   5.868
 1513SOL    HW2 5439   3.059   6.667   5.794
 1514SOL     OW 5440   3.709   2.224   5.539
 1514SOL    HW1 5441   3.621   2.258   5.574
 1514SOL    HW2 5442   3.729   2.268   5.452
 1515SOL     OW 5443   6.657   1.871   2.938
 1515SOL    HW1 5444   6.601   1.895   2.858
 1515SOL    HW2 5445   6.624   1.784   2.976
 1516SOL     OW 5446   6.569   6.385   4.659
 1516SOL    HW1 5447   6.605   6.455   4.598
 1516SOL    HW2 5448   6.478   6.358   4.629
 1517SOL     OW 5449   3.451   6.520   3.585
 1517SOL    HW1 5450   3.419   6.548   3.495
 1517SOL    HW2 5451   3.411   6.581   3.654
 1518SOL     OW 5452   6.540   2.832   0.140
 1518SOL    HW1 5453   6.585   2.781   0.067
 1518SOL    HW2 5454   6.471   2.775   0.184
 1519SOL     OW 5455   6.995   4.826   0.409
 1519SOL    HW1 5456   6.929   4.794   0.477
 1519SOL    HW2 5457   0.063   4.797   0.436
 1520SOL     OW 5458   0.980   4.962   1.221
 1520SOL    HW1 5459   0.917   4.947   1.145
 1520SOL    HW2 5460   0.988   5.060   1.238
 1521SOL     OW 5461   2.716   4.776   6.979
 1521SOL    HW1 5462   2.676   4.831   0.028
 1521SOL    HW2 5463   2.788   4.828   6.933
 1522SOL     OW 5464   5.401   5.840   5.176
 1522SOL    HW1 5465   5.355   5.785   5.107
 1522SOL    HW2 5466   5.363   5.820   5.266
 1523SOL     OW 5467   3.720   0.116   6.598
 1523SOL    HW1 5468   3.724   0.159   6.689
 1523SOL    HW2 5469   3.625   0.096   6.575
 1524SOL     OW 5470   2.590   2.476   3.095
 1524SOL    HW1 5471   2.672   2.431   3.129
 1524SOL    HW2 5472   2.509   2.429   3.132
 1525SOL     OW 5473   6.175   2.897   0.650
 1525SOL    HW1 5474   6.239   2.946   0.709
 1525SOL    HW2 5475   6.222   2.820   0.607
 1526SOL     OW 5476   0.438   1.809   0.007
 1526SOL    HW1 5477   0.496   1.779   6.955
 1526SOL    HW2 5478   0.428   1.735   0.073
 1527SOL     OW 5479   3.697   1.393   4.812
 1527SOL    HW1 5480   3.691   1.311   4.755
 1527SOL    HW2 5481   3.608   1.411   4.854
 1528SOL     OW 5482   4.483   3.928   0.797
 1528SOL    HW1 5483   4.471   4.027   0.805
 1528SOL    HW2 5484   4.448   3.884   0.880
 1529SOL     OW 5485   5.618   1.184   6.608
 1529SOL    HW1 5486   5.574   1.212   6.693
 1529SOL    HW2 5487   5.613   1.258   6.542
 1530SOL     OW 5488   3.205   0.126   1.690
 1530SOL    HW1 5489   3.194   0.060   1.616
 1530SOL    HW2 5490   3.157   0.211   1.667
 1531SOL     OW 5491   3.941   0.596   3.961
 1531SOL    HW1 5492   3.875   0.550   3.901
 1531SOL    HW2 5493   4.029   0.548   3.958
 1532SOL     OW 5494   3.354   4.748   5.915
 1532SOL    HW1 5495   3.289   4.738   5.840
 1532SOL    HW2 5496   3.447   4.749   5.879
 1533SOL     OW 5497   5.137   5.470   1.140
 1533SOL    HW1 5498   5.092   5.487   1.053
 1533SOL    HW2 5499   5.223   5.421   1.125
 1534SOL     OW 5500   3.930   6.283   0.042
 1534SOL    HW1 5501   3.851   6.284   0.103
 1534SOL    HW2 5502   4.011   6.313   0.093
 1535SOL     OW 5503   6.291   0.042   4.925
 1535SOL    HW1 5504   6.364   0.034   4.857
 1535SOL    HW2 5505   6.207   0.073   4.880
 1536SOL     OW 5506   4.179   4.695   6.894
 1536SOL    HW1 5507   4.266   4.728   6.929
 1536SOL    HW2 5508   4.182   4.595   6.885
 1537SOL     OW 5509   3.501   5.177   3.780
 1537SOL    HW1 5510   3.434   5.216   3.843
 1537SOL    HW2 5511   3.532   5.089   3.816
 1538SOL     OW 5512   3.455   1.366   0.394
 1538SOL    HW1 5513   3.532   1.355   0.332
 1538SOL    HW2 5514   3.386   1.296   0.375
 1539SOL     OW 5515   5.230   3.192   1.577
 1539SOL    HW1 5516   5.283   3.137   1.513
 1539SOL    HW2 5517   5.207   3.137   1.657
 1540SOL     OW 5518   1.554   6.934   4.906
 1540SOL    HW1 5519   1.585   6.859   4.848
 1540SOL    HW2 5520   1.541   7.016   4.850
 1541SOL     OW 5521   4.005   3.053   4.433
 1541SOL    HW1 5522   3.921   3.000   4.447
 1541SOL    HW2 5523   4.049   3.023   4.348
 1542SOL     OW 5524   6.510   6.567   2.065
 1542SOL    HW1 5525   6.506   6.612   1.975
 1542SOL    HW2 5526   6.495   6.469   2.054
 1543SOL     OW 5527   3.583   5.819   6.093
 1543SOL    HW1 5528   3.521   5.810   6.015
 1543SOL    HW2 5529   3.542   5.777   6.174
 1544SOL     OW 5530   3.724   3.739   4.018
 1544SOL    HW1 5531   3.674   3.655   3.995
 1544SOL    HW2 5532   3.687   3.815   3.964
 1545SOL     OW 5533   5.858   0.373   1.630
 1545SOL    HW1 5534   5.852   0.286   1.583
 1545SOL    HW2 5535   5.947   0.380   1.675
 1546SOL     OW 5536   5.424   0.201   5.833
 1546SOL    HW1 5537   5.414   0.101   5.828
 1546SOL    HW2 5538   5.480   0.232   5.757
 1547SOL     OW 5539   1.239   3.964   0.817
 1547SOL    HW1 5540   1.309   3.946   0.748
 1547SOL    HW2 5541   1.184   4.043   0.788
 1548SOL     OW 5542   6.297   3.307   0.342
 1548SOL    HW1 5543   6.343   3.373   0.401
 1548SOL    HW2 5544   6.343   3.218   0.349
 1549SOL     OW 5545   3.953   1.281   4.384
 1549SOL    HW1 5546   3.888   1.321   4.319
 1549SOL    HW2 5547   3.943   1.325   4.473
 1550SOL     OW 5548   4.079   3.340   2.612
 1550SOL    HW1 5549   4.083   3.383   2.703
 1550SOL    HW2 5550   4.053   3.244   2.622
 1551SOL     OW 5551   1.326   4.896   0.183
 1551SOL    HW1 5552   1.265   4.855   0.115
 1551SOL    HW2 5553   1.272   4.954   0.245
 1552SOL     OW 5554   2.787   4.865   0.955
 1552SOL    HW1 5555   2.795   4.787   1.018
 1552SOL    HW2 5556   2.878   4.887   0.918
 1553SOL     OW 5557   0.479   1.814   6.365
 1553SOL    HW1 5558   0.472   1.716   6.382
 1553SOL    HW2 5559   0.561   1.849   6.410
 1554SOL     OW 5560   2.997   1.820   3.704
 1554SOL    HW1 5561   2.946   1.817   3.619
 1554SOL    HW2 5562   2.938   1.856   3.777
 1555SOL     OW 5563   5.808   2.612   5.922
 1555SOL    HW1 5564   5.878   2.644   5.858
 1555SOL    HW2 5565   5.744   2.551   5.876
 1556SOL     OW 5566   1.997   1.146   6.395
 1556SOL    HW1 5567   1.967   1.051   6.386
 1556SOL    HW2 5568   2.066   1.152   6.468
 1557SOL     OW 5569   1.751   3.251   5.980
 1557SOL    HW1 5570   1.834   3.289   6.018
 1557SOL    HW2 5571   1.721   3.306   5.902
 1558SOL     OW 5572   6.544   0.830   4.533
 1558SOL    HW1 5573   6.583   0.900   4.473
 1558SOL    HW2 5574   6.527   0.747   4.480
 1559SOL     OW 5575   0.730   2.518   6.401
 1559SOL    HW1 5576   0.734   2.517   6.301
 1559SOL    HW2 5577   0.717   2.424   6.434
 1560SOL     OW 5578   6.965   1.023   6.346
 1560SOL    HW1 5579   6.933   1.101   6.399
 1560SOL    HW2 5580   6.886   0.973   6.308
 1561SOL     OW 5581   4.725   6.226   2.954
 1561SOL    HW1 5582   4.779   6.165   2.896
 1561SOL    HW2 5583   4.629   6.197   2.954
 1562SOL     OW 5584   4.384   6.636   1.925
 1562SOL    HW1 5585   4.481   6.644   1.903
 1562SOL    HW2 5586   4.374   6.599   2.017
 1563SOL     OW 5587   3.419   0.565   6.164
 1563SOL    HW1 5588   3.516   0.551   6.143
 1563SOL    HW2 5589   3.388   0.495   6.228
 1564SOL     OW 5590   1.578   0.656   2.029
 1564SOL    HW1 5591   1.592   0.603   2.113
 1564SOL    HW2 5592   1.667   0.682   1.991
 1565SOL     OW 5593   4.891   3.907   2.222
 1565SOL    HW1 5594   4.875   3.963   2.141
 1565SOL    HW2 5595   4.846   3.949   2.301
 1566SOL     OW 5596   5.320   4.123   3.513
 1566SOL    HW1 5597   5.327   4.024   3.505
 1566SOL    HW2 5598   5.237   4.155   3.466
 1567SOL     OW 5599   5.893   5.907   6.503
 1567SOL    HW1 5600   5.868   5.969   6.428
 1567SOL    HW2 5601   5.825   5.835   6.510
 1568SOL     OW 5602   1.193   0.135   0.516
 1568SOL    HW1 5603   1.152   0.056   0.470
 1568SOL    HW2 5604   1.120   0.192   0.555
 1569SOL     OW 5605   4.151   6.458   4.415
 1569SOL    HW1 5606   4.096   6.495   4.339
 1569SOL    HW2 5607   4.196   6.534   4.462
 1570SOL     OW 5608   3.013   1.805   1.474
 1570SOL    HW1 5609   2.961   1.882   1.511
 1570SOL    HW2 5610   3.036   1.823   1.379
 1571SOL     OW 5611   6.411   2.921   1.718
 1571SOL    HW1 5612   6.393   3.008   1.672
 1571SOL    HW2 5613   6.381   2.846   1.660
 1572SOL     OW 5614   0.326   0.647   2.211
 1572SOL    HW1 5615   0.275   0.676   2.292
 1572SOL    HW2 5616   0.408   0.703   2.202
 1573SOL     OW 5617   5.284   6.414   1.734
 1573SOL    HW1 5618   5.350   6.423   1.809
 1573SOL    HW2 5619   5.314   6.468   1.656
 1574SOL     OW 5620   0.744   2.209   2.066
 1574SOL    HW1 5621   0.672   2.140   2.074
 1574SOL    HW2 5622   0.822   2.171   2.017
 1575SOL     OW 5623   2.398   2.366   0.619
 1575SOL    HW1 5624   2.386   2.307   0.539
 1575SOL    HW2 5625   2.327   2.436   0.620
 1576SOL     OW 5626   5.549   6.199   3.543
 1576SOL    HW1 5627   5.519   6.293   3.560
 1576SOL    HW2 5628   5.531   6.143   3.624
 1577SOL     OW 5629   2.351   0.805   5.365
 1577SOL    HW1 5630   2.267   0.823   5.416
 1577SOL    HW2 5631   2.430   0.830   5.421
 1578SOL     OW 5632   5.773   3.972   5.353
 1578SOL    HW1 5633   5.679   3.985   5.320
 1578SOL    HW2 5634   5.823   3.914   5.289
 1579SOL     OW 5635   0.476   1.127   2.947
 1579SOL    HW1 5636   0.422   1.156   3.025
 1579SOL    HW2 5637   0.440   1.169   2.864
 1580SOL     OW 5638   2.829   4.397   5.384
 1580SOL    HW1 5639   2.818   4.303   5.352
 1580SOL    HW2 5640   2.878   4.451   5.315
 1581SOL     OW 5641   6.495   4.084   4.141
 1581SOL    HW1 5642   6.497   4.053   4.236
 1581SOL    HW2 5643   6.544   4.171   4.134
 1582SOL     OW 5644   0.184   5.188   4.534
 1582SOL    HW1 5645   0.263   5.248   4.516
 1582SOL    HW2 5646   0.104   5.244   4.556
 1583SOL     OW 5647   2.272   3.032   4.190
 1583SOL    HW1 5648   2.174   3.047   4.186
 1583SOL    HW2 5649   2.295   2.942   4.154
 1584SOL     OW 5650   2.502   6.405   5.164
 1584SOL    HW1 5651   2.544   6.316   5.179
 1584SOL    HW2 5652   2.406   6.392   5.138
 1585SOL     OW 5653   5.511   2.055   3.208
 1585SOL    HW1 5654   5.446   2.130   3.198
 1585SOL    HW2 5655   5.464   1.968   3.197
 1586SOL     OW 5656   3.548   4.153   2.184
 1586SOL    HW1 5657   3.628   4.150   2.123
 1586SOL    HW2 5658   3.577   4.137   2.278
 1587SOL     OW 5659   3.557   6.454   6.816
 1587SOL    HW1 5660   3.536   6.360   6.791
 1587SOL    HW2 5661   3.594   6.457   6.909
 1588SOL     OW 5662   5.390   1.652   2.361
 1588SOL    HW1 5663   5.361   1.747   2.356
 1588SOL    HW2 5664   5.454   1.641   2.437
 1589SOL     OW 5665   5.589   4.625   3.785
 1589SOL    HW1 5666   5.518   4.667   3.728
 1589SOL    HW2 5667   5.607   4.682   3.865
 1590SOL     OW 5668   1.883   6.647   0.393
 1590SOL    HW1 5669   1.852   6.656   0.487
 1590SOL    HW2 5670   1.847   6.723   0.339
 1591SOL     OW 5671   1.073   4.954   2.124
 1591SOL    HW1 5672   1.022   4.911   2.198
 1591SOL    HW2 5673   1.009   5.001   2.063
 1592SOL     OW 5674   2.943   3.262   2.400
 1592SOL    HW1 5675   2.965   3.334   2.334
 1592SOL    HW2 5676   3.003   3.184   2.386
 1593SOL     OW 5677   0.352   6.336   4.454
 1593SOL    HW1 5678   0.280   6.403   4.468
 1593SOL    HW2 5679   0.439   6.383   4.439
 1594SOL     OW 5680   6.425   5.437   2.530
 1594SOL    HW1 5681   6.346   5.453   2.589
 1594SOL    HW2 5682   6.456   5.342   2.541
 1595SOL     OW 5683   0.360   4.514   6.465
 1595SOL    HW1 5684   0.302   4.448   6.419
 1595SOL    HW2 5685   0.422   4.467   6.528
 1596SOL     OW 5686   1.669   5.238   6.251
 1596SOL    HW1 5687   1.637   5.174   6.321
 1596SOL    HW2 5688   1.751   5.284   6.283
 1597SOL     OW 5689   2.202   6.507   2.316
 1597SOL    HW1 5690   2.168   6.469   2.402
 1597SOL    HW2 5691   2.246   6.434   2.262
 1598SOL     OW 5692   0.156   4.171   0.717
 1598SOL    HW1 5693   0.175   4.268   0.726
 1598SOL    HW2 5694   0.232   4.118   0.757
 1599SOL     OW 5695   3.763   4.527   6.655
 1599SOL    HW1 5696   3.757   4.458   6.727
 1599SOL    HW2 5697   3.698   4.506   6.582
 1600SOL     OW 5698   4.970   1.595   5.136
 1600SOL    HW1 5699   4.918   1.585   5.051
 1600SOL    HW2 5700   4.909   1.627   5.208
 1601SOL     OW 5701   1.502   4.580   5.406
 1601SOL    HW1 5702   1.459   4.495   5.374
 1601SOL    HW2 5703   1.591   4.591   5.362
 1602SOL     OW 5704   1.359   5.865   3.252
 1602SOL    HW1 5705   1.438   5.849   3.311
 1602SOL    HW2 5706   1.386   5.856   3.156
 1603SOL     OW 5707   0.543   6.458   2.176
 1603SOL    HW1 5708   0.510   6.528   2.239
 1603SOL    HW2 5709   0.465   6.415   2.130
 1604SOL     OW 5710   0.108   5.362   6.931
 1604SOL    HW1 5711   0.183   5.324   6.876
 1604SOL    HW2 5712   0.144   5.391   7.020
 1605SOL     OW 5713   6.537   0.051   2.585
 1605SOL    HW1 5714   6.561   0.126   2.647
 1605SOL    HW2 5715   6.599   6.998   2.602
 1606SOL     OW 5716   4.728   6.849   5.425
 1606SOL    HW1 5717   4.693   6.929   5.377
 1606SOL    HW2 5718   4.712   6.767   5.368
 1607SOL     OW 5719   3.932   2.270   1.241
 1607SOL    HW1 5720   3.999   2.221   1.297
 1607SOL    HW2 5721   3.848   2.217   1.236
 1608SOL     OW 5722   2.479   6.833   0.402
 1608SOL    HW1 5723   2.553   6.900   0.397
 1608SOL    HW2 5724   2.401   6.873   0.451
 1609SOL     OW 5725   5.371   2.024   5.973
 1609SOL    HW1 5726   5.429   2.088   5.923
 1609SOL    HW2 5727   5.279   2.023   5.932
 1610SOL     OW 5728   6.332   6.261   4.555
 1610SOL    HW1 5729   6.337   6.169   4.596
 1610SOL    HW2 5730   6.261   6.314   4.602
 1611SOL     OW 5731   4.175   3.444   2.363
 1611SOL    HW1 5732   4.124   3.402   2.289
 1611SOL    HW2 5733   4.160   3.394   2.448
 1612SOL     OW 5734   2.236   1.418   5.008
 1612SOL    HW1 5735   2.239   1.323   5.039
 1612SOL    HW2 5736   2.319   1.438   4.955
 1613SOL     OW 5737   1.871   6.024   0.867
 1613SOL    HW1 5738   1.926   6.059   0.791
 1613SOL    HW2 5739   1.786   5.986   0.831
 1614SOL     OW 5740   6.009   2.428   0.171
 1614SOL    HW1 5741   5.926   2.412   0.118
 1614SOL    HW2 5742   6.049   2.516   0.144
 1615SOL     OW 5743   6.837   4.122   6.606
 1615SOL    HW1 5744   6.809   4.177   6.527
 1615SOL    HW2 5745   6.816   4.171   6.690
 1616SOL     OW 5746   3.678   1.799   6.057
 1616SOL    HW1 5747   3.634   1.797   5.967
 1616SOL    HW2 5748   3.638   1.728   6.115
 1617SOL     OW 5749   5.694   0.991   2.520
 1617SOL    HW1 5750   5.776   0.982   2.577
 1617SOL    HW2 5751   5.663   0.901   2.492
 1618SOL     OW 5752   6.691   3.667   1.380
 1618SOL    HW1 5753   6.768   3.674   1.443
 1618SOL    HW2 5754   6.605   3.681   1.430
 1619SOL     OW 5755   1.407   3.420   4.141
 1619SOL    HW1 5756   1.481   3.365   4.180
 1619SOL    HW2 5757   1.441   3.470   4.062
 1620SOL     OW 5758   2.545   5.939   1.761
 1620SOL    HW1 5759   2.450   5.959   1.785
 1620SOL    HW2 5760   2.591   6.025   1.736
 1621SOL     OW 5761   0.871   0.473   0.992
 1621SOL    HW1 5762   0.794   0.462   1.055
 1621SOL    HW2 5763   0.952   0.431   1.032
 1622SOL     OW 5764   1.779   1.708   4.342
 1622SOL    HW1 5765   1.866   1.751   4.363
 1622SOL    HW2 5766   1.794   1.630   4.281
 1623SOL     OW 5767   2.472   2.475   6.294
 1623SOL    HW1 5768   2.475   2.549   6.226
 1623SOL    HW2 5769   2.384   2.478   6.341
 1624SOL     OW 5770   3.296   1.072   0.058
 1624SOL    HW1 5771   3.346   1.009   7.022
 1624SOL    HW2 5772   3.257   1.146   0.004
 1625SOL     OW 5773   0.633   5.140   2.091
 1625SOL    HW1 5774   0.699   5.214   2.106
 1625SOL    HW2 5775   0.672   5.075   2.025
 1626SOL     OW 5776   2.057   2.990   6.551
 1626SOL    HW1 5777   2.061   3.012   6.454
 1626SOL    HW2 5778   2.101   2.902   6.567
 1627SOL     OW 5779   6.478   2.116   3.654
 1627SOL    HW1 5780   6.427   2.061   3.587
 1627SOL    HW2 5781   6.458   2.213   3.639
 1628SOL     OW 5782   3.099   4.971   0.986
 1628SOL    HW1 5783   3.193   4.962   0.953
 1628SOL    HW2 5784   3.099   4.971   1.086
 1629SOL     OW 5785   3.442   2.125   4.409
 1629SOL    HW1 5786   3.460   2.058   4.481
 1629SOL    HW2 5787   3.466   2.086   4.320
 1630SOL     OW 5788   0.911   4.765   5.743
 1630SOL    HW1 5789   0.865   4.848   5.713
 1630SOL    HW2 5790   1.003   4.788   5.775
 1631SOL     OW 5791   0.145   0.345   5.426
 1631SOL    HW1 5792   0.220   0.310   5.481
 1631SOL    HW2 5793   0.171   0.347   5.330
 1632SOL     OW 5794   6.813   1.006   0.318
 1632SOL    HW1 5795   6.841   1.101   0.318
 1632SOL    HW2 5796   6.802   0.974   0.412
 1633SOL     OW 5797   5.893   1.883   2.953
 1633SOL    HW1 5798   5.865   1.961   3.009
 1633SOL    HW2 5799   5.967   1.910   2.892
 1634SOL     OW 5800   2.583   6.257   6.119
 1634SOL    HW1 5801   2.654   6.293   6.180
 1634SOL    HW2 5802   2.618   6.251   6.026
 1635SOL     OW 5803   0.261   5.905   4.704
 1635SOL    HW1 5804   0.165   5.896   4.678
 1635SOL    HW2 5805   0.291   5.999   4.689
 1636SOL     OW 5806   2.749   5.746   1.536
 1636SOL    HW1 5807   2.687   5.693   1.593
 1636SOL    HW2 5808   2.731   5.843   1.549
 1637SOL     OW 5809   7.021   3.575   2.487
 1637SOL    HW1 5810   0.054   3.514   2.543
 1637SOL    HW2 5811   6.948   3.522   2.443
 1638SOL     OW 5812   0.317   3.486   4.150
 1638SOL    HW1 5813   0.277   3.547   4.082
 1638SOL    HW2 5814   0.299   3.391   4.124
 1639SOL     OW 5815   4.620   5.631   2.842
 1639SOL    HW1 5816   4.680   5.703   2.878
 1639SOL    HW2 5817   4.650   5.606   2.750
 1640SOL     OW 5818   6.437   1.231   0.410
 1640SOL    HW1 5819   6.409   1.220   0.506
 1640SOL    HW2 5820   6.441   1.142   0.366
 1641SOL     OW 5821   6.104   3.442   4.554
 1641SOL    HW1 5822   6.064   3.491   4.476
 1641SOL    HW2 5823   6.031   3.415   4.617
 1642SOL     OW 5824   6.425   2.757   0.514
 1642SOL    HW1 5825   6.499   2.823   0.527
 1642SOL    HW2 5826   6.413   2.739   0.416
 1643SOL     OW 5827   3.369   6.577   5.307
 1643SOL    HW1 5828   3.438   6.507   5.294
 1643SOL    HW2 5829   3.279   6.540   5.284
 1644SOL     OW 5830   3.132   1.462   1.229
 1644SOL    HW1 5831   3.146   1.537   1.164
 1644SOL    HW2 5832   3.150   1.495   1.321
 1645SOL     OW 5833   3.428   6.304   6.211
 1645SOL    HW1 5834   3.425   6.368   6.288
 1645SOL    HW2 5835   3.401   6.351   6.128
 1646SOL     OW 5836   1.538   4.101   0.942
 1646SOL    HW1 5837   1.587   4.038   0.882
 1646SOL    HW2 5838   1.503   4.177   0.888
 1647SOL     OW 5839   5.666   3.028   3.515
 1647SOL    HW1 5840   5.678   3.117   3.558
 1647SOL    HW2 5841   5.648   3.041   3.417
 1648SOL     OW 5842   4.560   0.185   1.916
 1648SOL    HW1 5843   4.590   0.146   1.829
 1648SOL    HW2 5844   4.640   0.204   1.973
 1649SOL     OW 5845   2.815   0.681   3.239
 1649SOL    HW1 5846   2.908   0.683   3.277
 1649SOL    HW2 5847   2.813   0.732   3.153
 1650SOL     OW 5848   2.939   0.596   3.988
 1650SOL    HW1 5849   2.985   0.534   3.924
 1650SOL    HW2 5850   2.903   0.543   4.065
 1651SOL     OW 5851   0.359   0.291   0.289
 1651SOL    HW1 5852   0.306   0.376   0.297
 1651SOL    HW2 5853   0.398   0.285   0.197
 1652SOL     OW 5854   2.900   2.420   1.460
 1652SOL    HW1 5855   2.941   2.466   1.540
 1652SOL    HW2 5856   2.889   2.487   1.386
 1653SOL     OW 5857   0.149   5.473   0.736
 1653SOL    HW1 5858   0.231   5.522   0.707
 1653SOL    HW2 5859   0.068   5.525   0.708
 1654SOL     OW 5860   6.719   3.638   2.965
 1654SOL    HW1 5861   6.714   3.734   2.992
 1654SOL    HW2 5862   6.753   3.632   2.871
 1655SOL     OW 5863   5.380   4.175   6.138
 1655SOL    HW1 5864   5.419   4.221   6.217
 1655SOL    HW2 5865   5.417   4.082   6.131
 1656SOL     OW 5866   0.977   4.802   3.929
 1656SOL    HW1 5867   0.909   4.770   3.863
 1656SOL    HW2 5868   1.055   4.740   3.929
 1657SOL     OW 5869   1.632   0.861   5.369
 1657SOL    HW1 5870   1.599   0.951   5.340
 1657SOL    HW2 5871   1.730   0.853   5.348
 1658SOL     OW 5872   5.878   6.290   2.739
 1658SOL    HW1 5873   5.943   6.365   2.755
 1658SOL    HW2 5874   5.787   6.318   2.768
 1659SOL     OW 5875   3.415   2.139   6.502
 1659SOL    HW1 5876   3.512   2.158   6.488
 1659SOL    HW2 5877   3.406   2.074   6.578
 1660SOL     OW 5878   1.189   6.022   3.938
 1660SOL    HW1 5879   1.203   6.050   3.843
 1660SOL    HW2 5880   1.226   5.930   3.952
 1661SOL     OW 5881   2.903   1.589   2.219
 1661SOL    HW1 5882   2.911   1.688   2.226
 1661SOL    HW2 5883   2.876   1.565   2.126
 1662SOL     OW 5884   6.966   1.492   3.047
 1662SOL    HW1 5885   6.977   1.416   3.112
 1662SOL    HW2 5886   6.895   1.469   2.980
 1663SOL     OW 5887   3.196   0.066   2.836
 1663SOL    HW1 5888   3.188   7.011   2.775
 1663SOL    HW2 5889   3.108   0.113   2.841
 1664SOL     OW 5890   1.824   6.304   4.377
 1664SOL    HW1 5891   1.861   6.323   4.468
 1664SOL    HW2 5892   1.854   6.376   4.314
 1665SOL     OW 5893   0.593   1.319   2.419
 1665SOL    HW1 5894   0.693   1.329   2.424
 1665SOL    HW2 5895   0.552   1.409   2.403
 1666SOL     OW 5896   5.744   2.417   5.671
 1666SOL    HW1 5897   5.770   2.486   5.603
 1666SOL    HW2 5898   5.650   2.387   5.654
 1667SOL     OW 5899   6.396   7.008   6.376
 1667SOL    HW1 5900   6.435   6.918   6.356
 1667SOL    HW2 5901   6.402   0.042   6.294
 1668SOL     OW 5902   4.078   0.272   4.461
 1668SOL    HW1 5903   4.052   0.352   4.408
 1668SOL    HW2 5904   4.173   0.280   4.490
 1669SOL     OW 5905   5.877   6.810   5.904
 1669SOL    HW1 5906   5.955   6.782   5.959
 1669SOL    HW2 5907   5.828   6.883   5.952
 1670SOL     OW 5908   5.407   4.504   5.523
 1670SOL    HW1 5909   5.465   4.458   5.590
 1670SOL    HW2 5910   5.360   4.581   5.565
 1671SOL     OW 5911   4.899   3.340   0.433
 1671SOL    HW1 5912   4.917   3.249   0.396
 1671SOL    HW2 5913   4.830   3.333   0.506
 1672SOL     OW 5914   1.894   4.473   2.254
 1672SOL    HW1 5915   1.991   4.448   2.250
 1672SOL    HW2 5916   1.884   4.565   2.290
 1673SOL     OW 5917   6.822   3.720   4.236
 1673SOL    HW1 5918   6.839   3.807   4.283
 1673SOL    HW2 5919   6.873   3.647   4.282
 1674SOL     OW 5920   0.636   4.051   0.752
 1674SOL    HW1 5921   0.656   4.029   0.848
 1674SOL    HW2 5922   0.676   3.982   0.692
 1675SOL     OW 5923   4.805   1.711   6.672
 1675SOL    HW1 5924   4.819   1.662   6.586
 1675SOL    HW2 5925   4.883   1.696   6.733
 1676SOL     OW 5926   2.161   1.035   2.631
 1676SOL    HW1 5927   2.067   1.045   2.601
 1676SOL    HW2 5928   2.166   1.047   2.730
 1677SOL     OW 5929   5.884   1.493   5.192
 1677SOL    HW1 5930   5.849   1.485   5.285
 1677SOL    HW2 5931   5.864   1.585   5.156
 1678SOL     OW 5932   5.018   6.319   2.147
 1678SOL    HW1 5933   4.926   6.330   2.184
 1678SOL    HW2 5934   5.036   6.390   2.079
 1679SOL     OW 5935   1.035   3.073   5.773
 1679SOL    HW1 5936   1.025   2.978   5.742
 1679SOL    HW2 5937   0.999   3.080   5.866
 1680SOL     OW 5938   0.738   1.186   3.735
 1680SOL    HW1 5939   0.640   1.190   3.757
 1680SOL    HW2 5940   0.753   1.121   3.661
 1681SOL     OW 5941   6.554   5.192   0.556
 1681SOL    HW1 5942   6.651   5.186   0.577
 1681SOL    HW2 5943   6.502   5.143   0.625
 1682SOL     OW 5944   0.349   3.448   5.033
 1682SOL    HW1 5945   0.389   3.532   5.071
 1682SOL    HW2 5946   0.254   3.440   5.063
 1683SOL     OW 5947   4.725   5.470   1.044
 1683SOL    HW1 5948   4.630   5.461   1.072
 1683SOL    HW2 5949   4.746   5.566   1.023
 1684SOL     OW 5950   0.634   6.720   5.477
 1684SOL    HW1 5951   0.567   6.790   5.454
 1684SOL    HW2 5952   0.631   6.647   5.408
 1685SOL     OW 5953   1.929   1.166   0.457
 1685SOL    HW1 5954   2.008   1.220   0.425
 1685SOL    HW2 5955   1.877   1.134   0.378
 1686SOL     OW 5956   1.374   5.679   5.804
 1686SOL    HW1 5957   1.404   5.648   5.714
 1686SOL    HW2 5958   1.319   5.762   5.794
 1687SOL     OW 5959   1.549   4.727   2.123
 1687SOL    HW1 5960   1.621   4.758   2.185
 1687SOL    HW2 5961   1.475   4.795   2.122
 1688SOL     OW 5962   1.685   1.909   3.079
 1688SOL    HW1 5963   1.641   1.992   3.045
 1688SOL    HW2 5964   1.745   1.872   3.008
 1689SOL     OW 5965   2.786   1.484   2.457
 1689SOL    HW1 5966   2.865   1.450   2.507
 1689SOL    HW2 5967   2.816   1.541   2.380
 1690SOL     OW 5968   1.449   1.635   2.176
 1690SOL    HW1 5969   1.431   1.540   2.201
 1690SOL    HW2 5970   1.512   1.637   2.098
 1691SOL     OW 5971   5.254   3.371   3.271
 1691SOL    HW1 5972   5.351   3.357   3.294
 1691SOL    HW2 5973   5.215   3.440   3.331
 1692SOL     OW 5974   0.759   0.132   1.680
 1692SOL    HW1 5975   0.717   0.089   1.760
 1692SOL    HW2 5976   0.717   0.222   1.664
 1693SOL     OW 5977   2.610   2.470   3.943
 1693SOL    HW1 5978   2.521   2.478   3.986
 1693SOL    HW2 5979   2.674   2.427   4.006
 1694SOL     OW 5980   4.542   5.821   5.081
 1694SOL    HW1 5981   4.587   5.911   5.078
 1694SOL    HW2 5982   4.530   5.787   4.988
 1695SOL     OW 5983   2.878   2.579   5.490
 1695SOL    HW1 5984   2.884   2.627   5.578
 1695SOL    HW2 5985   2.967   2.581   5.445
 1696SOL     OW 5986   4.945   5.176   0.373
 1696SOL    HW1 5987   4.971   5.081   0.355
 1696SOL    HW2 5988   4.849   5.189   0.347
 1697SOL     OW 5989   1.236   0.630   1.364
 1697SOL    HW1 5990   1.222   0.617   1.265
 1697SOL    HW2 5991   1.150   0.658   1.406
 1698SOL     OW 5992   4.855   2.159   1.724
 1698SOL    HW1 5993   4.883   2.249   1.690
 1698SOL    HW2 5994   4.837   2.165   1.823
 1699SOL     OW 5995   2.568   3.255   1.032
 1699SOL    HW1 5996   2.505   3.313   1.084
 1699SOL    HW2 5997   2.518   3.206   0.961
 1700SOL     OW 5998   6.607   2.830   2.788
 1700SOL    HW1 5999   6.681   2.853   2.851
 1700SOL    HW2 6000   6.604   2.730   2.776
 1701SOL     OW 6001   6.237   2.846   4.287
 1701SOL    HW1 6002   6.159   2.797   4.248
 1701SOL    HW2 6003   6.220   2.945   4.281
 1702SOL     OW 6004   5.754   3.369   1.358
 1702SOL    HW1 6005   5.711   3.281   1.378
 1702SOL    HW2 6006   5.735   3.395   1.263
 1703SOL     OW 6007   2.133   3.537   0.840
 1703SOL    HW1 6008   2.196   3.579   0.905
 1703SOL    HW2 6009   2.113   3.602   0.766
 1704SOL     OW 6010   6.941   0.550   1.336
 1704SOL    HW1 6011   6.953   0.579   1.241
 1704SOL    HW2 6012   0.004   0.514   1.371
 1705SOL     OW 6013   3.881   2.689   1.578
 1705SOL    HW1 6014   3.846   2.633   1.653
 1705SOL    HW2 6015   3.895   2.631   1.497
 1706SOL     OW 6016   3.720   0.738   0.190
 1706SOL    HW1 6017   3.808   0.691   0.179
 1706SOL    HW2 6018   3.654   0.701   0.124
 1707SOL     OW 6019   5.673   1.898   2.746
 1707SOL    HW1 6020   5.706   1.991   2.764
 1707SOL    HW2 6021   5.699   1.839   2.822
 1708SOL     OW 6022   6.421   6.417   2.650
 1708SOL    HW1 6023   6.484   6.486   2.617
 1708SOL    HW2 6024   6.451   6.382   2.738
 1709SOL     OW 6025   2.982   6.489   2.369
 1709SOL    HW1 6026   3.043   6.410   2.364
 1709SOL    HW2 6027   2.951   6.502   2.463
 1710SOL     OW 6028   0.571   4.845   4.045
 1710SOL    HW1 6029   0.633   4.787   4.098
 1710SOL    HW2 6030   0.579   4.824   3.948
 1711SOL     OW 6031   1.486   4.825   5.912
 1711SOL    HW1 6032   1.567   4.873   5.946
 1711SOL    HW2 6033   1.514   4.752   5.850
 1712SOL     OW 6034   6.816   4.340   0.202
 1712SOL    HW1 6035   6.766   4.264   0.160
 1712SOL    HW2 6036   6.914   4.323   0.196
 1713SOL     OW 6037   1.691   2.692   1.420
 1713SOL    HW1 6038   1.776   2.705   1.368
 1713SOL    HW2 6039   1.674   2.773   1.476
 1714SOL     OW 6040   3.343   2.036   7.007
 1714SOL    HW1 6041   3.413   2.037   0.054
 1714SOL    HW2 6042   3.260   1.995   0.019
 1715SOL     OW 6043   0.757   3.331   2.842
 1715SOL    HW1 6044   0.773   3.360   2.936
 1715SOL    HW2 6045   0.679   3.381   2.805
 1716SOL     OW 6046   6.938   6.585   0.304
 1716SOL    HW1 6047   6.919   6.599   0.401
 1716SOL    HW2 6048   6.947   6.487   0.285
 1717SOL     OW 6049   2.807   6.720   6.812
 1717SOL    HW1 6050   2.818   6.635   6.760
 1717SOL    HW2 6051   2.773   6.792   6.752
 1718SOL     OW 6052   2.243   4.463   0.786
 1718SOL    HW1 6053   2.261   4.419   0.874
 1718SOL    HW2 6054   2.145   4.471   0.772
 1719SOL     OW 6055   1.912   3.394   1.460
 1719SOL    HW1 6056   1.970   3.341   1.398
 1719SOL    HW2 6057   1.945   3.489   1.464
 1720SOL     OW 6058   6.729   1.416   0.507
 1720SOL    HW1 6059   6.651   1.401   0.567
 1720SOL    HW2 6060   6.725   1.508   0.469
 1721SOL     OW 6061   1.681   6.490   3.490
 1721SOL    HW1 6062   1.606   6.551   3.464
 1721SOL    HW2 6063   1.767   6.540   3.486
 1722SOL     OW 6064   6.120   0.230   2.236
 1722SOL    HW1 6065   6.217   0.212   2.216
 1722SOL    HW2 6066   6.070   0.237   2.150
 1723SOL     OW 6067   0.031   1.756   2.979
 1723SOL    HW1 6068   0.122   1.755   3.019
 1723SOL    HW2 6069   7.019   1.662   2.974
 1724SOL     OW 6070   5.034   1.040   6.765
 1724SOL    HW1 6071   4.943   1.058   6.800
 1724SOL    HW2 6072   5.054   1.103   6.690
 1725SOL     OW 6073   3.317   4.351   1.331
 1725SOL    HW1 6074   3.264   4.272   1.361
 1725SOL    HW2 6075   3.325   4.417   1.406
 1726SOL     OW 6076   6.808   5.059   5.256
 1726SOL    HW1 6077   6.722   5.009   5.263
 1726SOL    HW2 6078   6.794   5.142   5.202
 1727SOL     OW 6079   4.112   3.396   5.168
 1727SOL    HW1 6080   4.144   3.486   5.198
 1727SOL    HW2 6081   4.061   3.352   5.242
 1728SOL     OW 6082   4.530   4.393   4.136
 1728SOL    HW1 6083   4.467   4.315   4.132
 1728SOL    HW2 6084   4.621   4.361   4.161
 1729SOL     OW 6085   1.208   4.019   2.882
 1729SOL    HW1 6086   1.250   4.076   2.953
 1729SOL    HW2 6087   1.193   4.074   2.800
 1730SOL     OW 6088   6.496   1.838   4.884
 1730SOL    HW1 6089   6.466   1.924   4.842
 1730SOL    HW2 6090   6.479   1.841   4.983
 1731SOL     OW 6091   2.003   5.006   1.252
 1731SOL    HW1 6092   1.942   5.024   1.329
 1731SOL    HW2 6093   1.955   5.022   1.166
 1732SOL     OW 6094   2.036   4.721   0.048
 1732SOL    HW1 6095   2.007   4.625   0.054
 1732SOL    HW2 6096   2.020   4.755   6.979
 1733SOL     OW 6097   1.392   3.613   2.065
 1733SOL    HW1 6098   1.330   3.586   1.992
 1733SOL    HW2 6099   1.487   3.602   2.035
 1734SOL     OW 6100   4.139   2.766   0.919
 1734SOL    HW1 6101   4.176   2.843   0.867
 1734SOL    HW2 6102   4.058   2.730   0.872
 1735SOL     OW 6103   5.873   5.088   1.477
 1735SOL    HW1 6104   5.953   5.110   1.421
 1735SOL    HW2 6105   5.887   5.000   1.523
 1736SOL     OW 6106   3.325   3.174   0.044
 1736SOL    HW1 6107   3.308   3.084   0.004
 1736SOL    HW2 6108   3.359   3.162   0.137
 1737SOL     OW 6109   2.279   0.318   3.843
 1737SOL    HW1 6110   2.314   0.303   3.935
 1737SOL    HW2 6111   2.326   0.257   3.779
 1738SOL     OW 6112   2.250   2.949   2.256
 1738SOL    HW1 6113   2.335   2.972   2.209
 1738SOL    HW2 6114   2.211   2.865   2.218
 1739SOL     OW 6115   4.370   2.189   4.821
 1739SOL    HW1 6116   4.375   2.110   4.760
 1739SOL    HW2 6117   4.450   2.189   4.881
 1740SOL     OW 6118   6.983   0.680   6.442
 1740SOL    HW1 6119   7.005   0.758   6.384
 1740SOL    HW2 6120   6.914   0.623   6.397
 1741SOL     OW 6121   2.027   0.641   2.566
 1741SOL    HW1 6122   1.942   0.588   2.575
 1741SOL    HW2 6123   2.053   0.646   2.469
 1742SOL     OW 6124   6.049   0.501   4.759
 1742SOL    HW1 6125   6.001   0.586   4.777
 1742SOL    HW2 6126   6.057   0.448   4.843
 1743SOL     OW 6127   3.456   1.666   1.373
 1743SOL    HW1 6128   3.546   1.703   1.348
 1743SOL    HW2 6129   3.403   1.651   1.290
 1744SOL     OW 6130   2.471   0.923   2.021
 1744SOL    HW1 6131   2.462   0.899   1.924
 1744SOL    HW2 6132   2.541   0.994   2.031
 1745SOL     OW 6133   6.950   1.682   3.264
 1745SOL    HW1 6134   6.995   1.771   3.258
 1745SOL    HW2 6135   6.942   1.643   3.172
 1746SOL     OW 6136   2.739   0.582   6.584
 1746SOL    HW1 6137   2.721   0.574   6.682
 1746SOL    HW2 6138   2.653   0.572   6.533
 1747SOL     OW 6139   3.650   0.019   1.281
 1747SOL    HW1 6140   3.684   0.008   1.187
 1747SOL    HW2 6141   3.724   0.053   1.339
 1748SOL     OW 6142   5.920   1.945   3.699
 1748SOL    HW1 6143   5.954   1.851   3.708
 1748SOL    HW2 6144   5.976   1.995   3.634
 1749SOL     OW 6145   4.373   6.919   6.660
 1749SOL    HW1 6146   4.279   6.943   6.684
 1749SOL    HW2 6147   4.372   6.855   6.583
 1750SOL     OW 6148   5.120   1.310   2.271
 1750SOL    HW1 6149   5.070   1.224   2.268
 1750SOL    HW2 6150   5.188   1.307   2.345
 1751SOL     OW 6151   1.979   5.296   4.649
 1751SOL    HW1 6152   1.881   5.298   4.627
 1751SOL    HW2 6153   1.997   5.222   4.714
 1752SOL     OW 6154   6.642   2.017   0.875
 1752SOL    HW1 6155   6.689   2.047   0.959
 1752SOL    HW2 6156   6.571   2.082   0.851
 1753SOL     OW 6157   0.738   6.807   0.588
 1753SOL    HW1 6158   0.663   6.844   0.533
 1753SOL    HW2 6159   0.704   6.734   0.647
 1754SOL     OW 6160   3.588   3.286   1.265
 1754SOL    HW1 6161   3.551   3.328   1.182
 1754SOL    HW2 6162   3.583   3.351   1.341
 1755SOL     OW 6163   5.254   5.005   1.617
 1755SOL    HW1 6164   5.226   4.968   1.529
 1755SOL    HW2 6165   5.316   5.082   1.603
 1756SOL     OW 6166   6.450   4.985   4.331
 1756SOL    HW1 6167   6.382   4.933   4.279
 1756SOL    HW2 6168   6.443   5.082   4.308
 1757SOL     OW 6169   2.778   6.603   4.394
 1757SOL    HW1 6170   2.702   6.575   4.453
 1757SOL    HW2 6171   2.817   6.689   4.429
 1758SOL     OW 6172   2.684   0.992   3.626
 1758SOL    HW1 6173   2.767   0.945   3.596
 1758SOL    HW2 6174   2.668   1.072   3.568
 1759SOL     OW 6175   0.051   4.601   5.854
 1759SOL    HW1 6176   6.988   4.559   5.879
 1759SOL    HW2 6177   0.035   4.681   5.797
 1760SOL     OW 6178   6.182   1.418   1.430
 1760SOL    HW1 6179   6.132   1.333   1.408
 1760SOL    HW2 6180   6.214   1.414   1.525
 1761SOL     OW 6181   5.486   1.107   0.794
 1761SOL    HW1 6182   5.409   1.079   0.736
 1761SOL    HW2 6183   5.560   1.040   0.787
 1762SOL     OW 6184   6.613   2.230   5.753
 1762SOL    HW1 6185   6.571   2.295   5.817
 1762SOL    HW2 6186   6.709   2.255   5.738
 1763SOL     OW 6187   1.878   4.087   4.169
 1763SOL    HW1 6188   1.828   4.104   4.254
 1763SOL    HW2 6189   1.895   3.989   4.159
 1764SOL     OW 6190   1.168   3.403   3.258
 1764SOL    HW1 6191   1.130   3.318   3.220
 1764SOL    HW2 6192   1.229   3.382   3.334
 1765SOL     OW 6193   2.722   1.492   0.323
 1765SOL    HW1 6194   2.729   1.474   0.224
 1765SOL    HW2 6195   2.725   1.405   0.372
 1766SOL     OW 6196   5.506   3.182   4.823
 1766SOL    HW1 6197   5.527   3.194   4.920
 1766SOL    HW2 6198   5.509   3.270   4.776
 1767SOL     OW 6199   5.416   3.721   2.205
 1767SOL    HW1 6200   5.441   3.643   2.263
 1767SOL    HW2 6201   5.338   3.769   2.245
 1768SOL     OW 6202   4.257   0.222   3.481
 1768SOL    HW1 6203   4.341   0.180   3.516
 1768SOL    HW2 6204   4.214   0.275   3.554
 1769SOL     OW 6205   3.958   1.362   3.651
 1769SOL    HW1 6206   3.871   1.367   3.700
 1769SOL    HW2 6207   3.942   1.321   3.561
 1770SOL     OW 6208   1.684   5.608   5.649
 1770SOL    HW1 6209   1.746   5.662   5.592
 1770SOL    HW2 6210   1.592   5.609   5.608
 1771SOL     OW 6211   3.131   6.488   6.752
 1771SOL    HW1 6212   3.219   6.445   6.734
 1771SOL    HW2 6213   3.065   6.417   6.777
 1772SOL     OW 6214   3.312   6.988   3.800
 1772SOL    HW1 6215   3.397   7.004   3.851
 1772SOL    HW2 6216   3.301   6.890   3.783
 1773SOL     OW 6217   2.458   4.963   6.255
 1773SOL    HW1 6218   2.524   5.030   6.291
 1773SOL    HW2 6219   2.366   4.992   6.279
 1774SOL     OW 6220   4.205   5.559   1.670
 1774SOL    HW1 6221   4.217   5.610   1.755
 1774SOL    HW2 6222   4.244   5.467   1.681
 1775SOL     OW 6223   0.704   3.910   2.333
 1775SOL    HW1 6224   0.618   3.950   2.300
 1775SOL    HW2 6225   0.779   3.937   2.271
 1776SOL     OW 6226   4.137   6.241   4.233
 1776SOL    HW1 6227   4.113   6.297   4.313
 1776SOL    HW2 6228   4.152   6.300   4.154
 1777SOL     OW 6229   3.762   5.969   6.911
 1777SOL    HW1 6230   3.758   5.891   6.849
 1777SOL    HW2 6231   3.841   6.025   6.888
 1778SOL     OW 6232   4.471   3.320   5.584
 1778SOL    HW1 6233   4.411   3.321   5.664
 1778SOL    HW2 6234   4.423   3.276   5.508
 1779SOL     OW 6235   3.829   0.539   4.971
 1779SOL    HW1 6236   3.872   0.488   5.046
 1779SOL    HW2 6237   3.859   0.635   4.974
 1780SOL     OW 6238   3.375   2.923   6.214
 1780SOL    HW1 6239   3.446   2.887   6.275
 1780SOL    HW2 6240   3.369   2.866   6.132
 1781SOL     OW 6241   4.108   6.696   3.169
 1781SOL    HW1 6242   4.176   6.770   3.159
 1781SOL    HW2 6243   4.024   6.721   3.121
 1782SOL     OW 6244   2.994   1.702   2.811
 1782SOL    HW1 6245   2.957   1.610   2.799
 1782SOL    HW2 6246   2.929   1.769   2.775
 1783SOL     OW 6247   2.799   5.138   6.090
 1783SOL    HW1 6248   2.821   5.229   6.055
 1783SOL    HW2 6249   2.757   5.147   6.181
 1784SOL     OW 6250   4.012   0.672   5.596
 1784SOL    HW1 6251   4.111   0.684   5.584
 1784SOL    HW2 6252   3.963   0.719   5.523
 1785SOL     OW 6253   6.556   4.072   2.754
 1785SOL    HW1 6254   6.591   3.993   2.704
 1785SOL    HW2 6255   6.492   4.122   2.695
 1786SOL     OW 6256   2.292   2.759   0.068
 1786SOL    HW1 6257   2.305   2.729   0.163
 1786SOL    HW2 6258   2.212   2.819   0.063
 1787SOL     OW 6259   3.180   1.305   5.479
 1787SOL    HW1 6260   3.215   1.250   5.403
 1787SOL    HW2 6261   3.237   1.290   5.560
 1788SOL     OW 6262   2.121   4.594   6.379
 1788SOL    HW1 6263   2.100   4.508   6.330
 1788SOL    HW2 6264   2.194   4.578   6.445
 1789SOL     OW 6265   5.845   2.188   0.919
 1789SOL    HW1 6266   5.789   2.111   0.951
 1789SOL    HW2 6267   5.869   2.175   0.823
 1790SOL     OW 6268   4.066   6.554   3.405
 1790SOL    HW1 6269   4.079   6.580   3.310
 1790SOL    HW2 6270   4.097   6.459   3.418
 1791SOL     OW 6271   6.734   0.714   2.256
 1791SOL    HW1 6272   6.795   0.760   2.320
 1791SOL    HW2 6273   6.779   0.705   2.167
 1792SOL     OW 6274   0.079   3.824   4.901
 1792SOL    HW1 6275   0.010   3.876   4.950
 1792SOL    HW2 6276   0.096   3.866   4.812
 1793SOL     OW 6277   6.175   0.354   3.863
 1793SOL    HW1 6278   6.191   0.274   3.921
 1793SOL    HW2 6279   6.263   0.394   3.837
 1794SOL     OW 6280   5.246   5.974   5.920
 1794SOL    HW1 6281   5.152   5.998   5.893
 1794SOL    HW2 6282   5.303   5.967   5.838
 1795SOL     OW 6283   0.703   2.775   0.987
 1795SOL    HW1 6284   0.646   2.698   0.959
 1795SOL    HW2 6285   0.797   2.759   0.957
 1796SOL     OW 6286   3.016   1.181   5.857
 1796SOL    HW1 6287   3.041   1.278   5.856
 1796SOL    HW2 6288   2.996   1.152   5.950
 1797SOL     OW 6289   1.148   0.294   0.219
 1797SOL    HW1 6290   1.099   0.243   0.290
 1797SOL    HW2 6291   1.083   0.351   0.169
 1798SOL     OW 6292   4.396   2.439   4.413
 1798SOL    HW1 6293   4.299   2.415   4.415
 1798SOL    HW2 6294   4.451   2.356   4.404
 1799SOL     OW 6295   7.007   3.000   4.493
 1799SOL    HW1 6296   0.053   3.070   4.473
 1799SOL    HW2 6297   6.916   3.037   4.476
 1800SOL     OW 6298   4.380   4.253   1.429
 1800SOL    HW1 6299   4.304   4.287   1.484
 1800SOL    HW2 6300   4.453   4.220   1.489
 1801SOL     OW 6301   0.097   1.072   2.061
 1801SOL    HW1 6302   0.016   1.064   2.119
 1801SOL    HW2 6303   0.160   1.138   2.100
 1802SOL     OW 6304   5.782   6.271   4.181
 1802SOL    HW1 6305   5.739   6.232   4.100
 1802SOL    HW2 6306   5.879   6.250   4.181
 1803SOL     OW 6307   0.687   5.202   6.482
 1803SOL    HW1 6308   0.587   5.195   6.481
 1803SOL    HW2 6309   0.719   5.227   6.390
 1804SOL     OW 6310   2.636   4.101   5.370
 1804SOL    HW1 6311   2.614   4.051   5.455
 1804SOL    HW2 6312   2.589   4.057   5.294
 1805SOL     OW 6313   5.009   3.666   6.266
 1805SOL    HW1 6314   4.992   3.674   6.168
 1805SOL    HW2 6315   4.925   3.637   6.312
 1806SOL     OW 6316   0.482   0.254   0.041
 1806SOL    HW1 6317   0.548   0.179   0.055
 1806SOL    HW2 6318   0.466   0.266   6.966
 1807SOL     OW 6319   5.375   2.534   4.811
 1807SOL    HW1 6320   5.320   2.551   4.892
 1807SOL    HW2 6321   5.472   2.550   4.832
 1808SOL     OW 6322   0.013   4.818   5.671
 1808SOL    HW1 6323   7.003   4.896   5.724
 1808SOL    HW2 6324   6.959   4.762   5.642
 1809SOL     OW 6325   2.532   1.992   5.562
 1809SOL    HW1 6326   2.477   2.035   5.633
 1809SOL    HW2 6327   2.615   2.046   5.547
 1810SOL     OW 6328   2.796   0.236   3.613
 1810SOL    HW1 6329   2.778   0.263   3.707
 1810SOL    HW2 6330   2.764   0.142   3.598
 1811SOL     OW 6331   5.775   5.917   3.899
 1811SOL    HW1 6332   5.865   5.959   3.913
 1811SOL    HW2 6333   5.752   5.861   3.979
 1812SOL     OW 6334   4.079   5.699   5.050
 1812SOL    HW1 6335   4.140   5.707   4.972
 1812SOL    HW2 6336   4.045   5.790   5.074
 1813SOL     OW 6337   5.670   4.069   0.592
 1813SOL    HW1 6338   5.745   4.051   0.655
 1813SOL    HW2 6339   5.698   4.048   0.498
 1814SOL     OW 6340   4.672   6.934   1.601
 1814SOL    HW1 6341   4.597   6.952   1.664
 1814SOL    HW2 6342   4.677   7.008   1.533
 1815SOL     OW 6343   0.321   1.583   2.618
 1815SOL    HW1 6344   0.254   1.657   2.610
 1815SOL    HW2 6345   0.360   1.564   2.529
 1816SOL     OW 6346   2.851   3.259   1.122
 1816SOL    HW1 6347   2.784   3.300   1.061
 1816SOL    HW2 6348   2.817   3.171   1.155
 1817SOL     OW 6349   1.518   6.471   2.411
 1817SOL    HW1 6350   1.596   6.533   2.398
 1817SOL    HW2 6351   1.471   6.494   2.496
 1818SOL     OW 6352   1.060   0.291   3.389
 1818SOL    HW1 6353   0.979   0.234   3.398
 1818SOL    HW2 6354   1.034   0.388   3.397
 1819SOL     OW 6355   1.052   4.301   2.208
 1819SOL    HW1 6356   1.141   4.290   2.252
 1819SOL    HW2 6357   1.063   4.288   2.109
 1820SOL     OW 6358   4.727   1.318   2.253
 1820SOL    HW1 6359   4.797   1.381   2.285
 1820SOL    HW2 6360   4.636   1.354   2.277
 1821SOL     OW 6361   1.862   1.335   2.873
 1821SOL    HW1 6362   1.785   1.271   2.874
 1821SOL    HW2 6363   1.945   1.287   2.845
 1822SOL     OW 6364   3.282   2.552   1.696
 1822SOL    HW1 6365   3.184   2.568   1.707
 1822SOL    HW2 6366   3.303   2.456   1.712
 1823SOL     OW 6367   3.846   6.495   2.440
 1823SOL    HW1 6368   3.758   6.535   2.467
 1823SOL    HW2 6369   3.902   6.565   2.395
 1824SOL     OW 6370   4.272   2.526   1.428
 1824SOL    HW1 6371   4.255   2.624   1.417
 1824SOL    HW2 6372   4.278   2.483   1.338
 1825SOL     OW 6373   1.392   0.241   1.421
 1825SOL    HW1 6374   1.350   0.153   1.438
 1825SOL    HW2 6375   1.342   0.313   1.469
 1826SOL     OW 6376   3.213   1.617   1.477
 1826SOL    HW1 6377   3.306   1.631   1.444
 1826SOL    HW2 6378   3.158   1.699   1.459
 1827SOL     OW 6379   6.827   4.851   2.037
 1827SOL    HW1 6380   6.914   4.895   2.058
 1827SOL    HW2 6381   6.793   4.885   1.949
 1828SOL     OW 6382   0.852   2.971   0.235
 1828SOL    HW1 6383   0.805   2.990   0.321
 1828SOL    HW2 6384   0.894   2.880   0.238
 1829SOL     OW 6385   5.295   6.295   3.291
 1829SOL    HW1 6386   5.252   6.211   3.260
 1829SOL    HW2 6387   5.298   6.296   3.391
 1830SOL     OW 6388   4.645   0.163   3.802
 1830SOL    HW1 6389   4.561   0.111   3.816
 1830SOL    HW2 6390   4.723   0.108   3.831
 1831SOL     OW 6391   6.237   6.858   2.571
 1831SOL    HW1 6392   6.194   6.789   2.512
 1831SOL    HW2 6393   6.292   6.812   2.641
 1832SOL     OW 6394   4.508   2.585   1.530
 1832SOL    HW1 6395   4.414   2.552   1.524
 1832SOL    HW2 6396   4.519   2.641   1.612
 1833SOL     OW 6397   5.015   0.210   5.022
 1833SOL    HW1 6398   4.962   0.172   4.946
 1833SOL    HW2 6399   4.988   0.164   5.107
 1834SOL     OW 6400   3.053   3.771   0.937
 1834SOL    HW1 6401   3.079   3.712   1.014
 1834SOL    HW2 6402   3.094   3.861   0.948
 1835SOL     OW 6403   1.947   4.270   1.569
 1835SOL    HW1 6404   2.034   4.242   1.609
 1835SOL    HW2 6405   1.919   4.357   1.609
 1836SOL     OW 6406   0.138   1.631   0.635
 1836SOL    HW1 6407   0.070   1.654   0.705
 1836SOL    HW2 6408   0.102   1.653   0.545
 1837SOL     OW 6409   1.017   2.089   4.357
 1837SOL    HW1 6410   1.056   2.015   4.412
 1837SOL    HW2 6411   1.066   2.095   4.270
 1838SOL     OW 6412   0.065   2.386   3.862
 1838SOL    HW1 6413   0.094   2.429   3.947
 1838SOL    HW2 6414   7.005   2.334   3.877
 1839SOL     OW 6415   5.668   2.928   5.012
 1839SOL    HW1 6416   5.602   2.914   4.938
 1839SOL    HW2 6417   5.627   2.899   5.099
 1840SOL     OW 6418   2.550   5.975   1.211
 1840SOL    HW1 6419   2.477   5.911   1.232
 1840SOL    HW2 6420   2.633   5.925   1.187
 1841SOL     OW 6421   2.038   3.625   4.086
 1841SOL    HW1 6422   2.062   3.665   3.997
 1841SOL    HW2 6423   2.110   3.646   4.152
 1842SOL     OW 6424   0.250   4.975   1.027
 1842SOL    HW1 6425   0.305   5.049   0.987
 1842SOL    HW2 6426   0.212   5.005   1.114
 1843SOL     OW 6427   1.790   1.854   5.128
 1843SOL    HW1 6428   1.774   1.760   5.158
 1843SOL    HW2 6429   1.869   1.891   5.177
 1844SOL     OW 6430   3.971   2.160   5.126
 1844SOL    HW1 6431   3.992   2.073   5.171
 1844SOL    HW2 6432   3.992   2.235   5.188
 1845SOL     OW 6433   2.968   6.988   6.567
 1845SOL    HW1 6434   3.028   6.984   6.647
 1845SOL    HW2 6435   3.022   6.971   6.484
 1846SOL     OW 6436   4.107   2.127   0.025
 1846SOL    HW1 6437   4.057   2.043   0.046
 1846SOL    HW2 6438   4.201   2.119   0.058
 1847SOL     OW 6439   0.893   0.090   0.321
 1847SOL    HW1 6440   0.944   0.018   0.369
 1847SOL    HW2 6441   0.826   0.131   0.384
 1848SOL     OW 6442   2.760   5.870   2.508
 1848SOL    HW1 6443   2.681   5.819   2.475
 1848SOL    HW2 6444   2.840   5.810   2.508
 1849SOL     OW 6445   3.954   0.569   0.115
 1849SOL    HW1 6446   4.019   0.555   0.189
 1849SOL    HW2 6447   4.000   0.611   0.037
 1850SOL     OW 6448   6.223   1.740   3.042
 1850SOL    HW1 6449   6.211   1.641   3.051
 1850SOL    HW2 6450   6.318   1.760   3.018
 1851SOL     OW 6451   0.096   1.537   1.570
 1851SOL    HW1 6452   0.058   1.467   1.509
 1851SOL    HW2 6453   0.026   1.606   1.588
 1852SOL     OW 6454   4.140   3.659   0.188
 1852SOL    HW1 6455   4.126   3.562   0.171
 1852SOL    HW2 6456   4.208   3.695   0.125
 1853SOL     OW 6457   0.917   4.055   1.569
 1853SOL    HW1 6458   0.850   4.001   1.620
 1853SOL    HW2 6459   0.914   4.031   1.472
 1854SOL     OW 6460   2.979   6.056   4.106
 1854SOL    HW1 6461   3.033   6.134   4.076
 1854SOL    HW2 6462   3.040   5.981   4.131
 1855SOL     OW 6463   5.055   5.336   0.565
 1855SOL    HW1 6464   5.023   5.287   0.484
 1855SOL    HW2 6465   4.981   5.343   0.632
 1856SOL     OW 6466   5.485   2.211   5.535
 1856SOL    HW1 6467   5.400   2.204   5.483
 1856SOL    HW2 6468   5.562   2.180   5.479
 1857SOL     OW 6469   4.238   0.906   4.537
 1857SOL    HW1 6470   4.173   0.831   4.548
 1857SOL    HW2 6471   4.271   0.909   4.443
 1858SOL     OW 6472   5.600   3.718   4.094
 1858SOL    HW1 6473   5.679   3.716   4.033
 1858SOL    HW2 6474   5.590   3.629   4.138
 1859SOL     OW 6475   4.160   2.322   3.697
 1859SOL    HW1 6476   4.163   2.326   3.797
 1859SOL    HW2 6477   4.085   2.262   3.668
 1860SOL     OW 6478   6.383   1.172   3.947
 1860SOL    HW1 6479   6.450   1.151   4.017
 1860SOL    HW2 6480   6.376   1.095   3.884
 1861SOL     OW 6481   4.760   6.363   2.270
 1861SOL    HW1 6482   4.765   6.400   2.363
 1861SOL    HW2 6483   4.738   6.265   2.274
 1862SOL     OW 6484   1.731   0.682   0.012
 1862SOL    HW1 6485   1.780   0.757   0.056
 1862SOL    HW2 6486   1.666   0.642   0.076
 1863SOL     OW 6487   2.846   2.135   0.900
 1863SOL    HW1 6488   2.925   2.097   0.949
 1863SOL    HW2 6489   2.877   2.183   0.819
 1864SOL     OW 6490   0.682   6.847   4.887
 1864SOL    HW1 6491   0.687   6.794   4.803
 1864SOL    HW2 6492   0.646   6.789   4.961
 1865SOL     OW 6493   3.693   1.730   5.695
 1865SOL    HW1 6494   3.708   1.805   5.631
 1865SOL    HW2 6495   3.606   1.687   5.676
 1866SOL     OW 6496   4.404   4.509   1.850
 1866SOL    HW1 6497   4.426   4.412   1.858
 1866SOL    HW2 6498   4.442   4.544   1.764
 1867SOL     OW 6499   0.384   4.051   0.153
 1867SOL    HW1 6500   0.294   4.021   0.183
 1867SOL    HW2 6501   0.404   4.013   0.063
 1868SOL     OW 6502   5.766   4.319   6.666
 1868SOL    HW1 6503   5.698   4.344   6.597
 1868SOL    HW2 6504   5.740   4.357   6.755
 1869SOL     OW 6505   6.881   2.315   5.121
 1869SOL    HW1 6506   6.857   2.220   5.141
 1869SOL    HW2 6507   6.971   2.335   5.158
 1870SOL     OW 6508   2.050   4.570   5.582
 1870SOL    HW1 6509   2.074   4.618   5.666
 1870SOL    HW2 6510   1.979   4.621   5.533
 1871SOL     OW 6511   2.157   0.353   1.025
 1871SOL    HW1 6512   2.231   0.359   0.958
 1871SOL    HW2 6513   2.072   0.387   0.986
 1872SOL     OW 6514   2.916   4.577   0.089
 1872SOL    HW1 6515   3.013   4.588   0.110
 1872SOL    HW2 6516   2.874   4.667   0.078
 1873SOL     OW 6517   3.863   0.919   5.421
 1873SOL    HW1 6518   3.846   1.017   5.432
 1873SOL    HW2 6519   3.914   0.903   5.337
 1874SOL     OW 6520   2.048   1.980   1.844
 1874SOL    HW1 6521   2.105   1.898   1.835
 1874SOL    HW2 6522   1.964   1.956   1.893
 1875SOL     OW 6523   0.773   0.241   6.344
 1875SOL    HW1 6524   0.834   0.164   6.362
 1875SOL    HW2 6525   0.685   0.225   6.390
 1876SOL     OW 6526   2.859   6.912   4.836
 1876SOL    HW1 6527   2.953   6.933   4.810
 1876SOL    HW2 6528   2.838   6.957   4.923
 1877SOL     OW 6529   0.630   0.072   4.019
 1877SOL    HW1 6530   0.689   0.147   3.989
 1877SOL    HW2 6531   0.610   0.012   3.941
 1878SOL     OW 6532   0.114   1.802   4.111
 1878SOL    HW1 6533   0.042   1.737   4.135
 1878SOL    HW2 6534   0.190   1.793   4.175
 1879SOL     OW 6535   1.311   3.320   4.511
 1879SOL    HW1 6536   1.321   3.410   4.554
 1879SOL    HW2 6537   1.255   3.329   4.429
 1880SOL     OW 6538   6.770   1.731   5.199
 1880SOL    HW1 6539   6.856   1.753   5.244
 1880SOL    HW2 6540   6.716   1.815   5.187
 1881SOL     OW 6541   6.432   1.568   1.268
 1881SOL    HW1 6542   6.356   1.627   1.295
 1881SOL    HW2 6543   6.495   1.619   1.210
 1882SOL     OW 6544   1.415   3.875   6.446
 1882SOL    HW1 6545   1.341   3.810   6.427
 1882SOL    HW2 6546   1.500   3.840   6.408
 1883SOL     OW 6547   6.389   2.547   2.543
 1883SOL    HW1 6548   6.461   2.599   2.498
 1883SOL    HW2 6549   6.422   2.454   2.562
 1884SOL     OW 6550   1.083   1.514   0.836
 1884SOL    HW1 6551   1.177   1.495   0.808
 1884SOL    HW2 6552   1.074   1.611   0.860
 1885SOL     OW 6553   1.919   1.445   5.680
 1885SOL    HW1 6554   1.918   1.498   5.595
 1885SOL    HW2 6555   1.988   1.373   5.674
 1886SOL     OW 6556   2.299   0.017   2.466
 1886SOL    HW1 6557   2.361   6.968   2.437
 1886SOL    HW2 6558   2.216   7.000   2.505
 1887SOL     OW 6559   1.090   5.286   6.000
 1887SOL    HW1 6560   1.036   5.261   5.920
 1887SOL    HW2 6561   1.076   5.383   6.021
 1888SOL     OW 6562   3.326   2.253   0.258
 1888SOL    HW1 6563   3.241   2.257   0.310
 1888SOL    HW2 6564   3.310   2.286   0.165
 1889SOL     OW 6565   1.027   3.572   4.441
 1889SOL    HW1 6566   0.987   3.480   4.430
 1889SOL    HW2 6567   1.106   3.566   4.502
 1890SOL     OW 6568   0.628   5.518   4.437
 1890SOL    HW1 6569   0.663   5.552   4.525
 1890SOL    HW2 6570   0.663   5.426   4.421
 1891SOL     OW 6571   3.878   2.946   1.919
 1891SOL    HW1 6572   3.947   2.997   1.970
 1891SOL    HW2 6573   3.801   3.006   1.898
 1892SOL     OW 6574   0.082   0.411   1.762
 1892SOL    HW1 6575   0.146   0.453   1.825
 1892SOL    HW2 6576   0.094   0.311   1.763
 1893SOL     OW 6577   3.752   3.058   2.540
 1893SOL    HW1 6578   3.777   3.089   2.448
 1893SOL    HW2 6579   3.656   3.028   2.540
 1894SOL     OW 6580   3.213   3.730   4.273
 1894SOL    HW1 6581   3.272   3.804   4.240
 1894SOL    HW2 6582   3.211   3.731   4.373
 1895SOL     OW 6583   4.333   0.513   1.169
 1895SOL    HW1 6584   4.277   0.559   1.237
 1895SOL    HW2 6585   4.323   0.559   1.081
 1896SOL     OW 6586   6.207   1.653   0.783
 1896SOL    HW1 6587   6.224   1.731   0.843
 1896SOL    HW2 6588   6.116   1.661   0.742
 1897SOL     OW 6589   1.486   5.291   2.322
 1897SOL    HW1 6590   1.494   5.388   2.348
 1897SOL    HW2 6591   1.483   5.284   2.222
 1898SOL     OW 6592   1.893   5.309   3.141
 1898SOL    HW1 6593   1.871   5.266   3.228
 1898SOL    HW2 6594   1.983   5.278   3.110
 1899SOL     OW 6595   0.636   0.611   1.502
 1899SOL    HW1 6596   0.553   0.639   1.454
 1899SOL    HW2 6597   0.649   0.669   1.582
 1900SOL     OW 6598   2.820   0.090   6.985
 1900SOL    HW1 6599   2.907   0.109   0.007
 1900SOL    HW2 6600   2.795   7.018   7.000
 1901SOL     OW 6601   2.075   3.041   1.291
 1901SOL    HW1 6602   2.066   3.141   1.290
 1901SOL    HW2 6603   2.123   3.011   1.209
 1902SOL     OW 6604   2.623   0.329   4.735
 1902SOL    HW1 6605   2.604   0.306   4.831
 1902SOL    HW2 6606   2.697   0.271   4.702
 1903SOL     OW 6607   0.670   3.025   3.573
 1903SOL    HW1 6608   0.762   2.993   3.550
 1903SOL    HW2 6609   0.672   3.124   3.586
 1904SOL     OW 6610   5.849   5.069   2.883
 1904SOL    HW1 6611   5.832   5.111   2.794
 1904SOL    HW2 6612   5.878   4.974   2.871
 1905SOL     OW 6613   0.885   0.500   3.370
 1905SOL    HW1 6614   0.786   0.487   3.384
 1905SOL    HW2 6615   0.904   0.509   3.272
 1906SOL     OW 6616   2.759   0.709   5.855
 1906SOL    HW1 6617   2.697   0.640   5.817
 1906SOL    HW2 6618   2.854   0.681   5.840
 1907SOL     OW 6619   4.905   2.317   0.706
 1907SOL    HW1 6620   4.840   2.278   0.771
 1907SOL    HW2 6621   4.949   2.397   0.746
 1908SOL     OW 6622   3.709   6.912   6.917
 1908SOL    HW1 6623   3.718   6.818   6.950
 1908SOL    HW2 6624   3.656   6.966   6.983
 1909SOL     OW 6625   6.975   3.559   4.426
 1909SOL    HW1 6626   6.981   3.630   4.496
 1909SOL    HW2 6627   0.037   3.558   4.373
 1910SOL     OW 6628   6.456   5.740   5.893
 1910SOL    HW1 6629   6.430   5.772   5.984
 1910SOL    HW2 6630   6.416   5.649   5.876
 1911SOL     OW 6631   0.115   4.677   4.261
 1911SOL    HW1 6632   0.187   4.663   4.329
 1911SOL    HW2 6633   0.112   4.773   4.234
 1912SOL     OW 6634   2.695   4.875   2.523
 1912SOL    HW1 6635   2.606   4.843   2.490
 1912SOL    HW2 6636   2.721   4.958   2.474
 1913SOL     OW 6637   2.091   5.428   4.943
 1913SOL    HW1 6638   2.134   5.391   4.860
 1913SOL    HW2 6639   2.147   5.405   5.022
 1914SOL     OW 6640   2.916   4.038   5.904
 1914SOL    HW1 6641   2.866   4.071   5.825
 1914SOL    HW2 6642   2.906   4.102   5.980
 1915SOL     OW 6643   4.396   3.028   6.149
 1915SOL    HW1 6644   4.304   3.053   6.180
 1915SOL    HW2 6645   4.464   3.064   6.213
 1916SOL     OW 6646   3.796   0.123   1.523
 1916SOL    HW1 6647   3.698   0.128   1.543
 1916SOL    HW2 6648   3.847   0.119   1.609
 1917SOL     OW 6649   2.675   4.954   0.706
 1917SOL    HW1 6650   2.712   4.887   0.771
 1917SOL    HW2 6651   2.699   4.927   0.613
 1918SOL     OW 6652   0.903   0.718   4.551
 1918SOL    HW1 6653   0.899   0.636   4.495
 1918SOL    HW2 6654   0.971   0.706   4.624
 1919SOL     OW 6655   1.524   2.239   1.333
 1919SOL    HW1 6656   1.431   2.246   1.367
 1919SOL    HW2 6657   1.564   2.330   1.325
 1920SOL     OW 6658   5.385   2.413   2.029
 1920SOL    HW1 6659   5.354   2.327   2.070
 1920SOL    HW2 6660   5.389   2.403   1.930
 1921SOL     OW 6661   1.350   2.707   0.356
 1921SOL    HW1 6662   1.430   2.665   0.313
 1921SOL    HW2 6663   1.320   2.785   0.301
 1922SOL     OW 6664   3.367   3.098   2.017
 1922SOL    HW1 6665   3.386   3.146   2.103
 1922SOL    HW2 6666   3.371   2.999   2.033
 1923SOL     OW 6667   5.049   0.266   6.237
 1923SOL    HW1 6668   5.093   0.219   6.161
 1923SOL    HW2 6669   4.999   0.346   6.204
 1924SOL     OW 6670   4.594   0.133   1.117
 1924SOL    HW1 6671   4.679   0.150   1.067
 1924SOL    HW2 6672   4.522   0.191   1.080
 1925SOL     OW 6673   1.289   4.396   1.200
 1925SOL    HW1 6674   1.196   4.377   1.231
 1925SOL    HW2 6675   1.332   4.311   1.170
 1926SOL     OW 6676   3.896   0.649   1.715
 1926SOL    HW1 6677   3.953   0.732   1.712
 1926SOL    HW2 6678   3.897   0.605   1.625
 1927SOL     OW 6679   2.413   4.624   1.329
 1927SOL    HW1 6680   2.446   4.570   1.252
 1927SOL    HW2 6681   2.315   4.638   1.319
 1928SOL     OW 6682   4.758   4.231   4.137
 1928SOL    HW1 6683   4.836   4.281   4.100
 1928SOL    HW2 6684   4.753   4.141   4.094
 1929SOL     OW 6685   2.930   1.199   2.711
 1929SOL    HW1 6686   3.020   1.172   2.746
 1929SOL    HW2 6687   2.874   1.118   2.698
 1930SOL     OW 6688   4.752   3.248   6.549
 1930SOL    HW1 6689   4.842   3.285   6.573
 1930SOL    HW2 6690   4.681   3.314   6.575
 1931SOL     OW 6691   1.149   1.763   5.800
 1931SOL    HW1 6692   1.200   1.723   5.876
 1931SOL    HW2 6693   1.053   1.735   5.806
 1932SOL     OW 6694   4.527   2.020   3.405
 1932SOL    HW1 6695   4.475   2.101   3.378
 1932SOL    HW2 6696   4.466   1.941   3.406
 1933SOL     OW 6697   0.452   2.058   0.104
 1933SOL    HW1 6698   0.438   1.963   0.075
 1933SOL    HW2 6699   0.512   2.060   0.184
 1934SOL     OW 6700   6.950   0.514   4.869
 1934SOL    HW1 6701   6.923   0.471   4.783
 1934SOL    HW2 6702   6.890   0.481   4.943
 1935SOL     OW 6703   5.325   4.741   3.552
 1935SOL    HW1 6704   5.320   4.655   3.603
 1935SOL    HW2 6705   5.275   4.812   3.601
 1936SOL     OW 6706   5.515   3.277   4.480
 1936SOL    HW1 6707   5.608   3.240   4.474
 1936SOL    HW2 6708   5.509   3.340   4.558
 1937SOL     OW 6709   4.915   5.497   6.594
 1937SOL    HW1 6710   4.892   5.446   6.677
 1937SOL    HW2 6711   4.958   5.584   6.619
 1938SOL     OW 6712   0.787   2.428   6.680
 1938SOL    HW1 6713   0.843   2.511   6.684
 1938SOL    HW2 6714   0.703   2.442   6.732
 1939SOL     OW 6715   0.893   5.776   5.210
 1939SOL    HW1 6716   0.869   5.824   5.295
 1939SOL    HW2 6717   0.982   5.732   5.221
 1940SOL     OW 6718   5.997   4.853   1.612
 1940SOL    HW1 6719   6.090   4.867   1.646
 1940SOL    HW2 6720   5.940   4.814   1.685
 1941SOL     OW 6721   0.491   2.789   4.115
 1941SOL    HW1 6722   0.395   2.818   4.124
 1941SOL    HW2 6723   0.504   2.702   4.162
 1942SOL     OW 6724   5.263   2.976   2.714
 1942SOL    HW1 6725   5.165   2.993   2.722
 1942SOL    HW2 6726   5.292   2.986   2.619
 1943SOL     OW 6727   1.570   1.275   2.264
 1943SOL    HW1 6728   1.480   1.314   2.245
 1943SOL    HW2 6729   1.625   1.341   2.315
 1944SOL     OW 6730   0.236   2.995   0.852
 1944SOL    HW1 6731   0.214   2.915   0.795
 1944SOL    HW2 6732   0.246   2.966   0.947
 1945SOL     OW 6733   4.022   6.959   0.668
 1945SOL    HW1 6734   3.981   6.871   0.644
 1945SOL    HW2 6735   3.968   0.010   0.628
 1946SOL     OW 6736   6.570   6.201   1.212
 1946SOL    HW1 6737   6.544   6.281   1.266
 1946SOL    HW2 6738   6.563   6.119   1.269
 1947SOL     OW 6739   5.771   4.075   2.938
 1947SOL    HW1 6740   5.757   4.150   3.002
 1947SOL    HW2 6741   5.780   4.111   2.846
 1948SOL     OW 6742   5.575   3.502   3.053
 1948SOL    HW1 6743   5.515   3.441   3.002
 1948SOL    HW2 6744   5.597   3.583   2.997
 1949SOL     OW 6745   3.589   5.140   0.395
 1949SOL    HW1 6746   3.536   5.192   0.328
 1949SOL    HW2 6747   3.594   5.191   0.481
 1950SOL     OW 6748   3.608   4.170   4.000
 1950SOL    HW1 6749   3.543   4.095   3.998
 1950SOL    HW2 6750   3.634   4.194   3.907
 1951SOL     OW 6751   6.379   4.978   5.588
 1951SOL    HW1 6752   6.366   4.888   5.630
 1951SOL    HW2 6753   6.366   5.049   5.657
 1952SOL     OW 6754   5.229   4.061   0.257
 1952SOL    HW1 6755   5.328   4.057   0.247
 1952SOL    HW2 6756   5.189   3.975   0.226
 1953SOL     OW 6757   0.739   1.467   6.372
 1953SOL    HW1 6758   0.722   1.480   6.274
 1953SOL    HW2 6759   0.716   1.373   6.398
 1954SOL     OW 6760   3.485   6.852   1.384
 1954SOL    HW1 6761   3.500   6.869   1.481
 1954SOL    HW2 6762   3.550   6.905   1.330
 1955SOL     OW 6763   0.783   1.686   2.067
 1955SOL    HW1 6764   0.736   1.728   1.989
 1955SOL    HW2 6765   0.867   1.641   2.035
 1956SOL     OW 6766   6.332   0.602   1.907
 1956SOL    HW1 6767   6.234   0.600   1.888
 1956SOL    HW2 6768   6.349   0.653   1.992
 1957SOL     OW 6769   5.292   2.570   3.767
 1957SOL    HW1 6770   5.327   2.477   3.758
 1957SOL    HW2 6771   5.358   2.626   3.818
 1958SOL     OW 6772   4.595   1.685   0.826
 1958SOL    HW1 6773   4.606   1.647   0.918
 1958SOL    HW2 6774   4.598   1.611   0.758
 1959SOL     OW 6775   0.000   6.882   3.889
 1959SOL    HW1 6776   0.040   6.908   3.978
 1959SOL    HW2 6777   7.014   6.783   3.885
 1960SOL     OW 6778   5.680   3.287   2.795
 1960SOL    HW1 6779   5.766   3.276   2.845
 1960SOL    HW2 6780   5.609   3.230   2.837
 1961SOL     OW 6781   6.629   4.134   5.453
 1961SOL    HW1 6782   6.674   4.049   5.427
 1961SOL    HW2 6783   6.696   4.196   5.495
 1962SOL     OW 6784   0.979   6.984   2.769
 1962SOL    HW1 6785   0.936   0.051   2.769
 1962SOL    HW2 6786   0.954   6.934   2.852
 1963SOL     OW 6787   0.760   1.781   1.795
 1963SOL    HW1 6788   0.745   1.838   1.715
 1963SOL    HW2 6789   0.859   1.769   1.810
 1964SOL     OW 6790   5.376   4.389   1.851
 1964SOL    HW1 6791   5.278   4.387   1.830
 1964SOL    HW2 6792   5.390   4.355   1.943
 1965SOL     OW 6793   0.439   4.619   4.143
 1965SOL    HW1 6794   0.524   4.567   4.144
 1965SOL    HW2 6795   0.458   4.715   4.121
 1966SOL     OW 6796   1.770   4.493   0.935
 1966SOL    HW1 6797   1.830   4.463   1.010
 1966SOL    HW2 6798   1.708   4.564   0.969
 1967SOL     OW 6799   6.214   2.713   3.323
 1967SOL    HW1 6800   6.256   2.729   3.413
 1967SOL    HW2 6801   6.264   2.764   3.253
 1968SOL     OW 6802   2.274   1.150   5.328
 1968SOL    HW1 6803   2.326   1.132   5.412
 1968SOL    HW2 6804   2.186   1.103   5.333
 1969SOL     OW 6805   2.798   6.498   0.705
 1969SOL    HW1 6806   2.891   6.510   0.669
 1969SOL    HW2 6807   2.790   6.546   0.792
 1970SOL     OW 6808   6.435   5.753   5.161
 1970SOL    HW1 6809   6.423   5.817   5.085
 1970SOL    HW2 6810   6.450   5.661   5.125
 1971SOL     OW 6811   1.793   6.959   5.581
 1971SOL    HW1 6812   1.850   6.991   5.656
 1971SOL    HW2 6813   1.809   6.861   5.566
 1972SOL     OW 6814   6.095   2.612   1.848
 1972SOL    HW1 6815   6.002   2.579   1.867
 1972SOL    HW2 6816   6.161   2.550   1.889
 1973SOL     OW 6817   1.999   4.185   0.763
 1973SOL    HW1 6818   1.990   4.275   0.721
 1973SOL    HW2 6819   2.020   4.117   0.693
 1974SOL     OW 6820   3.504   6.760   5.152
 1974SOL    HW1 6821   3.596   6.754   5.191
 1974SOL    HW2 6822   3.438   6.715   5.212
 1975SOL     OW 6823   1.384   3.184   3.248
 1975SOL    HW1 6824   1.408   3.243   3.325
 1975SOL    HW2 6825   1.401   3.233   3.162
 1976SOL     OW 6826   0.166   0.037   5.856
 1976SOL    HW1 6827   0.109   7.006   5.918
 1976SOL    HW2 6828   0.231   0.091   5.909
 1977SOL     OW 6829   1.692   3.634   6.735
 1977SOL    HW1 6830   1.615   3.570   6.730
 1977SOL    HW2 6831   1.709   3.674   6.645
 1978SOL     OW 6832   2.298   6.964   2.161
 1978SOL    HW1 6833   2.392   6.979   2.130
 1978SOL    HW2 6834   2.292   6.875   2.206
 1979SOL     OW 6835   6.208   5.572   6.470
 1979SOL    HW1 6836   6.172   5.665   6.480
 1979SOL    HW2 6837   6.232   5.536   6.560
 1980SOL     OW 6838   2.951   1.686   1.713
 1980SOL    HW1 6839   3.007   1.755   1.758
 1980SOL    HW2 6840   2.953   1.702   1.614
 1981SOL     OW 6841   4.465   2.446   3.233
 1981SOL    HW1 6842   4.423   2.420   3.320
 1981SOL    HW2 6843   4.550   2.495   3.250
 1982SOL     OW 6844   6.630   2.781   3.924
 1982SOL    HW1 6845   6.692   2.720   3.973
 1982SOL    HW2 6846   6.551   2.802   3.982
 1983SOL     OW 6847   6.917   0.174   1.231
 1983SOL    HW1 6848   6.975   0.204   1.307
 1983SOL    HW2 6849   6.920   0.242   1.158
 1984SOL     OW 6850   5.913   2.880   5.572
 1984SOL    HW1 6851   5.969   2.922   5.500
 1984SOL    HW2 6852   5.837   2.941   5.595
 1985SOL     OW 6853   6.292   4.820   2.034
 1985SOL    HW1 6854   6.305   4.840   1.937
 1985SOL    HW2 6855   6.381   4.810   2.078
 1986SOL     OW 6856   3.285   1.789   0.569
 1986SOL    HW1 6857   3.297   1.854   0.493
 1986SOL    HW2 6858   3.371   1.780   0.619
 1987SOL     OW 6859   1.653   0.004   3.151
 1987SOL    HW1 6860   1.708   6.950   3.118
 1987SOL    HW2 6861   1.564   0.003   3.107
 1988SOL     OW 6862   0.138   1.990   1.572
 1988SOL    HW1 6863   0.230   1.978   1.535
 1988SOL    HW2 6864   0.144   2.010   1.670
 1989SOL     OW 6865   2.803   5.052   5.180
 1989SOL    HW1 6866   2.727   5.003   5.223
 1989SOL    HW2 6867   2.872   4.987   5.149
 1990SOL     OW 6868   3.603   0.574   0.424
 1990SOL    HW1 6869   3.620   0.643   0.354
 1990SOL    HW2 6870   3.667   0.586   0.500
 1991SOL     OW 6871   3.238   5.784   0.211
 1991SOL    HW1 6872   3.230   5.795   0.310
 1991SOL    HW2 6873   3.300   5.854   0.175
 1992SOL     OW 6874   0.577   6.286   0.765
 1992SOL    HW1 6875   0.627   6.199   0.771
 1992SOL    HW2 6876   0.602   6.333   0.680
 1993SOL     OW 6877   2.131   3.542   4.467
 1993SOL    HW1 6878   2.143   3.477   4.392
 1993SOL    HW2 6879   2.159   3.499   4.553
 1994SOL     OW 6880   3.287   3.739   0.424
 1994SOL    HW1 6881   3.238   3.813   0.470
 1994SOL    HW2 6882   3.337   3.685   0.492
 1995SOL     OW 6883   5.427   2.912   4.413
 1995SOL    HW1 6884   5.328   2.912   4.422
 1995SOL    HW2 6885   5.454   2.852   4.338
 1996SOL     OW 6886   3.642   1.332   0.728
 1996SOL    HW1 6887   3.704   1.407   0.749
 1996SOL    HW2 6888   3.556   1.367   0.691
 1997SOL     OW 6889   3.622   1.302   3.472
 1997SOL    HW1 6890   3.607   1.238   3.548
 1997SOL    HW2 6891   3.713   1.288   3.433
 1998SOL     OW 6892   1.304   3.376   1.798
 1998SOL    HW1 6893   1.263   3.412   1.882
 1998SOL    HW2 6894   1.246   3.400   1.720
 1999SOL     OW 6895   1.346   6.783   5.144
 1999SOL    HW1 6896   1.297   6.764   5.059
 1999SOL    HW2 6897   1.361   6.881   5.153
 2000SOL     OW 6898   3.654   3.581   6.598
 2000SOL    HW1 6899   3.596   3.513   6.642
 2000SOL    HW2 6900   3.605   3.622   6.521
 2001SOL     OW 6901   2.265   1.295   6.410
 2001SOL    HW1 6902   2.284   1.216   6.351
 2001SOL    HW2 6903   2.312   1.376   6.375
 2002SOL     OW 6904   6.598   4.942   1.062
 2002SOL    HW1 6905   6.531   4.929   1.135
 2002SOL    HW2 6906   6.637   5.033   1.068
 2003SOL     OW 6907   6.307   5.197   2.349
 2003SOL    HW1 6908   6.285   5.256   2.271
 2003SOL    HW2 6909   6.238   5.208   2.420
 2004SOL     OW 6910   3.169   0.883   3.184
 2004SOL    HW1 6911   3.124   0.876   3.095
 2004SOL    HW2 6912   3.153   0.974   3.222
 2005SOL     OW 6913   1.090   6.250   0.857
 2005SOL    HW1 6914   1.015   6.256   0.791
 2005SOL    HW2 6915   1.159   6.186   0.823
 2006SOL     OW 6916   5.107   7.020   3.228
 2006SOL    HW1 6917   5.043   6.945   3.243
 2006SOL    HW2 6918   5.068   0.081   3.263
 2007SOL     OW 6919   5.351   4.529   0.502
 2007SOL    HW1 6920   5.367   4.535   0.404
 2007SOL    HW2 6921   5.255   4.508   0.518
 2008SOL     OW 6922   2.071   4.014   3.610
 2008SOL    HW1 6923   1.993   4.070   3.583
 2008SOL    HW2 6924   2.153   4.047   3.564
 2009SOL     OW 6925   6.636   6.021   2.006
 2009SOL    HW1 6926   6.729   6.056   1.995
 2009SOL    HW2 6927   6.598   6.001   1.915
 2010SOL     OW 6928   1.646   2.453   1.544
 2010SOL    HW1 6929   1.728   2.398   1.530
 2010SOL    HW2 6930   1.649   2.534   1.487
 2011SOL     OW 6931   0.185   5.664   5.660
 2011SOL    HW1 6932   0.218   5.581   5.705
 2011SOL    HW2 6933   0.100   5.694   5.703
 2012SOL     OW 6934   1.359   3.124   2.839
 2012SOL    HW1 6935   1.284   3.099   2.901
 2012SOL    HW2 6936   1.443   3.137   2.891
 2013SOL     OW 6937   0.732   3.163   3.168
 2013SOL    HW1 6938   0.743   3.177   3.266
 2013SOL    HW2 6939   0.637   3.141   3.147
 2014SOL     OW 6940   3.282   0.431   4.090
 2014SOL    HW1 6941   3.209   0.429   4.022
 2014SOL    HW2 6942   3.344   0.354   4.075
 2015SOL     OW 6943   4.046   0.853   1.828
 2015SOL    HW1 6944   4.042   0.804   1.915
 2015SOL    HW2 6945   4.110   0.929   1.835
 2016SOL     OW 6946   1.832   0.242   5.683
 2016SOL    HW1 6947   1.735   0.219   5.688
 2016SOL    HW2 6948   1.886   0.172   5.730
 2017SOL     OW 6949   3.871   0.101   2.479
 2017SOL    HW1 6950   3.796   0.047   2.517
 2017SOL    HW2 6951   3.945   0.040   2.452
 2018SOL     OW 6952   0.721   1.488   3.075
 2018SOL    HW1 6953   0.709   1.411   3.012
 2018SOL    HW2 6954   0.688   1.572   3.032
 2019SOL     OW 6955   6.165   4.947   6.380
 2019SOL    HW1 6956   6.070   4.927   6.405
 2019SOL    HW2 6957   6.167   5.022   6.314
 2020SOL     OW 6958   1.711   6.406   6.277
 2020SOL    HW1 6959   1.614   6.395   6.298
 2020SOL    HW2 6960   1.749   6.480   6.332
 2021SOL     OW 6961   6.058   6.194   3.631
 2021SOL    HW1 6962   6.076   6.099   3.604
 2021SOL    HW2 6963   6.005   6.240   3.560
 2022SOL     OW 6964   2.238   4.331   4.988
 2022SOL    HW1 6965   2.298   4.394   5.037
 2022SOL    HW2 6966   2.250   4.238   5.024
 2023SOL     OW 6967   0.209   6.864   6.997
 2023SOL    HW1 6968   0.295   6.817   6.980
 2023SOL    HW2 6969   0.156   6.813   0.042
 2024SOL     OW 6970   0.491   5.798   4.785
 2024SOL    HW1 6971   0.540   5.852   4.854
 2024SOL    HW2 6972   0.400   5.838   4.770
 2025SOL     OW 6973   2.509   0.219   5.001
 2025SOL    HW1 6974   2.540   0.297   5.055
 2025SOL    HW2 6975   2.410   0.223   4.990
 2026SOL     OW 6976   6.429   1.205   6.247
 2026SOL    HW1 6977   6.357   1.172   6.186
 2026SOL    HW2 6978   6.511   1.223   6.193
 2027SOL     OW 6979   0.173   6.316   2.462
 2027SOL    HW1 6980   0.090   6.370   2.474
 2027SOL    HW2 6981   0.166   6.262   2.379
 2028SOL     OW 6982   4.238   5.958   3.021
 2028SOL    HW1 6983   4.187   6.017   3.085
 2028SOL    HW2 6984   4.174   5.917   2.956
 2029SOL     OW 6985   6.435   2.886   6.131
 2029SOL    HW1 6986   6.508   2.879   6.063
 2029SOL    HW2 6987   6.411   2.982   6.145
 2030SOL     OW 6988   2.670   6.102   3.080
 2030SOL    HW1 6989   2.760   6.101   3.036
 2030SOL    HW2 6990   2.631   6.010   3.077
 2031SOL     OW 6991   6.161   5.674   3.417
 2031SOL    HW1 6992   6.068   5.677   3.380
 2031SOL    HW2 6993   6.194   5.580   3.416
 2032SOL     OW 6994   3.021   1.793   6.054
 2032SOL    HW1 6995   3.021   1.758   6.148
 2032SOL    HW2 6996   2.935   1.768   6.009
 2033SOL     OW 6997   1.800   1.633   1.201
 2033SOL    HW1 6998   1.792   1.728   1.228
 2033SOL    HW2 6999   1.822   1.577   1.281
 2034SOL     OW 7000   0.011   4.296   5.966
 2034SOL    HW1 7001   0.015   4.277   5.868
 2034SOL    HW2 7002   0.098   4.271   6.009
 2035SOL     OW 7003   5.762   6.921   2.380
 2035SOL    HW1 7004   5.769   6.833   2.426
 2035SOL    HW2 7005   5.709   6.984   2.437
 2036SOL     OW 7006   1.260   3.962   2.169
 2036SOL    HW1 7007   1.342   4.011   2.200
 2036SOL    HW2 7008   1.263   3.868   2.202
 2037SOL     OW 7009   0.410   3.108   6.641
 2037SOL    HW1 7010   0.501   3.100   6.600
 2037SOL    HW2 7011   0.416   3.159   6.726
 2038SOL     OW 7012   2.201   1.164   0.311
 2038SOL    HW1 7013   2.299   1.155   0.330
 2038SOL    HW2 7014   2.186   1.244   0.253
 2039SOL     OW 7015   6.584   6.024   2.280
 2039SOL    HW1 7016   6.547   5.934   2.302
 2039SOL    HW2 7017   6.598   6.030   2.181
 2040SOL     OW 7018   2.134   2.970   6.968
 2040SOL    HW1 7019   2.190   3.011   0.016
 2040SOL    HW2 7020   2.038   2.973   6.994
 2041SOL     OW 7021   1.537   0.387   6.189
 2041SOL    HW1 7022   1.461   0.395   6.254
 2041SOL    HW2 7023   1.502   0.376   6.097
 2042SOL     OW 7024   4.972   1.195   5.207
 2042SOL    HW1 7025   4.997   1.099   5.199
 2042SOL    HW2 7026   4.888   1.213   5.154
 2043SOL     OW 7027   6.094   4.223   1.028
 2043SOL    HW1 7028   6.104   4.262   0.936
 2043SOL    HW2 7029   6.046   4.136   1.022
 2044SOL     OW 7030   4.751   0.396   0.672
 2044SOL    HW1 7031   4.762   0.492   0.648
 2044SOL    HW2 7032   4.655   0.376   0.689
 2045SOL     OW 7033   2.029   6.373   6.585
 2045SOL    HW1 7034   2.003   6.469   6.595
 2045SOL    HW2 7035   2.054   6.355   6.490
 2046SOL     OW 7036   1.213   2.480   4.921
 2046SOL    HW1 7037   1.180   2.402   4.866
 2046SOL    HW2 7038   1.141   2.508   4.985
 2047SOL     OW 7039   0.027   1.198   6.829
 2047SOL    HW1 7040   0.032   1.098   6.836
 2047SOL    HW2 7041   6.994   1.233   6.903
 2048SOL     OW 7042   0.997   1.509   4.456
 2048SOL    HW1 7043   1.002   1.603   4.490
 2048SOL    HW2 7044   0.919   1.501   4.393
 2049SOL     OW 7045   4.831   1.585   4.889
 2049SOL    HW1 7046   4.910   1.632   4.848
 2049SOL    HW2 7047   4.778   1.541   4.817
 2050SOL     OW 7048   0.478   1.127   3.803
 2050SOL    HW1 7049   0.425   1.044   3.787
 2050SOL    HW2 7050   0.522   1.122   3.893
 2051SOL     OW 7051   3.395   6.320   0.794
 2051SOL    HW1 7052   3.403   6.393   0.726
 2051SOL    HW2 7053   3.460   6.336   0.868
 2052SOL     OW 7054   1.746   3.877   6.921
 2052SOL    HW1 7055   1.698   3.962   6.897
 2052SOL    HW2 7056   1.829   3.870   6.865
 2053SOL     OW 7057   0.894   5.018   4.060
 2053SOL    HW1 7058   0.909   4.930   4.016
 2053SOL    HW2 7059   0.932   5.017   4.152
 2054SOL     OW 7060   3.354   3.237   3.653
 2054SOL    HW1 7061   3.291   3.159   3.664
 2054SOL    HW2 7062   3.424   3.213   3.586
 2055SOL     OW 7063   2.393   2.188   5.725
 2055SOL    HW1 7064   2.297   2.183   5.752
 2055SOL    HW2 7065   2.416   2.282   5.699
 2056SOL     OW 7066   4.047   4.911   1.063
 2056SOL    HW1 7067   3.971   4.976   1.051
 2056SOL    HW2 7068   4.057   4.889   1.160
 2057SOL     OW 7069   5.964   2.327   4.160
 2057SOL    HW1 7070   6.004   2.312   4.069
 2057SOL    HW2 7071   5.907   2.408   4.158
 2058SOL     OW 7072   0.610   5.627   3.123
 2058SOL    HW1 7073   0.669   5.707   3.116
 2058SOL    HW2 7074   0.611   5.577   3.036
 2059SOL     OW 7075   1.339   0.127   6.177
 2059SOL    HW1 7076   1.348   0.189   6.098
 2059SOL    HW2 7077   1.405   0.153   6.247
 2060SOL     OW 7078   1.233   3.503   0.060
 2060SOL    HW1 7079   1.207   3.537   6.993
 2060SOL    HW2 7080   1.324   3.462   0.054
 2061SOL     OW 7081   2.038   2.418   2.800
 2061SOL    HW1 7082   2.137   2.418   2.783
 2061SOL    HW2 7083   2.004   2.512   2.799
 2062SOL     OW 7084   6.346   5.077   5.082
 2062SOL    HW1 7085   6.352   4.996   5.023
 2062SOL    HW2 7086   6.338   5.048   5.177
 2063SOL     OW 7087   1.373   0.782   5.177
 2063SOL    HW1 7088   1.444   0.804   5.244
 2063SOL    HW2 7089   1.321   0.703   5.208
 2064SOL     OW 7090   0.439   2.934   3.436
 2064SOL    HW1 7091   0.522   2.957   3.486
 2064SOL    HW2 7092   0.361   2.932   3.499
 2065SOL     OW 7093   4.523   2.944   5.629
 2065SOL    HW1 7094   4.615   2.949   5.591
 2065SOL    HW2 7095   4.520   2.990   5.717
 2066SOL     OW 7096   6.283   3.154   5.241
 2066SOL    HW1 7097   6.358   3.205   5.282
 2066SOL    HW2 7098   6.241   3.095   5.310
 2067SOL     OW 7099   6.390   4.938   1.275
 2067SOL    HW1 7100   6.336   4.857   1.251
 2067SOL    HW2 7101   6.329   5.017   1.281
 2068SOL     OW 7102   4.007   0.517   4.332
 2068SOL    HW1 7103   4.037   0.550   4.421
 2068SOL    HW2 7104   3.907   0.523   4.325
 2069SOL     OW 7105   0.240   2.360   3.658
 2069SOL    HW1 7106   0.283   2.271   3.675
 2069SOL    HW2 7107   0.184   2.385   3.737
 2070SOL     OW 7108   0.495   4.304   1.387
 2070SOL    HW1 7109   0.433   4.264   1.319
 2070SOL    HW2 7110   0.564   4.360   1.341
 2071SOL     OW 7111   6.837   1.177   5.782
 2071SOL    HW1 7112   6.857   1.214   5.873
 2071SOL    HW2 7113   6.866   1.243   5.712
 2072SOL     OW 7114   4.100   4.631   5.647
 2072SOL    HW1 7115   4.131   4.708   5.591
 2072SOL    HW2 7116   4.154   4.628   5.731
 2073SOL     OW 7117   3.277   6.204   0.207
 2073SOL    HW1 7118   3.362   6.241   0.242
 2073SOL    HW2 7119   3.208   6.277   0.203
 2074SOL     OW 7120   1.073   3.887   5.631
 2074SOL    HW1 7121   1.107   3.793   5.620
 2074SOL    HW2 7122   0.992   3.899   5.574
 2075SOL     OW 7123   6.589   1.860   1.389
 2075SOL    HW1 7124   6.666   1.798   1.400
 2075SOL    HW2 7125   6.585   1.923   1.468
 2076SOL     OW 7126   5.138   6.737   4.753
 2076SOL    HW1 7127   5.087   6.733   4.839
 2076SOL    HW2 7128   5.229   6.696   4.766
 2077SOL     OW 7129   6.759   4.263   0.853
 2077SOL    HW1 7130   6.659   4.276   0.851
 2077SOL    HW2 7131   6.788   4.246   0.947
 2078SOL     OW 7132   1.187   3.106   5.522
 2078SOL    HW1 7133   1.268   3.164   5.526
 2078SOL    HW2 7134   1.173   3.063   5.612
 2079SOL     OW 7135   4.903   2.060   2.314
 2079SOL    HW1 7136   4.850   2.120   2.374
 2079SOL    HW2 7137   4.920   1.973   2.361
 2080SOL     OW 7138   2.380   3.207   5.615
 2080SOL    HW1 7139   2.384   3.306   5.599
 2080SOL    HW2 7140   2.413   3.187   5.707
 2081SOL     OW 7141   6.347   0.116   2.952
 2081SOL    HW1 7142   6.366   0.018   2.948
 2081SOL    HW2 7143   6.314   0.148   2.863
 2082SOL     OW 7144   0.071   6.292   2.820
 2082SOL    HW1 7145   0.068   6.212   2.762
 2082SOL    HW2 7146   0.104   6.266   2.911
 2083SOL     OW 7147   0.333   6.190   4.207
 2083SOL    HW1 7148   0.368   6.225   4.294
 2083SOL    HW2 7149   0.408   6.188   4.140
 2084SOL     OW 7150   0.095   2.416   2.231
 2084SOL    HW1 7151   0.102   2.479   2.153
 2084SOL    HW2 7152   0.063   2.466   2.311
 2085SOL     OW 7153   5.027   5.517   0.879
 2085SOL    HW1 7154   4.957   5.483   0.816
 2085SOL    HW2 7155   5.099   5.563   0.828
 2086SOL     OW 7156   4.337   0.082   6.995
 2086SOL    HW1 7157   4.353   0.127   6.907
 2086SOL    HW2 7158   4.304   7.012   6.980
 2087SOL     OW 7159   4.638   2.262   6.758
 2087SOL    HW1 7160   4.582   2.285   6.679
 2087SOL    HW2 7161   4.583   2.212   6.825
 2088SOL     OW 7162   0.112   5.842   5.289
 2088SOL    HW1 7163   0.173   5.762   5.281
 2088SOL    HW2 7164   0.039   5.834   5.221
 2089SOL     OW 7165   3.094   3.548   6.868
 2089SOL    HW1 7166   3.081   3.515   6.775
 2089SOL    HW2 7167   3.097   3.648   6.867
 2090SOL     OW 7168   4.470   3.483   5.291
 2090SOL    HW1 7169   4.561   3.464   5.255
 2090SOL    HW2 7170   4.429   3.398   5.324
 2091SOL     OW 7171   5.819   5.614   1.631
 2091SOL    HW1 7172   5.903   5.651   1.670
 2091SOL    HW2 7173   5.839   5.527   1.586
 2092SOL     OW 7174   4.887   3.826   1.449
 2092SOL    HW1 7175   4.835   3.783   1.376
 2092SOL    HW2 7176   4.985   3.824   1.426
 2093SOL     OW 7177   3.841   1.426   2.933
 2093SOL    HW1 7178   3.745   1.407   2.955
 2093SOL    HW2 7179   3.867   1.375   2.851
 2094SOL     OW 7180   5.599   2.571   6.635
 2094SOL    HW1 7181   5.529   2.523   6.581
 2094SOL    HW2 7182   5.650   2.633   6.576
 2095SOL     OW 7183   5.060   6.481   3.353
 2095SOL    HW1 7184   5.119   6.404   3.331
 2095SOL    HW2 7185   4.964   6.453   3.346
 2096SOL     OW 7186   5.110   6.530   2.418
 2096SOL    HW1 7187   5.061   6.592   2.358
 2096SOL    HW2 7188   5.058   6.517   2.503
 2097SOL     OW 7189   1.079   4.726   6.536
 2097SOL    HW1 7190   1.075   4.750   6.439
 2097SOL    HW2 7191   1.073   4.810   6.590
 2098SOL     OW 7192   3.485   6.103   3.563
 2098SOL    HW1 7193   3.406   6.124   3.505
 2098SOL    HW2 7194   3.569   6.119   3.511
 2099SOL     OW 7195   5.406   0.794   6.913
 2099SOL    HW1 7196   5.498   0.788   6.952
 2099SOL    HW2 7197   5.350   0.720   6.951
 2100SOL     OW 7198   5.765   0.625   1.078
 2100SOL    HW1 7199   5.864   0.635   1.084
 2100SOL    HW2 7200   5.721   0.712   1.097
 2101SOL     OW 7201   0.035   6.512   1.892
 2101SOL    HW1 7202   0.107   6.501   1.962
 2101SOL    HW2 7203   6.992   6.579   1.925
 2102SOL     OW 7204   3.430   3.420   0.491
 2102SOL    HW1 7205   3.502   3.453   0.552
 2102SOL    HW2 7206   3.468   3.407   0.399
 2103SOL     OW 7207   2.862   6.221   1.006
 2103SOL    HW1 7208   2.907   6.187   1.088
 2103SOL    HW2 7209   2.888   6.164   0.928
 2104SOL     OW 7210   1.265   4.946   2.613
 2104SOL    HW1 7211   1.305   4.937   2.704
 2104SOL    HW2 7212   1.168   4.924   2.617
 2105SOL     OW 7213   5.771   4.111   6.335
 2105SOL    HW1 7214   5.692   4.169   6.314
 2105SOL    HW2 7215   5.818   4.087   6.250
 2106SOL     OW 7216   5.168   3.850   1.418
 2106SOL    HW1 7217   5.191   3.944   1.440
 2106SOL    HW2 7218   5.230   3.788   1.467
 2107SOL     OW 7219   5.579   3.481   5.324
 2107SOL    HW1 7220   5.495   3.529   5.351
 2107SOL    HW2 7221   5.655   3.546   5.321
 2108SOL     OW 7222   5.815   0.758   5.955
 2108SOL    HW1 7223   5.766   0.845   5.965
 2108SOL    HW2 7224   5.786   0.695   6.028
 2109SOL     OW 7225   2.469   6.089   3.411
 2109SOL    HW1 7226   2.528   6.153   3.360
 2109SOL    HW2 7227   2.472   6.111   3.508
 2110SOL     OW 7228   4.298   0.471   6.766
 2110SOL    HW1 7229   4.395   0.449   6.780
 2110SOL    HW2 7230   4.278   0.474   6.668
 2111SOL     OW 7231   1.162   2.393   5.656
 2111SOL    HW1 7232   1.092   2.445   5.608
 2111SOL    HW2 7233   1.242   2.381   5.598
 2112SOL     OW 7234   0.173   1.025   0.144
 2112SOL    HW1 7235   0.228   1.006   0.225
 2112SOL    HW2 7236   0.085   0.979   0.153
 2113SOL     OW 7237   1.147   0.025   4.552
 2113SOL    HW1 7238   1.087   0.089   4.599
 2113SOL    HW2 7239   1.117   6.955   4.570
 2114SOL     OW 7240   1.807   1.962   6.231
 2114SOL    HW1 7241   1.815   1.945   6.329
 2114SOL    HW2 7242   1.837   2.055   6.211
 2115SOL     OW 7243   6.471   5.719   3.175
 2115SOL    HW1 7244   6.401   5.771   3.224
 2115SOL    HW2 7245   6.549   5.703   3.235
 2116SOL     OW 7246   0.143   2.432   0.312
 2116SOL    HW1 7247   0.140   2.446   0.411
 2116SOL    HW2 7248   0.236   2.409   0.285
 2117SOL     OW 7249   5.862   1.267   1.986
 2117SOL    HW1 7250   5.799   1.344   1.978
 2117SOL    HW2 7251   5.898   1.262   2.079
 2118SOL     OW 7252   6.241   2.587   2.311
 2118SOL    HW1 7253   6.233   2.499   2.263
 2118SOL    HW2 7254   6.249   2.570   2.409
 2119SOL     OW 7255   3.085   0.888   0.073
 2119SOL    HW1 7256   3.143   0.969   0.069
 2119SOL    HW2 7257   3.004   0.908   0.129
 2120SOL     OW 7258   5.609   1.712   0.855
 2120SOL    HW1 7259   5.644   1.696   0.763
 2120SOL    HW2 7260   5.631   1.632   0.912
 2121SOL     OW 7261   1.394   0.430   6.870
 2121SOL    HW1 7262   1.337   0.510   6.851
 2121SOL    HW2 7263   1.394   0.413   6.969
 2122SOL     OW 7264   6.090   1.148   4.424
 2122SOL    HW1 7265   6.168   1.143   4.486
 2122SOL    HW2 7266   6.007   1.169   4.477
 2123SOL     OW 7267   1.610   5.802   3.446
 2123SOL    HW1 7268   1.645   5.722   3.398
 2123SOL    HW2 7269   1.675   5.878   3.435
 2124SOL     OW 7270   3.879   3.524   5.892
 2124SOL    HW1 7271   3.826   3.458   5.840
 2124SOL    HW2 7272   3.934   3.580   5.829
 2125SOL     OW 7273   1.283   5.765   3.979
 2125SOL    HW1 7274   1.369   5.722   4.007
 2125SOL    HW2 7275   1.238   5.707   3.911
 2126SOL     OW 7276   3.653   4.303   6.816
 2126SOL    HW1 7277   3.587   4.321   6.889
 2126SOL    HW2 7278   3.685   4.208   6.823
 2127SOL     OW 7279   0.509   2.504   5.016
 2127SOL    HW1 7280   0.548   2.592   4.989
 2127SOL    HW2 7281   0.530   2.435   4.946
 2128SOL     OW 7282   5.186   2.779   1.726
 2128SOL    HW1 7283   5.209   2.747   1.818
 2128SOL    HW2 7284   5.113   2.846   1.731
 2129SOL     OW 7285   5.131   4.546   4.065
 2129SOL    HW1 7286   5.136   4.500   4.153
 2129SOL    HW2 7287   5.217   4.532   4.015
 2130SOL     OW 7288   2.393   0.326   2.796
 2130SOL    HW1 7289   2.467   0.319   2.863
 2130SOL    HW2 7290   2.431   0.358   2.709
 2131SOL     OW 7291   5.832   1.435   5.466
 2131SOL    HW1 7292   5.902   1.365   5.477
 2131SOL    HW2 7293   5.751   1.395   5.424
 2132SOL     OW 7294   2.793   2.606   0.092
 2132SOL    HW1 7295   2.702   2.648   0.081
 2132SOL    HW2 7296   2.856   2.675   0.128
 2133SOL     OW 7297   2.662   2.266   1.983
 2133SOL    HW1 7298   2.750   2.291   2.024
 2133SOL    HW2 7299   2.672   2.180   1.933
 2134SOL     OW 7300   0.956   6.847   4.844
 2134SOL    HW1 7301   0.995   6.902   4.917
 2134SOL    HW2 7302   0.857   6.861   4.841
 2135SOL     OW 7303   0.811   1.103   3.272
 2135SOL    HW1 7304   0.880   1.072   3.207
 2135SOL    HW2 7305   0.821   1.202   3.287
 2136SOL     OW 7306   0.453   4.163   3.341
 2136SOL    HW1 7307   0.452   4.262   3.357
 2136SOL    HW2 7308   0.372   4.138   3.288
 2137SOL     OW 7309   1.408   0.444   5.148
 2137SOL    HW1 7310   1.358   0.360   5.127
 2137SOL    HW2 7311   1.354   0.500   5.211
 2138SOL     OW 7312   0.547   2.841   0.704
 2138SOL    HW1 7313   0.561   2.920   0.764
 2138SOL    HW2 7314   0.460   2.796   0.729
 2139SOL     OW 7315   2.781   1.333   5.768
 2139SOL    HW1 7316   2.833   1.342   5.684
 2139SOL    HW2 7317   2.811   1.251   5.818
 2140SOL     OW 7318   2.370   5.625   2.778
 2140SOL    HW1 7319   2.466   5.650   2.771
 2140SOL    HW2 7320   2.315   5.684   2.719
 2141SOL     OW 7321   5.176   1.971   0.783
 2141SOL    HW1 7322   5.183   1.901   0.712
 2141SOL    HW2 7323   5.111   1.942   0.852
 2142SOL     OW 7324   2.031   2.135   3.211
 2142SOL    HW1 7325   1.937   2.125   3.245
 2142SOL    HW2 7326   2.057   2.231   3.210
 2143SOL     OW 7327   2.935   6.947   1.087
 2143SOL    HW1 7328   3.027   6.951   1.049
 2143SOL    HW2 7329   2.939   6.968   1.184
 2144SOL     OW 7330   0.333   1.250   3.141
 2144SOL    HW1 7331   0.318   1.343   3.108
 2144SOL    HW2 7332   0.371   1.253   3.234
 2145SOL     OW 7333   4.069   5.212   3.205
 2145SOL    HW1 7334   4.152   5.267   3.209
 2145SOL    HW2 7335   4.009   5.247   3.133
 2146SOL     OW 7336   4.056   3.452   2.834
 2146SOL    HW1 7337   4.078   3.522   2.902
 2146SOL    HW2 7338   3.958   3.456   2.812
 2147SOL     OW 7339   0.976   0.519   5.129
 2147SOL    HW1 7340   0.910   0.520   5.205
 2147SOL    HW2 7341   0.935   0.563   5.049
 2148SOL     OW 7342   4.947   3.269   2.706
 2148SOL    HW1 7343   4.932   3.347   2.766
 2148SOL    HW2 7344   4.944   3.299   2.610
 2149SOL     OW 7345   3.661   1.011   2.734
 2149SOL    HW1 7346   3.660   0.990   2.832
 2149SOL    HW2 7347   3.577   0.978   2.692
 2150SOL     OW 7348   3.387   2.100   2.971
 2150SOL    HW1 7349   3.415   2.145   2.886
 2150SOL    HW2 7350   3.459   2.110   3.039
 2151SOL     OW 7351   3.736   2.953   5.674
 2151SOL    HW1 7352   3.771   2.885   5.609
 2151SOL    HW2 7353   3.811   2.987   5.730
 2152SOL     OW 7354   6.170   5.828   1.333
 2152SOL    HW1 7355   6.077   5.793   1.339
 2152SOL    HW2 7356   6.234   5.753   1.314
 2153SOL     OW 7357   4.678   2.635   3.267
 2153SOL    HW1 7358   4.645   2.651   3.174
 2153SOL    HW2 7359   4.708   2.722   3.306
 2154SOL     OW 7360   4.084   6.194   5.166
 2154SOL    HW1 7361   4.172   6.155   5.138
 2154SOL    HW2 7362   4.087   6.216   5.263
 2155SOL     OW 7363   6.812   3.957   0.281
 2155SOL    HW1 7364   6.879   4.031   0.282
 2155SOL    HW2 7365   6.858   3.870   0.298
 2156SOL     OW 7366   2.180   0.342   2.036
 2156SOL    HW1 7367   2.200   0.365   1.941
 2156SOL    HW2 7368   2.262   0.304   2.080
 2157SOL     OW 7369   0.858   1.428   4.947
 2157SOL    HW1 7370   0.899   1.356   4.891
 2157SOL    HW2 7371   0.818   1.498   4.887
 2158SOL     OW 7372   3.171   6.476   1.804
 2158SOL    HW1 7373   3.200   6.398   1.859
 2158SOL    HW2 7374   3.247   6.541   1.797
 2159SOL     OW 7375   1.740   6.362   4.863
 2159SOL    HW1 7376   1.689   6.448   4.859
 2159SOL    HW2 7377   1.751   6.334   4.958
 2160SOL     OW 7378   2.945   4.032   0.784
 2160SOL    HW1 7379   2.903   4.043   0.874
 2160SOL    HW2 7380   2.951   4.120   0.738
 2161SOL     OW 7381   5.172   2.341   3.337
 2161SOL    HW1 7382   5.087   2.287   3.337
 2161SOL    HW2 7383   5.151   2.436   3.314
 2162SOL     OW 7384   1.047   0.627   6.836
 2162SOL    HW1 7385   1.134   0.645   6.881
 2162SOL    HW2 7386   1.007   0.543   6.872
 2163SOL     OW 7387   1.783   1.996   0.612
 2163SOL    HW1 7388   1.759   1.899   0.601
 2163SOL    HW2 7389   1.844   2.006   0.691
 2164SOL     OW 7390   1.083   0.833   0.644
 2164SOL    HW1 7391   1.082   0.891   0.726
 2164SOL    HW2 7392   1.177   0.805   0.624
 2165SOL     OW 7393   2.494   6.887   2.716
 2165SOL    HW1 7394   2.498   6.870   2.618
 2165SOL    HW2 7395   2.562   6.955   2.742
 2166SOL     OW 7396   0.290   2.842   6.784
 2166SOL    HW1 7397   0.260   2.934   6.758
 2166SOL    HW2 7398   0.324   2.794   6.703
 2167SOL     OW 7399   2.934   0.478   2.491
 2167SOL    HW1 7400   3.012   0.541   2.483
 2167SOL    HW2 7401   2.940   0.408   2.420
 2168SOL     OW 7402   5.417   5.009   4.723
 2168SOL    HW1 7403   5.344   5.073   4.700
 2168SOL    HW2 7404   5.505   5.048   4.696
 2169SOL     OW 7405   5.134   1.655   6.115
 2169SOL    HW1 7406   5.220   1.692   6.151
 2169SOL    HW2 7407   5.145   1.635   6.018
 2170SOL     OW 7408   3.805   5.014   4.618
 2170SOL    HW1 7409   3.849   5.103   4.615
 2170SOL    HW2 7410   3.796   4.978   4.525
 2171SOL     OW 7411   0.216   2.567   0.010
 2171SOL    HW1 7412   0.207   2.498   0.081
 2171SOL    HW2 7413   0.284   2.635   0.038
 2172SOL     OW 7414   3.078   0.838   1.002
 2172SOL    HW1 7415   3.143   0.902   0.961
 2172SOL    HW2 7416   3.053   0.869   1.094
 2173SOL     OW 7417   5.641   1.300   5.329
 2173SOL    HW1 7418   5.652   1.217   5.274
 2173SOL    HW2 7419   5.550   1.301   5.370
 2174SOL     OW 7420   0.137   5.530   4.379
 2174SOL    HW1 7421   0.206   5.464   4.409
 2174SOL    HW2 7422   0.182   5.614   4.349
 2175SOL     OW 7423   2.035   6.576   4.731
 2175SOL    HW1 7424   1.994   6.661   4.698
 2175SOL    HW2 7425   1.978   6.538   4.804
 2176SOL     OW 7426   1.749   2.434   2.952
 2176SOL    HW1 7427   1.795   2.520   2.973
 2176SOL    HW2 7428   1.810   2.376   2.898
 2177SOL     OW 7429   0.072   2.460   1.513
 2177SOL    HW1 7430   0.070   2.503   1.423
 2177SOL    HW2 7431   7.015   2.403   1.525
 2178SOL     OW 7432   0.479   4.679   0.168
 2178SOL    HW1 7433   0.476   4.767   0.217
 2178SOL    HW2 7434   0.393   4.666   0.119
 2179SOL     OW 7435   1.635   5.456   4.221
 2179SOL    HW1 7436   1.691   5.381   4.254
 2179SOL    HW2 7437   1.603   5.511   4.298
 2180SOL     OW 7438   3.993   3.043   2.658
 2180SOL    HW1 7439   3.904   3.024   2.618
 2180SOL    HW2 7440   4.059   2.973   2.628
 2181SOL     OW 7441   5.355   5.038   5.886
 2181SOL    HW1 7442   5.398   5.060   5.799
 2181SOL    HW2 7443   5.256   5.048   5.877
 2182SOL     OW 7444   6.231   3.069   6.430
 2182SOL    HW1 7445   6.220   3.132   6.353
 2182SOL    HW2 7446   6.180   3.103   6.509
 2183SOL     OW 7447   3.275   3.496   1.052
 2183SOL    HW1 7448   3.216   3.416   1.064
 2183SOL    HW2 7449   3.305   3.529   1.141
 2184SOL     OW 7450   4.070   2.530   6.490
 2184SOL    HW1 7451   4.170   2.530   6.477
 2184SOL    HW2 7452   4.033   2.619   6.465
 2185SOL     OW 7453   1.534   1.475   1.357
 2185SOL    HW1 7454   1.536   1.558   1.413
 2185SOL    HW2 7455   1.627   1.445   1.338
 2186SOL     OW 7456   0.510   6.020   2.938
 2186SOL    HW1 7457   0.582   5.967   2.983
 2186SOL    HW2 7458   0.431   6.026   2.998
 2187SOL     OW 7459   0.348   1.208   6.333
 2187SOL    HW1 7460   0.416   1.147   6.374
 2187SOL    HW2 7461   0.262   1.201   6.384
 2188SOL     OW 7462   5.585   0.353   2.683
 2188SOL    HW1 7463   5.540   0.423   2.738
 2188SOL    HW2 7464   5.674   0.387   2.653
 2189SOL     OW 7465   2.152   0.384   6.565
 2189SOL    HW1 7466   2.241   0.391   6.610
 2189SOL    HW2 7467   2.166   0.379   6.466
 2190SOL     OW 7468   4.787   2.152   2.005
 2190SOL    HW1 7469   4.689   2.140   2.016
 2190SOL    HW2 7470   4.826   2.191   2.088
 2191SOL     OW 7471   3.321   2.691   6.756
 2191SOL    HW1 7472   3.317   2.735   6.666
 2191SOL    HW2 7473   3.355   2.598   6.746
 2192SOL     OW 7474   5.201   5.837   4.770
 2192SOL    HW1 7475   5.230   5.802   4.681
 2192SOL    HW2 7476   5.155   5.925   4.758
 2193SOL     OW 7477   0.794   4.633   6.275
 2193SOL    HW1 7478   0.873   4.686   6.249
 2193SOL    HW2 7479   0.741   4.682   6.345
 2194SOL     OW 7480   2.578   0.391   1.705
 2194SOL    HW1 7481   2.520   0.323   1.660
 2194SOL    HW2 7482   2.654   0.344   1.751
 2195SOL     OW 7483   1.573   4.578   2.538
 2195SOL    HW1 7484   1.558   4.661   2.484
 2195SOL    HW2 7485   1.501   4.570   2.607
 2196SOL     OW 7486   3.650   2.541   6.230
 2196SOL    HW1 7487   3.637   2.486   6.147
 2196SOL    HW2 7488   3.570   2.532   6.289
 2197SOL     OW 7489   4.500   5.199   0.681
 2197SOL    HW1 7490   4.425   5.201   0.748
 2197SOL    HW2 7491   4.469   5.154   0.597
 2198SOL     OW 7492   6.196   4.014   0.155
 2198SOL    HW1 7493   6.187   3.915   0.145
 2198SOL    HW2 7494   6.106   4.056   0.161
 2199SOL     OW 7495   4.904   0.680   1.670
 2199SOL    HW1 7496   4.901   0.660   1.768
 2199SOL    HW2 7497   4.815   0.662   1.630
 2200SOL     OW 7498   2.935   0.627   4.830
 2200SOL    HW1 7499   2.877   0.561   4.878
 2200SOL    HW2 7500   2.898   0.642   4.738
 2201SOL     OW 7501   5.428   3.443   2.021
 2201SOL    HW1 7502   5.445   3.459   2.118
 2201SOL    HW2 7503   5.452   3.526   1.969
 2202SOL     OW 7504   4.287   6.386   3.742
 2202SOL    HW1 7505   4.216   6.421   3.682
 2202SOL    HW2 7506   4.314   6.294   3.712
 2203SOL     OW 7507   3.466   1.795   2.822
 2203SOL    HW1 7508   3.374   1.757   2.807
 2203SOL    HW2 7509   3.486   1.793   2.920
 2204SOL     OW 7510   3.095   2.614   0.479
 2204SOL    HW1 7511   3.192   2.605   0.500
 2204SOL    HW2 7512   3.045   2.641   0.561
 2205SOL     OW 7513   2.676   7.006   0.364
 2205SOL    HW1 7514   2.753   6.949   0.335
 2205SOL    HW2 7515   2.704   0.078   0.368
 2206SOL     OW 7516   2.141   2.757   6.777
 2206SOL    HW1 7517   2.087   2.784   6.856
 2206SOL    HW2 7518   2.238   2.778   6.794
 2207SOL     OW 7519   0.872   3.946   5.288
 2207SOL    HW1 7520   0.920   4.019   5.336
 2207SOL    HW2 7521   0.774   3.964   5.291
 2208SOL     OW 7522   0.580   4.304   1.650
 2208SOL    HW1 7523   0.545   4.308   1.557
 2208SOL    HW2 7524   0.579   4.209   1.682
 2209SOL     OW 7525   1.206   5.896   0.573
 2209SOL    HW1 7526   1.211   5.797   0.588
 2209SOL    HW2 7527   1.146   5.915   0.495
 2210SOL     OW 7528   0.682   5.938   4.115
 2210SOL    HW1 7529   0.611   5.881   4.075
 2210SOL    HW2 7530   0.770   5.917   4.072
 2211SOL     OW 7531   6.256   1.468   5.577
 2211SOL    HW1 7532   6.248   1.400   5.504
 2211SOL    HW2 7533   6.223   1.556   5.545
 2212SOL     OW 7534   1.348   0.317   5.959
 2212SOL    HW1 7535   1.255   0.293   5.932
 2212SOL    HW2 7536   1.364   0.414   5.942
 2213SOL     OW 7537   3.571   1.559   3.385
 2213SOL    HW1 7538   3.575   1.463   3.413
 2213SOL    HW2 7539   3.655   1.605   3.412
 2214SOL     OW 7540   4.123   0.014   4.529
 2214SOL    HW1 7541   4.127   0.111   4.503
 2214SOL    HW2 7542   4.205   7.014   4.581
 2215SOL     OW 7543   6.063   2.519   5.472
 2215SOL    HW1 7544   6.069   2.457   5.551
 2215SOL    HW2 7545   6.136   2.587   5.477
 2216SOL     OW 7546   2.247   6.998   1.907
 2216SOL    HW1 7547   2.245   6.994   2.007
 2216SOL    HW2 7548   2.154   7.013   1.872
 2217SOL     OW 7549   3.857   0.610   1.446
 2217SOL    HW1 7550   3.949   0.585   1.415
 2217SOL    HW2 7551   3.796   0.618   1.367
 2218SOL     OW 7552   1.119   5.893   0.929
 2218SOL    HW1 7553   1.026   5.906   0.895
 2218SOL    HW2 7554   1.185   5.917   0.857
 2219SOL     OW 7555   1.034   3.613   3.172
 2219SOL    HW1 7556   1.095   3.542   3.207
 2219SOL    HW2 7557   1.013   3.678   3.245
 2220SOL     OW 7558   0.362   1.084   6.965
 2220SOL    HW1 7559   0.279   1.089   7.021
 2220SOL    HW2 7560   0.338   1.062   6.871
 2221SOL     OW 7561   6.994   2.407   0.939
 2221SOL    HW1 7562   6.997   2.313   0.973
 2221SOL    HW2 7563   6.988   2.406   0.839
 2222SOL     OW 7564   5.603   6.319   2.775
 2222SOL    HW1 7565   5.599   6.397   2.713
 2222SOL    HW2 7566   5.512   6.277   2.781
 2223SOL     OW 7567   5.298   5.397   2.260
 2223SOL    HW1 7568   5.311   5.464   2.332
 2223SOL    HW2 7569   5.386   5.376   2.217
 2224SOL     OW 7570   1.267   5.198   1.128
 2224SOL    HW1 7571   1.242   5.106   1.098
 2224SOL    HW2 7572   1.196   5.262   1.101
 2225SOL     OW 7573   6.429   4.959   1.550
 2225SOL    HW1 7574   6.521   4.926   1.569
 2225SOL    HW2 7575   6.401   4.927   1.459
 2226SOL     OW 7576   4.540   3.876   1.135
 2226SOL    HW1 7577   4.491   3.919   1.211
 2226SOL    HW2 7578   4.487   3.800   1.098
 2227SOL     OW 7579   0.692   3.891   4.819
 2227SOL    HW1 7580   0.744   3.807   4.834
 2227SOL    HW2 7581   0.648   3.887   4.729
 2228SOL     OW 7582   2.937   4.919   5.547
 2228SOL    HW1 7583   2.946   4.825   5.516
 2228SOL    HW2 7584   2.978   4.928   5.638
 2229SOL     OW 7585   4.968   0.633   3.386
 2229SOL    HW1 7586   5.022   0.684   3.453
 2229SOL    HW2 7587   4.960   0.538   3.416
 2230SOL     OW 7588   1.339   6.275   0.362
 2230SOL    HW1 7589   1.432   6.270   0.327
 2230SOL    HW2 7590   1.292   6.189   0.343
 2231SOL     OW 7591   2.818   6.756   1.697
 2231SOL    HW1 7592   2.901   6.736   1.644
 2231SOL    HW2 7593   2.832   6.729   1.792
 2232SOL     OW 7594   6.775   3.135   2.927
 2232SOL    HW1 7595   6.761   3.134   2.828
 2232SOL    HW2 7596   6.783   3.229   2.958
 2233SOL     OW 7597   3.798   0.915   6.853
 2233SOL    HW1 7598   3.895   0.900   6.836
 2233SOL    HW2 7599   3.744   0.844   6.808
 2234SOL     OW 7600   3.103   1.868   0.749
 2234SOL    HW1 7601   3.069   1.785   0.792
 2234SOL    HW2 7602   3.161   1.845   0.671
 2235SOL     OW 7603   2.008   6.909   1.479
 2235SOL    HW1 7604   2.101   6.906   1.441
 2235SOL    HW2 7605   1.949   6.848   1.427
 2236SOL     OW 7606   6.552   4.394   0.568
 2236SOL    HW1 7607   6.480   4.326   0.552
 2236SOL    HW2 7608   6.552   4.421   0.664
 2237SOL     OW 7609   6.343   2.179   3.889
 2237SOL    HW1 7610   6.388   2.204   3.976
 2237SOL    HW2 7611   6.413   2.159   3.821
 2238SOL     OW 7612   0.621   6.081   2.234
 2238SOL    HW1 7613   0.691   6.097   2.164
 2238SOL    HW2 7614   0.611   5.982   2.249
 2239SOL     OW 7615   4.795   4.865   2.956
 2239SOL    HW1 7616   4.821   4.826   2.867
 2239SOL    HW2 7617   4.863   4.839   3.024
 2240SOL     OW 7618   5.466   3.451   2.709
 2240SOL    HW1 7619   5.537   3.389   2.742
 2240SOL    HW2 7620   5.492   3.488   2.620
 2241SOL     OW 7621   0.397   0.377   2.112
 2241SOL    HW1 7622   0.423   0.425   2.029
 2241SOL    HW2 7623   0.364   0.443   2.180
 2242SOL     OW 7624   5.142   2.459   2.544
 2242SOL    HW1 7625   5.103   2.519   2.613
 2242SOL    HW2 7626   5.181   2.515   2.470
 2243SOL     OW 7627   2.428   5.887   5.628
 2243SOL    HW1 7628   2.443   5.804   5.575
 2243SOL    HW2 7629   2.496   5.956   5.603
 2244SOL     OW 7630   2.751   0.676   5.223
 2244SOL    HW1 7631   2.850   0.662   5.221
 2244SOL    HW2 7632   2.709   0.624   5.148
 2245SOL     OW 7633   1.033   1.883   1.511
 2245SOL    HW1 7634   1.045   1.793   1.552
 2245SOL    HW2 7635   1.074   1.953   1.570
 2246SOL     OW 7636   1.325   4.126   4.911
 2246SOL    HW1 7637   1.385   4.201   4.940
 2246SOL    HW2 7638   1.361   4.040   4.947
 2247SOL     OW 7639   1.957   1.855   5.527
 2247SOL    HW1 7640   1.973   1.850   5.626
 2247SOL    HW2 7641   1.870   1.811   5.506
 2248SOL     OW 7642   5.616   3.851   5.039
 2248SOL    HW1 7643   5.693   3.816   5.092
 2248SOL    HW2 7644   5.580   3.933   5.083
 2249SOL     OW 7645   4.782   5.704   4.560
 2249SOL    HW1 7646   4.801   5.606   4.556
 2249SOL    HW2 7647   4.802   5.738   4.652
 2250SOL     OW 7648   5.741   5.027   0.337
 2250SOL    HW1 7649   5.806   4.951   0.334
 2250SOL    HW2 7650   5.690   5.024   0.423
 2251SOL     OW 7651   6.503   0.780   6.875
 2251SOL    HW1 7652   6.584   0.742   6.830
 2251SOL    HW2 7653   6.420   0.749   6.828
 2252SOL     OW 7654   3.927   1.755   5.821
 2252SOL    HW1 7655   3.847   1.735   5.764
 2252SOL    HW2 7656   3.902   1.820   5.893
 2253SOL     OW 7657   2.104   2.538   6.630
 2253SOL    HW1 7658   2.103   2.607   6.703
 2253SOL    HW2 7659   2.143   2.453   6.666
 2254SOL     OW 7660   2.211   3.198   6.349
 2254SOL    HW1 7661   2.286   3.265   6.353
 2254SOL    HW2 7662   2.124   3.246   6.347
 2255SOL     OW 7663   5.822   2.615   1.837
 2255SOL    HW1 7664   5.777   2.536   1.795
 2255SOL    HW2 7665   5.754   2.671   1.884
 2256SOL     OW 7666   4.320   4.878   1.891
 2256SOL    HW1 7667   4.301   4.798   1.947
 2256SOL    HW2 7668   4.235   4.917   1.857
 2257SOL     OW 7669   1.685   4.238   3.957
 2257SOL    HW1 7670   1.752   4.166   3.937
 2257SOL    HW2 7671   1.658   4.233   4.053
 2258SOL     OW 7672   1.615   5.164   4.327
 2258SOL    HW1 7673   1.618   5.173   4.228
 2258SOL    HW2 7674   1.521   5.172   4.360
 2259SOL     OW 7675   5.756   2.763   6.515
 2259SOL    HW1 7676   5.783   2.858   6.500
 2259SOL    HW2 7677   5.814   2.703   6.460
 2260SOL     OW 7678   5.347   5.290   1.024
 2260SOL    HW1 7679   5.322   5.230   1.100
 2260SOL    HW2 7680   5.440   5.270   0.994
 2261SOL     OW 7681   4.342   6.407   6.412
 2261SOL    HW1 7682   4.346   6.308   6.398
 2261SOL    HW2 7683   4.286   6.426   6.493
 2262SOL     OW 7684   4.245   1.271   2.955
 2262SOL    HW1 7685   4.330   1.302   2.997
 2262SOL    HW2 7686   4.204   1.345   2.903
 2263SOL     OW 7687   0.041   4.700   6.364
 2263SOL    HW1 7688   0.056   4.757   6.445
 2263SOL    HW2 7689   0.122   4.706   6.305
 2264SOL     OW 7690   3.519   4.140   3.639
 2264SOL    HW1 7691   3.489   4.085   3.560
 2264SOL    HW2 7692   3.613   4.170   3.624
 2265SOL     OW 7693   6.969   0.654   1.664
 2265SOL    HW1 7694   6.990   0.574   1.720
 2265SOL    HW2 7695   7.017   0.646   1.576
 2266SOL     OW 7696   5.749   6.613   1.025
 2266SOL    HW1 7697   5.685   6.557   0.972
 2266SOL    HW2 7698   5.779   6.690   0.968
 2267SOL     OW 7699   5.273   1.811   5.618
 2267SOL    HW1 7700   5.348   1.799   5.553
 2267SOL    HW2 7701   5.186   1.789   5.573
 2268SOL     OW 7702   6.676   5.447   0.264
 2268SOL    HW1 7703   6.578   5.444   0.247
 2268SOL    HW2 7704   6.694   5.506   0.344
 2269SOL     OW 7705   6.986   5.532   5.234
 2269SOL    HW1 7706   7.003   5.612   5.176
 2269SOL    HW2 7707   0.013   5.454   5.197
 2270SOL     OW 7708   4.291   3.401   1.767
 2270SOL    HW1 7709   4.387   3.399   1.740
 2270SOL    HW2 7710   4.248   3.484   1.730
 2271SOL     OW 7711   5.931   4.515   2.882
 2271SOL    HW1 7712   6.027   4.503   2.855
 2271SOL    HW2 7713   5.927   4.543   2.978
 2272SOL     OW 7714   5.636   1.876   6.505
 2272SOL    HW1 7715   5.633   1.788   6.553
 2272SOL    HW2 7716   5.622   1.950   6.571
 2273SOL     OW 7717   1.492   1.468   3.620
 2273SOL    HW1 7718   1.485   1.521   3.705
 2273SOL    HW2 7719   1.445   1.381   3.631
 2274SOL     OW 7720   1.673   3.369   3.554
 2274SOL    HW1 7721   1.621   3.283   3.556
 2274SOL    HW2 7722   1.719   3.382   3.641
 2275SOL     OW 7723   4.928   6.822   3.234
 2275SOL    HW1 7724   4.923   6.757   3.158
 2275SOL    HW2 7725   4.836   6.844   3.265
 2276SOL     OW 7726   4.774   4.871   1.404
 2276SOL    HW1 7727   4.858   4.817   1.414
 2276SOL    HW2 7728   4.750   4.877   1.308
 2277SOL     OW 7729   3.124   3.906   0.559
 2277SOL    HW1 7730   3.107   3.927   0.655
 2277SOL    HW2 7731   3.037   3.906   0.510
 2278SOL     OW 7732   5.512   6.536   0.920
 2278SOL    HW1 7733   5.472   6.511   0.832
 2278SOL    HW2 7734   5.500   6.461   0.984
 2279SOL     OW 7735   5.577   4.299   4.937
 2279SOL    HW1 7736   5.640   4.301   5.014
 2279SOL    HW2 7737   5.484   4.284   4.970
 2280SOL     OW 7738   5.586   6.747   5.824
 2280SOL    HW1 7739   5.686   6.747   5.824
 2280SOL    HW2 7740   5.553   6.679   5.889
 2281SOL     OW 7741   3.098   3.308   0.720
 2281SOL    HW1 7742   3.113   3.290   0.623
 2281SOL    HW2 7743   3.137   3.397   0.744
 2282SOL     OW 7744   3.908   5.281   2.994
 2282SOL    HW1 7745   3.970   5.224   2.940
 2282SOL    HW2 7746   3.883   5.362   2.941
 2283SOL     OW 7747   0.168   3.528   3.079
 2283SOL    HW1 7748   0.210   3.584   3.150
 2283SOL    HW2 7749   0.163   3.433   3.110
 2284SOL     OW 7750   2.339   2.654   1.887
 2284SOL    HW1 7751   2.347   2.727   1.819
 2284SOL    HW2 7752   2.424   2.601   1.889
 2285SOL     OW 7753   2.195   4.553   0.528
 2285SOL    HW1 7754   2.109   4.605   0.531
 2285SOL    HW2 7755   2.217   4.522   0.621
 2286SOL     OW 7756   5.650   6.818   4.775
 2286SOL    HW1 7757   5.718   6.890   4.761
 2286SOL    HW2 7758   5.649   6.757   4.695
 2287SOL     OW 7759   1.965   3.174   1.816
 2287SOL    HW1 7760   2.019   3.104   1.864
 2287SOL    HW2 7761   2.026   3.247   1.786
 2288SOL     OW 7762   0.611   6.404   4.370
 2288SOL    HW1 7763   0.623   6.318   4.319
 2288SOL    HW2 7764   0.692   6.420   4.427
 2289SOL     OW 7765   4.729   2.607   1.371
 2289SOL    HW1 7766   4.793   2.651   1.435
 2289SOL    HW2 7767   4.641   2.594   1.417
 2290SOL     OW 7768   3.180   3.514   2.584
 2290SOL    HW1 7769   3.095   3.473   2.616
 2290SOL    HW2 7770   3.205   3.591   2.642
 2291SOL     OW 7771   1.474   2.323   6.897
 2291SOL    HW1 7772   1.526   2.258   6.952
 2291SOL    HW2 7773   1.522   2.340   6.811
 2292SOL     OW 7774   4.320   2.009   2.999
 2292SOL    HW1 7775   4.310   1.992   2.901
 2292SOL    HW2 7776   4.415   1.998   3.025
 2293SOL     OW 7777   6.875   1.310   0.003
 2293SOL    HW1 7778   6.878   1.324   0.102
 2293SOL    HW2 7779   6.877   1.399   6.981
 2294SOL     OW 7780   0.320   1.901   5.954
 2294SOL    HW1 7781   0.277   1.983   5.992
 2294SOL    HW2 7782   0.256   1.856   5.891
 2295SOL     OW 7783   5.917   6.383   0.794
 2295SOL    HW1 7784   5.905   6.435   0.710
 2295SOL    HW2 7785   5.993   6.320   0.784
 2296SOL     OW 7786   3.174   5.553   4.483
 2296SOL    HW1 7787   3.185   5.467   4.433
 2296SOL    HW2 7788   3.101   5.607   4.441
 2297SOL     OW 7789   4.056   4.266   5.276
 2297SOL    HW1 7790   4.094   4.348   5.233
 2297SOL    HW2 7791   3.972   4.239   5.228
 2298SOL     OW 7792   3.903   3.478   4.499
 2298SOL    HW1 7793   3.869   3.553   4.441
 2298SOL    HW2 7794   3.951   3.517   4.577
 2299SOL     OW 7795   5.715   3.526   4.480
 2299SOL    HW1 7796   5.711   3.451   4.546
 2299SOL    HW2 7797   5.648   3.511   4.408
 2300SOL     OW 7798   4.707   6.656   2.310
 2300SOL    HW1 7799   4.677   6.749   2.333
 2300SOL    HW2 7800   4.628   6.600   2.285
 2301SOL     OW 7801   3.790   2.915   4.184
 2301SOL    HW1 7802   3.866   2.980   4.182
 2301SOL    HW2 7803   3.765   2.895   4.278
 2302SOL     OW 7804   4.396   2.325   0.808
 2302SOL    HW1 7805   4.334   2.385   0.756
 2302SOL    HW2 7806   4.362   2.316   0.901
 2303SOL     OW 7807   3.961   1.702   6.769
 2303SOL    HW1 7808   3.945   1.715   6.867
 2303SOL    HW2 7809   4.058   1.684   6.754
 2304SOL     OW 7810   5.126   5.809   2.397
 2304SOL    HW1 7811   5.217   5.814   2.356
 2304SOL    HW2 7812   5.095   5.714   2.398
 2305SOL     OW 7813   2.225   0.870   5.124
 2305SOL    HW1 7814   2.279   0.833   5.199
 2305SOL    HW2 7815   2.233   0.809   5.045
 2306SOL     OW 7816   1.878   4.997   4.540
 2306SOL    HW1 7817   1.818   5.077   4.545
 2306SOL    HW2 7818   1.854   4.943   4.459
 2307SOL     OW 7819   6.720   3.473   5.956
 2307SOL    HW1 7820   6.721   3.547   5.889
 2307SOL    HW2 7821   6.745   3.509   6.046
 2308SOL     OW 7822   1.953   4.823   1.603
 2308SOL    HW1 7823   1.863   4.865   1.602
 2308SOL    HW2 7824   2.004   4.851   1.522
 2309SOL     OW 7825   2.290   6.256   5.546
 2309SOL    HW1 7826   2.262   6.209   5.630
 2309SOL    HW2 7827   2.313   6.351   5.566
 2310SOL     OW 7828   4.817   6.524   1.227
 2310SOL    HW1 7829   4.820   6.526   1.326
 2310SOL    HW2 7830   4.754   6.595   1.194
 2311SOL     OW 7831   3.127   5.842   1.535
 2311SOL    HW1 7832   3.225   5.842   1.555
 2311SOL    HW2 7833   3.077   5.805   1.613
 2312SOL     OW 7834   3.259   4.900   2.718
 2312SOL    HW1 7835   3.257   4.997   2.743
 2312SOL    HW2 7836   3.193   4.850   2.774
 2313SOL     OW 7837   4.642   5.735   1.316
 2313SOL    HW1 7838   4.579   5.682   1.373
 2313SOL    HW2 7839   4.643   5.830   1.348
 2314SOL     OW 7840   2.033   5.488   4.271
 2314SOL    HW1 7841   2.005   5.504   4.366
 2314SOL    HW2 7842   1.983   5.550   4.211
 2315SOL     OW 7843   4.358   2.858   6.527
 2315SOL    HW1 7844   4.319   2.944   6.560
 2315SOL    HW2 7845   4.454   2.872   6.503
 2316SOL     OW 7846   5.486   3.478   2.298
 2316SOL    HW1 7847   5.434   3.433   2.371
 2316SOL    HW2 7848   5.565   3.422   2.274
 2317SOL     OW 7849   0.802   4.658   4.147
 2317SOL    HW1 7850   0.849   4.588   4.094
 2317SOL    HW2 7851   0.742   4.615   4.214
 2318SOL     OW 7852   6.960   1.246   3.813
 2318SOL    HW1 7853   6.887   1.193   3.858
 2318SOL    HW2 7854   0.013   1.256   3.876
 2319SOL     OW 7855   0.585   4.111   3.984
 2319SOL    HW1 7856   0.645   4.137   3.907
 2319SOL    HW2 7857   0.560   4.014   3.975
 2320SOL     OW 7858   6.440   4.137   4.846
 2320SOL    HW1 7859   6.406   4.179   4.761
 2320SOL    HW2 7860   6.441   4.038   4.836
 2321SOL     OW 7861   2.493   5.671   5.443
 2321SOL    HW1 7862   2.546   5.593   5.476
 2321SOL    HW2 7863   2.531   5.703   5.357
 2322SOL     OW 7864   2.197   0.305   6.288
 2322SOL    HW1 7865   2.283   0.352   6.269
 2322SOL    HW2 7866   2.138   0.310   6.208
 2323SOL     OW 7867   5.203   4.826   1.825
 2323SOL    HW1 7868   5.251   4.892   1.767
 2323SOL    HW2 7869   5.182   4.869   1.913
 2324SOL     OW 7870   6.636   5.170   3.760
 2324SOL    HW1 7871   6.571   5.116   3.707
 2324SOL    HW2 7872   6.694   5.223   3.697
 2325SOL     OW 7873   6.401   3.027   0.738
 2325SOL    HW1 7874   6.441   2.971   0.810
 2325SOL    HW2 7875   6.468   3.041   0.665
 2326SOL     OW 7876   1.931   5.157   6.980
 2326SOL    HW1 7877   1.849   5.214   6.989
 2326SOL    HW2 7878   1.979   5.153   0.043
 2327SOL     OW 7879   5.513   2.326   5.006
 2327SOL    HW1 7880   5.571   2.262   4.956
 2327SOL    HW2 7881   5.557   2.415   5.012
 2328SOL     OW 7882   5.388   0.036   3.195
 2328SOL    HW1 7883   5.434   0.125   3.190
 2328SOL    HW2 7884   5.289   0.048   3.192
 2329SOL     OW 7885   0.016   6.169   3.424
 2329SOL    HW1 7886   0.034   6.071   3.431
 2329SOL    HW2 7887   7.013   6.191   3.330
 2330SOL     OW 7888   0.402   3.466   2.337
 2330SOL    HW1 7889   0.352   3.397   2.388
 2330SOL    HW2 7890   0.370   3.557   2.363
 2331SOL     OW 7891   1.013   4.429   5.570
 2331SOL    HW1 7892   1.043   4.503   5.509
 2331SOL    HW2 7893   0.932   4.458   5.620
 2332SOL     OW 7894   5.662   2.545   4.897
 2332SOL    HW1 7895   5.728   2.618   4.916
 2332SOL    HW2 7896   5.694   2.491   4.819
 2333SOL     OW 7897   1.442   5.434   3.975
 2333SOL    HW1 7898   1.466   5.531   3.976
 2333SOL    HW2 7899   1.520   5.380   4.006
 2334SOL     OW 7900   2.819   0.193   0.306
 2334SOL    HW1 7901   2.823   0.293   0.296
 2334SOL    HW2 7902   2.867   0.150   0.230
 2335SOL     OW 7903   4.865   7.010   3.852
 2335SOL    HW1 7904   4.963   0.008   3.849
 2335SOL    HW2 7905   4.847   6.928   3.798
 2336SOL     OW 7906   4.759   1.663   6.222
 2336SOL    HW1 7907   4.717   1.749   6.253
 2336SOL    HW2 7908   4.859   1.671   6.229
 2337SOL     OW 7909   5.917   0.547   2.792
 2337SOL    HW1 7910   5.919   0.470   2.727
 2337SOL    HW2 7911   5.889   0.630   2.744
 2338SOL     OW 7912   0.923   0.021   6.343
 2338SOL    HW1 7913   1.005   0.046   6.394
 2338SOL    HW2 7914   0.949   7.012   6.252
 2339SOL     OW 7915   3.833   4.717   6.936
 2339SOL    HW1 7916   3.823   4.730   6.838
 2339SOL    HW2 7917   3.828   4.619   6.957
 2340SOL     OW 7918   3.494   5.251   4.759
 2340SOL    HW1 7919   3.425   5.321   4.739
 2340SOL    HW2 7920   3.469   5.165   4.714
 2341SOL     OW 7921   5.952   5.339   0.233
 2341SOL    HW1 7922   5.891   5.271   0.193
 2341SOL    HW2 7923   5.963   5.416   0.170
 2342SOL     OW 7924   6.686   0.265   5.266
 2342SOL    HW1 7925   6.744   0.212   5.328
 2342SOL    HW2 7926   6.620   0.205   5.221
 2343SOL     OW 7927   1.221   6.734   0.477
 2343SOL    HW1 7928   1.303   6.752   0.422
 2343SOL    HW2 7929   1.222   6.638   0.507
 2344SOL     OW 7930   2.084   1.675   2.949
 2344SOL    HW1 7931   2.115   1.580   2.942
 2344SOL    HW2 7932   2.128   1.730   2.878
 2345SOL     OW 7933   2.545   1.374   4.012
 2345SOL    HW1 7934   2.503   1.462   3.989
 2345SOL    HW2 7935   2.591   1.381   4.101
 2346SOL     OW 7936   4.722   3.562   5.934
 2346SOL    HW1 7937   4.637   3.609   5.910
 2346SOL    HW2 7938   4.701   3.476   5.980
 2347SOL     OW 7939   1.230   3.000   1.139
 2347SOL    HW1 7940   1.324   3.029   1.123
 2347SOL    HW2 7941   1.169   3.052   1.079
 2348SOL     OW 7942   2.601   6.614   2.115
 2348SOL    HW1 7943   2.656   6.675   2.172
 2348SOL    HW2 7944   2.554   6.668   2.045
 2349SOL     OW 7945   4.871   5.482   6.084
 2349SOL    HW1 7946   4.933   5.479   6.163
 2349SOL    HW2 7947   4.918   5.523   6.006
 2350SOL     OW 7948   2.691   6.132   5.430
 2350SOL    HW1 7949   2.752   6.101   5.357
 2350SOL    HW2 7950   2.596   6.127   5.398
 2351SOL     OW 7951   2.556   5.355   4.392
 2351SOL    HW1 7952   2.493   5.430   4.371
 2351SOL    HW2 7953   2.648   5.379   4.360
 2352SOL     OW 7954   0.013   3.285   2.218
 2352SOL    HW1 7955   6.972   3.210   2.235
 2352SOL    HW2 7956   6.998   3.347   2.149
 2353SOL     OW 7957   2.377   4.021   6.213
 2353SOL    HW1 7958   2.288   4.001   6.172
 2353SOL    HW2 7959   2.449   3.985   6.154
 2354SOL     OW 7960   3.715   2.968   0.997
 2354SOL    HW1 7961   3.793   2.967   0.935
 2354SOL    HW2 7962   3.648   2.900   0.967
 2355SOL     OW 7963   0.514   0.169   1.014
 2355SOL    HW1 7964   0.488   0.079   0.980
 2355SOL    HW2 7965   0.451   0.238   0.979
 2356SOL     OW 7966   2.972   5.018   3.235
 2356SOL    HW1 7967   2.893   5.061   3.279
 2356SOL    HW2 7968   2.987   5.058   3.144
 2357SOL     OW 7969   6.205   4.423   1.170
 2357SOL    HW1 7970   6.155   4.357   1.114
 2357SOL    HW2 7971   6.168   4.422   1.263
 2358SOL     OW 7972   4.224   1.352   5.610
 2358SOL    HW1 7973   4.219   1.394   5.519
 2358SOL    HW2 7974   4.138   1.304   5.630
 2359SOL     OW 7975   1.571   1.370   5.267
 2359SOL    HW1 7976   1.597   1.275   5.282
 2359SOL    HW2 7977   1.514   1.402   5.342
 2360SOL     OW 7978   4.248   4.339   0.287
 2360SOL    HW1 7979   4.277   4.424   0.331
 2360SOL    HW2 7980   4.325   4.277   0.280
 2361SOL     OW 7981   4.079   5.880   1.760
 2361SOL    HW1 7982   4.094   5.965   1.710
 2361SOL    HW2 7983   4.160   5.858   1.814
 2362SOL     OW 7984   4.093   5.991   3.837
 2362SOL    HW1 7985   4.079   5.915   3.775
 2362SOL    HW2 7986   4.005   6.018   3.876
 2363SOL     OW 7987   2.725   4.286   0.572
 2363SOL    HW1 7988   2.647   4.347   0.587
 2363SOL    HW2 7989   2.693   4.203   0.526
 2364SOL     OW 7990   4.491   1.382   2.358
 2364SOL    HW1 7991   4.488   1.466   2.413
 2364SOL    HW2 7992   4.398   1.354   2.335
 2365SOL     OW 7993   4.915   3.574   3.320
 2365SOL    HW1 7994   4.903   3.484   3.360
 2365SOL    HW2 7995   4.967   3.566   3.234
 2366SOL     OW 7996   2.589   4.665   4.933
 2366SOL    HW1 7997   2.541   4.721   5.000
 2366SOL    HW2 7998   2.673   4.630   4.973
 2367SOL     OW 7999   6.264   4.716   6.254
 2367SOL    HW1 8000   6.238   4.784   6.323
 2367SOL    HW2 8001   6.291   4.631   6.299
 2368SOL     OW 8002   5.354   6.629   4.080
 2368SOL    HW1 8003   5.295   6.550   4.070
 2368SOL    HW2 8004   5.422   6.629   4.007
 2369SOL     OW 8005   3.078   1.910   4.455
 2369SOL    HW1 8006   3.124   1.833   4.499
 2369SOL    HW2 8007   3.043   1.881   4.366
 2370SOL     OW 8008   5.729   2.480   1.431
 2370SOL    HW1 8009   5.817   2.492   1.477
 2370SOL    HW2 8010   5.728   2.532   1.346
 2371SOL     OW 8011   0.931   6.842   2.991
 2371SOL    HW1 8012   0.841   6.801   2.984
 2371SOL    HW2 8013   0.926   6.928   3.042
 2372SOL     OW 8014   6.465   0.826   5.842
 2372SOL    HW1 8015   6.560   0.827   5.809
 2372SOL    HW2 8016   6.433   0.920   5.853
 2373SOL     OW 8017   5.970   5.544   0.053
 2373SOL    HW1 8018   6.009   5.636   0.061
 2373SOL    HW2 8019   5.988   5.508   6.984
 2374SOL     OW 8020   5.997   6.005   1.942
 2374SOL    HW1 8021   6.046   5.976   2.024
 2374SOL    HW2 8022   6.060   6.051   1.880
 2375SOL     OW 8023   0.670   6.909   4.262
 2375SOL    HW1 8024   0.754   6.883   4.213
 2375SOL    HW2 8025   0.618   6.974   4.206
 2376SOL     OW 8026   5.909   1.362   3.128
 2376SOL    HW1 8027   5.883   1.457   3.110
 2376SOL    HW2 8028   5.917   1.349   3.227
 2377SOL     OW 8029   4.243   4.862   5.549
 2377SOL    HW1 8030   4.342   4.873   5.562
 2377SOL    HW2 8031   4.195   4.901   5.628
 2378SOL     OW 8032   6.475   0.991   0.273
 2378SOL    HW1 8033   6.564   0.962   0.308
 2378SOL    HW2 8034   6.479   1.003   0.174
 2379SOL     OW 8035   6.533   4.507   1.239
 2379SOL    HW1 8036   6.446   4.483   1.197
 2379SOL    HW2 8037   6.552   4.443   1.314
 2380SOL     OW 8038   4.760   4.762   4.766
 2380SOL    HW1 8039   4.714   4.674   4.774
 2380SOL    HW2 8040   4.857   4.747   4.750
 2381SOL     OW 8041   2.308   4.832   4.869
 2381SOL    HW1 8042   2.367   4.771   4.815
 2381SOL    HW2 8043   2.262   4.779   4.940
 2382SOL     OW 8044   0.402   6.333   2.575
 2382SOL    HW1 8045   0.315   6.320   2.527
 2382SOL    HW2 8046   0.477   6.302   2.517
 2383SOL     OW 8047   5.947   5.521   5.556
 2383SOL    HW1 8048   5.926   5.423   5.560
 2383SOL    HW2 8049   5.888   5.570   5.621
 2384SOL     OW 8050   0.665   1.783   2.300
 2384SOL    HW1 8051   0.685   1.770   2.203
 2384SOL    HW2 8052   0.746   1.761   2.354
 2385SOL     OW 8053   0.296   2.190   1.203
 2385SOL    HW1 8054   0.357   2.197   1.125
 2385SOL    HW2 8055   0.324   2.114   1.261
 2386SOL     OW 8056   5.293   5.982   3.846
 2386SOL    HW1 8057   5.213   6.034   3.874
 2386SOL    HW2 8058   5.299   5.982   3.746
 2387SOL     OW 8059   1.554   1.952   4.021
 2387SOL    HW1 8060   1.492   1.982   4.094
 2387SOL    HW2 8061   1.647   1.984   4.041
 2388SOL     OW 8062   0.036   1.665   5.502
 2388SOL    HW1 8063   6.973   1.685   5.456
 2388SOL    HW2 8064   0.024   1.588   5.565
 2389SOL     OW 8065   5.283   4.602   4.886
 2389SOL    HW1 8066   5.295   4.511   4.847
 2389SOL    HW2 8067   5.333   4.608   4.973
 2390SOL     OW 8068   4.392   3.901   5.642
 2390SOL    HW1 8069   4.361   3.963   5.569
 2390SOL    HW2 8070   4.364   3.807   5.620
 2391SOL     OW 8071   3.447   4.569   6.124
 2391SOL    HW1 8072   3.407   4.629   6.055
 2391SOL    HW2 8073   3.375   4.513   6.165
 2392SOL     OW 8074   3.738   5.408   5.390
 2392SOL    HW1 8075   3.708   5.481   5.452
 2392SOL    HW2 8076   3.680   5.409   5.308
 2393SOL     OW 8077   3.519   5.157   1.558
 2393SOL    HW1 8078   3.573   5.239   1.574
 2393SOL    HW2 8079   3.457   5.142   1.636
 2394SOL     OW 8080   0.953   2.448   3.670
 2394SOL    HW1 8081   0.950   2.523   3.604
 2394SOL    HW2 8082   1.048   2.424   3.688
 2395SOL     OW 8083   0.157   2.379   4.557
 2395SOL    HW1 8084   0.172   2.473   4.589
 2395SOL    HW2 8085   0.244   2.330   4.558
 2396SOL     OW 8086   6.934   0.730   5.268
 2396SOL    HW1 8087   6.887   0.646   5.242
 2396SOL    HW2 8088   0.007   0.724   5.242
 2397SOL     OW 8089   0.493   4.343   5.775
 2397SOL    HW1 8090   0.519   4.304   5.687
 2397SOL    HW2 8091   0.571   4.340   5.837
 2398SOL     OW 8092   3.692   6.389   3.864
 2398SOL    HW1 8093   3.716   6.362   3.771
 2398SOL    HW2 8094   3.609   6.341   3.892
 2399SOL     OW 8095   3.108   2.204   3.888
 2399SOL    HW1 8096   3.103   2.267   3.966
 2399SOL    HW2 8097   3.015   2.181   3.858
 2400SOL     OW 8098   0.645   4.321   0.676
 2400SOL    HW1 8099   0.613   4.379   0.752
 2400SOL    HW2 8100   0.629   4.225   0.699
 2401SOL     OW 8101   2.518   0.020   5.966
 2401SOL    HW1 8102   2.565   0.054   6.047
 2401SOL    HW2 8103   2.546   0.075   5.886
 2402SOL     OW 8104   1.347   4.258   2.674
 2402SOL    HW1 8105   1.425   4.258   2.612
 2402SOL    HW2 8106   1.274   4.201   2.636
 2403SOL     OW 8107   3.793   4.039   3.073
 2403SOL    HW1 8108   3.755   4.063   3.162
 2403SOL    HW2 8109   3.721   4.046   3.003
 2404SOL     OW 8110   6.459   1.660   0.655
 2404SOL    HW1 8111   6.444   1.598   0.578
 2404SOL    HW2 8112   6.372   1.677   0.702
 2405SOL     OW 8113   1.952   3.209   1.025
 2405SOL    HW1 8114   1.904   3.293   1.001
 2405SOL    HW2 8115   1.893   3.151   1.082
 2406SOL     OW 8116   2.234   6.180   4.572
 2406SOL    HW1 8117   2.257   6.261   4.626
 2406SOL    HW2 8118   2.318   6.131   4.548
 2407SOL     OW 8119   3.449   1.399   3.870
 2407SOL    HW1 8120   3.486   1.403   3.777
 2407SOL    HW2 8121   3.470   1.310   3.911
 2408SOL     OW 8122   3.058   5.927   4.798
 2408SOL    HW1 8123   3.058   5.917   4.699
 2408SOL    HW2 8124   2.966   5.909   4.834
 2409SOL     OW 8125   1.715   3.200   1.696
 2409SOL    HW1 8126   1.637   3.140   1.713
 2409SOL    HW2 8127   1.795   3.167   1.746
 2410SOL     OW 8128   1.046   3.300   5.164
 2410SOL    HW1 8129   1.088   3.374   5.111
 2410SOL    HW2 8130   1.022   3.334   5.255
 2411SOL     OW 8131   2.999   3.924   0.309
 2411SOL    HW1 8132   3.035   3.860   0.241
 2411SOL    HW2 8133   2.900   3.913   0.315
 2412SOL     OW 8134   3.344   1.516   6.953
 2412SOL    HW1 8135   3.380   1.574   0.002
 2412SOL    HW2 8136   3.266   1.563   6.910
 2413SOL     OW 8137   6.644   3.105   7.008
 2413SOL    HW1 8138   6.681   3.021   0.025
 2413SOL    HW2 8139   6.572   3.082   6.943
 2414SOL     OW 8140   6.529   2.613   4.629
 2414SOL    HW1 8141   6.581   2.601   4.545
 2414SOL    HW2 8142   6.592   2.619   4.707
 2415SOL     OW 8143   2.780   5.770   0.673
 2415SOL    HW1 8144   2.816   5.747   0.763
 2415SOL    HW2 8145   2.807   5.864   0.650
 2416SOL     OW 8146   6.970   3.823   2.421
 2416SOL    HW1 8147   6.991   3.727   2.439
 2416SOL    HW2 8148   7.005   3.878   2.496
 2417SOL     OW 8149   3.047   3.023   1.402
 2417SOL    HW1 8150   2.995   2.985   1.325
 2417SOL    HW2 8151   3.141   3.041   1.372
 2418SOL     OW 8152   4.560   4.161   5.936
 2418SOL    HW1 8153   4.525   4.187   6.026
 2418SOL    HW2 8154   4.584   4.064   5.936
 2419SOL     OW 8155   1.739   6.500   4.055
 2419SOL    HW1 8156   1.783   6.536   3.973
 2419SOL    HW2 8157   1.739   6.400   4.052
 2420SOL     OW 8158   1.612   4.286   2.555
 2420SOL    HW1 8159   1.597   4.384   2.543
 2420SOL    HW2 8160   1.702   4.261   2.518
 2421SOL     OW 8161   2.166   6.074   4.175
 2421SOL    HW1 8162   2.242   6.139   4.167
 2421SOL    HW2 8163   2.111   6.097   4.254
 2422SOL     OW 8164   4.623   6.510   7.022
 2422SOL    HW1 8165   4.642   6.542   0.092
 2422SOL    HW2 8166   4.709   6.482   6.978
 2423SOL     OW 8167   2.448   5.093   2.772
 2423SOL    HW1 8168   2.392   5.032   2.716
 2423SOL    HW2 8169   2.482   5.043   2.852
 2424SOL     OW 8170   5.651   1.293   5.748
 2424SOL    HW1 8171   5.747   1.310   5.771
 2424SOL    HW2 8172   5.595   1.307   5.830
 2425SOL     OW 8173   5.160   5.489   5.367
 2425SOL    HW1 8174   5.100   5.480   5.447
 2425SOL    HW2 8175   5.245   5.534   5.394
 2426SOL     OW 8176   2.127   3.968   6.103
 2426SOL    HW1 8177   2.091   3.878   6.127
 2426SOL    HW2 8178   2.082   4.038   6.158
 2427SOL     OW 8179   5.284   0.683   0.251
 2427SOL    HW1 8180   5.221   0.731   0.190
 2427SOL    HW2 8181   5.262   0.585   0.252
 2428SOL     OW 8182   0.352   0.592   3.452
 2428SOL    HW1 8183   0.325   0.532   3.376
 2428SOL    HW2 8184   0.358   0.686   3.419
 2429SOL     OW 8185   5.201   5.309   1.576
 2429SOL    HW1 8186   5.184   5.401   1.540
 2429SOL    HW2 8187   5.300   5.293   1.581
 2430SOL     OW 8188   6.168   1.878   6.259
 2430SOL    HW1 8189   6.178   1.778   6.256
 2430SOL    HW2 8190   6.073   1.902   6.276
 2431SOL     OW 8191   6.630   2.480   1.826
 2431SOL    HW1 8192   6.694   2.446   1.757
 2431SOL    HW2 8193   6.540   2.492   1.785
 2432SOL     OW 8194   3.487   5.170   2.603
 2432SOL    HW1 8195   3.510   5.073   2.614
 2432SOL    HW2 8196   3.417   5.181   2.533
 2433SOL     OW 8197   6.076   4.375   6.314
 2433SOL    HW1 8198   6.131   4.292   6.301
 2433SOL    HW2 8199   6.129   4.455   6.287
 2434SOL     OW 8200   4.733   1.404   3.141
 2434SOL    HW1 8201   4.752   1.439   3.050
 2434SOL    HW2 8202   4.777   1.462   3.209
 2435SOL     OW 8203   5.685   6.588   6.826
 2435SOL    HW1 8204   5.732   6.656   6.768
 2435SOL    HW2 8205   5.722   6.497   6.808
 2436SOL     OW 8206   1.800   1.997   1.995
 2436SOL    HW1 8207   1.729   1.953   1.941
 2436SOL    HW2 8208   1.807   2.093   1.969
 2437SOL     OW 8209   7.006   4.548   2.949
 2437SOL    HW1 8210   0.076   4.512   2.945
 2437SOL    HW2 8211   7.009   4.648   2.951
 2438SOL     OW 8212   3.399   1.425   4.965
 2438SOL    HW1 8213   3.323   1.409   5.028
 2438SOL    HW2 8214   3.363   1.451   4.876
 2439SOL     OW 8215   0.920   6.264   1.086
 2439SOL    HW1 8216   0.977   6.190   1.122
 2439SOL    HW2 8217   0.957   6.296   0.999
 2440SOL     OW 8218   5.348   1.119   4.989
 2440SOL    HW1 8219   5.268   1.170   4.957
 2440SOL    HW2 8220   5.357   1.131   5.088
 2441SOL     OW 8221   5.888   0.199   6.991
 2441SOL    HW1 8222   5.967   0.261   6.992
 2441SOL    HW2 8223   5.878   0.156   0.057
 2442SOL     OW 8224   5.212   3.102   1.843
 2442SOL    HW1 8225   5.309   3.106   1.867
 2442SOL    HW2 8226   5.158   3.147   1.914
 2443SOL     OW 8227   0.886   2.343   0.819
 2443SOL    HW1 8228   0.857   2.302   0.905
 2443SOL    HW2 8229   0.945   2.279   0.769
 2444SOL     OW 8230   3.936   5.687   1.399
 2444SOL    HW1 8231   4.009   5.753   1.382
 2444SOL    HW2 8232   3.848   5.736   1.404
 2445SOL     OW 8233   6.574   2.514   0.577
 2445SOL    HW1 8234   6.547   2.462   0.496
 2445SOL    HW2 8235   6.548   2.610   0.566
 2446SOL     OW 8236   1.880   4.539   1.275
 2446SOL    HW1 8237   1.811   4.593   1.322
 2446SOL    HW2 8238   1.846   4.446   1.260
 2447SOL     OW 8239   3.033   6.948   0.589
 2447SOL    HW1 8240   3.050   0.010   0.539
 2447SOL    HW2 8241   2.941   6.950   0.628
 2448SOL     OW 8242   5.976   1.664   3.787
 2448SOL    HW1 8243   5.931   1.576   3.781
 2448SOL    HW2 8244   6.075   1.652   3.782
 2449SOL     OW 8245   1.615   4.592   1.758
 2449SOL    HW1 8246   1.599   4.519   1.692
 2449SOL    HW2 8247   1.635   4.553   1.848
 2450SOL     OW 8248   1.545   6.099   6.219
 2450SOL    HW1 8249   1.597   6.048   6.151
 2450SOL    HW2 8250   1.586   6.086   6.309
 2451SOL     OW 8251   0.709   0.112   4.674
 2451SOL    HW1 8252   0.793   0.160   4.647
 2451SOL    HW2 8253   0.632   0.176   4.672
 2452SOL     OW 8254   2.921   1.806   4.247
 2452SOL    HW1 8255   2.972   1.721   4.233
 2452SOL    HW2 8256   2.834   1.801   4.200
 2453SOL     OW 8257   0.979   1.231   0.133
 2453SOL    HW1 8258   1.044   1.221   0.057
 2453SOL    HW2 8259   0.999   1.316   0.182
 2454SOL     OW 8260   3.199   5.925   1.094
 2454SOL    HW1 8261   3.292   5.944   1.064
 2454SOL    HW2 8262   3.196   5.838   1.143
 2455SOL     OW 8263   3.698   1.681   0.200
 2455SOL    HW1 8264   3.662   1.761   0.248
 2455SOL    HW2 8265   3.728   1.613   0.266
 2456SOL     OW 8266   0.917   4.528   6.625
 2456SOL    HW1 8267   0.977   4.461   6.581
 2456SOL    HW2 8268   0.955   4.619   6.614
 2457SOL     OW 8269   5.681   2.119   5.347
 2457SOL    HW1 8270   5.737   2.169   5.281
 2457SOL    HW2 8271   5.727   2.119   5.436
 2458SOL     OW 8272   1.798   6.850   1.911
 2458SOL    HW1 8273   1.781   6.774   1.848
 2458SOL    HW2 8274   1.753   6.933   1.876
 2459SOL     OW 8275   2.590   6.212   1.438
 2459SOL    HW1 8276   2.588   6.123   1.393
 2459SOL    HW2 8277   2.668   6.265   1.405
 2460SOL     OW 8278   1.603   0.816   5.641
 2460SOL    HW1 8279   1.584   0.879   5.565
 2460SOL    HW2 8280   1.546   0.734   5.631
 2461SOL     OW 8281   3.598   1.538   4.526
 2461SOL    HW1 8282   3.666   1.508   4.459
 2461SOL    HW2 8283   3.644   1.567   4.610
 2462SOL     OW 8284   0.097   4.743   0.974
 2462SOL    HW1 8285   0.000   4.767   0.976
 2462SOL    HW2 8286   0.151   4.821   1.008
 2463SOL     OW 8287   6.764   1.202   6.427
 2463SOL    HW1 8288   6.754   1.233   6.522
 2463SOL    HW2 8289   6.709   1.260   6.367
 2464SOL     OW 8290   0.464   1.541   3.331
 2464SOL    HW1 8291   0.564   1.542   3.324
 2464SOL    HW2 8292   0.435   1.461   3.383
 2465SOL     OW 8293   0.772   4.547   5.697
 2465SOL    HW1 8294   0.675   4.568   5.688
 2465SOL    HW2 8295   0.823   4.631   5.715
 2466SOL     OW 8296   1.091   2.453   1.968
 2466SOL    HW1 8297   1.108   2.387   2.042
 2466SOL    HW2 8298   1.004   2.499   1.983
 2467SOL     OW 8299   5.108   1.346   5.970
 2467SOL    HW1 8300   5.089   1.437   5.934
 2467SOL    HW2 8301   5.025   1.307   6.009
 2468SOL     OW 8302   3.294   6.805   5.685
 2468SOL    HW1 8303   3.311   6.896   5.645
 2468SOL    HW2 8304   3.200   6.800   5.717
 2469SOL     OW 8305   3.371   2.578   5.577
 2469SOL    HW1 8306   3.382   2.518   5.656
 2469SOL    HW2 8307   3.434   2.656   5.585
 2470SOL     OW 8308   3.782   5.075   0.151
 2470SOL    HW1 8309   3.734   5.153   0.108
 2470SOL    HW2 8310   3.715   5.015   0.193
 2471SOL     OW 8311   4.258   5.735   1.338
 2471SOL    HW1 8312   4.292   5.683   1.417
 2471SOL    HW2 8313   4.207   5.815   1.370
 2472SOL     OW 8314   4.786   1.699   4.456
 2472SOL    HW1 8315   4.852   1.744   4.516
 2472SOL    HW2 8316   4.759   1.762   4.384
 2473SOL     OW 8317   6.964   4.648   4.993
 2473SOL    HW1 8318   6.991   4.715   5.062
 2473SOL    HW2 8319   7.010   4.561   5.013
 2474SOL     OW 8320   0.807   5.683   1.496
 2474SOL    HW1 8321   0.822   5.615   1.568
 2474SOL    HW2 8322   0.895   5.706   1.454
 2475SOL     OW 8323   4.896   0.393   0.959
 2475SOL    HW1 8324   4.972   0.357   1.012
 2475SOL    HW2 8325   4.849   0.318   0.912
 2476SOL     OW 8326   6.019   0.504   0.648
 2476SOL    HW1 8327   5.932   0.467   0.679
 2476SOL    HW2 8328   6.004   0.588   0.596
 2477SOL     OW 8329   3.565   0.329   3.191
 2477SOL    HW1 8330   3.556   0.310   3.288
 2477SOL    HW2 8331   3.494   0.394   3.163
 2478SOL     OW 8332   4.290   1.822   3.239
 2478SOL    HW1 8333   4.230   1.853   3.165
 2478SOL    HW2 8334   4.352   1.752   3.204
 2479SOL     OW 8335   0.710   3.368   0.584
 2479SOL    HW1 8336   0.693   3.466   0.598
 2479SOL    HW2 8337   0.674   3.341   0.495
 2480SOL     OW 8338   3.139   2.328   1.313
 2480SOL    HW1 8339   3.049   2.347   1.353
 2480SOL    HW2 8340   3.194   2.278   1.379
 2481SOL     OW 8341   2.986   0.885   1.257
 2481SOL    HW1 8342   2.916   0.823   1.291
 2481SOL    HW2 8343   3.047   0.912   1.332
 2482SOL     OW 8344   5.128   3.962   6.903
 2482SOL    HW1 8345   5.170   4.043   6.944
 2482SOL    HW2 8346   5.087   3.905   6.975
 2483SOL     OW 8347   0.305   2.364   0.779
 2483SOL    HW1 8348   0.370   2.310   0.726
 2483SOL    HW2 8349   0.267   2.307   0.852
 2484SOL     OW 8350   5.222   1.480   2.565
 2484SOL    HW1 8351   5.154   1.422   2.611
 2484SOL    HW2 8352   5.276   1.424   2.502
 2485SOL     OW 8353   4.767   2.483   6.183
 2485SOL    HW1 8354   4.756   2.385   6.199
 2485SOL    HW2 8355   4.829   2.498   6.106
 2486SOL     OW 8356   0.424   3.980   5.586
 2486SOL    HW1 8357   0.444   3.909   5.653
 2486SOL    HW2 8358   0.359   4.046   5.625
 2487SOL     OW 8359   5.148   6.193   0.316
 2487SOL    HW1 8360   5.122   6.097   0.318
 2487SOL    HW2 8361   5.248   6.201   0.311
 2488SOL     OW 8362   6.764   4.626   2.159
 2488SOL    HW1 8363   6.790   4.710   2.112
 2488SOL    HW2 8364   6.831   4.555   2.140
 2489SOL     OW 8365   0.412   5.935   3.872
 2489SOL    HW1 8366   0.313   5.926   3.881
 2489SOL    HW2 8367   0.456   5.849   3.898
 2490SOL     OW 8368   2.266   6.314   2.548
 2490SOL    HW1 8369   2.282   6.260   2.465
 2490SOL    HW2 8370   2.177   6.287   2.587
 2491SOL     OW 8371   4.091   4.837   1.352
 2491SOL    HW1 8372   4.015   4.890   1.389
 2491SOL    HW2 8373   4.062   4.742   1.340
 2492SOL     OW 8374   5.244   3.681   0.889
 2492SOL    HW1 8375   5.274   3.675   0.984
 2492SOL    HW2 8376   5.149   3.713   0.885
 2493SOL     OW 8377   6.680   6.462   1.403
 2493SOL    HW1 8378   6.631   6.458   1.490
 2493SOL    HW2 8379   6.639   6.532   1.345
 2494SOL     OW 8380   5.707   2.370   1.716
 2494SOL    HW1 8381   5.735   2.309   1.791
 2494SOL    HW2 8382   5.715   2.321   1.629
 2495SOL     OW 8383   5.366   5.763   3.468
 2495SOL    HW1 8384   5.335   5.853   3.502
 2495SOL    HW2 8385   5.327   5.748   3.377
 2496SOL     OW 8386   6.894   4.143   6.937
 2496SOL    HW1 8387   6.821   4.125   7.003
 2496SOL    HW2 8388   6.899   4.241   6.919
 2497SOL     OW 8389   0.297   0.334   1.508
 2497SOL    HW1 8390   0.323   0.259   1.448
 2497SOL    HW2 8391   0.333   0.316   1.600
 2498SOL     OW 8392   2.882   3.095   5.969
 2498SOL    HW1 8393   2.966   3.057   6.007
 2498SOL    HW2 8394   2.808   3.087   6.035
 2499SOL     OW 8395   6.355   3.148   1.582
 2499SOL    HW1 8396   6.327   3.100   1.499
 2499SOL    HW2 8397   6.283   3.210   1.611
 2500SOL     OW 8398   3.683   3.833   6.290
 2500SOL    HW1 8399   3.758   3.767   6.286
 2500SOL    HW2 8400   3.644   3.845   6.198
 2501SOL     OW 8401   5.635   6.028   0.294
 2501SOL    HW1 8402   5.719   6.027   0.348
 2501SOL    HW2 8403   5.648   6.084   0.212
 2502SOL     OW 8404   2.207   5.863   5.132
 2502SOL    HW1 8405   2.179   5.778   5.086
 2502SOL    HW2 8406   2.127   5.907   5.173
 2503SOL     OW 8407   2.785   6.580   5.551
 2503SOL    HW1 8408   2.838   6.655   5.510
 2503SOL    HW2 8409   2.699   6.570   5.501
 2504SOL     OW 8410   3.189   5.738   2.785
 2504SOL    HW1 8411   3.168   5.712   2.690
 2504SOL    HW2 8412   3.242   5.666   2.828
 2505SOL     OW 8413   0.617   5.646   2.833
 2505SOL    HW1 8414   0.526   5.661   2.871
 2505SOL    HW2 8415   0.630   5.705   2.753
 2506SOL     OW 8416   5.808   3.745   6.253
 2506SOL    HW1 8417   5.885   3.683   6.240
 2506SOL    HW2 8418   5.799   3.804   6.172
 2507SOL     OW 8419   6.737   3.210   0.433
 2507SOL    HW1 8420   6.705   3.232   0.342
 2507SOL    HW2 8421   6.829   3.171   0.428
 2508SOL     OW 8422   2.923   2.341   5.277
 2508SOL    HW1 8423   3.006   2.387   5.246
 2508SOL    HW2 8424   2.944   2.245   5.299
 2509SOL     OW 8425   6.696   4.138   0.100
 2509SOL    HW1 8426   6.597   4.148   0.086
 2509SOL    HW2 8427   6.712   4.072   0.173
 2510SOL     OW 8428   4.005   4.159   1.636
 2510SOL    HW1 8429   4.004   4.178   1.538
 2510SOL    HW2 8430   3.912   4.138   1.666
 2511SOL     OW 8431   2.225   0.761   4.854
 2511SOL    HW1 8432   2.278   0.843   4.831
 2511SOL    HW2 8433   2.286   0.688   4.885
 2512SOL     OW 8434   3.682   4.425   5.405
 2512SOL    HW1 8435   3.752   4.492   5.427
 2512SOL    HW2 8436   3.716   4.361   5.336
 2513SOL     OW 8437   2.348   6.495   5.694
 2513SOL    HW1 8438   2.410   6.573   5.706
 2513SOL    HW2 8439   2.284   6.492   5.770
 2514SOL     OW 8440   0.847   3.551   3.774
 2514SOL    HW1 8441   0.927   3.508   3.816
 2514SOL    HW2 8442   0.859   3.555   3.675
 2515SOL     OW 8443   2.069   0.415   1.564
 2515SOL    HW1 8444   2.111   0.459   1.485
 2515SOL    HW2 8445   2.135   0.354   1.608
 2516SOL     OW 8446   4.973   1.367   3.539
 2516SOL    HW1 8447   4.978   1.287   3.479
 2516SOL    HW2 8448   4.900   1.427   3.509
 2517SOL     OW 8449   1.896   0.369   5.467
 2517SOL    HW1 8450   1.944   0.457   5.474
 2517SOL    HW2 8451   1.860   0.344   5.557
 2518SOL     OW 8452   2.442   5.692   1.263
 2518SOL    HW1 8453   2.542   5.688   1.260
 2518SOL    HW2 8454   2.405   5.652   1.180
 2519SOL     OW 8455   2.987   1.209   1.286
 2519SOL    HW1 8456   3.020   1.303   1.290
 2519SOL    HW2 8457   3.061   1.148   1.257
 2520SOL     OW 8458   3.290   1.999   0.378
 2520SOL    HW1 8459   3.354   2.020   0.304
 2520SOL    HW2 8460   3.229   2.077   0.393
 2521SOL     OW 8461   3.897   1.769   4.948
 2521SOL    HW1 8462   3.832   1.705   4.988
 2521SOL    HW2 8463   3.937   1.826   5.020
 2522SOL     OW 8464   1.276   1.542   5.014
 2522SOL    HW1 8465   1.194   1.510   5.061
 2522SOL    HW2 8466   1.313   1.469   4.957
 2523SOL     OW 8467   1.819   4.128   1.344
 2523SOL    HW1 8468   1.728   4.148   1.307
 2523SOL    HW2 8469   1.834   4.184   1.426
 2524SOL     OW 8470   0.059   6.781   4.438
 2524SOL    HW1 8471   6.986   6.794   4.418
 2524SOL    HW2 8472   0.111   6.786   4.353
 2525SOL     OW 8473   1.292   2.726   4.850
 2525SOL    HW1 8474   1.223   2.741   4.779
 2525SOL    HW2 8475   1.276   2.637   4.893
 2526SOL     OW 8476   1.652   4.683   6.625
 2526SOL    HW1 8477   1.673   4.592   6.660
 2526SOL    HW2 8478   1.716   4.706   6.552
 2527SOL     OW 8479   5.611   5.828   5.638
 2527SOL    HW1 8480   5.633   5.750   5.697
 2527SOL    HW2 8481   5.675   5.830   5.561
 2528SOL     OW 8482   5.418   3.865   5.806
 2528SOL    HW1 8483   5.494   3.895   5.863
 2528SOL    HW2 8484   5.386   3.941   5.751
 2529SOL     OW 8485   0.725   0.545   6.532
 2529SOL    HW1 8486   0.814   0.589   6.538
 2529SOL    HW2 8487   0.729   0.470   6.466
 2530SOL     OW 8488   2.295   5.807   5.897
 2530SOL    HW1 8489   2.338   5.802   5.806
 2530SOL    HW2 8490   2.274   5.903   5.918
 2531SOL     OW 8491   5.532   5.468   5.880
 2531SOL    HW1 8492   5.517   5.411   5.961
 2531SOL    HW2 8493   5.465   5.542   5.878
 2532SOL     OW 8494   0.778   6.483   1.160
 2532SOL    HW1 8495   0.832   6.400   1.144
 2532SOL    HW2 8496   0.709   6.491   1.088
 2533SOL     OW 8497   4.931   1.154   3.324
 2533SOL    HW1 8498   4.907   1.067   3.282
 2533SOL    HW2 8499   5.003   1.198   3.271
 2534SOL     OW 8500   5.062   2.005   1.940
 2534SOL    HW1 8501   5.076   1.975   1.846
 2534SOL    HW2 8502   4.972   2.048   1.948
 2535SOL     OW 8503   3.721   2.763   6.719
 2535SOL    HW1 8504   3.711   2.735   6.814
 2535SOL    HW2 8505   3.664   2.705   6.661
 2536SOL     OW 8506   1.456   0.915   6.025
 2536SOL    HW1 8507   1.528   0.852   5.996
 2536SOL    HW2 8508   1.376   0.862   6.055
 2537SOL     OW 8509   3.475   0.050   6.538
 2537SOL    HW1 8510   3.510   7.001   6.597
 2537SOL    HW2 8511   3.390   0.020   6.495
 2538SOL     OW 8512   6.970   3.910   4.036
 2538SOL    HW1 8513   0.040   3.902   4.070
 2538SOL    HW2 8514   6.910   3.850   4.089
 2539SOL     OW 8515   5.699   1.041   3.431
 2539SOL    HW1 8516   5.720   1.112   3.499
 2539SOL    HW2 8517   5.784   1.001   3.396
 2540SOL     OW 8518   3.995   1.789   3.089
 2540SOL    HW1 8519   3.940   1.740   3.156
 2540SOL    HW2 8520   3.944   1.869   3.056
 2541SOL     OW 8521   2.806   0.321   5.796
 2541SOL    HW1 8522   2.742   0.384   5.752
 2541SOL    HW2 8523   2.897   0.332   5.755
 2542SOL     OW 8524   3.051   4.096   6.949
 2542SOL    HW1 8525   3.004   4.166   7.002
 2542SOL    HW2 8526   2.985   4.045   6.894
 2543SOL     OW 8527   0.964   1.074   3.880
 2543SOL    HW1 8528   0.886   1.102   3.823
 2543SOL    HW2 8529   0.981   0.977   3.867
 2544SOL     OW 8530   0.936   5.892   0.731
 2544SOL    HW1 8531   1.025   5.870   0.691
 2544SOL    HW2 8532   0.870   5.820   0.706
 2545SOL     OW 8533   1.381   0.027   2.125
 2545SOL    HW1 8534   1.336   0.031   2.214
 2545SOL    HW2 8535   1.449   0.101   2.119
 2546SOL     OW 8536   6.681   1.761   0.797
 2546SOL    HW1 8537   6.672   1.848   0.847
 2546SOL    HW2 8538   6.590   1.720   0.786
 2547SOL     OW 8539   0.207   3.889   6.756
 2547SOL    HW1 8540   0.112   3.867   6.774
 2547SOL    HW2 8541   0.250   3.815   6.705
 2548SOL     OW 8542   6.827   6.801   4.369
 2548SOL    HW1 8543   6.762   6.725   4.369
 2548SOL    HW2 8544   6.828   6.843   4.278
 2549SOL     OW 8545   1.022   0.649   1.533
 2549SOL    HW1 8546   0.953   0.612   1.472
 2549SOL    HW2 8547   0.976   0.702   1.605
 2550SOL     OW 8548   5.965   6.779   0.283
 2550SOL    HW1 8549   6.008   6.691   0.260
 2550SOL    HW2 8550   6.010   6.852   0.231
 2551SOL     OW 8551   3.179   4.663   0.127
 2551SOL    HW1 8552   3.212   4.644   0.219
 2551SOL    HW2 8553   3.188   4.761   0.108
 2552SOL     OW 8554   2.604   4.961   4.961
 2552SOL    HW1 8555   2.559   4.935   5.046
 2552SOL    HW2 8556   2.544   4.943   4.884
 2553SOL     OW 8557   3.865   3.688   6.123
 2553SOL    HW1 8558   3.921   3.762   6.086
 2553SOL    HW2 8559   3.830   3.632   6.048
 2554SOL     OW 8560   2.220   1.292   0.659
 2554SOL    HW1 8561   2.283   1.320   0.732
 2554SOL    HW2 8562   2.166   1.214   0.690
 2555SOL     OW 8563   5.177   2.989   4.295
 2555SOL    HW1 8564   5.118   2.974   4.216
 2555SOL    HW2 8565   5.123   3.023   4.372
 2556SOL     OW 8566   3.611   6.098   0.393
 2556SOL    HW1 8567   3.631   6.103   0.491
 2556SOL    HW2 8568   3.661   6.022   0.353
 2557SOL     OW 8569   2.103   3.226   6.713
 2557SOL    HW1 8570   2.146   3.303   6.665
 2557SOL    HW2 8571   2.063   3.163   6.646
 2558SOL     OW 8572   4.822   1.097   5.691
 2558SOL    HW1 8573   4.873   1.153   5.625
 2558SOL    HW2 8574   4.872   1.094   5.777
 2559SOL     OW 8575   1.071   4.052   5.835
 2559SOL    HW1 8576   1.084   3.974   5.773
 2559SOL    HW2 8577   0.994   4.107   5.804
 2560SOL     OW 8578   6.804   2.814   6.191
 2560SOL    HW1 8579   6.852   2.774   6.269
 2560SOL    HW2 8580   6.778   2.908   6.213
 2561SOL     OW 8581   3.310   4.973   4.808
 2561SOL    HW1 8582   3.315   4.950   4.906
 2561SOL    HW2 8583   3.216   4.960   4.777
 2562SOL     OW 8584   2.330   4.181   0.954
 2562SOL    HW1 8585   2.426   4.175   0.928
 2562SOL    HW2 8586   2.280   4.104   0.915
 2563SOL     OW 8587   2.821   0.486   0.479
 2563SOL    HW1 8588   2.791   0.578   0.502
 2563SOL    HW2 8589   2.795   0.422   0.552
 2564SOL     OW 8590   1.416   5.186   0.821
 2564SOL    HW1 8591   1.433   5.259   0.887
 2564SOL    HW2 8592   1.393   5.226   0.732
 2565SOL     OW 8593   0.525   0.639   0.614
 2565SOL    HW1 8594   0.604   0.621   0.556
 2565SOL    HW2 8595   0.441   0.614   0.565
 2566SOL     OW 8596   2.165   6.214   1.222
 2566SOL    HW1 8597   2.258   6.193   1.191
 2566SOL    HW2 8598   2.150   6.174   1.312
 2567SOL     OW 8599   1.521   6.945   0.803
 2567SOL    HW1 8600   1.441   6.939   0.863
 2567SOL    HW2 8601   1.599   6.977   0.856
 2568SOL     OW 8602   4.782   2.425   6.916
 2568SOL    HW1 8603   4.811   2.372   6.995
 2568SOL    HW2 8604   4.739   2.364   6.849
 2569SOL     OW 8605   3.244   1.351   3.530
 2569SOL    HW1 8606   3.281   1.409   3.458
 2569SOL    HW2 8607   3.176   1.289   3.492
 2570SOL     OW 8608   5.703   0.999   5.949
 2570SOL    HW1 8609   5.704   1.033   5.855
 2570SOL    HW2 8610   5.641   1.055   6.003
 2571SOL     OW 8611   1.554   4.885   4.063
 2571SOL    HW1 8612   1.486   4.879   3.989
 2571SOL    HW2 8613   1.507   4.877   4.151
 2572SOL     OW 8614   2.896   4.913   2.691
 2572SOL    HW1 8615   2.877   4.852   2.768
 2572SOL    HW2 8616   2.823   4.904   2.624
 2573SOL     OW 8617   0.679   1.487   0.624
 2573SOL    HW1 8618   0.698   1.428   0.702
 2573SOL    HW2 8619   0.669   1.431   0.542
 2574SOL     OW 8620   5.616   2.916   0.970
 2574SOL    HW1 8621   5.653   3.003   1.003
 2574SOL    HW2 8622   5.691   2.858   0.940
 2575SOL     OW 8623   5.875   5.981   6.973
 2575SOL    HW1 8624   5.968   6.000   7.005
 2575SOL    HW2 8625   5.842   5.896   7.014
 2576SOL     OW 8626   4.310   6.267   4.628
 2576SOL    HW1 8627   4.248   6.192   4.607
 2576SOL    HW2 8628   4.304   6.288   4.726
 2577SOL     OW 8629   2.951   4.762   2.220
 2577SOL    HW1 8630   2.891   4.718   2.153
 2577SOL    HW2 8631   2.951   4.708   2.305
 2578SOL     OW 8632   3.712   1.297   4.111
 2578SOL    HW1 8633   3.758   1.342   4.187
 2578SOL    HW2 8634   3.644   1.232   4.146
 2579SOL     OW 8635   0.364   6.098   3.638
 2579SOL    HW1 8636   0.381   6.032   3.712
 2579SOL    HW2 8637   0.325   6.181   3.677
 2580SOL     OW 8638   2.396   4.638   0.246
 2580SOL    HW1 8639   2.447   4.614   0.329
 2580SOL    HW2 8640   2.333   4.564   0.223
 2581SOL     OW 8641   2.806   6.191   6.273
 2581SOL    HW1 8642   2.830   6.287   6.289
 2581SOL    HW2 8643   2.856   6.157   6.194
 2582SOL     OW 8644   6.943   3.753   1.123
 2582SOL    HW1 8645   6.853   3.711   1.110
 2582SOL    HW2 8646   6.939   3.817   1.200
 2583SOL     OW 8647   0.086   0.096   0.753
 2583SOL    HW1 8648   7.019   0.136   0.737
 2583SOL    HW2 8649   0.152   0.170   0.767
 2584SOL     OW 8650   4.041   5.281   5.407
 2584SOL    HW1 8651   4.022   5.214   5.479
 2584SOL    HW2 8652   3.955   5.314   5.369
 2585SOL     OW 8653   3.146   5.075   6.588
 2585SOL    HW1 8654   3.123   5.149   6.526
 2585SOL    HW2 8655   3.063   5.028   6.617
 2586SOL     OW 8656   2.522   1.307   5.694
 2586SOL    HW1 8657   2.617   1.323   5.719
 2586SOL    HW2 8658   2.503   1.351   5.606
 2587SOL     OW 8659   0.848   0.957   2.757
 2587SOL    HW1 8660   0.833   1.002   2.669
 2587SOL    HW2 8661   0.891   1.021   2.820
 2588SOL     OW 8662   4.156   2.045   5.379
 2588SOL    HW1 8663   4.197   2.101   5.307
 2588SOL    HW2 8664   4.216   1.969   5.402
 2589SOL     OW 8665   0.998   6.530   6.819
 2589SOL    HW1 8666   0.928   6.582   6.771
 2589SOL    HW2 8667   1.079   6.586   6.831
 2590SOL     OW 8668   3.120   5.090   0.295
 2590SOL    HW1 8669   3.108   5.173   0.241
 2590SOL    HW2 8670   3.053   5.089   0.369
 2591SOL     OW 8671   6.285   5.469   3.863
 2591SOL    HW1 8672   6.208   5.431   3.914
 2591SOL    HW2 8673   6.326   5.543   3.916
 2592SOL     OW 8674   2.365   4.200   6.721
 2592SOL    HW1 8675   2.409   4.283   6.754
 2592SOL    HW2 8676   2.339   4.212   6.625
 2593SOL     OW 8677   3.453   5.935   0.956
 2593SOL    HW1 8678   3.448   5.837   0.937
 2593SOL    HW2 8679   3.420   5.986   0.876
 2594SOL     OW 8680   2.177   4.358   5.698
 2594SOL    HW1 8681   2.144   4.266   5.676
 2594SOL    HW2 8682   2.122   4.426   5.650
 2595SOL     OW 8683   1.243   1.516   4.121
 2595SOL    HW1 8684   1.301   1.440   4.089
 2595SOL    HW2 8685   1.273   1.544   4.212
 2596SOL     OW 8686   1.948   2.799   1.318
 2596SOL    HW1 8687   1.992   2.889   1.327
 2596SOL    HW2 8688   2.016   2.731   1.291
 2597SOL     OW 8689   0.437   5.146   6.168
 2597SOL    HW1 8690   0.472   5.082   6.099
 2597SOL    HW2 8691   0.417   5.095   6.252
 2598SOL     OW 8692   6.062   1.473   2.056
 2598SOL    HW1 8693   5.969   1.511   2.055
 2598SOL    HW2 8694   6.129   1.547   2.062
 2599SOL     OW 8695   3.196   6.004   1.923
 2599SOL    HW1 8696   3.103   6.040   1.918
 2599SOL    HW2 8697   3.244   6.024   1.838
 2600SOL     OW 8698   6.538   3.644   4.773
 2600SOL    HW1 8699   6.561   3.598   4.687
 2600SOL    HW2 8700   6.617   3.640   4.834
 2601SOL     OW 8701   1.322   1.387   2.253
 2601SOL    HW1 8702   1.265   1.418   2.329
 2601SOL    HW2 8703   1.265   1.338   2.186
 2602SOL     OW 8704   2.023   4.921   4.279
 2602SOL    HW1 8705   2.050   4.970   4.361
 2602SOL    HW2 8706   1.957   4.975   4.228
 2603SOL     OW 8707   2.947   1.108   2.139
 2603SOL    HW1 8708   2.983   1.105   2.232
 2603SOL    HW2 8709   2.981   1.028   2.088
 2604SOL     OW 8710   5.781   1.381   1.640
 2604SOL    HW1 8711   5.701   1.398   1.698
 2604SOL    HW2 8712   5.863   1.415   1.686
 2605SOL     OW 8713   1.170   4.169   1.974
 2605SOL    HW1 8714   1.256   4.210   1.946
 2605SOL    HW2 8715   1.187   4.085   2.026
 2606SOL     OW 8716   5.225   4.354   1.150
 2606SOL    HW1 8717   5.177   4.275   1.114
 2606SOL    HW2 8718   5.303   4.324   1.205
 2607SOL     OW 8719   1.478   2.555   0.834
 2607SOL    HW1 8720   1.566   2.548   0.882
 2607SOL    HW2 8721   1.452   2.651   0.825
 2608SOL     OW 8722   2.080   6.159   6.724
 2608SOL    HW1 8723   2.150   6.106   6.676
 2608SOL    HW2 8724   2.068   6.247   6.678
 2609SOL     OW 8725   0.585   1.095   1.360
 2609SOL    HW1 8726   0.573   1.004   1.319
 2609SOL    HW2 8727   0.567   1.090   1.459
 2610SOL     OW 8728   0.887   4.474   4.683
 2610SOL    HW1 8729   0.973   4.492   4.636
 2610SOL    HW2 8730   0.877   4.538   4.760
 2611SOL     OW 8731   4.841   6.744   6.954
 2611SOL    HW1 8732   4.891   6.806   6.893
 2611SOL    HW2 8733   4.747   6.734   6.922
 2612SOL     OW 8734   5.452   0.478   4.810
 2612SOL    HW1 8735   5.520   0.549   4.795
 2612SOL    HW2 8736   5.497   0.391   4.829
 2613SOL     OW 8737   0.690   5.469   6.697
 2613SOL    HW1 8738   0.712   5.497   6.603
 2613SOL    HW2 8739   0.602   5.508   6.724
 2614SOL     OW 8740   6.276   1.092   6.062
 2614SOL    HW1 8741   6.178   1.094   6.079
 2614SOL    HW2 8742   6.293   1.079   5.964
 2615SOL     OW 8743   1.231   3.565   1.128
 2615SOL    HW1 8744   1.281   3.635   1.077
 2615SOL    HW2 8745   1.179   3.608   1.202
 2616SOL     OW 8746   1.206   0.584   5.281
 2616SOL    HW1 8747   1.190   0.595   5.379
 2616SOL    HW2 8748   1.126   0.541   5.239
 2617SOL     OW 8749   5.754   0.371   0.654
 2617SOL    HW1 8750   5.669   0.326   0.683
 2617SOL    HW2 8751   5.797   0.316   0.582
 2618SOL     OW 8752   1.615   5.775   6.199
 2618SOL    HW1 8753   1.666   5.813   6.122
 2618SOL    HW2 8754   1.561   5.696   6.168
 2619SOL     OW 8755   4.400   1.661   1.876
 2619SOL    HW1 8756   4.373   1.650   1.972
 2619SOL    HW2 8757   4.329   1.711   1.827
 2620SOL     OW 8758   6.697   6.145   1.577
 2620SOL    HW1 8759   6.703   6.052   1.542
 2620SOL    HW2 8760   6.629   6.196   1.523
 2621SOL     OW 8761   1.205   5.824   2.530
 2621SOL    HW1 8762   1.304   5.811   2.537
 2621SOL    HW2 8763   1.183   5.921   2.540
 2622SOL     OW 8764   2.823   3.335   6.352
 2622SOL    HW1 8765   2.894   3.290   6.407
 2622SOL    HW2 8766   2.736   3.286   6.365
 2623SOL     OW 8767   0.555   6.918   3.840
 2623SOL    HW1 8768   0.554   6.908   3.740
 2623SOL    HW2 8769   0.539   6.829   3.882
 2624SOL     OW 8770   6.924   2.206   4.611
 2624SOL    HW1 8771   6.862   2.252   4.674
 2624SOL    HW2 8772   7.008   2.259   4.602
 2625SOL     OW 8773   1.830   5.251   5.477
 2625SOL    HW1 8774   1.875   5.314   5.414
 2625SOL    HW2 8775   1.857   5.272   5.571
 2626SOL     OW 8776   6.443   6.396   5.370
 2626SOL    HW1 8777   6.469   6.492   5.369
 2626SOL    HW2 8778   6.504   6.344   5.310
 2627SOL     OW 8779   1.102   6.817   5.795
 2627SOL    HW1 8780   1.147   6.753   5.733
 2627SOL    HW2 8781   1.164   6.838   5.871
 2628SOL     OW 8782   1.570   4.056   3.185
 2628SOL    HW1 8783   1.585   3.971   3.235
 2628SOL    HW2 8784   1.642   4.068   3.117
 2629SOL     OW 8785   3.087   4.023   3.508
 2629SOL    HW1 8786   3.033   3.948   3.469
 2629SOL    HW2 8787   3.106   4.091   3.437
 2630SOL     OW 8788   3.879   1.183   3.456
 2630SOL    HW1 8789   3.846   1.109   3.515
 2630SOL    HW2 8790   3.978   1.173   3.443
 2631SOL     OW 8791   5.620   0.651   6.714
 2631SOL    HW1 8792   5.643   0.607   6.627
 2631SOL    HW2 8793   5.613   0.580   6.785
 2632SOL     OW 8794   5.746   4.882   2.133
 2632SOL    HW1 8795   5.758   4.787   2.105
 2632SOL    HW2 8796   5.676   4.886   2.205
 2633SOL     OW 8797   6.842   3.089   5.494
 2633SOL    HW1 8798   6.840   3.044   5.584
 2633SOL    HW2 8799   6.801   3.029   5.426
 2634SOL     OW 8800   6.321   0.428   5.083
 2634SOL    HW1 8801   6.365   0.460   4.999
 2634SOL    HW2 8802   6.381   0.363   5.130
 2635SOL     OW 8803   5.292   5.558   4.067
 2635SOL    HW1 8804   5.389   5.555   4.043
 2635SOL    HW2 8805   5.277   5.628   4.136
 2636SOL     OW 8806   3.693   0.579   5.983
 2636SOL    HW1 8807   3.737   0.538   6.063
 2636SOL    HW2 8808   3.761   0.598   5.913
 2637SOL     OW 8809   1.403   1.279   3.070
 2637SOL    HW1 8810   1.449   1.365   3.049
 2637SOL    HW2 8811   1.319   1.298   3.121
 2638SOL     OW 8812   0.837   0.234   4.424
 2638SOL    HW1 8813   0.908   0.225   4.494
 2638SOL    HW2 8814   0.874   0.205   4.336
 2639SOL     OW 8815   4.754   5.432   4.540
 2639SOL    HW1 8816   4.676   5.371   4.553
 2639SOL    HW2 8817   4.793   5.417   4.448
 2640SOL     OW 8818   0.852   6.695   4.457
 2640SOL    HW1 8819   0.889   6.656   4.373
 2640SOL    HW2 8820   0.922   6.750   4.503
 2641SOL     OW 8821   5.176   2.291   0.323
 2641SOL    HW1 8822   5.132   2.207   0.294
 2641SOL    HW2 8823   5.114   2.343   0.382
 2642SOL     OW 8824   0.112   1.270   4.076
 2642SOL    HW1 8825   0.079   1.292   4.168
 2642SOL    HW2 8826   0.153   1.352   4.035
 2643SOL     OW 8827   0.917   4.054   3.279
 2643SOL    HW1 8828   0.950   4.145   3.253
 2643SOL    HW2 8829   0.936   3.990   3.205
 2644SOL     OW 8830   5.260   5.661   4.991
 2644SOL    HW1 8831   5.174   5.652   5.040
 2644SOL    HW2 8832   5.252   5.732   4.922
 2645SOL     OW 8833   4.790   4.830   3.321
 2645SOL    HW1 8834   4.804   4.918   3.366
 2645SOL    HW2 8835   4.713   4.782   3.364
 2646SOL     OW 8836   0.388   3.342   6.008
 2646SOL    HW1 8837   0.341   3.314   6.092
 2646SOL    HW2 8838   0.479   3.376   6.031
 2647SOL     OW 8839   5.055   6.970   1.736
 2647SOL    HW1 8840   5.136   6.912   1.737
 2647SOL    HW2 8841   5.066   0.019   1.668
 2648SOL     OW 8842   0.384   0.088   4.142
 2648SOL    HW1 8843   0.348   0.176   4.112
 2648SOL    HW2 8844   0.467   0.066   4.092
 2649SOL     OW 8845   4.607   2.373   2.134
 2649SOL    HW1 8846   4.634   2.458   2.180
 2649SOL    HW2 8847   4.507   2.367   2.131
 2650SOL     OW 8848   3.604   5.754   5.170
 2650SOL    HW1 8849   3.571   5.771   5.077
 2650SOL    HW2 8850   3.701   5.776   5.175
 2651SOL     OW 8851   4.059   1.838   5.205
 2651SOL    HW1 8852   4.133   1.780   5.171
 2651SOL    HW2 8853   4.089   1.889   5.285
 2652SOL     OW 8854   5.451   3.638   5.017
 2652SOL    HW1 8855   5.523   3.707   5.027
 2652SOL    HW2 8856   5.361   3.682   5.027
 2653SOL     OW 8857   3.028   6.388   6.428
 2653SOL    HW1 8858   3.075   6.314   6.476
 2653SOL    HW2 8859   2.961   6.430   6.489
 2654SOL     OW 8860   5.537   0.744   0.254
 2654SOL    HW1 8861   5.438   0.733   0.250
 2654SOL    HW2 8862   5.578   0.709   0.169
 2655SOL     OW 8863   5.074   6.154   3.125
 2655SOL    HW1 8864   4.988   6.148   3.176
 2655SOL    HW2 8865   5.082   6.075   3.064
 2656SOL     OW 8866   3.652   5.413   3.720
 2656SOL    HW1 8867   3.589   5.490   3.724
 2656SOL    HW2 8868   3.601   5.328   3.733
 2657SOL     OW 8869   2.528   3.569   0.307
 2657SOL    HW1 8870   2.541   3.604   0.214
 2657SOL    HW2 8871   2.599   3.501   0.327
 2658SOL     OW 8872   4.315   4.633   5.869
 2658SOL    HW1 8873   4.391   4.601   5.813
 2658SOL    HW2 8874   4.322   4.592   5.961
 2659SOL     OW 8875   6.381   2.378   4.704
 2659SOL    HW1 8876   6.434   2.458   4.677
 2659SOL    HW2 8877   6.370   2.317   4.626
 2660SOL     OW 8878   0.641   2.369   1.436
 2660SOL    HW1 8879   0.646   2.293   1.501
 2660SOL    HW2 8880   0.546   2.385   1.411
 2661SOL     OW 8881   1.657   0.887   1.018
 2661SOL    HW1 8882   1.596   0.965   1.008
 2661SOL    HW2 8883   1.738   0.914   1.071
 2662SOL     OW 8884   3.151   0.808   2.642
 2662SOL    HW1 8885   3.230   0.867   2.659
 2662SOL    HW2 8886   3.086   0.855   2.584
 2663SOL     OW 8887   4.201   6.869   6.227
 2663SOL    HW1 8888   4.136   6.793   6.218
 2663SOL    HW2 8889   4.278   6.840   6.285
 2664SOL     OW 8890   4.086   2.743   5.863
 2664SOL    HW1 8891   4.009   2.694   5.904
 2664SOL    HW2 8892   4.071   2.842   5.870
 2665SOL     OW 8893   2.342   4.081   5.414
 2665SOL    HW1 8894   2.387   4.051   5.330
 2665SOL    HW2 8895   2.381   4.033   5.492
 2666SOL     OW 8896   2.177   3.898   2.328
 2666SOL    HW1 8897   2.106   3.967   2.318
 2666SOL    HW2 8898   2.216   3.877   2.238
 2667SOL     OW 8899   5.795   4.162   3.792
 2667SOL    HW1 8900   5.709   4.112   3.782
 2667SOL    HW2 8901   5.832   4.148   3.884
 2668SOL     OW 8902   5.812   1.502   4.483
 2668SOL    HW1 8903   5.803   1.403   4.473
 2668SOL    HW2 8904   5.748   1.547   4.421
 2669SOL     OW 8905   2.204   0.499   0.594
 2669SOL    HW1 8906   2.158   0.587   0.585
 2669SOL    HW2 8907   2.137   0.425   0.590
 2670SOL     OW 8908   0.311   1.081   5.914
 2670SOL    HW1 8909   0.308   1.169   5.867
 2670SOL    HW2 8910   0.395   1.033   5.889
 2671SOL     OW 8911   4.113   5.521   5.772
 2671SOL    HW1 8912   4.067   5.601   5.811
 2671SOL    HW2 8913   4.124   5.534   5.674
 2672SOL     OW 8914   4.195   1.061   1.815
 2672SOL    HW1 8915   4.144   1.133   1.768
 2672SOL    HW2 8916   4.289   1.093   1.833
 2673SOL     OW 8917   5.218   0.140   2.521
 2673SOL    HW1 8918   5.159   0.068   2.557
 2673SOL    HW2 8919   5.173   0.229   2.533
 2674SOL     OW 8920   1.066   5.651   2.749
 2674SOL    HW1 8921   0.991   5.685   2.807
 2674SOL    HW2 8922   1.110   5.728   2.704
 2675SOL     OW 8923   6.181   6.990   4.187
 2675SOL    HW1 8924   6.270   0.009   4.204
 2675SOL    HW2 8925   6.193   6.915   4.121
 2676SOL     OW 8926   3.039   3.549   3.107
 2676SOL    HW1 8927   3.122   3.597   3.136
 2676SOL    HW2 8928   2.974   3.547   3.183
 2677SOL     OW 8929   2.183   4.924   1.472
 2677SOL    HW1 8930   2.232   4.909   1.385
 2677SOL    HW2 8931   2.218   4.860   1.540
 2678SOL     OW 8932   5.561   2.393   2.572
 2678SOL    HW1 8933   5.535   2.384   2.476
 2678SOL    HW2 8934   5.583   2.302   2.609
 2679SOL     OW 8935   2.142   5.047   3.420
 2679SOL    HW1 8936   2.164   5.033   3.516
 2679SOL    HW2 8937   2.227   5.048   3.366
 2680SOL     OW 8938   1.121   2.016   6.664
 2680SOL    HW1 8939   1.146   2.074   6.742
 2680SOL    HW2 8940   1.031   2.043   6.630
 2681SOL     OW 8941   1.684   2.398   5.137
 2681SOL    HW1 8942   1.719   2.305   5.125
 2681SOL    HW2 8943   1.694   2.448   5.051
 2682SOL     OW 8944   4.768   4.461   1.355
 2682SOL    HW1 8945   4.783   4.408   1.439
 2682SOL    HW2 8946   4.685   4.517   1.366
 2683SOL     OW 8947   2.161   4.265   2.471
 2683SOL    HW1 8948   2.228   4.200   2.507
 2683SOL    HW2 8949   2.094   4.215   2.415
 2684SOL     OW 8950   5.698   6.208   2.230
 2684SOL    HW1 8951   5.700   6.156   2.145
 2684SOL    HW2 8952   5.664   6.149   2.304
 2685SOL     OW 8953   0.598   5.995   4.949
 2685SOL    HW1 8954   0.692   5.994   4.982
 2685SOL    HW2 8955   0.540   6.043   5.015
 2686SOL     OW 8956   1.291   1.072   4.485
 2686SOL    HW1 8957   1.204   1.098   4.527
 2686SOL    HW2 8958   1.274   1.022   4.401
 2687SOL     OW 8959   3.961   1.545   2.027
 2687SOL    HW1 8960   3.867   1.572   2.048
 2687SOL    HW2 8961   3.976   1.452   2.059
 2688SOL     OW 8962   3.466   3.181   6.053
 2688SOL    HW1 8963   3.502   3.101   6.004
 2688SOL    HW2 8964   3.496   3.177   6.149
 2689SOL     OW 8965   0.684   3.791   3.287
 2689SOL    HW1 8966   0.699   3.794   3.189
 2689SOL    HW2 8967   0.649   3.879   3.319
 2690SOL     OW 8968   3.403   1.462   5.953
 2690SOL    HW1 8969   3.499   1.435   5.954
 2690SOL    HW2 8970   3.393   1.550   6.000
 2691SOL     OW 8971   0.267   4.583   3.604
 2691SOL    HW1 8972   0.179   4.607   3.564
 2691SOL    HW2 8973   0.279   4.484   3.602
 2692SOL     OW 8974   2.996   5.577   2.661
 2692SOL    HW1 8975   2.986   5.520   2.580
 2692SOL    HW2 8976   2.942   5.538   2.736
 2693SOL     OW 8977   1.638   5.445   3.697
 2693SOL    HW1 8978   1.541   5.441   3.674
 2693SOL    HW2 8979   1.670   5.539   3.690
 2694SOL     OW 8980   2.918   6.833   4.213
 2694SOL    HW1 8981   2.847   6.799   4.151
 2694SOL    HW2 8982   2.992   6.874   4.161
 2695SOL     OW 8983   6.813   5.912   3.124
 2695SOL    HW1 8984   6.856   6.002   3.124
 2695SOL    HW2 8985   6.736   5.912   3.188
 2696SOL     OW 8986   4.823   4.477   6.009
 2696SOL    HW1 8987   4.828   4.411   5.935
 2696SOL    HW2 8988   4.856   4.435   6.094
 2697SOL     OW 8989   3.835   2.805   0.803
 2697SOL    HW1 8990   3.743   2.786   0.838
 2697SOL    HW2 8991   3.831   2.816   0.704
 2698SOL     OW 8992   1.778   3.909   5.765
 2698SOL    HW1 8993   1.841   3.987   5.755
 2698SOL    HW2 8994   1.703   3.934   5.826
 2699SOL     OW 8995   3.564   5.570   1.997
 2699SOL    HW1 8996   3.496   5.611   2.057
 2699SOL    HW2 8997   3.645   5.544   2.050
 2700SOL     OW 8998   2.899   2.015   1.561
 2700SOL    HW1 8999   2.833   2.052   1.496
 2700SOL    HW2 9000   2.930   2.087   1.623
 2701SOL     OW 9001   5.040   3.090   4.527
 2701SOL    HW1 9002   5.086   3.167   4.572
 2701SOL    HW2 9003   4.990   3.036   4.594
 2702SOL     OW 9004   2.642   1.846   5.071
 2702SOL    HW1 9005   2.605   1.935   5.046
 2702SOL    HW2 9006   2.652   1.790   4.988
 2703SOL     OW 9007   1.233   6.576   2.156
 2703SOL    HW1 9008   1.314   6.633   2.142
 2703SOL    HW2 9009   1.225   6.511   2.079
 2704SOL     OW 9010   6.121   6.423   3.424
 2704SOL    HW1 9011   6.139   6.521   3.411
 2704SOL    HW2 9012   6.023   6.407   3.422
 2705SOL     OW 9013   0.274   0.398   4.731
 2705SOL    HW1 9014   0.318   0.487   4.714
 2705SOL    HW2 9015   0.236   0.397   4.823
 2706SOL     OW 9016   6.805   4.185   4.272
 2706SOL    HW1 9017   6.729   4.250   4.278
 2706SOL    HW2 9018   6.841   4.183   4.179
 2707SOL     OW 9019   3.829   0.526   2.883
 2707SOL    HW1 9020   3.892   0.517   2.961
 2707SOL    HW2 9021   3.882   0.545   2.801
 2708SOL     OW 9022   5.304   2.611   7.003
 2708SOL    HW1 9023   5.343   2.616   0.071
 2708SOL    HW2 9024   5.306   2.702   6.961
 2709SOL     OW 9025   5.446   0.664   5.126
 2709SOL    HW1 9026   5.415   0.757   5.104
 2709SOL    HW2 9027   5.534   0.648   5.082
 2710SOL     OW 9028   1.446   2.752   3.794
 2710SOL    HW1 9029   1.467   2.657   3.772
 2710SOL    HW2 9030   1.350   2.771   3.772
 2711SOL     OW 9031   3.668   1.931   2.732
 2711SOL    HW1 9032   3.591   1.873   2.761
 2711SOL    HW2 9033   3.747   1.874   2.713
 2712SOL     OW 9034   3.975   5.270   2.558
 2712SOL    HW1 9035   3.940   5.307   2.471
 2712SOL    HW2 9036   3.938   5.178   2.572
 2713SOL     OW 9037   4.019   4.901   6.410
 2713SOL    HW1 9038   3.938   4.842   6.403
 2713SOL    HW2 9039   4.082   4.880   6.336
 2714SOL     OW 9040   3.203   3.996   0.161
 2714SOL    HW1 9041   3.127   3.969   0.221
 2714SOL    HW2 9042   3.167   4.052   0.087
 2715SOL     OW 9043   4.479   0.820   1.062
 2715SOL    HW1 9044   4.455   0.739   1.007
 2715SOL    HW2 9045   4.487   0.793   1.158
 2716SOL     OW 9046   3.771   2.036   2.950
 2716SOL    HW1 9047   3.720   2.008   2.869
 2716SOL    HW2 9048   3.849   2.092   2.923
 2717SOL     OW 9049   0.809   1.439   2.763
 2717SOL    HW1 9050   0.722   1.488   2.758
 2717SOL    HW2 9051   0.883   1.500   2.734
 2718SOL     OW 9052   0.392   0.122   6.019
 2718SOL    HW1 9053   0.399   0.205   6.075
 2718SOL    HW2 9054   0.458   0.055   6.050
 2719SOL     OW 9055   1.798   3.831   2.378
 2719SOL    HW1 9056   1.830   3.737   2.383
 2719SOL    HW2 9057   1.854   3.888   2.439
 2720SOL     OW 9058   1.259   6.196   5.138
 2720SOL    HW1 9059   1.232   6.292   5.143
 2720SOL    HW2 9060   1.357   6.190   5.122
 2721SOL     OW 9061   3.399   5.518   1.698
 2721SOL    HW1 9062   3.313   5.516   1.648
 2721SOL    HW2 9063   3.432   5.613   1.702
 2722SOL     OW 9064   4.708   5.059   6.598
 2722SOL    HW1 9065   4.668   5.048   6.689
 2722SOL    HW2 9066   4.634   5.066   6.530
 2723SOL     OW 9067   3.166   6.721   0.528
 2723SOL    HW1 9068   3.122   6.796   0.576
 2723SOL    HW2 9069   3.098   6.650   0.508
 2724SOL     OW 9070   1.431   5.652   0.893
 2724SOL    HW1 9071   1.348   5.702   0.920
 2724SOL    HW2 9072   1.509   5.691   0.942
 2725SOL     OW 9073   5.913   3.670   4.850
 2725SOL    HW1 9074   5.847   3.745   4.850
 2725SOL    HW2 9075   5.911   3.624   4.939
 2726SOL     OW 9076   0.281   1.692   1.420
 2726SOL    HW1 9077   0.262   1.646   1.507
 2726SOL    HW2 9078   0.249   1.634   1.345
 2727SOL     OW 9079   2.238   4.043   4.368
 2727SOL    HW1 9080   2.217   4.102   4.290
 2727SOL    HW2 9081   2.226   3.947   4.340
 2728SOL     OW 9082   5.233   5.497   6.284
 2728SOL    HW1 9083   5.315   5.516   6.338
 2728SOL    HW2 9084   5.258   5.446   6.202
 2729SOL     OW 9085   5.666   6.058   6.148
 2729SOL    HW1 9086   5.673   5.988   6.219
 2729SOL    HW2 9087   5.735   6.043   6.078
 2730SOL     OW 9088   0.568   5.766   2.233
 2730SOL    HW1 9089   0.478   5.767   2.277
 2730SOL    HW2 9090   0.557   5.748   2.135
 2731SOL     OW 9091   3.374   2.907   3.544
 2731SOL    HW1 9092   3.411   2.896   3.636
 2731SOL    HW2 9093   3.274   2.902   3.548
 2732SOL     OW 9094   5.561   1.282   1.490
 2732SOL    HW1 9095   5.656   1.290   1.520
 2732SOL    HW2 9096   5.526   1.372   1.465
 2733SOL     OW 9097   0.627   0.352   5.893
 2733SOL    HW1 9098   0.528   0.365   5.895
 2733SOL    HW2 9099   0.648   0.257   5.917
 2734SOL     OW 9100   3.559   5.800   1.828
 2734SOL    HW1 9101   3.653   5.831   1.817
 2734SOL    HW2 9102   3.559   5.708   1.868
 2735SOL     OW 9103   0.559   1.799   1.349
 2735SOL    HW1 9104   0.474   1.749   1.369
 2735SOL    HW2 9105   0.624   1.739   1.303
 2736SOL     OW 9106   4.383   5.721   2.698
 2736SOL    HW1 9107   4.326   5.782   2.753
 2736SOL    HW2 9108   4.458   5.686   2.753
 2737SOL     OW 9109   2.457   1.796   6.525
 2737SOL    HW1 9110   2.415   1.885   6.506
 2737SOL    HW2 9111   2.528   1.778   6.457
 2738SOL     OW 9112   5.785   0.158   1.215
 2738SOL    HW1 9113   5.709   0.201   1.262
 2738SOL    HW2 9114   5.801   0.066   1.252
 2739SOL     OW 9115   0.805   5.337   2.212
 2739SOL    HW1 9116   0.848   5.427   2.218
 2739SOL    HW2 9117   0.779   5.307   2.303
 2740SOL     OW 9118   6.787   5.846   2.853
 2740SOL    HW1 9119   6.780   5.868   2.950
 2740SOL    HW2 9120   6.883   5.838   2.827
 2741SOL     OW 9121   1.239   2.396   4.528
 2741SOL    HW1 9122   1.192   2.422   4.611
 2741SOL    HW2 9123   1.335   2.377   4.549
 2742SOL     OW 9124   3.486   4.965   1.969
 2742SOL    HW1 9125   3.552   4.891   1.952
 2742SOL    HW2 9126   3.475   5.019   1.886
 2743SOL     OW 9127   6.143   4.353   2.272
 2743SOL    HW1 9128   6.194   4.432   2.240
 2743SOL    HW2 9129   6.193   4.307   2.346
 2744SOL     OW 9130   3.497   3.742   2.834
 2744SOL    HW1 9131   3.482   3.661   2.889
 2744SOL    HW2 9132   3.409   3.777   2.801
 2745SOL     OW 9133   0.057   0.362   5.792
 2745SOL    HW1 9134   6.992   0.383   5.749
 2745SOL    HW2 9135   0.041   0.325   5.883
 2746SOL     OW 9136   1.582   0.732   3.257
 2746SOL    HW1 9137   1.633   0.784   3.189
 2746SOL    HW2 9138   1.489   0.716   3.224
 2747SOL     OW 9139   3.614   6.331   0.984
 2747SOL    HW1 9140   3.625   6.408   1.047
 2747SOL    HW2 9141   3.703   6.294   0.961
 2748SOL     OW 9142   4.412   6.489   1.018
 2748SOL    HW1 9143   4.406   6.391   1.037
 2748SOL    HW2 9144   4.485   6.505   0.951
 2749SOL     OW 9145   2.107   3.413   0.429
 2749SOL    HW1 9146   2.157   3.496   0.403
 2749SOL    HW2 9147   2.064   3.426   0.518
 2750SOL     OW 9148   2.367   5.428   2.578
 2750SOL    HW1 9149   2.342   5.508   2.633
 2750SOL    HW2 9150   2.288   5.397   2.526
 2751SOL     OW 9151   1.288   3.036   1.560
 2751SOL    HW1 9152   1.211   3.053   1.622
 2751SOL    HW2 9153   1.372   3.026   1.614
 2752SOL     OW 9154   4.078   4.533   6.172
 2752SOL    HW1 9155   4.011   4.596   6.132
 2752SOL    HW2 9156   4.045   4.501   6.260
 2753SOL     OW 9157   5.966   6.210   5.144
 2753SOL    HW1 9158   5.941   6.275   5.216
 2753SOL    HW2 9159   6.060   6.179   5.158
 2754SOL     OW 9160   0.551   6.505   6.330
 2754SOL    HW1 9161   0.487   6.547   6.394
 2754SOL    HW2 9162   0.605   6.435   6.377
 2755SOL     OW 9163   2.777   6.593   3.483
 2755SOL    HW1 9164   2.741   6.511   3.526
 2755SOL    HW2 9165   2.717   6.619   3.407
 2756SOL     OW 9166   5.475   6.264   0.271
 2756SOL    HW1 9167   5.507   6.169   0.269
 2756SOL    HW2 9168   5.512   6.310   0.352
 2757SOL     OW 9169   0.671   5.047   1.222
 2757SOL    HW1 9170   0.673   5.145   1.245
 2757SOL    HW2 9171   0.744   5.027   1.155
 2758SOL     OW 9172   4.896   0.899   6.054
 2758SOL    HW1 9173   4.966   0.849   6.105
 2758SOL    HW2 9174   4.808   0.891   6.101
 2759SOL     OW 9175   5.620   6.458   4.304
 2759SOL    HW1 9176   5.673   6.394   4.248
 2759SOL    HW2 9177   5.545   6.410   4.349
 2760SOL     OW 9178   2.263   5.324   2.342
 2760SOL    HW1 9179   2.344   5.265   2.342
 2760SOL    HW2 9180   2.207   5.302   2.262
 2761SOL     OW 9181   1.766   5.711   2.774
 2761SOL    HW1 9182   1.852   5.761   2.787
 2761SOL    HW2 9183   1.779   5.641   2.703
 2762SOL     OW 9184   1.178   6.211   5.427
 2762SOL    HW1 9185   1.156   6.127   5.378
 2762SOL    HW2 9186   1.131   6.288   5.382
 2763SOL     OW 9187   5.745   2.323   3.747
 2763SOL    HW1 9188   5.766   2.242   3.801
 2763SOL    HW2 9189   5.739   2.299   3.651
 2764SOL     OW 9190   5.159   0.643   1.004
 2764SOL    HW1 9191   5.220   0.720   0.984
 2764SOL    HW2 9192   5.109   0.618   0.922
 2765SOL     OW 9193   5.980   1.506   1.795
 2765SOL    HW1 9194   6.002   1.445   1.872
 2765SOL    HW2 9195   6.053   1.501   1.727
 2766SOL     OW 9196   5.777   1.429   1.323
 2766SOL    HW1 9197   5.850   1.407   1.388
 2766SOL    HW2 9198   5.794   1.381   1.237
 2767SOL     OW 9199   5.765   3.668   5.972
 2767SOL    HW1 9200   5.741   3.670   5.875
 2767SOL    HW2 9201   5.693   3.622   6.024
 2768SOL     OW 9202   5.063   1.679   6.804
 2768SOL    HW1 9203   5.122   1.675   6.723
 2768SOL    HW2 9204   5.051   1.587   6.841
 2769SOL     OW 9205   0.043   4.509   2.411
 2769SOL    HW1 9206   0.037   4.452   2.329
 2769SOL    HW2 9207   0.029   4.452   2.493
 2770SOL     OW 9208   1.264   4.959   1.856
 2770SOL    HW1 9209   1.209   4.971   1.773
 2770SOL    HW2 9210   1.208   4.979   1.937
 2771SOL     OW 9211   5.582   1.851   1.609
 2771SOL    HW1 9212   5.517   1.874   1.535
 2771SOL    HW2 9213   5.635   1.770   1.583
 2772SOL     OW 9214   4.447   2.713   0.070
 2772SOL    HW1 9215   4.545   2.716   0.048
 2772SOL    HW2 9216   4.403   2.641   0.016
 2773SOL     OW 9217   4.485   4.164   6.197
 2773SOL    HW1 9218   4.403   4.190   6.248
 2773SOL    HW2 9219   4.566   4.192   6.247
 2774SOL     OW 9220   5.782   3.057   1.854
 2774SOL    HW1 9221   5.815   2.970   1.819
 2774SOL    HW2 9222   5.848   3.093   1.921
 2775SOL     OW 9223   6.994   5.732   0.999
 2775SOL    HW1 9224   0.036   5.659   1.015
 2775SOL    HW2 9225   7.020   5.813   1.052
 2776SOL     OW 9226   4.006   6.563   5.777
 2776SOL    HW1 9227   3.934   6.608   5.830
 2776SOL    HW2 9228   4.072   6.632   5.745
 2777SOL     OW 9229   3.201   1.299   2.429
 2777SOL    HW1 9230   3.192   1.385   2.379
 2777SOL    HW2 9231   3.297   1.270   2.429
 2778SOL     OW 9232   2.251   2.024   5.978
 2778SOL    HW1 9233   2.279   1.952   6.041
 2778SOL    HW2 9234   2.260   2.113   6.022
 2779SOL     OW 9235   5.198   0.102   6.865
 2779SOL    HW1 9236   5.202   0.023   6.925
 2779SOL    HW2 9237   5.103   0.118   6.836
 2780SOL     OW 9238   4.615   5.065   6.283
 2780SOL    HW1 9239   4.602   5.020   6.195
 2780SOL    HW2 9240   4.671   5.147   6.270
 2781SOL     OW 9241   6.049   4.387   1.746
 2781SOL    HW1 9242   6.127   4.366   1.805
 2781SOL    HW2 9243   6.082   4.401   1.652
 2782SOL     OW 9244   3.238   2.261   6.355
 2782SOL    HW1 9245   3.303   2.212   6.413
 2782SOL    HW2 9246   3.145   2.235   6.380
 2783SOL     OW 9247   0.089   4.413   5.671
 2783SOL    HW1 9248   0.072   4.470   5.590
 2783SOL    HW2 9249   0.112   4.472   5.749
 2784SOL     OW 9250   1.957   2.558   0.955
 2784SOL    HW1 9251   2.014   2.568   1.036
 2784SOL    HW2 9252   1.863   2.541   0.983
 2785SOL     OW 9253   6.360   0.750   0.315
 2785SOL    HW1 9254   6.335   0.776   0.408
 2785SOL    HW2 9255   6.415   0.822   0.273
 2786SOL     OW 9256   4.024   6.516   0.787
 2786SOL    HW1 9257   4.016   6.610   0.754
 2786SOL    HW2 9258   4.029   6.454   0.709
 2787SOL     OW 9259   2.092   2.948   6.264
 2787SOL    HW1 9260   2.141   3.032   6.243
 2787SOL    HW2 9261   2.110   2.880   6.192
 2788SOL     OW 9262   2.871   4.596   0.403
 2788SOL    HW1 9263   2.902   4.562   0.314
 2788SOL    HW2 9264   2.950   4.610   0.463
 2789SOL     OW 9265   1.088   1.512   3.863
 2789SOL    HW1 9266   1.154   1.582   3.835
 2789SOL    HW2 9267   1.070   1.521   3.961
 2790SOL     OW 9268   3.413   5.016   3.103
 2790SOL    HW1 9269   3.448   5.109   3.113
 2790SOL    HW2 9270   3.351   4.995   3.178
 2791SOL     OW 9271   1.735   3.931   4.840
 2791SOL    HW1 9272   1.806   3.992   4.876
 2791SOL    HW2 9273   1.773   3.839   4.829
 2792SOL     OW 9274   1.027   0.930   4.990
 2792SOL    HW1 9275   1.082   0.889   5.063
 2792SOL    HW2 9276   0.933   0.943   5.023
 2793SOL     OW 9277   5.375   1.329   2.380
 2793SOL    HW1 9278   5.406   1.235   2.365
 2793SOL    HW2 9279   5.414   1.388   2.309
 2794SOL     OW 9280   0.182   1.998   0.203
 2794SOL    HW1 9281   0.121   1.933   0.158
 2794SOL    HW2 9282   0.258   2.020   0.142
 2795SOL     OW 9283   2.857   4.089   1.055
 2795SOL    HW1 9284   2.944   4.086   1.104
 2795SOL    HW2 9285   2.785   4.121   1.116
 2796SOL     OW 9286   5.963   3.668   2.859
 2796SOL    HW1 9287   5.927   3.744   2.914
 2796SOL    HW2 9288   5.889   3.628   2.805
 2797SOL     OW 9289   4.940   5.310   4.900
 2797SOL    HW1 9290   4.927   5.250   4.821
 2797SOL    HW2 9291   5.035   5.341   4.904
 2798SOL     OW 9292   1.280   4.065   3.508
 2798SOL    HW1 9293   1.276   3.990   3.442
 2798SOL    HW2 9294   1.296   4.028   3.600
 2799SOL     OW 9295   7.015   5.095   5.798
 2799SOL    HW1 9296   0.021   5.187   5.821
 2799SOL    HW2 9297   6.915   5.092   5.793
 2800SOL     OW 9298   3.819   4.783   6.643
 2800SOL    HW1 9299   3.916   4.788   6.618
 2800SOL    HW2 9300   3.788   4.688   6.638
 2801SOL     OW 9301   5.059   5.211   2.386
 2801SOL    HW1 9302   5.091   5.215   2.292
 2801SOL    HW2 9303   5.132   5.244   2.447
 2802SOL     OW 9304   3.993   1.430   5.449
 2802SOL    HW1 9305   3.897   1.448   5.469
 2802SOL    HW2 9306   4.041   1.517   5.435
 2803SOL     OW 9307   2.379   6.440   6.171
 2803SOL    HW1 9308   2.451   6.374   6.148
 2803SOL    HW2 9309   2.386   6.463   6.269
 2804SOL     OW 9310   6.862   4.726   3.902
 2804SOL    HW1 9311   6.937   4.687   3.956
 2804SOL    HW2 9312   6.787   4.753   3.963
 2805SOL     OW 9313   5.274   2.697   1.170
 2805SOL    HW1 9314   5.186   2.677   1.213
 2805SOL    HW2 9315   5.335   2.740   1.236
 2806SOL     OW 9316   6.348   5.129   3.210
 2806SOL    HW1 9317   6.270   5.181   3.246
 2806SOL    HW2 9318   6.414   5.192   3.169
 2807SOL     OW 9319   4.234   4.751   3.748
 2807SOL    HW1 9320   4.254   4.840   3.789
 2807SOL    HW2 9321   4.301   4.684   3.781
 2808SOL     OW 9322   5.696   1.656   3.267
 2808SOL    HW1 9323   5.614   1.679   3.215
 2808SOL    HW2 9324   5.680   1.573   3.320
 2809SOL     OW 9325   6.074   2.937   1.049
 2809SOL    HW1 9326   6.069   3.036   1.039
 2809SOL    HW2 9327   6.041   2.893   0.965
 2810SOL     OW 9328   2.857   0.014   5.529
 2810SOL    HW1 9329   2.872   6.948   5.487
 2810SOL    HW2 9330   2.922   0.027   5.604
 2811SOL     OW 9331   0.785   1.046   2.511
 2811SOL    HW1 9332   0.695   1.040   2.469
 2811SOL    HW2 9333   0.843   0.972   2.477
 2812SOL     OW 9334   4.922   3.952   2.753
 2812SOL    HW1 9335   4.915   3.878   2.686
 2812SOL    HW2 9336   4.985   4.022   2.719
 2813SOL     OW 9337   6.239   6.972   5.771
 2813SOL    HW1 9338   6.320   6.931   5.731
 2813SOL    HW2 9339   6.178   6.901   5.805
 2814SOL     OW 9340   4.203   4.359   5.725
 2814SOL    HW1 9341   4.130   4.402   5.778
 2814SOL    HW2 9342   4.163   4.304   5.652
 2815SOL     OW 9343   6.596   1.184   4.574
 2815SOL    HW1 9344   6.606   1.282   4.552
 2815SOL    HW2 9345   6.640   1.166   4.663
 2816SOL     OW 9346   6.138   0.138   3.622
 2816SOL    HW1 9347   6.039   0.135   3.629
 2816SOL    HW2 9348   6.175   0.202   3.689
 2817SOL     OW 9349   1.721   1.133   1.303
 2817SOL    HW1 9350   1.740   1.225   1.338
 2817SOL    HW2 9351   1.699   1.072   1.379
 2818SOL     OW 9352   6.807   4.719   6.273
 2818SOL    HW1 9353   6.819   4.748   6.178
 2818SOL    HW2 9354   6.896   4.707   6.316
 2819SOL     OW 9355   0.201   2.946   0.454
 2819SOL    HW1 9356   0.189   2.895   0.539
 2819SOL    HW2 9357   0.248   2.888   0.387
 2820SOL     OW 9358   0.011   2.484   2.974
 2820SOL    HW1 9359   0.001   2.384   2.975
 2820SOL    HW2 9360   6.984   2.523   3.051
 2821SOL     OW 9361   2.404   4.332   5.345
 2821SOL    HW1 9362   2.312   4.365   5.364
 2821SOL    HW2 9363   2.416   4.240   5.381
 2822SOL     OW 9364   4.880   2.316   0.122
 2822SOL    HW1 9365   4.938   2.397   0.123
 2822SOL    HW2 9366   4.929   2.240   0.166
 2823SOL     OW 9367   2.608   6.598   2.922
 2823SOL    HW1 9368   2.685   6.582   2.984
 2823SOL    HW2 9369   2.639   6.587   2.828
 2824SOL     OW 9370   2.295   1.147   5.070
 2824SOL    HW1 9371   2.248   1.062   5.045
 2824SOL    HW2 9372   2.293   1.157   5.169
 2825SOL     OW 9373   6.912   6.378   0.977
 2825SOL    HW1 9374   6.813   6.366   0.972
 2825SOL    HW2 9375   6.942   6.373   1.072
 2826SOL     OW 9376   5.240   2.197   5.409
 2826SOL    HW1 9377   5.211   2.102   5.395
 2826SOL    HW2 9378   5.248   2.243   5.321
 2827SOL     OW 9379   6.414   1.363   4.927
 2827SOL    HW1 9380   6.439   1.342   5.021
 2827SOL    HW2 9381   6.470   1.439   4.893
 2828SOL     OW 9382   4.161   1.016   6.281
 2828SOL    HW1 9383   4.144   1.113   6.265
 2828SOL    HW2 9384   4.083   0.963   6.248
 2829SOL     OW 9385   3.949   5.499   6.653
 2829SOL    HW1 9386   3.936   5.411   6.700
 2829SOL    HW2 9387   3.970   5.483   6.557
 2830SOL     OW 9388   5.255   3.255   6.151
 2830SOL    HW1 9389   5.337   3.238   6.097
 2830SOL    HW2 9390   5.233   3.352   6.150
 2831SOL     OW 9391   5.714   6.456   4.672
 2831SOL    HW1 9392   5.667   6.369   4.684
 2831SOL    HW2 9393   5.649   6.523   4.634
 2832SOL     OW 9394   0.102   1.413   1.009
 2832SOL    HW1 9395   0.039   1.401   0.932
 2832SOL    HW2 9396   0.136   1.324   1.038
 2833SOL     OW 9397   5.968   2.286   1.965
 2833SOL    HW1 9398   5.953   2.337   2.050
 2833SOL    HW2 9399   5.886   2.236   1.941
 2834SOL     OW 9400   3.387   1.401   6.298
 2834SOL    HW1 9401   3.366   1.498   6.310
 2834SOL    HW2 9402   3.461   1.375   6.360
 2835SOL     OW 9403   0.596   6.670   1.864
 2835SOL    HW1 9404   0.542   6.725   1.929
 2835SOL    HW2 9405   0.693   6.675   1.888
 2836SOL     OW 9406   6.903   6.754   1.672
 2836SOL    HW1 9407   6.850   6.709   1.744
 2836SOL    HW2 9408   6.948   6.835   1.709
 2837SOL     OW 9409   5.230   3.625   3.397
 2837SOL    HW1 9410   5.170   3.638   3.476
 2837SOL    HW2 9411   5.177   3.639   3.313
 2838SOL     OW 9412   2.565   4.599   1.855
 2838SOL    HW1 9413   2.569   4.667   1.781
 2838SOL    HW2 9414   2.651   4.600   1.906
 2839SOL     OW 9415   5.696   1.491   2.044
 2839SOL    HW1 9416   5.641   1.452   2.118
 2839SOL    HW2 9417   5.675   1.588   2.035
 2840SOL     OW 9418   0.050   1.615   4.989
 2840SOL    HW1 9419   0.095   1.697   5.024
 2840SOL    HW2 9420   7.004   1.640   4.922
 2841SOL     OW 9421   0.905   6.325   0.422
 2841SOL    HW1 9422   0.903   6.424   0.404
 2841SOL    HW2 9423   0.891   6.309   0.519
 2842SOL     OW 9424   6.981   3.417   3.952
 2842SOL    HW1 9425   0.044   3.464   3.934
 2842SOL    HW2 9426   6.977   3.391   4.049
 2843SOL     OW 9427   3.933   0.962   4.652
 2843SOL    HW1 9428   4.031   0.947   4.656
 2843SOL    HW2 9429   3.904   0.969   4.556
 2844SOL     OW 9430   1.327   3.873   0.031
 2844SOL    HW1 9431   1.236   3.836   0.012
 2844SOL    HW2 9432   1.338   3.961   7.009
 2845SOL     OW 9433   0.558   3.841   0.317
 2845SOL    HW1 9434   0.504   3.917   0.280
 2845SOL    HW2 9435   0.572   3.772   0.246
 2846SOL     OW 9436   5.123   1.507   0.078
 2846SOL    HW1 9437   5.057   1.482   0.007
 2846SOL    HW2 9438   5.121   1.607   0.091
 2847SOL     OW 9439   5.701   4.300   3.509
 2847SOL    HW1 9440   5.713   4.202   3.529
 2847SOL    HW2 9441   5.625   4.336   3.563
 2848SOL     OW 9442   0.265   4.555   5.391
 2848SOL    HW1 9443   0.168   4.573   5.400
 2848SOL    HW2 9444   0.289   4.542   5.295
 2849SOL     OW 9445   3.327   1.119   0.330
 2849SOL    HW1 9446   3.312   1.120   0.231
 2849SOL    HW2 9447   3.391   1.046   0.353
 2850SOL     OW 9448   3.307   0.295   1.182
 2850SOL    HW1 9449   3.210   0.273   1.191
 2850SOL    HW2 9450   3.331   0.298   1.085
 2851SOL     OW 9451   1.092   4.662   5.445
 2851SOL    HW1 9452   1.040   4.738   5.405
 2851SOL    HW2 9453   1.170   4.699   5.495
 2852SOL     OW 9454   6.000   3.441   6.569
 2852SOL    HW1 9455   6.098   3.452   6.585
 2852SOL    HW2 9456   5.949   3.498   6.633
 2853SOL     OW 9457   3.346   2.655   0.693
 2853SOL    HW1 9458   3.369   2.564   0.660
 2853SOL    HW2 9459   3.401   2.676   0.773
 2854SOL     OW 9460   2.532   0.812   4.539
 2854SOL    HW1 9461   2.453   0.870   4.559
 2854SOL    HW2 9462   2.517   0.720   4.575
 2855SOL     OW 9463   1.927   0.656   5.720
 2855SOL    HW1 9464   1.913   0.634   5.623
 2855SOL    HW2 9465   1.936   0.755   5.731
 2856SOL     OW 9466   2.030   2.369   5.547
 2856SOL    HW1 9467   2.041   2.302   5.620
 2856SOL    HW2 9468   2.082   2.452   5.570
 2857SOL     OW 9469   2.598   1.803   1.365
 2857SOL    HW1 9470   2.680   1.750   1.383
 2857SOL    HW2 9471   2.572   1.854   1.448
 2858SOL     OW 9472   6.558   2.851   2.069
 2858SOL    HW1 9473   6.491   2.842   2.143
 2858SOL    HW2 9474   6.619   2.772   2.068
 2859SOL     OW 9475   4.707   0.823   0.750
 2859SOL    HW1 9476   4.725   0.835   0.848
 2859SOL    HW2 9477   4.724   0.909   0.703
 2860SOL     OW 9478   3.867   2.087   1.641
 2860SOL    HW1 9479   3.891   2.184   1.632
 2860SOL    HW2 9480   3.785   2.078   1.696
 2861SOL     OW 9481   4.687   5.545   5.651
 2861SOL    HW1 9482   4.661   5.482   5.725
 2861SOL    HW2 9483   4.605   5.573   5.601
 2862SOL     OW 9484   5.607   1.909   3.689
 2862SOL    HW1 9485   5.705   1.912   3.710
 2862SOL    HW2 9486   5.596   1.892   3.591
 2863SOL     OW 9487   6.396   1.934   0.280
 2863SOL    HW1 9488   6.412   1.925   0.378
 2863SOL    HW2 9489   6.483   1.937   0.231
 2864SOL     OW 9490   3.909   0.591   1.047
 2864SOL    HW1 9491   3.818   0.631   1.041
 2864SOL    HW2 9492   3.909   0.517   1.115
 2865SOL     OW 9493   4.376   4.237   5.286
 2865SOL    HW1 9494   4.278   4.256   5.292
 2865SOL    HW2 9495   4.421   4.311   5.236
 2866SOL     OW 9496   6.938   6.254   6.845
 2866SOL    HW1 9497   7.011   6.305   6.798
 2866SOL    HW2 9498   6.902   6.184   6.783
 2867SOL     OW 9499   5.898   4.575   2.568
 2867SOL    HW1 9500   5.939   4.548   2.655
 2867SOL    HW2 9501   5.969   4.616   2.510
 2868SOL     OW 9502   0.412   3.757   5.402
 2868SOL    HW1 9503   0.432   3.847   5.441
 2868SOL    HW2 9504   0.330   3.720   5.446
 2869SOL     OW 9505   6.407   0.334   2.397
 2869SOL    HW1 9506   6.355   0.261   2.441
 2869SOL    HW2 9507   6.468   0.296   2.327
 2870SOL     OW 9508   6.487   1.810   3.755
 2870SOL    HW1 9509   6.583   1.798   3.730
 2870SOL    HW2 9510   6.451   1.894   3.713
 2871SOL     OW 9511   1.630   1.837   6.439
 2871SOL    HW1 9512   1.686   1.755   6.439
 2871SOL    HW2 9513   1.641   1.885   6.526
 2872SOL     OW 9514   2.535   0.782   4.271
 2872SOL    HW1 9515   2.551   0.873   4.231
 2872SOL    HW2 9516   2.554   0.786   4.369
 2873SOL     OW 9517   0.398   5.827   2.540
 2873SOL    HW1 9518   0.496   5.811   2.552
 2873SOL    HW2 9519   0.358   5.853   2.628
 2874SOL     OW 9520   5.165   3.884   2.271
 2874SOL    HW1 9521   5.066   3.881   2.258
 2874SOL    HW2 9522   5.187   3.851   2.363
 2875SOL     OW 9523   3.822   6.681   5.915
 2875SOL    HW1 9524   3.758   6.625   5.967
 2875SOL    HW2 9525   3.845   6.763   5.966
 2876SOL     OW 9526   0.635   1.301   1.583
 2876SOL    HW1 9527   0.565   1.244   1.624
 2876SOL    HW2 9528   0.631   1.393   1.621
 2877SOL     OW 9529   3.526   2.722   5.273
 2877SOL    HW1 9530   3.622   2.751   5.270
 2877SOL    HW2 9531   3.522   2.623   5.288
 2878SOL     OW 9532   2.564   4.553   4.671
 2878SOL    HW1 9533   2.620   4.577   4.751
 2878SOL    HW2 9534   2.507   4.475   4.693
 2879SOL     OW 9535   5.049   5.119   6.946
 2879SOL    HW1 9536   5.100   5.198   6.981
 2879SOL    HW2 9537   5.105   5.037   6.955
 2880SOL     OW 9538   0.422   5.878   0.761
 2880SOL    HW1 9539   0.391   5.973   0.760
 2880SOL    HW2 9540   0.436   5.848   0.855
 2881SOL     OW 9541   6.254   6.232   0.678
 2881SOL    HW1 9542   6.292   6.151   0.633
 2881SOL    HW2 9543   6.329   6.288   0.714
 2882SOL     OW 9544   0.001   3.122   2.510
 2882SOL    HW1 9545   7.003   3.138   2.413
 2882SOL    HW2 9546   0.039   3.030   2.520
 2883SOL     OW 9547   3.724   6.857   3.455
 2883SOL    HW1 9548   3.801   6.914   3.426
 2883SOL    HW2 9549   3.660   6.913   3.507
 2884SOL     OW 9550   0.699   6.680   2.946
 2884SOL    HW1 9551   0.753   6.596   2.950
 2884SOL    HW2 9552   0.614   6.667   2.998
 2885SOL     OW 9553   0.253   2.218   2.943
 2885SOL    HW1 9554   0.155   2.212   2.924
 2885SOL    HW2 9555   0.289   2.303   2.904
 2886SOL     OW 9556   1.785   2.537   6.999
 2886SOL    HW1 9557   1.720   2.520   6.926
 2886SOL    HW2 9558   1.829   2.625   6.985
 2887SOL     OW 9559   2.525   0.275   5.396
 2887SOL    HW1 9560   2.488   0.183   5.393
 2887SOL    HW2 9561   2.456   0.337   5.434
 2888SOL     OW 9562   6.697   4.516   6.619
 2888SOL    HW1 9563   6.694   4.609   6.581
 2888SOL    HW2 9564   6.617   4.501   6.676
 2889SOL     OW 9565   1.392   0.860   1.566
 2889SOL    HW1 9566   1.485   0.881   1.534
 2889SOL    HW2 9567   1.370   0.765   1.543
 2890SOL     OW 9568   3.466   0.470   1.548
 2890SOL    HW1 9569   3.432   0.400   1.612
 2890SOL    HW2 9570   3.392   0.496   1.486
 2891SOL     OW 9571   2.049   4.523   3.229
 2891SOL    HW1 9572   2.060   4.621   3.217
 2891SOL    HW2 9573   2.018   4.482   3.143
 2892SOL     OW 9574   4.000   4.183   6.551
 2892SOL    HW1 9575   3.907   4.147   6.552
 2892SOL    HW2 9576   4.059   4.127   6.609
 2893SOL     OW 9577   1.909   6.379   5.650
 2893SOL    HW1 9578   1.939   6.334   5.734
 2893SOL    HW2 9579   1.867   6.467   5.672
 2894SOL     OW 9580   2.900   2.740   6.828
 2894SOL    HW1 9581   2.883   2.807   6.900
 2894SOL    HW2 9582   2.822   2.738   6.765
 2895SOL     OW 9583   4.028   2.902   6.733
 2895SOL    HW1 9584   4.039   2.842   6.812
 2895SOL    HW2 9585   3.943   2.954   6.741
 2896SOL     OW 9586   2.875   5.557   0.237
 2896SOL    HW1 9587   2.934   5.626   0.278
 2896SOL    HW2 9588   2.793   5.544   0.294
 2897SOL     OW 9589   2.417   6.559   3.553
 2897SOL    HW1 9590   2.397   6.474   3.601
 2897SOL    HW2 9591   2.413   6.543   3.454
 2898SOL     OW 9592   4.518   5.120   2.671
 2898SOL    HW1 9593   4.482   5.129   2.764
 2898SOL    HW2 9594   4.467   5.050   2.622
 2899SOL     OW 9595   0.063   0.069   6.677
 2899SOL    HW1 9596   0.012   0.080   6.592
 2899SOL    HW2 9597   0.037   7.006   6.720
 2900SOL     OW 9598   1.166   4.795   5.825
 2900SOL    HW1 9599   1.264   4.811   5.828
 2900SOL    HW2 9600   1.138   4.744   5.906
 2901SOL     OW 9601   2.519   0.694   2.438
 2901SOL    HW1 9602   2.510   0.701   2.339
 2901SOL    HW2 9603   2.436   0.728   2.482
 2902SOL     OW 9604   5.251   6.181   0.633
 2902SOL    HW1 9605   5.243   6.137   0.543
 2902SOL    HW2 9606   5.167   6.165   0.685
 2903SOL     OW 9607   3.016   0.902   1.963
 2903SOL    HW1 9608   3.095   0.866   2.013
 2903SOL    HW2 9609   2.953   0.827   1.942
 2904SOL     OW 9610   2.447   3.246   5.310
 2904SOL    HW1 9611   2.349   3.256   5.294
 2904SOL    HW2 9612   2.478   3.157   5.274
 2905SOL     OW 9613   1.634   1.151   2.580
 2905SOL    HW1 9614   1.598   1.230   2.529
 2905SOL    HW2 9615   1.598   1.152   2.673
 2906SOL     OW 9616   5.310   4.960   2.090
 2906SOL    HW1 9617   5.336   4.864   2.103
 2906SOL    HW2 9618   5.385   5.010   2.047
 2907SOL     OW 9619   0.252   1.829   5.049
 2907SOL    HW1 9620   0.340   1.838   5.004
 2907SOL    HW2 9621   0.198   1.912   5.033
 2908SOL     OW 9622   3.890   6.714   4.461
 2908SOL    HW1 9623   3.889   6.719   4.361
 2908SOL    HW2 9624   3.805   6.672   4.494
 2909SOL     OW 9625   0.564   5.107   4.585
 2909SOL    HW1 9626   0.559   5.093   4.487
 2909SOL    HW2 9627   0.622   5.036   4.626
 2910SOL     OW 9628   3.150   6.429   5.256
 2910SOL    HW1 9629   3.103   6.443   5.170
 2910SOL    HW2 9630   3.103   6.358   5.309
 2911SOL     OW 9631   2.389   5.060   3.238
 2911SOL    HW1 9632   2.431   5.081   3.326
 2911SOL    HW2 9633   2.450   5.001   3.185
 2912SOL     OW 9634   2.892   5.979   0.260
 2912SOL    HW1 9635   2.934   5.911   0.199
 2912SOL    HW2 9636   2.794   5.984   0.242
 2913SOL     OW 9637   1.339   3.685   2.328
 2913SOL    HW1 9638   1.357   3.662   2.233
 2913SOL    HW2 9639   1.424   3.713   2.373
 2914SOL     OW 9640   5.154   4.415   5.943
 2914SOL    HW1 9641   5.087   4.484   5.969
 2914SOL    HW2 9642   5.119   4.324   5.966
 2915SOL     OW 9643   4.221   1.177   3.772
 2915SOL    HW1 9644   4.200   1.106   3.705
 2915SOL    HW2 9645   4.148   1.184   3.839
 2916SOL     OW 9646   6.428   4.484   5.426
 2916SOL    HW1 9647   6.345   4.492   5.482
 2916SOL    HW2 9648   6.409   4.424   5.348
 2917SOL     OW 9649   3.812   0.109   0.603
 2917SOL    HW1 9650   3.773   0.071   0.686
 2917SOL    HW2 9651   3.830   0.207   0.616
 2918SOL     OW 9652   0.476   3.270   3.068
 2918SOL    HW1 9653   0.456   3.277   3.166
 2918SOL    HW2 9654   0.562   3.316   3.048
 2919SOL     OW 9655   6.263   6.603   6.929
 2919SOL    HW1 9656   6.303   6.643   6.846
 2919SOL    HW2 9657   6.309   6.641   7.010
 2920SOL     OW 9658   3.564   2.039   2.512
 2920SOL    HW1 9659   3.611   2.055   2.425
 2920SOL    HW2 9660   3.625   2.063   2.588
 2921SOL     OW 9661   6.896   1.470   2.195
 2921SOL    HW1 9662   6.917   1.533   2.269
 2921SOL    HW2 9663   6.814   1.418   2.217
 2922SOL     OW 9664   5.079   0.018   5.776
 2922SOL    HW1 9665   5.070   6.952   5.820
 2922SOL    HW2 9666   5.132   0.008   5.692
 2923SOL     OW 9667   6.981   4.962   2.378
 2923SOL    HW1 9668   0.006   4.885   2.420
 2923SOL    HW2 9669   6.977   5.038   2.443
 2924SOL     OW 9670   1.096   1.410   5.836
 2924SOL    HW1 9671   1.100   1.310   5.832
 2924SOL    HW2 9672   1.165   1.449   5.776
 2925SOL     OW 9673   5.442   2.686   2.191
 2925SOL    HW1 9674   5.524   2.741   2.176
 2925SOL    HW2 9675   5.438   2.613   2.122
 2926SOL     OW 9676   0.100   2.074   5.015
 2926SOL    HW1 9677   0.152   2.115   5.090
 2926SOL    HW2 9678   0.095   2.138   4.938
 2927SOL     OW 9679   1.096   2.715   2.600
 2927SOL    HW1 9680   1.015   2.679   2.646
 2927SOL    HW2 9681   1.175   2.656   2.620
 2928SOL     OW 9682   6.718   0.321   6.733
 2928SOL    HW1 9683   6.657   0.355   6.804
 2928SOL    HW2 9684   6.668   0.312   6.646
 2929SOL     OW 9685   0.194   0.533   6.057
 2929SOL    HW1 9686   0.202   0.446   6.108
 2929SOL    HW2 9687   0.242   0.525   5.970
 2930SOL     OW 9688   5.270   0.415   4.616
 2930SOL    HW1 9689   5.360   0.437   4.654
 2930SOL    HW2 9690   5.235   0.331   4.657
 2931SOL     OW 9691   4.682   6.221   6.513
 2931SOL    HW1 9692   4.634   6.215   6.600
 2931SOL    HW2 9693   4.769   6.171   6.519
 2932SOL     OW 9694   1.178   4.346   1.713
 2932SOL    HW1 9695   1.176   4.439   1.675
 2932SOL    HW2 9696   1.138   4.283   1.647
 2933SOL     OW 9697   5.462   2.761   3.912
 2933SOL    HW1 9698   5.391   2.831   3.910
 2933SOL    HW2 9699   5.541   2.794   3.860
 2934SOL     OW 9700   3.603   7.010   0.130
 2934SOL    HW1 9701   3.558   0.075   0.135
 2934SOL    HW2 9702   3.534   6.938   0.126
 2935SOL     OW 9703   6.410   3.438   1.121
 2935SOL    HW1 9704   6.472   3.501   1.074
 2935SOL    HW2 9705   6.432   3.436   1.218
 2936SOL     OW 9706   4.615   5.784   0.599
 2936SOL    HW1 9707   4.694   5.763   0.655
 2936SOL    HW2 9708   4.535   5.798   0.658
 2937SOL     OW 9709   3.250   5.450   0.910
 2937SOL    HW1 9710   3.159   5.489   0.923
 2937SOL    HW2 9711   3.267   5.436   0.813
 2938SOL     OW 9712   4.914   5.552   5.516
 2938SOL    HW1 9713   4.828   5.564   5.565
 2938SOL    HW2 9714   4.902   5.576   5.420
 2939SOL     OW 9715   5.989   0.211   5.222
 2939SOL    HW1 9716   6.024   0.201   5.315
 2939SOL    HW2 9717   5.920   0.140   5.204
 2940SOL     OW 9718   5.572   0.009   5.343
 2940SOL    HW1 9719   5.509   0.086   5.346
 2940SOL    HW2 9720   5.577   6.989   5.433
 2941SOL     OW 9721   1.281   1.787   4.899
 2941SOL    HW1 9722   1.250   1.693   4.914
 2941SOL    HW2 9723   1.339   1.815   4.976
 2942SOL     OW 9724   2.975   0.292   2.297
 2942SOL    HW1 9725   2.977   0.197   2.268
 2942SOL    HW2 9726   3.059   0.338   2.267
 2943SOL     OW 9727   6.161   3.187   2.665
 2943SOL    HW1 9728   6.218   3.129   2.606
 2943SOL    HW2 9729   6.217   3.260   2.704
 2944SOL     OW 9730   3.307   4.804   5.290
 2944SOL    HW1 9731   3.323   4.870   5.363
 2944SOL    HW2 9732   3.217   4.763   5.302
 2945SOL     OW 9733   4.101   3.465   3.452
 2945SOL    HW1 9734   4.062   3.546   3.409
 2945SOL    HW2 9735   4.093   3.387   3.390
 2946SOL     OW 9736   6.559   6.120   5.663
 2946SOL    HW1 9737   6.556   6.124   5.563
 2946SOL    HW2 9738   6.495   6.186   5.702
 2947SOL     OW 9739   6.491   3.772   6.153
 2947SOL    HW1 9740   6.419   3.837   6.131
 2947SOL    HW2 9741   6.577   3.821   6.168
 2948SOL     OW 9742   6.429   3.822   5.412
 2948SOL    HW1 9743   6.405   3.833   5.508
 2948SOL    HW2 9744   6.424   3.725   5.387
 2949SOL     OW 9745   1.491   6.550   1.118
 2949SOL    HW1 9746   1.425   6.583   1.050
 2949SOL    HW2 9747   1.577   6.527   1.072
 2950SOL     OW 9748   6.013   3.828   4.267
 2950SOL    HW1 9749   5.956   3.825   4.349
 2950SOL    HW2 9750   5.955   3.831   4.185
 2951SOL     OW 9751   6.942   2.088   0.283
 2951SOL    HW1 9752   6.924   2.184   0.261
 2951SOL    HW2 9753   0.016   2.070   0.275
 2952SOL     OW 9754   1.111   4.417   2.876
 2952SOL    HW1 9755   1.109   4.501   2.931
 2952SOL    HW2 9756   1.187   4.421   2.812
 2953SOL     OW 9757   4.783   2.263   2.455
 2953SOL    HW1 9758   4.749   2.274   2.548
 2953SOL    HW2 9759   4.799   2.353   2.414
 2954SOL     OW 9760   0.426   6.160   1.830
 2954SOL    HW1 9761   0.433   6.254   1.865
 2954SOL    HW2 9762   0.439   6.160   1.731
 2955SOL     OW 9763   0.280   3.358   0.449
 2955SOL    HW1 9764   0.325   3.268   0.457
 2955SOL    HW2 9765   0.316   3.406   0.369
 2956SOL     OW 9766   0.356   5.744   3.127
 2956SOL    HW1 9767   0.298   5.712   3.053
 2956SOL    HW2 9768   0.446   5.701   3.122
 2957SOL     OW 9769   0.273   3.974   1.124
 2957SOL    HW1 9770   0.182   3.933   1.123
 2957SOL    HW2 9771   0.265   4.070   1.152
 2958SOL     OW 9772   1.849   4.661   5.914
 2958SOL    HW1 9773   1.920   4.730   5.901
 2958SOL    HW2 9774   1.792   4.656   5.832
 2959SOL     OW 9775   5.346   4.485   6.147
 2959SOL    HW1 9776   5.310   4.420   6.213
 2959SOL    HW2 9777   5.311   4.464   6.056
 2960SOL     OW 9778   2.947   2.020   0.582
 2960SOL    HW1 9779   3.008   1.977   0.650
 2960SOL    HW2 9780   2.858   1.974   0.584
 2961SOL     OW 9781   5.367   3.677   4.622
 2961SOL    HW1 9782   5.336   3.753   4.678
 2961SOL    HW2 9783   5.292   3.646   4.563
 2962SOL     OW 9784   4.474   1.353   3.486
 2962SOL    HW1 9785   4.437   1.361   3.579
 2962SOL    HW2 9786   4.554   1.293   3.487
 2963SOL     OW 9787   1.697   1.495   6.159
 2963SOL    HW1 9788   1.707   1.568   6.092
 2963SOL    HW2 9789   1.738   1.411   6.123
 2964SOL     OW 9790   1.443   6.606   1.804
 2964SOL    HW1 9791   1.519   6.661   1.770
 2964SOL    HW2 9792   1.476   6.542   1.874
 2965SOL     OW 9793   0.453   0.915   5.090
 2965SOL    HW1 9794   0.432   0.836   5.031
 2965SOL    HW2 9795   0.511   0.979   5.041
 2966SOL     OW 9796   5.278   4.528   3.745
 2966SOL    HW1 9797   5.194   4.475   3.755
 2966SOL    HW2 9798   5.330   4.525   3.830
 2967SOL     OW 9799   5.679   2.448   3.161
 2967SOL    HW1 9800   5.600   2.508   3.144
 2967SOL    HW2 9801   5.651   2.375   3.224
 2968SOL     OW 9802   1.132   4.186   4.741
 2968SOL    HW1 9803   1.166   4.252   4.673
 2968SOL    HW2 9804   1.207   4.159   4.801
 2969SOL     OW 9805   5.708   2.194   4.906
 2969SOL    HW1 9806   5.748   2.244   4.829
 2969SOL    HW2 9807   5.752   2.105   4.915
 2970SOL     OW 9808   1.013   4.275   6.580
 2970SOL    HW1 9809   0.982   4.272   6.676
 2970SOL    HW2 9810   0.945   4.230   6.522
 2971SOL     OW 9811   6.128   3.147   3.811
 2971SOL    HW1 9812   6.066   3.083   3.855
 2971SOL    HW2 9813   6.077   3.228   3.780
 2972SOL     OW 9814   6.293   3.437   6.557
 2972SOL    HW1 9815   6.374   3.403   6.510
 2972SOL    HW2 9816   6.295   3.408   6.653
 2973SOL     OW 9817   5.312   0.857   4.230
 2973SOL    HW1 9818   5.294   0.866   4.328
 2973SOL    HW2 9819   5.410   0.848   4.214
 2974SOL     OW 9820   6.182   4.433   2.754
 2974SOL    HW1 9821   6.261   4.476   2.710
 2974SOL    HW2 9822   6.200   4.422   2.852
 2975SOL     OW 9823   0.743   1.436   5.267
 2975SOL    HW1 9824   0.789   1.433   5.178
 2975SOL    HW2 9825   0.656   1.386   5.261
 2976SOL     OW 9826   4.159   1.435   2.600
 2976SOL    HW1 9827   4.189   1.486   2.681
 2976SOL    HW2 9828   4.191   1.340   2.608
 2977SOL     OW 9829   2.997   0.180   4.266
 2977SOL    HW1 9830   3.081   0.125   4.266
 2977SOL    HW2 9831   2.933   0.143   4.334
 2978SOL     OW 9832   4.635   5.068   0.097
 2978SOL    HW1 9833   4.574   5.011   0.152
 2978SOL    HW2 9834   4.609   5.060   0.001
 2979SOL     OW 9835   3.251   0.309   3.089
 2979SOL    HW1 9836   3.292   0.397   3.066
 2979SOL    HW2 9837   3.248   0.299   3.189
 2980SOL     OW 9838   0.522   6.647   4.277
 2980SOL    HW1 9839   0.582   6.719   4.311
 2980SOL    HW2 9840   0.540   6.563   4.329
 2981SOL     OW 9841   1.377   0.998   5.607
 2981SOL    HW1 9842   1.399   1.042   5.694
 2981SOL    HW2 9843   1.295   0.942   5.617
 2982SOL     OW 9844   4.445   6.219   2.598
 2982SOL    HW1 9845   4.486   6.134   2.630
 2982SOL    HW2 9846   4.469   6.293   2.661
 2983SOL     OW 9847   0.461   0.815   4.247
 2983SOL    HW1 9848   0.487   0.892   4.189
 2983SOL    HW2 9849   0.370   0.783   4.222
 2984SOL     OW 9850   6.582   5.399   1.423
 2984SOL    HW1 9851   6.548   5.489   1.450
 2984SOL    HW2 9852   6.555   5.332   1.492
 2985SOL     OW 9853   0.705   2.243   4.267
 2985SOL    HW1 9854   0.765   2.278   4.338
 2985SOL    HW2 9855   0.730   2.149   4.245
 2986SOL     OW 9856   2.073   3.723   5.378
 2986SOL    HW1 9857   2.158   3.718   5.326
 2986SOL    HW2 9858   2.086   3.779   5.460
 2987SOL     OW 9859   4.219   1.374   4.250
 2987SOL    HW1 9860   4.155   1.322   4.307
 2987SOL    HW2 9861   4.313   1.354   4.278
 2988SOL     OW 9862   1.394   0.366   1.777
 2988SOL    HW1 9863   1.327   0.293   1.762
 2988SOL    HW2 9864   1.389   0.431   1.701
 2989SOL     OW 9865   6.799   4.595   1.142
 2989SOL    HW1 9866   6.771   4.602   1.046
 2989SOL    HW2 9867   6.728   4.547   1.193
 2990SOL     OW 9868   3.111   0.708   2.339
 2990SOL    HW1 9869   3.153   0.765   2.268
 2990SOL    HW2 9870   3.022   0.746   2.364
 2991SOL     OW 9871   0.116   3.954   0.248
 2991SOL    HW1 9872   0.140   4.016   0.322
 2991SOL    HW2 9873   0.087   3.866   0.285
 2992SOL     OW 9874   3.279   5.768   6.496
 2992SOL    HW1 9875   3.258   5.689   6.438
 2992SOL    HW2 9876   3.246   5.852   6.452
 2993SOL     OW 9877   2.086   4.603   1.699
 2993SOL    HW1 9878   2.012   4.554   1.745
 2993SOL    HW2 9879   2.056   4.697   1.680
 2994SOL     OW 9880   4.818   0.691   6.813
 2994SOL    HW1 9881   4.902   0.719   6.767
 2994SOL    HW2 9882   4.840   0.660   6.906
 2995SOL     OW 9883   1.008   2.177   0.189
 2995SOL    HW1 9884   0.955   2.138   0.265
 2995SOL    HW2 9885   1.064   2.253   0.223
 2996SOL     OW 9886   2.700   5.017   5.483
 2996SOL    HW1 9887   2.783   4.970   5.513
 2996SOL    HW2 9888   2.622   4.955   5.493
 2997SOL     OW 9889   5.324   6.017   1.848
 2997SOL    HW1 9890   5.341   6.067   1.933
 2997SOL    HW2 9891   5.334   6.079   1.771
 2998SOL     OW 9892   5.711   6.225   3.918
 2998SOL    HW1 9893   5.688   6.191   3.827
 2998SOL    HW2 9894   5.810   6.233   3.927
 2999SOL     OW 9895   3.667   6.380   3.564
 2999SOL    HW1 9896   3.570   6.403   3.569
 2999SOL    HW2 9897   3.720   6.462   3.541
 3000SOL     OW 9898   1.558   3.305   5.259
 3000SOL    HW1 9899   1.503   3.283   5.339
 3000SOL    HW2 9900   1.655   3.302   5.283
 3001SOL     OW 9901   4.949   0.745   5.638
 3001SOL    HW1 9902   4.879   0.815   5.649
 3001SOL    HW2 9903   4.989   0.724   5.727
 3002SOL     OW 9904   4.227   0.147   5.425
 3002SOL    HW1 9905   4.264   0.168   5.516
 3002SOL    HW2 9906   4.164   0.070   5.433
 3003SOL     OW 9907   2.575   6.340   5.828
 3003SOL    HW1 9908   2.513   6.397   5.774
 3003SOL    HW2 9909   2.553   6.244   5.815
 3004SOL     OW 9910   5.978   3.945   3.573
 3004SOL    HW1 9911   6.027   4.015   3.624
 3004SOL    HW2 9912   6.008   3.946   3.478
 3005SOL     OW 9913   3.487   2.850   1.388
 3005SOL    HW1 9914   3.476   2.751   1.399
 3005SOL    HW2 9915   3.562   2.882   1.445
 3006SOL     OW 9916   5.728   1.286   0.779
 3006SOL    HW1 9917   5.772   1.224   0.845
 3006SOL    HW2 9918   5.638   1.249   0.755
 3007SOL     OW 9919   5.784   4.779   2.863
 3007SOL    HW1 9920   5.866   4.727   2.885
 3007SOL    HW2 9921   5.738   4.738   2.785
 3008SOL     OW 9922   3.373   6.852   5.945
 3008SOL    HW1 9923   3.352   6.948   5.959
 3008SOL    HW2 9924   3.352   6.826   5.851
 3009SOL     OW 9925   1.245   0.563   2.198
 3009SOL    HW1 9926   1.316   0.600   2.258
 3009SOL    HW2 9927   1.275   0.568   2.103
 3010SOL     OW 9928   4.258   5.413   3.116
 3010SOL    HW1 9929   4.338   5.360   3.144
 3010SOL    HW2 9930   4.257   5.421   3.016
 3011SOL     OW 9931   6.228   0.686   6.779
 3011SOL    HW1 9932   6.188   0.758   6.722
 3011SOL    HW2 9933   6.156   0.644   6.834
 3012SOL     OW 9934   6.926   3.734   3.798
 3012SOL    HW1 9935   6.999   3.789   3.838
 3012SOL    HW2 9936   6.877   3.686   3.871
 3013SOL     OW 9937   6.136   5.924   2.169
 3013SOL    HW1 9938   6.225   5.893   2.202
 3013SOL    HW2 9939   6.098   5.991   2.233
 3014SOL     OW 9940   4.978   1.717   4.159
 3014SOL    HW1 9941   4.896   1.771   4.179
 3014SOL    HW2 9942   5.033   1.708   4.242
 3015SOL     OW 9943   2.258   2.177   0.785
 3015SOL    HW1 9944   2.304   2.180   0.874
 3015SOL    HW2 9945   2.324   2.196   0.712
 3016SOL     OW 9946   3.575   6.071   4.089
 3016SOL    HW1 9947   3.527   5.984   4.101
 3016SOL    HW2 9948   3.578   6.119   4.177
 3017SOL     OW 9949   1.278   5.758   1.614
 3017SOL    HW1 9950   1.236   5.727   1.699
 3017SOL    HW2 9951   1.374   5.729   1.611
 3018SOL     OW 9952   3.927   0.463   6.532
 3018SOL    HW1 9953   4.026   0.477   6.520
 3018SOL    HW2 9954   3.901   0.374   6.495
 3019SOL     OW 9955   3.265   6.454   1.246
 3019SOL    HW1 9956   3.338   6.387   1.247
 3019SOL    HW2 9957   3.263   6.502   1.158
 3020SOL     OW 9958   3.403   3.597   1.995
 3020SOL    HW1 9959   3.417   3.616   1.898
 3020SOL    HW2 9960   3.342   3.667   2.034
 3021SOL     OW 9961   1.671   1.983   6.666
 3021SOL    HW1 9962   1.587   2.025   6.701
 3021SOL    HW2 9963   1.733   1.967   6.743
 3022SOL     OW 9964   3.863   6.340   3.132
 3022SOL    HW1 9965   3.839   6.346   3.035
 3022SOL    HW2 9966   3.824   6.417   3.181
 3023SOL     OW 9967   3.801   5.636   3.593
 3023SOL    HW1 9968   3.768   5.557   3.645
 3023SOL    HW2 9969   3.727   5.701   3.581
 3024SOL     OW 9970   3.256   0.904   6.625
 3024SOL    HW1 9971   3.254   0.815   6.579
 3024SOL    HW2 9972   3.163   0.937   6.638
 3025SOL     OW 9973   3.094   2.956   0.538
 3025SOL    HW1 9974   3.187   2.969   0.573
 3025SOL    HW2 9975   3.046   2.890   0.596
 3026SOL     OW 9976   1.237   3.368   1.343
 3026SOL    HW1 9977   1.211   3.279   1.306
 3026SOL    HW2 9978   1.261   3.430   1.267
 3027SOL     OW 9979   3.798   1.181   1.914
 3027SOL    HW1 9980   3.823   1.105   1.854
 3027SOL    HW2 9981   3.728   1.237   1.870
 3028SOL     OW 9982   1.454   4.992   6.765
 3028SOL    HW1 9983   1.464   4.896   6.741
 3028SOL    HW2 9984   1.544   5.032   6.782
 3029SOL     OW 9985   5.896   5.089   5.016
 3029SOL    HW1 9986   5.939   5.083   4.926
 3029SOL    HW2 9987   5.799   5.066   5.009
 3030SOL     OW 9988   0.867   0.811   5.805
 3030SOL    HW1 9989   0.785   0.826   5.860
 3030SOL    HW2 9990   0.847   0.829   5.709
 3031SOL     OW 9991   0.546   3.688   0.070
 3031SOL    HW1 9992   0.504   3.602   0.099
 3031SOL    HW2 9993   0.487   3.733   0.003
 3032SOL     OW 9994   5.024   0.390   6.584
 3032SOL    HW1 9995   5.012   0.406   6.486
 3032SOL    HW2 9996   5.028   0.291   6.601
 3033SOL     OW 9997   0.416   3.926   6.933
 3033SOL    HW1 9998   0.340   3.892   6.878
 3033SOL    HW2 9999   0.488   3.962   6.873
 3034SOL     OW10000   2.647   6.401   3.646
 3034SOL    HW110001   2.550   6.379   3.652
 3034SOL    HW210002   2.678   6.438   3.734
 3035SOL     OW10003   6.456   1.006   7.020
 3035SOL    HW110004   6.470   0.912   6.988
 3035SOL    HW210005   6.525   1.066   6.979
 3036SOL     OW10006   1.490   3.436   0.067
 3036SOL    HW110007   1.543   3.404   0.145
 3036SOL    HW210008   1.515   3.531   0.046
 3037SOL     OW10009   6.662   6.050   4.855
 3037SOL    HW110010   6.564   6.036   4.873
 3037SOL    HW210011   6.684   6.146   4.867
 3038SOL     OW10012   5.405   0.347   6.340
 3038SOL    HW110013   5.412   0.326   6.242
 3038SOL    HW210014   5.320   0.397   6.357
 3039SOL     OW10015   0.111   4.750   2.519
 3039SOL    HW110016   0.103   4.668   2.462
 3039SOL    HW210017   0.199   4.748   2.566
 3040SOL     OW10018   3.507   3.645   6.370
 3040SOL    HW110019   3.534   3.578   6.301
 3040SOL    HW210020   3.554   3.731   6.354
 3041SOL     OW10021   1.931   2.288   5.302
 3041SOL    HW110022   1.886   2.376   5.288
 3041SOL    HW210023   1.982   2.290   5.389
 3042SOL     OW10024   5.203   0.095   2.025
 3042SOL    HW110025   5.156   0.035   1.961
 3042SOL    HW210026   5.173   0.189   2.010
 3043SOL     OW10027   0.855   5.436   0.474
 3043SOL    HW110028   0.904   5.358   0.514
 3043SOL    HW210029   0.837   5.418   0.377
 3044SOL     OW10030   3.228   4.492   5.495
 3044SOL    HW110031   3.234   4.394   5.476
 3044SOL    HW210032   3.314   4.536   5.472
 3045SOL     OW10033   4.869   1.369   2.553
 3045SOL    HW110034   4.790   1.417   2.590
 3045SOL    HW210035   4.910   1.424   2.480
 3046SOL     OW10036   1.447   3.247   5.541
 3046SOL    HW110037   1.486   3.156   5.556
 3046SOL    HW210038   1.428   3.290   5.629
 3047SOL     OW10039   5.901   5.163   2.115
 3047SOL    HW110040   5.802   5.150   2.119
 3047SOL    HW210041   5.933   5.202   2.201
 3048SOL     OW10042   4.209   3.592   1.540
 3048SOL    HW110043   4.307   3.612   1.538
 3048SOL    HW210044   4.157   3.677   1.530
 3049SOL     OW10045   0.954   0.212   1.907
 3049SOL    HW110046   0.949   0.311   1.898
 3049SOL    HW210047   0.879   0.170   1.857
 3050SOL     OW10048   3.130   6.404   3.739
 3050SOL    HW110049   3.096   6.489   3.779
 3050SOL    HW210050   3.148   6.417   3.642
 3051SOL     OW10051   2.723   5.450   6.437
 3051SOL    HW110052   2.795   5.472   6.504
 3051SOL    HW210053   2.634   5.453   6.483
 3052SOL     OW10054   3.792   0.578   2.306
 3052SOL    HW110055   3.786   0.553   2.209
 3052SOL    HW210056   3.888   0.588   2.332
 3053SOL     OW10057   5.958   0.706   0.462
 3053SOL    HW110058   5.870   0.660   0.452
 3053SOL    HW210059   5.944   0.796   0.504
 3054SOL     OW10060   6.912   3.516   0.210
 3054SOL    HW110061   6.931   3.486   0.116
 3054SOL    HW210062   6.928   3.440   0.273
 3055SOL     OW10063   5.857   0.094   3.619
 3055SOL    HW110064   5.829   0.168   3.681
 3055SOL    HW210065   5.805   0.100   3.534
 3056SOL     OW10066   6.932   0.145   0.128
 3056SOL    HW110067   6.989   0.125   0.048
 3056SOL    HW210068   6.989   0.146   0.210
 3057SOL     OW10069   5.590   4.692   2.405
 3057SOL    HW110070   5.511   4.744   2.372
 3057SOL    HW210071   5.619   4.729   2.493
 3058SOL     OW10072   6.291   5.768   1.038
 3058SOL    HW110073   6.314   5.852   1.087
 3058SOL    HW210074   6.205   5.781   0.989
 3059SOL     OW10075   0.701   2.720   4.891
 3059SOL    HW110076   0.611   2.761   4.877
 3059SOL    HW210077   0.764   2.751   4.819
 3060SOL     OW10078   0.421   6.908   0.950
 3060SOL    HW110079   0.488   6.857   0.896
 3060SOL    HW210080   0.452   6.912   1.046
 3061SOL     OW10081   0.101   1.051   4.866
 3061SOL    HW110082   0.181   1.062   4.808
 3061SOL    HW210083   0.119   1.092   4.956
 3062SOL     OW10084   2.769   6.439   1.721
 3062SOL    HW110085   2.767   6.483   1.810
 3062SOL    HW210086   2.813   6.499   1.655
 3063SOL     OW10087   2.130   4.603   2.026
 3063SOL    HW110088   2.101   4.547   2.104
 3063SOL    HW210089   2.152   4.543   1.949
 3064SOL     OW10090   6.208   3.622   3.788
 3064SOL    HW110091   6.199   3.689   3.862
 3064SOL    HW210092   6.269   3.548   3.818
 3065SOL     OW10093   1.813   0.653   6.565
 3065SOL    HW110094   1.769   0.693   6.646
 3065SOL    HW210095   1.752   0.662   6.487
 3066SOL     OW10096   5.913   4.497   0.602
 3066SOL    HW110097   5.850   4.515   0.679
 3066SOL    HW210098   5.868   4.438   0.536
 3067SOL     OW10099   4.379   0.379   4.768
 3067SOL    HW110100   4.295   0.422   4.802
 3067SOL    HW210101   4.452   0.448   4.763
 3068SOL     OW10102   6.119   6.106   0.903
 3068SOL    HW110103   6.169   6.148   0.828
 3068SOL    HW210104   6.183   6.064   0.967
 3069SOL     OW10105   0.472   5.448   1.855
 3069SOL    HW110106   0.535   5.463   1.779
 3069SOL    HW210107   0.491   5.514   1.928
 3070SOL     OW10108   2.142   1.250   2.820
 3070SOL    HW110109   2.205   1.227   2.894
 3070SOL    HW210110   2.185   1.315   2.758
 3071SOL     OW10111   5.829   0.397   4.090
 3071SOL    HW110112   5.859   0.428   4.000
 3071SOL    HW210113   5.885   0.320   4.119
 3072SOL     OW10114   0.400   6.437   1.887
 3072SOL    HW110115   0.344   6.478   1.958
 3072SOL    HW210116   0.461   6.506   1.848
 3073SOL     OW10117   0.757   2.765   5.158
 3073SOL    HW110118   0.815   2.846   5.167
 3073SOL    HW210119   0.744   2.743   5.061
 3074SOL     OW10120   4.783   3.029   0.580
 3074SOL    HW110121   4.811   3.106   0.636
 3074SOL    HW210122   4.837   2.948   0.605
 3075SOL     OW10123   1.951   6.373   1.659
 3075SOL    HW110124   1.889   6.295   1.659
 3075SOL    HW210125   1.980   6.393   1.565
 3076SOL     OW10126   6.591   0.585   4.924
 3076SOL    HW110127   6.595   0.662   4.860
 3076SOL    HW210128   6.592   0.620   5.018
 3077SOL     OW10129   6.129   4.636   4.139
 3077SOL    HW110130   6.055   4.640   4.072
 3077SOL    HW210131   6.094   4.603   4.226
 3078SOL     OW10132   2.149   3.734   2.104
 3078SOL    HW110133   2.049   3.727   2.100
 3078SOL    HW210134   2.189   3.670   2.039
 3079SOL     OW10135   0.851   2.693   4.575
 3079SOL    HW110136   0.753   2.711   4.583
 3079SOL    HW210137   0.868   2.634   4.496
 3080SOL     OW10138   6.227   4.726   1.244
 3080SOL    HW110139   6.237   4.630   1.215
 3080SOL    HW210140   6.161   4.731   1.320
 3081SOL     OW10141   0.520   4.031   6.056
 3081SOL    HW110142   0.457   4.081   5.996
 3081SOL    HW210143   0.480   4.023   6.147
 3082SOL     OW10144   3.721   6.949   3.117
 3082SOL    HW110145   3.742   6.983   3.025
 3082SOL    HW210146   3.625   6.968   3.138
 3083SOL     OW10147   3.323   0.584   2.164
 3083SOL    HW110148   3.413   0.627   2.172
 3083SOL    HW210149   3.265   0.614   2.240
 3084SOL     OW10150   4.521   4.921   3.938
 3084SOL    HW110151   4.591   4.898   4.005
 3084SOL    HW210152   4.478   5.009   3.962
 3085SOL     OW10153   6.667   5.163   2.990
 3085SOL    HW110154   6.753   5.131   3.031
 3085SOL    HW210155   6.622   5.086   2.944
 3086SOL     OW10156   4.440   0.817   2.144
 3086SOL    HW110157   4.440   0.884   2.070
 3086SOL    HW210158   4.349   0.812   2.185
 3087SOL     OW10159   6.277   3.706   3.268
 3087SOL    HW110160   6.376   3.692   3.266
 3087SOL    HW210161   6.231   3.627   3.228
 3088SOL     OW10162   2.502   4.732   5.547
 3088SOL    HW110163   2.512   4.633   5.544
 3088SOL    HW210164   2.545   4.768   5.630
 3089SOL     OW10165   1.074   2.564   6.977
 3089SOL    HW110166   1.167   2.532   6.997
 3089SOL    HW210167   1.018   2.487   6.948
 3090SOL     OW10168   1.647   1.901   1.812
 3090SOL    HW110169   1.658   1.977   1.748
 3090SOL    HW210170   1.571   1.843   1.783
 3091SOL     OW10171   3.172   0.300   0.330
 3091SOL    HW110172   3.128   0.306   0.420
 3091SOL    HW210173   3.236   0.376   0.318
 3092SOL     OW10174   5.688   6.842   0.215
 3092SOL    HW110175   5.664   6.800   0.128
 3092SOL    HW210176   5.782   6.817   0.240
 3093SOL     OW10177   6.122   5.600   5.377
 3093SOL    HW110178   6.060   5.576   5.452
 3093SOL    HW210179   6.079   5.578   5.289
 3094SOL     OW10180   2.856   5.649   5.097
 3094SOL    HW110181   2.938   5.677   5.147
 3094SOL    HW210182   2.845   5.550   5.104
 3095SOL     OW10183   2.218   4.378   4.391
 3095SOL    HW110184   2.237   4.306   4.458
 3095SOL    HW210185   2.174   4.339   4.311
 3096SOL     OW10186   6.330   0.230   4.593
 3096SOL    HW110187   6.231   0.224   4.577
 3096SOL    HW210188   6.349   0.305   4.655
 3097SOL     OW10189   0.542   3.009   0.966
 3097SOL    HW110190   0.592   2.923   0.972
 3097SOL    HW210191   0.463   3.006   1.027
 3098SOL     OW10192   2.314   3.649   1.031
 3098SOL    HW110193   2.399   3.703   1.026
 3098SOL    HW210194   2.272   3.663   1.120
 3099SOL     OW10195   0.231   6.245   4.877
 3099SOL    HW110196   0.211   6.155   4.915
 3099SOL    HW210197   0.327   6.249   4.850
 3100SOL     OW10198   6.792   6.659   5.311
 3100SOL    HW110199   6.718   6.674   5.377
 3100SOL    HW210200   6.827   6.566   5.321
 3101SOL     OW10201   4.755   6.062   5.580
 3101SOL    HW110202   4.675   6.098   5.628
 3101SOL    HW210203   4.728   5.983   5.524
 3102SOL     OW10204   1.550   4.118   1.349
 3102SOL    HW110205   1.515   4.036   1.394
 3102SOL    HW210206   1.477   4.160   1.295
 3103SOL     OW10207   3.679   2.542   1.026
 3103SOL    HW110208   3.703   2.599   1.105
 3103SOL    HW210209   3.744   2.467   1.019
 3104SOL     OW10210   5.172   6.392   4.028
 3104SOL    HW110211   5.159   6.308   3.976
 3104SOL    HW210212   5.136   6.379   4.121
 3105SOL     OW10213   5.872   5.772   3.540
 3105SOL    HW110214   5.811   5.851   3.536
 3105SOL    HW210215   5.880   5.732   3.448
 3106SOL     OW10216   6.282   2.632   2.768
 3106SOL    HW110217   6.324   2.627   2.677
 3106SOL    HW210218   6.200   2.575   2.769
 3107SOL     OW10219   3.393   0.664   3.985
 3107SOL    HW110220   3.389   0.583   4.043
 3107SOL    HW210221   3.300   0.696   3.965
 3108SOL     OW10222   2.393   0.439   4.363
 3108SOL    HW110223   2.367   0.530   4.396
 3108SOL    HW210224   2.382   0.435   4.263
 3109SOL     OW10225   5.384   5.922   2.652
 3109SOL    HW110226   5.377   5.924   2.751
 3109SOL    HW210227   5.466   5.870   2.625
 3110SOL     OW10228   0.024   3.053   3.271
 3110SOL    HW110229   0.084   3.107   3.331
 3110SOL    HW210230   6.952   3.069   3.297
 3111SOL     OW10231   6.191   5.149   4.049
 3111SOL    HW110232   6.281   5.175   4.085
 3111SOL    HW210233   6.202   5.111   3.957
 3112SOL     OW10234   4.671   3.301   6.163
 3112SOL    HW110235   4.580   3.342   6.172
 3112SOL    HW210236   4.686   3.275   6.067
 3113SOL     OW10237   2.456   6.889   3.933
 3113SOL    HW110238   2.419   6.877   4.025
 3113SOL    HW210239   2.398   6.953   3.882
 3114SOL     OW10240   5.164   4.128   6.523
 3114SOL    HW110241   5.227   4.056   6.494
 3114SOL    HW210242   5.208   4.185   6.593
 3115SOL     OW10243   3.362   4.003   0.721
 3115SOL    HW110244   3.328   3.914   0.691
 3115SOL    HW210245   3.310   4.076   0.677
 3116SOL     OW10246   6.476   2.558   6.227
 3116SOL    HW110247   6.446   2.645   6.187
 3116SOL    HW210248   6.549   2.576   6.294
 3117SOL     OW10249   4.333   3.614   5.685
 3117SOL    HW110250   4.422   3.604   5.641
 3117SOL    HW210251   4.341   3.595   5.783
 3118SOL     OW10252   6.330   5.082   0.074
 3118SOL    HW110253   6.416   5.129   0.054
 3118SOL    HW210254   6.254   5.135   0.037
 3119SOL     OW10255   1.834   4.338   5.330
 3119SOL    HW110256   1.900   4.297   5.266
 3119SOL    HW210257   1.818   4.275   5.406
 3120SOL     OW10258   1.972   5.567   4.561
 3120SOL    HW110259   1.910   5.579   4.639
 3120SOL    HW210260   2.015   5.477   4.566
 3121SOL     OW10261   0.044   1.928   2.253
 3121SOL    HW110262   0.065   2.024   2.235
 3121SOL    HW210263   0.102   1.870   2.196
 3122SOL     OW10264   2.703   5.626   6.237
 3122SOL    HW110265   2.687   5.540   6.286
 3122SOL    HW210266   2.647   5.698   6.277
 3123SOL     OW10267   3.381   6.495   3.942
 3123SOL    HW110268   3.327   6.569   3.901
 3123SOL    HW210269   3.367   6.411   3.889
 3124SOL     OW10270   4.870   0.550   5.226
 3124SOL    HW110271   4.928   0.539   5.306
 3124SOL    HW210272   4.800   0.619   5.245
 3125SOL     OW10273   6.611   1.899   5.505
 3125SOL    HW110274   6.552   1.885   5.426
 3125SOL    HW210275   6.555   1.906   5.588
 3126SOL     OW10276   5.016   4.774   6.192
 3126SOL    HW110277   5.033   4.717   6.112
 3126SOL    HW210278   5.004   4.869   6.163
 3127SOL     OW10279   1.465   1.559   3.867
 3127SOL    HW110280   1.471   1.480   3.929
 3127SOL    HW210281   1.548   1.614   3.875
 3128SOL     OW10282   1.873   0.760   0.674
 3128SOL    HW110283   1.867   0.857   0.696
 3128SOL    HW210284   1.955   0.742   0.619
 3129SOL     OW10285   0.065   4.426   5.061
 3129SOL    HW110286   0.005   4.417   5.140
 3129SOL    HW210287   0.066   4.340   5.009
 3130SOL     OW10288   2.394   4.812   2.534
 3130SOL    HW110289   2.391   4.715   2.509
 3130SOL    HW210290   2.328   4.829   2.607
 3131SOL     OW10291   0.529   3.414   2.708
 3131SOL    HW110292   0.436   3.430   2.741
 3131SOL    HW210293   0.534   3.325   2.663
 3132SOL     OW10294   5.366   5.706   5.725
 3132SOL    HW110295   5.273   5.738   5.706
 3132SOL    HW210296   5.432   5.777   5.702
 3133SOL     OW10297   2.211   1.841   3.854
 3133SOL    HW110298   2.211   1.852   3.953
 3133SOL    HW210299   2.176   1.751   3.830
 3134SOL     OW10300   4.962   3.100   1.580
 3134SOL    HW110301   5.059   3.100   1.554
 3134SOL    HW210302   4.906   3.104   1.497
 3135SOL     OW10303   4.297   1.847   3.845
 3135SOL    HW110304   4.341   1.936   3.858
 3135SOL    HW210305   4.337   1.781   3.908
 3136SOL     OW10306   5.925   5.677   5.983
 3136SOL    HW110307   5.991   5.613   5.945
 3136SOL    HW210308   5.921   5.666   6.082
 3137SOL     OW10309   5.044   2.277   4.070
 3137SOL    HW110310   5.065   2.341   3.996
 3137SOL    HW210311   4.990   2.201   4.035
 3138SOL     OW10312   6.035   1.697   4.294
 3138SOL    HW110313   6.016   1.795   4.289
 3138SOL    HW210314   6.024   1.667   4.389
 3139SOL     OW10315   4.967   5.909   5.301
 3139SOL    HW110316   4.954   5.822   5.254
 3139SOL    HW210317   4.882   5.936   5.346
 3140SOL     OW10318   6.733   6.566   6.632
 3140SOL    HW110319   6.826   6.561   6.596
 3140SOL    HW210320   6.702   6.661   6.633
 3141SOL     OW10321   0.859   6.265   0.148
 3141SOL    HW110322   0.905   6.279   0.236
 3141SOL    HW210323   0.912   6.306   0.075
 3142SOL     OW10324   4.871   6.358   6.935
 3142SOL    HW110325   4.872   6.333   0.009
 3142SOL    HW210326   4.881   6.276   6.880
 3143SOL     OW10327   0.008   2.106   6.533
 3143SOL    HW110328   0.042   2.066   6.618
 3143SOL    HW210329   0.084   2.121   6.470
 3144SOL     OW10330   1.956   3.906   0.340
 3144SOL    HW110331   2.038   3.868   0.296
 3144SOL    HW210332   1.876   3.888   0.283
 3145SOL     OW10333   2.822   5.487   2.838
 3145SOL    HW110334   2.873   5.450   2.916
 3145SOL    HW210335   2.776   5.412   2.790
 3146SOL     OW10336   1.507   0.226   3.413
 3146SOL    HW110337   1.581   0.231   3.345
 3146SOL    HW210338   1.493   0.131   3.440
 3147SOL     OW10339   4.437   4.348   0.570
 3147SOL    HW110340   4.480   4.426   0.524
 3147SOL    HW210341   4.341   4.369   0.588
 3148SOL     OW10342   3.971   5.179   3.822
 3148SOL    HW110343   3.903   5.220   3.882
 3148SOL    HW210344   3.930   5.160   3.733
 3149SOL     OW10345   3.048   0.354   5.677
 3149SOL    HW110346   3.044   0.355   5.577
 3149SOL    HW210347   3.045   0.447   5.712
 3150SOL     OW10348   5.246   0.070   4.980
 3150SOL    HW110349   5.280   0.096   4.890
 3150SOL    HW210350   5.179   0.138   5.011
 3151SOL     OW10351   4.900   1.538   6.506
 3151SOL    HW110352   4.893   1.511   6.410
 3151SOL    HW210353   4.994   1.525   6.538
 3152SOL     OW10354   0.334   5.579   1.306
 3152SOL    HW110355   0.313   5.584   1.404
 3152SOL    HW210356   0.408   5.643   1.285
 3153SOL     OW10357   6.320   4.072   1.992
 3153SOL    HW110358   6.395   4.006   1.992
 3153SOL    HW210359   6.237   4.027   2.024
 3154SOL     OW10360   6.323   2.454   5.918
 3154SOL    HW110361   6.418   2.434   5.942
 3154SOL    HW210362   6.272   2.368   5.911
 3155SOL     OW10363   6.178   5.121   0.682
 3155SOL    HW110364   6.202   5.171   0.599
 3155SOL    HW210365   6.140   5.032   0.658
 3156SOL     OW10366   3.605   3.715   3.433
 3156SOL    HW110367   3.511   3.749   3.429
 3156SOL    HW210368   3.643   3.733   3.524
 3157SOL     OW10369   2.167   3.692   4.797
 3157SOL    HW110370   2.067   3.694   4.806
 3157SOL    HW210371   2.193   3.630   4.723
 3158SOL     OW10372   4.981   6.289   1.726
 3158SOL    HW110373   4.886   6.317   1.717
 3158SOL    HW210374   5.034   6.364   1.767
 3159SOL     OW10375   4.731   5.897   6.891
 3159SOL    HW110376   4.676   5.937   6.817
 3159SOL    HW210377   4.689   5.918   6.979
 3160SOL     OW10378   4.999   3.914   6.052
 3160SOL    HW110379   4.997   3.829   5.999
 3160SOL    HW210380   4.907   3.937   6.083
 3161SOL     OW10381   1.728   0.583   2.602
 3161SOL    HW110382   1.752   0.679   2.610
 3161SOL    HW210383   1.751   0.550   2.510
 3162SOL     OW10384   0.395   5.149   6.503
 3162SOL    HW110385   0.364   5.243   6.515
 3162SOL    HW210386   0.319   5.092   6.473
 3163SOL     OW10387   3.756   3.029   6.744
 3163SOL    HW110388   3.682   3.063   6.802
 3163SOL    HW210389   3.740   2.932   6.723
 3164SOL     OW10390   5.193   4.191   0.527
 3164SOL    HW110391   5.099   4.211   0.499
 3164SOL    HW210392   5.244   4.156   0.448
 3165SOL     OW10393   0.697   0.523   2.009
 3165SOL    HW110394   0.612   0.500   1.962
 3165SOL    HW210395   0.681   0.525   2.108
 3166SOL     OW10396   4.450   3.486   6.196
 3166SOL    HW110397   4.459   3.581   6.226
 3166SOL    HW210398   4.379   3.441   6.250
 3167SOL     OW10399   0.264   4.067   1.401
 3167SOL    HW110400   0.287   3.995   1.336
 3167SOL    HW210401   0.313   4.052   1.487
 3168SOL     OW10402   5.510   2.757   0.540
 3168SOL    HW110403   5.488   2.726   0.448
 3168SOL    HW210404   5.608   2.746   0.557
 3169SOL     OW10405   1.122   2.327   5.236
 3169SOL    HW110406   1.215   2.295   5.253
 3169SOL    HW210407   1.069   2.254   5.191
 3170SOL     OW10408   4.324   1.011   6.490
 3170SOL    HW110409   4.279   1.060   6.565
 3170SOL    HW210410   4.263   1.010   6.410
 3171SOL     OW10411   6.387   6.810   2.183
 3171SOL    HW110412   6.288   6.805   2.171
 3171SOL    HW210413   6.430   6.733   2.137
 3172SOL     OW10414   6.185   6.880   5.406
 3172SOL    HW110415   6.201   6.809   5.474
 3172SOL    HW210416   6.162   6.837   5.318
 3173SOL     OW10417   2.438   0.208   1.969
 3173SOL    HW110418   2.351   0.178   1.930
 3173SOL    HW210419   2.506   0.135   1.959
 3174SOL     OW10420   2.880   2.696   6.233
 3174SOL    HW110421   2.948   2.732   6.168
 3174SOL    HW210422   2.830   2.771   6.275
 3175SOL     OW10423   1.206   6.467   0.536
 3175SOL    HW110424   1.269   6.394   0.508
 3175SOL    HW210425   1.122   6.460   0.483
 3176SOL     OW10426   1.520   3.676   6.955
 3176SOL    HW110427   1.608   3.723   6.955
 3176SOL    HW210428   1.448   3.740   6.984
 3177SOL     OW10429   5.585   5.407   5.608
 3177SOL    HW110430   5.576   5.447   5.699
 3177SOL    HW210431   5.673   5.360   5.600
 3178SOL     OW10432   0.371   4.411   1.799
 3178SOL    HW110433   0.431   4.356   1.741
 3178SOL    HW210434   0.396   4.507   1.791
 3179SOL     OW10435   1.480   1.909   2.298
 3179SOL    HW110436   1.571   1.949   2.307
 3179SOL    HW210437   1.489   1.811   2.278
 3180SOL     OW10438   5.785   0.192   6.052
 3180SOL    HW110439   5.789   0.167   5.956
 3180SOL    HW210440   5.750   0.114   6.105
 3181SOL     OW10441   0.936   0.567   3.645
 3181SOL    HW110442   1.036   0.566   3.648
 3181SOL    HW210443   0.906   0.545   3.552
 3182SOL     OW10444   0.569   5.657   5.731
 3182SOL    HW110445   0.647   5.614   5.686
 3182SOL    HW210446   0.503   5.686   5.662
 3183SOL     OW10447   4.457   4.592   1.446
 3183SOL    HW110448   4.516   4.614   1.524
 3183SOL    HW210449   4.405   4.673   1.420
 3184SOL     OW10450   2.540   1.964   2.347
 3184SOL    HW110451   2.565   1.898   2.277
 3184SOL    HW210452   2.521   2.053   2.303
 3185SOL     OW10453   6.752   0.032   5.425
 3185SOL    HW110454   6.794   0.003   5.511
 3185SOL    HW210455   6.777   6.992   5.353
 3186SOL     OW10456   3.436   1.246   2.835
 3186SOL    HW110457   3.466   1.338   2.810
 3186SOL    HW210458   3.486   1.215   2.915
 3187SOL     OW10459   3.515   4.915   0.158
 3187SOL    HW110460   3.417   4.933   0.151
 3187SOL    HW210461   3.536   4.875   0.247
 3188SOL     OW10462   3.994   5.825   3.597
 3188SOL    HW110463   3.918   5.761   3.605
 3188SOL    HW210464   4.079   5.775   3.581
 3189SOL     OW10465   1.868   6.903   3.345
 3189SOL    HW110466   1.853   6.947   3.257
 3189SOL    HW210467   1.920   6.964   3.405
 3190SOL     OW10468   1.843   6.303   2.272
 3190SOL    HW110469   1.923   6.243   2.277
 3190SOL    HW210470   1.872   6.395   2.244
 3191SOL     OW10471   3.871   0.377   0.601
 3191SOL    HW110472   3.780   0.414   0.619
 3191SOL    HW210473   3.937   0.452   0.594
 3192SOL     OW10474   0.159   2.602   2.045
 3192SOL    HW110475   0.176   2.639   1.954
 3192SOL    HW210476   0.217   2.647   2.112
 3193SOL     OW10477   4.352   2.322   5.821
 3193SOL    HW110478   4.373   2.410   5.864
 3193SOL    HW210479   4.290   2.337   5.744
 3194SOL     OW10480   1.295   3.143   6.001
 3194SOL    HW110481   1.208   3.184   6.028
 3194SOL    HW210482   1.293   3.045   6.019
 3195SOL     OW10483   0.772   2.684   3.566
 3195SOL    HW110484   0.735   2.615   3.503
 3195SOL    HW210485   0.698   2.741   3.601
 3196SOL     OW10486   0.146   0.051   4.856
 3196SOL    HW110487   0.239   0.015   4.852
 3196SOL    HW210488   0.131   0.096   4.944
 3197SOL     OW10489   1.151   4.552   3.824
 3197SOL    HW110490   1.186   4.459   3.808
 3197SOL    HW210491   1.226   4.618   3.813
 3198SOL     OW10492   0.551   2.421   5.993
 3198SOL    HW110493   0.540   2.323   6.007
 3198SOL    HW210494   0.558   2.441   5.895
 3199SOL     OW10495   4.554   2.088   2.220
 3199SOL    HW110496   4.588   2.182   2.211
 3199SOL    HW210497   4.588   2.034   2.143
 3200SOL     OW10498   6.524   2.286   0.098
 3200SOL    HW110499   6.547   2.189   0.103
 3200SOL    HW210500   6.438   2.297   0.048
 3201SOL     OW10501   5.179   4.254   3.851
 3201SOL    HW110502   5.131   4.178   3.808
 3201SOL    HW210503   5.144   4.267   3.944
 3202SOL     OW10504   1.747   4.552   2.010
 3202SOL    HW110505   1.690   4.632   2.029
 3202SOL    HW210506   1.781   4.514   2.096
 3203SOL     OW10507   6.548   0.763   0.993
 3203SOL    HW110508   6.472   0.802   1.045
 3203SOL    HW210509   6.633   0.809   1.019
 3204SOL     OW10510   6.796   5.574   1.801
 3204SOL    HW110511   6.876   5.606   1.852
 3204SOL    HW210512   6.826   5.526   1.718
 3205SOL     OW10513   0.644   3.895   4.520
 3205SOL    HW110514   0.635   3.936   4.429
 3205SOL    HW210515   0.735   3.854   4.530
 3206SOL     OW10516   0.940   6.604   6.212
 3206SOL    HW110517   0.883   6.651   6.279
 3206SOL    HW210518   1.002   6.542   6.260
 3207SOL     OW10519   0.327   0.773   4.911
 3207SOL    HW110520   0.268   0.693   4.920
 3207SOL    HW210521   0.345   0.791   4.814
 3208SOL     OW10522   4.979   6.023   4.993
 3208SOL    HW110523   5.069   6.055   5.021
 3208SOL    HW210524   4.933   5.980   5.071
 3209SOL     OW10525   2.439   0.592   4.119
 3209SOL    HW110526   2.521   0.549   4.080
 3209SOL    HW210527   2.466   0.653   4.193
 3210SOL     OW10528   6.411   4.551   2.611
 3210SOL    HW110529   6.477   4.481   2.583
 3210SOL    HW210530   6.460   4.631   2.646
 3211SOL     OW10531   1.930   4.428   1.846
 3211SOL    HW110532   1.864   4.485   1.896
 3211SOL    HW210533   1.903   4.332   1.853
 3212SOL     OW10534   5.755   2.025   6.915
 3212SOL    HW110535   5.677   1.999   6.972
 3212SOL    HW210536   5.821   2.076   6.970
 3213SOL     OW10537   6.000   6.204   2.322
 3213SOL    HW110538   5.905   6.224   2.298
 3213SOL    HW210539   6.006   6.186   2.421
 3214SOL     OW10540   3.842   5.722   6.744
 3214SOL    HW110541   3.866   5.627   6.725
 3214SOL    HW210542   3.861   5.779   6.664
 3215SOL     OW10543   6.012   2.155   6.497
 3215SOL    HW110544   6.026   2.064   6.536
 3215SOL    HW210545   6.033   2.153   6.399
 3216SOL     OW10546   5.838   6.991   3.019
 3216SOL    HW110547   5.859   6.894   3.029
 3216SOL    HW210548   5.855   0.014   3.106
 3217SOL     OW10549   6.768   4.361   2.367
 3217SOL    HW110550   6.863   4.387   2.384
 3217SOL    HW210551   6.716   4.441   2.336
 3218SOL     OW10552   3.647   1.056   3.686
 3218SOL    HW110553   3.553   1.077   3.660
 3218SOL    HW210554   3.648   1.012   3.776
 3219SOL     OW10555   0.181   0.921   3.396
 3219SOL    HW110556   0.147   0.995   3.338
 3219SOL    HW210557   0.108   0.855   3.412
 3220SOL     OW10558   7.011   4.569   5.438
 3220SOL    HW110559   6.969   4.656   5.413
 3220SOL    HW210560   6.981   4.497   5.375
 3221SOL     OW10561   2.932   6.817   3.472
 3221SOL    HW110562   3.013   6.788   3.422
 3221SOL    HW210563   2.878   6.737   3.498
 3222SOL     OW10564   5.805   2.694   3.119
 3222SOL    HW110565   5.717   2.708   3.075
 3222SOL    HW210566   5.822   2.596   3.129
 3223SOL     OW10567   2.111   4.757   6.142
 3223SOL    HW110568   2.132   4.697   6.219
 3223SOL    HW210569   2.157   4.725   6.060
 3224SOL     OW10570   4.225   4.824   0.424
 3224SOL    HW110571   4.312   4.859   0.390
 3224SOL    HW210572   4.178   4.895   0.476
 3225SOL     OW10573   2.281   3.605   0.396
 3225SOL    HW110574   2.270   3.640   0.489
 3225SOL    HW210575   2.376   3.580   0.381
 3226SOL     OW10576   1.350   0.708   3.752
 3226SOL    HW110577   1.284   0.678   3.684
 3226SOL    HW210578   1.426   0.754   3.706
 3227SOL     OW10579   3.567   1.164   5.560
 3227SOL    HW110580   3.518   1.241   5.600
 3227SOL    HW210581   3.523   1.079   5.587
 3228SOL     OW10582   6.039   4.102   4.333
 3228SOL    HW110583   5.947   4.114   4.294
 3228SOL    HW210584   6.079   4.017   4.299
 3229SOL     OW10585   4.205   1.375   5.269
 3229SOL    HW110586   4.240   1.283   5.247
 3229SOL    HW210587   4.108   1.369   5.290
 3230SOL     OW10588   0.969   0.237   3.946
 3230SOL    HW110589   1.050   0.292   3.966
 3230SOL    HW210590   0.889   0.296   3.941
 3231SOL     OW10591   5.692   6.232   0.928
 3231SOL    HW110592   5.741   6.297   0.870
 3231SOL    HW210593   5.749   6.151   0.942
 3232SOL     OW10594   2.811   4.780   4.087
 3232SOL    HW110595   2.849   4.795   3.995
 3232SOL    HW210596   2.737   4.714   4.082
 3233SOL     OW10597   0.508   3.952   1.522
 3233SOL    HW110598   0.563   3.981   1.444
 3233SOL    HW210599   0.556   3.974   1.607
 3234SOL     OW10600   0.492   1.750   6.116
 3234SOL    HW110601   0.453   1.824   6.061
 3234SOL    HW210602   0.481   1.771   6.213
 3235SOL     OW10603   5.435   6.736   2.831
 3235SOL    HW110604   5.491   6.806   2.874
 3235SOL    HW210605   5.476   6.646   2.844
 3236SOL     OW10606   0.342   2.963   2.159
 3236SOL    HW110607   0.353   2.888   2.224
 3236SOL    HW210608   0.299   3.041   2.206
 3237SOL     OW10609   3.002   0.176   4.673
 3237SOL    HW110610   3.086   0.215   4.635
 3237SOL    HW210611   2.947   0.137   4.598
 3238SOL     OW10612   0.277   6.033   6.043
 3238SOL    HW110613   0.364   6.082   6.045
 3238SOL    HW210614   0.244   6.028   5.948
 3239SOL     OW10615   6.324   0.093   5.364
 3239SOL    HW110616   6.344   0.086   5.266
 3239SOL    HW210617   6.271   0.013   5.392
 3240SOL     OW10618   1.661   0.396   4.476
 3240SOL    HW110619   1.618   0.470   4.425
 3240SOL    HW210620   1.597   0.320   4.486
 3241SOL     OW10621   5.083   0.788   3.618
 3241SOL    HW110622   5.152   0.732   3.665
 3241SOL    HW210623   5.124   0.875   3.590
 3242SOL     OW10624   3.810   6.686   0.019
 3242SOL    HW110625   3.856   6.727   0.098
 3242SOL    HW210626   3.750   6.612   0.051
 3243SOL     OW10627   3.722   5.093   0.734
 3243SOL    HW110628   3.629   5.063   0.711
 3243SOL    HW210629   3.731   5.191   0.716
 3244SOL     OW10630   3.326   6.318   6.631
 3244SOL    HW110631   3.286   6.267   6.555
 3244SOL    HW210632   3.413   6.277   6.657
 3245SOL     OW10633   3.617   2.378   6.722
 3245SOL    HW110634   3.616   2.363   6.821
 3245SOL    HW210635   3.621   2.289   6.675
 3246SOL     OW10636   5.599   6.030   3.202
 3246SOL    HW110637   5.563   5.959   3.142
 3246SOL    HW210638   5.564   6.119   3.174
 3247SOL     OW10639   0.939   2.585   4.077
 3247SOL    HW110640   0.891   2.501   4.051
 3247SOL    HW210641   0.906   2.661   4.022
 3248SOL     OW10642   6.426   3.413   2.069
 3248SOL    HW110643   6.370   3.454   1.997
 3248SOL    HW210644   6.512   3.464   2.078
 3249SOL     OW10645   2.322   4.702   5.340
 3249SOL    HW110646   2.372   4.712   5.426
 3249SOL    HW210647   2.267   4.618   5.343
 3250SOL     OW10648   4.964   6.672   2.225
 3250SOL    HW110649   4.971   6.761   2.180
 3250SOL    HW210650   4.871   6.657   2.256
 3251SOL     OW10651   3.443   1.321   3.266
 3251SOL    HW110652   3.502   1.316   3.346
 3251SOL    HW210653   3.487   1.275   3.189
 3252SOL     OW10654   2.670   1.558   2.080
 3252SOL    HW110655   2.680   1.477   2.138
 3252SOL    HW210656   2.716   1.542   1.992
 3253SOL     OW10657   5.087   3.015   0.887
 3253SOL    HW110658   5.174   2.976   0.920
 3253SOL    HW210659   5.038   3.054   0.965
 3254SOL     OW10660   5.206   4.275   2.839
 3254SOL    HW110661   5.242   4.363   2.808
 3254SOL    HW210662   5.281   4.211   2.851
 3255SOL     OW10663   4.533   5.603   0.352
 3255SOL    HW110664   4.620   5.588   0.305
 3255SOL    HW210665   4.539   5.567   0.445
 3256SOL     OW10666   5.593   6.680   5.355
 3256SOL    HW110667   5.631   6.594   5.322
 3256SOL    HW210668   5.495   6.682   5.339
 3257SOL     OW10669   1.704   2.857   1.153
 3257SOL    HW110670   1.635   2.806   1.205
 3257SOL    HW210671   1.783   2.875   1.212
 3258SOL     OW10672   5.524   6.511   2.012
 3258SOL    HW110673   5.503   6.608   2.009
 3258SOL    HW210674   5.517   6.478   2.106
 3259SOL     OW10675   4.529   6.825   4.054
 3259SOL    HW110676   4.492   6.891   3.989
 3259SOL    HW210677   4.614   6.860   4.093
 3260SOL     OW10678   1.682   2.199   7.005
 3260SOL    HW110679   1.751   2.164   6.942
 3260SOL    HW210680   1.697   2.160   0.072
 3261SOL     OW10681   4.314   6.934   1.336
 3261SOL    HW110682   4.225   6.977   1.326
 3261SOL    HW210683   4.359   6.928   1.247
 3262SOL     OW10684   4.181   1.627   3.448
 3262SOL    HW110685   4.082   1.633   3.443
 3262SOL    HW210686   4.222   1.714   3.420
 3263SOL     OW10687   3.968   6.592   1.274
 3263SOL    HW110688   4.064   6.576   1.249
 3263SOL    HW210689   3.964   6.664   1.343
 3264SOL     OW10690   5.358   5.054   6.680
 3264SOL    HW110691   5.394   5.080   6.591
 3264SOL    HW210692   5.374   5.127   6.746
 3265SOL     OW10693   4.695   0.761   6.443
 3265SOL    HW110694   4.637   0.696   6.394
 3265SOL    HW210695   4.659   0.774   6.536
 3266SOL     OW10696   1.146   1.305   6.237
 3266SOL    HW110697   1.077   1.359   6.284
 3266SOL    HW210698   1.215   1.273   6.302
 3267SOL     OW10699   3.357   2.440   1.017
 3267SOL    HW110700   3.320   2.353   1.050
 3267SOL    HW210701   3.378   2.498   1.095
 3268SOL     OW10702   1.038   4.061   6.211
 3268SOL    HW110703   1.113   4.086   6.149
 3268SOL    HW210704   0.955   4.107   6.181
 3269SOL     OW10705   4.088   3.837   1.479
 3269SOL    HW110706   4.139   3.788   1.409
 3269SOL    HW210707   4.042   3.916   1.439
 3270SOL     OW10708   0.786   6.193   4.577
 3270SOL    HW110709   0.831   6.195   4.488
 3270SOL    HW210710   0.769   6.286   4.608
 3271SOL     OW10711   6.120   1.829   1.110
 3271SOL    HW110712   6.139   1.850   1.014
 3271SOL    HW210713   6.029   1.863   1.135
 3272SOL     OW10714   4.696   0.173   0.311
 3272SOL    HW110715   4.784   0.127   0.310
 3272SOL    HW210716   4.645   0.147   0.393
 3273SOL     OW10717   0.077   6.892   2.252
 3273SOL    HW110718   7.008   6.914   2.284
 3273SOL    HW210719   0.125   6.840   2.322
 3274SOL     OW10720   2.924   1.994   5.740
 3274SOL    HW110721   2.969   2.047   5.668
 3274SOL    HW210722   2.842   2.042   5.771
 3275SOL     OW10723   2.616   1.208   6.301
 3275SOL    HW110724   2.604   1.137   6.232
 3275SOL    HW210725   2.552   1.283   6.283
 3276SOL     OW10726   3.065   6.663   0.132
 3276SOL    HW110727   3.136   6.665   0.203
 3276SOL    HW210728   3.011   6.579   0.140
 3277SOL     OW10729   0.620   6.471   4.853
 3277SOL    HW110730   0.605   6.374   4.833
 3277SOL    HW210731   0.689   6.479   4.925
 3278SOL     OW10732   1.191   0.486   6.195
 3278SOL    HW110733   1.142   0.436   6.124
 3278SOL    HW210734   1.252   0.423   6.244
 3279SOL     OW10735   1.389   6.785   1.406
 3279SOL    HW110736   1.329   6.865   1.412
 3279SOL    HW210737   1.453   6.797   1.330
 3280SOL     OW10738   2.096   4.308   6.372
 3280SOL    HW110739   2.093   4.309   6.272
 3280SOL    HW210740   2.183   4.270   6.402
 3281SOL     OW10741   2.346   5.573   1.042
 3281SOL    HW110742   2.384   5.540   0.956
 3281SOL    HW210743   2.296   5.499   1.087
 3282SOL     OW10744   2.142   5.225   3.085
 3282SOL    HW110745   2.221   5.279   3.114
 3282SOL    HW210746   2.164   5.127   3.092
 3283SOL     OW10747   2.218   1.015   3.297
 3283SOL    HW110748   2.127   0.980   3.322
 3283SOL    HW210749   2.253   0.965   3.218
 3284SOL     OW10750   6.999   4.464   6.980
 3284SOL    HW110751   6.985   4.422   0.047
 3284SOL    HW210752   6.977   4.561   6.985
 3285SOL     OW10753   0.861   1.459   3.719
 3285SOL    HW110754   0.819   1.374   3.751
 3285SOL    HW210755   0.953   1.467   3.757
 3286SOL     OW10756   3.526   3.500   4.963
 3286SOL    HW110757   3.578   3.580   4.992
 3286SOL    HW210758   3.433   3.527   4.941
 3287SOL     OW10759   1.387   5.589   1.209
 3287SOL    HW110760   1.414   5.574   1.114
 3287SOL    HW210761   1.397   5.686   1.232
 3288SOL     OW10762   6.996   6.233   6.445
 3288SOL    HW110763   6.939   6.287   6.382
 3288SOL    HW210764   6.937   6.175   6.501
 3289SOL     OW10765   1.536   6.361   4.393
 3289SOL    HW110766   1.630   6.330   4.409
 3289SOL    HW210767   1.537   6.454   4.358
 3290SOL     OW10768   6.659   4.829   1.652
 3290SOL    HW110769   6.647   4.767   1.575
 3290SOL    HW210770   6.601   4.799   1.728
 3291SOL     OW10771   1.973   6.482   0.723
 3291SOL    HW110772   2.004   6.571   0.689
 3291SOL    HW210773   2.039   6.446   0.789
 3292SOL     OW10774   0.494   6.247   6.069
 3292SOL    HW110775   0.566   6.202   6.123
 3292SOL    HW210776   0.489   6.343   6.095
 3293SOL     OW10777   0.169   1.233   2.481
 3293SOL    HW110778   0.215   1.147   2.506
 3293SOL    HW210779   0.146   1.283   2.565
 3294SOL     OW10780   0.393   0.669   0.249
 3294SOL    HW110781   0.475   0.611   0.247
 3294SOL    HW210782   0.312   0.612   0.261
 3295SOL     OW10783   1.426   2.779   6.967
 3295SOL    HW110784   1.468   2.859   7.009
 3295SOL    HW210785   1.328   2.794   6.956
 3296SOL     OW10786   1.318   6.690   2.792
 3296SOL    HW110787   1.310   6.789   2.791
 3296SOL    HW210788   1.253   6.652   2.857
 3297SOL     OW10789   3.085   2.630   6.438
 3297SOL    HW110790   3.146   2.556   6.408
 3297SOL    HW210791   3.011   2.642   6.371
 3298SOL     OW10792   6.225   3.234   3.012
 3298SOL    HW110793   6.310   3.285   3.026
 3298SOL    HW210794   6.246   3.136   3.008
 3299SOL     OW10795   1.795   6.686   5.403
 3299SOL    HW110796   1.699   6.666   5.423
 3299SOL    HW210797   1.802   6.731   5.314
 3300SOL     OW10798   6.710   7.010   4.977
 3300SOL    HW110799   6.757   6.978   5.059
 3300SOL    HW210800   6.717   6.940   4.906
 3301SOL     OW10801   0.468   3.576   3.284
 3301SOL    HW110802   0.536   3.590   3.212
 3301SOL    HW210803   0.503   3.611   3.371
 3302SOL     OW10804   1.151   4.250   4.147
 3302SOL    HW110805   1.213   4.294   4.212
 3302SOL    HW210806   1.156   4.151   4.158
 3303SOL     OW10807   3.991   3.912   2.917
 3303SOL    HW110808   3.962   3.987   2.976
 3303SOL    HW210809   3.964   3.824   2.958
 3304SOL     OW10810   0.162   6.532   4.502
 3304SOL    HW110811   0.164   6.542   4.601
 3304SOL    HW210812   0.124   6.614   4.461
 3305SOL     OW10813   1.897   1.104   2.552
 3305SOL    HW110814   1.807   1.133   2.583
 3305SOL    HW210815   1.942   1.179   2.503
 3306SOL     OW10816   1.228   4.380   3.451
 3306SOL    HW110817   1.294   4.445   3.487
 3306SOL    HW210818   1.136   4.420   3.451
 3307SOL     OW10819   0.323   5.673   6.426
 3307SOL    HW110820   0.287   5.752   6.378
 3307SOL    HW210821   0.260   5.648   6.500
 3308SOL     OW10822   4.700   6.031   0.533
 3308SOL    HW110823   4.681   6.060   0.439
 3308SOL    HW210824   4.674   5.936   0.545
 3309SOL     OW10825   6.856   4.998   3.115
 3309SOL    HW110826   6.778   4.982   3.176
 3309SOL    HW210827   6.929   5.043   3.166
 3310SOL     OW10828   1.164   5.524   1.894
 3310SOL    HW110829   1.197   5.495   1.984
 3310SOL    HW210830   1.132   5.618   1.899
 3311SOL     OW10831   4.590   6.454   0.833
 3311SOL    HW110832   4.656   6.387   0.868
 3311SOL    HW210833   4.638   6.538   0.807
 3312SOL     OW10834   3.526   3.903   6.888
 3312SOL    HW110835   3.436   3.870   6.916
 3312SOL    HW210836   3.562   3.965   6.959
 3313SOL     OW10837   6.680   5.736   3.731
 3313SOL    HW110838   6.642   5.651   3.694
 3313SOL    HW210839   6.721   5.718   3.820
 3314SOL     OW10840   1.304   3.480   4.984
 3314SOL    HW110841   1.228   3.498   4.922
 3314SOL    HW210842   1.382   3.539   4.960
 3315SOL     OW10843   0.212   1.759   3.553
 3315SOL    HW110844   0.302   1.802   3.552
 3315SOL    HW210845   0.181   1.749   3.648
 3316SOL     OW10846   4.803   1.570   7.009
 3316SOL    HW110847   4.817   1.667   6.987
 3316SOL    HW210848   4.801   1.558   0.085
 3317SOL     OW10849   4.094   2.668   1.161
 3317SOL    HW110850   4.089   2.750   1.218
 3317SOL    HW210851   4.124   2.693   1.069
 3318SOL     OW10852   2.018   5.595   5.667
 3318SOL    HW110853   1.980   5.624   5.579
 3318SOL    HW210854   2.107   5.551   5.652
 3319SOL     OW10855   0.807   5.513   5.296
 3319SOL    HW110856   0.881   5.466   5.248
 3319SOL    HW210857   0.806   5.609   5.268
 3320SOL     OW10858   0.302   0.790   6.122
 3320SOL    HW110859   0.276   0.695   6.110
 3320SOL    HW210860   0.269   0.844   6.044
 3321SOL     OW10861   3.220   4.046   3.260
 3321SOL    HW110862   3.296   4.064   3.197
 3321SOL    HW210863   3.164   3.971   3.224
 3322SOL     OW10864   4.268   1.607   0.748
 3322SOL    HW110865   4.305   1.585   0.658
 3322SOL    HW210866   4.227   1.698   0.746
 3323SOL     OW10867   2.353   5.072   0.230
 3323SOL    HW110868   2.329   4.992   0.175
 3323SOL    HW210869   2.452   5.080   0.235
 3324SOL     OW10870   0.489   2.218   1.027
 3324SOL    HW110871   0.502   2.234   0.929
 3324SOL    HW210872   0.566   2.258   1.077
 3325SOL     OW10873   1.712   3.177   0.746
 3325SOL    HW110874   1.657   3.260   0.761
 3325SOL    HW210875   1.705   3.118   0.827
 3326SOL     OW10876   6.152   1.550   1.176
 3326SOL    HW110877   6.134   1.648   1.181
 3326SOL    HW210878   6.163   1.514   1.269
 3327SOL     OW10879   3.339   6.705   2.466
 3327SOL    HW110880   3.334   6.628   2.404
 3327SOL    HW210881   3.410   6.769   2.435
 3328SOL     OW10882   4.806   1.104   2.606
 3328SOL    HW110883   4.834   1.198   2.584
 3328SOL    HW210884   4.761   1.063   2.526
 3329SOL     OW10885   4.730   0.234   5.537
 3329SOL    HW110886   4.752   0.238   5.439
 3329SOL    HW210887   4.813   0.246   5.590
 3330SOL     OW10888   6.738   5.273   2.717
 3330SOL    HW110889   6.745   5.244   2.812
 3330SOL    HW210890   6.822   5.320   2.689
 3331SOL     OW10891   2.092   3.704   2.994
 3331SOL    HW110892   2.117   3.608   3.007
 3331SOL    HW210893   2.162   3.750   2.940
 3332SOL     OW10894   4.008   5.483   1.207
 3332SOL    HW110895   3.969   5.558   1.261
 3332SOL    HW210896   4.107   5.490   1.207
 3333SOL     OW10897   3.060   3.315   1.760
 3333SOL    HW110898   2.991   3.362   1.815
 3333SOL    HW210899   3.077   3.224   1.799
 3334SOL     OW10900   1.926   2.660   2.742
 3334SOL    HW110901   1.888   2.686   2.653
 3334SOL    HW210902   1.871   2.699   2.815
 3335SOL     OW10903   3.870   4.613   5.507
 3335SOL    HW110904   3.958   4.617   5.555
 3335SOL    HW210905   3.844   4.705   5.479
 3336SOL     OW10906   5.094   6.139   3.938
 3336SOL    HW110907   5.005   6.098   3.918
 3336SOL    HW210908   5.127   6.106   4.026
 3337SOL     OW10909   3.669   3.485   3.315
 3337SOL    HW110910   3.686   3.510   3.220
 3337SOL    HW210911   3.640   3.565   3.367
 3338SOL     OW10912   2.744   2.195   1.421
 3338SOL    HW110913   2.653   2.229   1.399
 3338SOL    HW210914   2.808   2.272   1.430
 3339SOL     OW10915   1.797   0.050   6.045
 3339SOL    HW110916   1.816   6.989   6.095
 3339SOL    HW210917   1.751   0.115   6.107
 3340SOL     OW10918   4.267   0.791   3.995
 3340SOL    HW110919   4.186   0.819   3.943
 3340SOL    HW210920   4.347   0.790   3.934
 3341SOL     OW10921   1.684   4.098   2.755
 3341SOL    HW110922   1.738   4.106   2.839
 3341SOL    HW210923   1.687   4.184   2.704
 3342SOL     OW10924   7.023   0.465   2.171
 3342SOL    HW110925   0.013   0.559   2.142
 3342SOL    HW210926   6.987   0.411   2.094
 3343SOL     OW10927   5.057   5.013   5.875
 3343SOL    HW110928   5.046   5.103   5.834
 3343SOL    HW210929   4.980   4.995   5.936
 3344SOL     OW10930   0.416   3.020   2.952
 3344SOL    HW110931   0.413   3.098   3.014
 3344SOL    HW210932   0.495   2.962   2.975
 3345SOL     OW10933   6.454   4.530   0.278
 3345SOL    HW110934   6.478   4.616   0.323
 3345SOL    HW210935   6.446   4.458   0.347
 3346SOL     OW10936   1.907   1.101   0.190
 3346SOL    HW110937   1.879   1.183   0.139
 3346SOL    HW210938   2.007   1.096   0.191
 3347SOL     OW10939   7.021   3.392   6.608
 3347SOL    HW110940   0.052   3.439   6.677
 3347SOL    HW210941   7.001   3.299   6.638
 3348SOL     OW10942   3.758   3.457   6.312
 3348SOL    HW110943   3.722   3.519   6.381
 3348SOL    HW210944   3.824   3.505   6.254
 3349SOL     OW10945   2.058   4.823   3.918
 3349SOL    HW110946   2.066   4.914   3.959
 3349SOL    HW210947   2.123   4.761   3.962
 3350SOL     OW10948   0.633   4.167   5.247
 3350SOL    HW110949   0.688   4.236   5.294
 3350SOL    HW210950   0.548   4.152   5.298
 3351SOL     OW10951   4.888   0.771   1.233
 3351SOL    HW110952   4.813   0.708   1.213
 3351SOL    HW210953   4.953   0.726   1.294
 3352SOL     OW10954   6.114   1.967   6.712
 3352SOL    HW110955   6.171   1.955   6.793
 3352SOL    HW210956   6.038   1.903   6.714
 3353SOL     OW10957   2.704   0.379   1.393
 3353SOL    HW110958   2.633   0.409   1.329
 3353SOL    HW210959   2.794   0.403   1.356
 3354SOL     OW10960   3.269   4.011   6.264
 3354SOL    HW110961   3.198   3.975   6.324
 3354SOL    HW210962   3.291   3.944   6.193
 3355SOL     OW10963   2.002   0.676   4.640
 3355SOL    HW110964   2.008   0.733   4.722
 3355SOL    HW210965   1.908   0.676   4.606
 3356SOL     OW10966   1.959   0.080   5.840
 3356SOL    HW110967   1.908   0.069   5.926
 3356SOL    HW210968   2.051   0.115   5.860
 3357SOL     OW10969   2.746   3.055   1.759
 3357SOL    HW110970   2.735   3.112   1.840
 3357SOL    HW210971   2.843   3.029   1.750
 3358SOL     OW10972   0.021   0.997   1.486
 3358SOL    HW110973   6.951   1.007   1.521
 3358SOL    HW210974   0.022   1.020   1.389
 3359SOL     OW10975   6.689   6.330   3.869
 3359SOL    HW110976   6.632   6.410   3.886
 3359SOL    HW210977   6.762   6.354   3.806
 3360SOL     OW10978   0.766   3.582   5.087
 3360SOL    HW110979   0.705   3.653   5.122
 3360SOL    HW210980   0.730   3.492   5.114
 3361SOL     OW10981   6.691   0.534   4.540
 3361SOL    HW110982   6.714   0.628   4.568
 3361SOL    HW210983   6.746   0.469   4.592
 3362SOL     OW10984   3.576   1.075   4.216
 3362SOL    HW110985   3.644   1.042   4.281
 3362SOL    HW210986   3.493   1.020   4.223
 3363SOL     OW10987   5.691   3.245   0.376
 3363SOL    HW110988   5.768   3.293   0.419
 3363SOL    HW210989   5.698   3.256   0.276
 3364SOL     OW10990   1.750   3.438   3.805
 3364SOL    HW110991   1.668   3.474   3.850
 3364SOL    HW210992   1.787   3.363   3.859
 3365SOL     OW10993   2.108   3.744   3.863
 3365SOL    HW110994   2.129   3.835   3.899
 3365SOL    HW210995   2.138   3.739   3.768
 3366SOL     OW10996   5.956   4.015   3.993
 3366SOL    HW110997   6.046   4.059   4.002
 3366SOL    HW210998   5.967   3.916   3.994
 3367SOL     OW10999   3.467   3.089   3.900
 3367SOL    HW111000   3.413   3.145   3.837
 3367SOL    HW211001   3.560   3.124   3.905
 3368SOL     OW11002   1.481   6.149   1.588
 3368SOL    HW111003   1.522   6.122   1.501
 3368SOL    HW211004   1.476   6.248   1.593
 3369SOL     OW11005   4.765   2.947   0.974
 3369SOL    HW111006   4.695   2.897   1.024
 3369SOL    HW211007   4.722   2.998   0.899
 3370SOL     OW11008   0.663   6.111   2.682
 3370SOL    HW111009   0.604   6.086   2.759
 3370SOL    HW211010   0.659   6.210   2.668
 3371SOL     OW11011   1.679   2.777   3.350
 3371SOL    HW111012   1.774   2.798   3.326
 3371SOL    HW211013   1.624   2.772   3.266
 3372SOL     OW11014   5.996   4.179   2.068
 3372SOL    HW111015   6.070   4.241   2.091
 3372SOL    HW211016   6.022   4.085   2.091
 3373SOL     OW11017   6.286   2.994   1.353
 3373SOL    HW111018   6.300   3.065   1.285
 3373SOL    HW211019   6.341   2.914   1.330
 3374SOL     OW11020   0.383   0.294   3.949
 3374SOL    HW111021   0.288   0.267   3.931
 3374SOL    HW211022   0.439   0.273   3.869
 3375SOL     OW11023   6.371   5.186   5.771
 3375SOL    HW111024   6.401   5.125   5.844
 3375SOL    HW211025   6.272   5.202   5.779
 3376SOL     OW11026   2.908   3.888   5.067
 3376SOL    HW111027   2.864   3.962   5.016
 3376SOL    HW211028   2.868   3.800   5.041
 3377SOL     OW11029   6.428   4.812   3.304
 3377SOL    HW111030   6.447   4.714   3.308
 3377SOL    HW211031   6.452   4.848   3.214
 3378SOL     OW11032   1.382   6.071   1.091
 3378SOL    HW111033   1.367   6.170   1.095
 3378SOL    HW211034   1.308   6.029   1.038
 3379SOL     OW11035   6.532   4.278   3.657
 3379SOL    HW111036   6.572   4.358   3.612
 3379SOL    HW211037   6.474   4.229   3.592
 3380SOL     OW11038   3.374   4.897   6.518
 3380SOL    HW111039   3.311   4.960   6.564
 3380SOL    HW211040   3.467   4.930   6.528
 3381SOL     OW11041   1.599   3.186   0.203
 3381SOL    HW111042   1.620   3.222   0.294
 3381SOL    HW211043   1.672   3.211   0.140
 3382SOL     OW11044   6.703   2.707   1.198
 3382SOL    HW111045   6.657   2.672   1.116
 3382SOL    HW211046   6.635   2.742   1.262
 3383SOL     OW11047   5.024   5.487   0.116
 3383SOL    HW111048   4.944   5.430   0.134
 3383SOL    HW211049   5.003   5.553   0.045
 3384SOL     OW11050   2.498   4.404   6.844
 3384SOL    HW111051   2.456   4.364   6.925
 3384SOL    HW211052   2.486   4.503   6.845
 3385SOL     OW11053   0.465   2.370   4.170
 3385SOL    HW111054   0.552   2.339   4.208
 3385SOL    HW211055   0.391   2.313   4.203
 3386SOL     OW11056   0.325   4.130   5.876
 3386SOL    HW111057   0.380   4.210   5.852
 3386SOL    HW211058   0.252   4.119   5.809
 3387SOL     OW11059   6.447   0.441   2.945
 3387SOL    HW111060   6.355   0.467   2.918
 3387SOL    HW211061   6.496   0.521   2.980
 3388SOL     OW11062   6.756   3.536   1.099
 3388SOL    HW111063   6.816   3.456   1.101
 3388SOL    HW211064   6.728   3.558   1.193
 3389SOL     OW11065   5.564   6.211   0.669
 3389SOL    HW111066   5.484   6.266   0.692
 3389SOL    HW211067   5.601   6.168   0.751
 3390SOL     OW11068   3.730   6.897   5.704
 3390SOL    HW111069   3.664   6.964   5.740
 3390SOL    HW211070   3.821   6.918   5.740
 3391SOL     OW11071   5.864   3.289   4.241
 3391SOL    HW111072   5.884   3.217   4.308
 3391SOL    HW211073   5.889   3.378   4.279
 3392SOL     OW11074   4.470   6.269   5.500
 3392SOL    HW111075   4.519   6.267   5.587
 3392SOL    HW211076   4.389   6.327   5.508
 3393SOL     OW11077   4.855   5.211   1.023
 3393SOL    HW111078   4.774   5.153   1.035
 3393SOL    HW211079   4.830   5.306   1.042
 3394SOL     OW11080   2.923   5.534   1.420
 3394SOL    HW111081   2.902   5.536   1.322
 3394SOL    HW211082   2.869   5.602   1.468
 3395SOL     OW11083   2.675   6.985   3.681
 3395SOL    HW111084   2.607   6.966   3.611
 3395SOL    HW211085   2.725   6.901   3.703
 3396SOL     OW11086   4.907   1.906   4.577
 3396SOL    HW111087   4.988   1.951   4.613
 3396SOL    HW211088   4.828   1.928   4.635
 3397SOL     OW11089   2.114   6.327   0.104
 3397SOL    HW111090   2.096   6.421   0.134
 3397SOL    HW211091   2.040   6.267   0.134
 3398SOL     OW11092   0.020   2.120   4.265
 3398SOL    HW111093   6.965   2.117   4.327
 3398SOL    HW211094   0.050   2.027   4.244
 3399SOL     OW11095   6.347   5.834   1.764
 3399SOL    HW111096   6.439   5.845   1.800
 3399SOL    HW211097   6.300   5.760   1.813
 3400SOL     OW11098   5.263   1.776   6.468
 3400SOL    HW111099   5.294   1.772   6.373
 3400SOL    HW211100   5.341   1.757   6.529
 3401SOL     OW11101   6.399   3.552   5.771
 3401SOL    HW111102   6.375   3.457   5.753
 3401SOL    HW211103   6.321   3.611   5.752
 3402SOL     OW11104   6.137   3.379   1.638
 3402SOL    HW111105   6.095   3.343   1.555
 3402SOL    HW211106   6.086   3.346   1.718
 3403SOL     OW11107   5.041   6.738   6.696
 3403SOL    HW111108   5.011   6.738   6.601
 3403SOL    HW211109   5.115   6.805   6.708
 3404SOL     OW11110   5.042   4.199   5.348
 3404SOL    HW111111   5.062   4.297   5.348
 3404SOL    HW211112   4.948   4.183   5.379
 3405SOL     OW11113   5.074   5.758   6.244
 3405SOL    HW111114   5.155   5.814   6.225
 3405SOL    HW211115   5.102   5.668   6.277
 3406SOL     OW11116   2.448   4.951   1.650
 3406SOL    HW111117   2.531   4.999   1.680
 3406SOL    HW211118   2.474   4.876   1.588
 3407SOL     OW11119   1.057   3.495   0.273
 3407SOL    HW111120   1.119   3.522   0.199
 3407SOL    HW211121   1.036   3.575   0.329
 3408SOL     OW11122   4.979   2.097   3.560
 3408SOL    HW111123   4.928   2.171   3.516
 3408SOL    HW211124   4.945   2.009   3.528
 3409SOL     OW11125   4.138   0.292   0.914
 3409SOL    HW111126   4.081   0.372   0.896
 3409SOL    HW211127   4.080   0.212   0.928
 3410SOL     OW11128   5.620   0.483   2.965
 3410SOL    HW111129   5.521   0.478   2.976
 3410SOL    HW211130   5.656   0.392   2.943
 3411SOL     OW11131   6.023   2.277   0.407
 3411SOL    HW111132   6.002   2.182   0.384
 3411SOL    HW211133   6.054   2.326   0.326
 3412SOL     OW11134   6.041   2.862   1.786
 3412SOL    HW111135   6.074   2.777   1.826
 3412SOL    HW211136   6.098   2.938   1.817
 3413SOL     OW11137   0.138   3.057   6.194
 3413SOL    HW111138   0.177   3.041   6.103
 3413SOL    HW211139   0.153   2.977   6.252
 3414SOL     OW11140   3.184   4.640   0.840
 3414SOL    HW111141   3.134   4.571   0.892
 3414SOL    HW211142   3.185   4.726   0.891
 3415SOL     OW11143   1.736   2.113   5.924
 3415SOL    HW111144   1.832   2.102   5.949
 3415SOL    HW211145   1.717   2.209   5.902
 3416SOL     OW11146   6.185   7.007   6.821
 3416SOL    HW111147   6.131   0.066   6.808
 3416SOL    HW211148   6.197   6.961   6.732
 3417SOL     OW11149   5.864   6.841   3.355
 3417SOL    HW111150   5.880   6.939   3.340
 3417SOL    HW211151   5.784   6.829   3.413
 3418SOL     OW11152   4.926   4.936   0.641
 3418SOL    HW111153   4.996   5.004   0.618
 3418SOL    HW211154   4.947   4.850   0.596
 3419SOL     OW11155   2.479   6.093   5.782
 3419SOL    HW111156   2.524   6.038   5.852
 3419SOL    HW211157   2.405   6.040   5.741
 3420SOL     OW11158   4.225   2.296   2.767
 3420SOL    HW111159   4.242   2.307   2.865
 3420SOL    HW211160   4.312   2.283   2.719
 3421SOL     OW11161   6.590   2.381   3.453
 3421SOL    HW111162   6.510   2.350   3.402
 3421SOL    HW211163   6.673   2.363   3.401
 3422SOL     OW11164   2.330   6.504   0.880
 3422SOL    HW111165   2.331   6.543   0.788
 3422SOL    HW211166   2.421   6.512   0.921
 3423SOL     OW11167   1.703   4.080   6.168
 3423SOL    HW111168   1.616   4.124   6.191
 3423SOL    HW211169   1.778   4.132   6.209
 3424SOL     OW11170   4.395   0.516   1.620
 3424SOL    HW111171   4.449   0.439   1.586
 3424SOL    HW211172   4.350   0.491   1.705
 3425SOL     OW11173   5.566   3.805   0.444
 3425SOL    HW111174   5.498   3.778   0.512
 3425SOL    HW211175   5.595   3.724   0.393
 3426SOL     OW11176   5.685   2.938   6.743
 3426SOL    HW111177   5.626   2.871   6.698
 3426SOL    HW211178   5.761   2.962   6.682
 3427SOL     OW11179   1.456   2.351   0.649
 3427SOL    HW111180   1.470   2.405   0.732
 3427SOL    HW211181   1.521   2.380   0.579
 3428SOL     OW11182   5.135   6.178   5.646
 3428SOL    HW111183   5.137   6.271   5.684
 3428SOL    HW211184   5.063   6.125   5.691
 3429SOL     OW11185   6.053   0.324   0.899
 3429SOL    HW111186   5.957   0.310   0.873
 3429SOL    HW211187   6.059   0.346   0.996
 3430SOL     OW11188   2.138   4.487   5.335
 3430SOL    HW111189   2.089   4.530   5.259
 3430SOL    HW211190   2.104   4.522   5.422
 3431SOL     OW11191   1.333   5.127   3.278
 3431SOL    HW111192   1.296   5.088   3.362
 3431SOL    HW211193   1.433   5.128   3.282
 3432SOL     OW11194   1.447   3.736   0.483
 3432SOL    HW111195   1.545   3.724   0.495
 3432SOL    HW211196   1.400   3.650   0.505
 3433SOL     OW11197   2.135   1.911   7.017
 3433SOL    HW111198   2.153   1.845   0.066
 3433SOL    HW211199   2.141   1.866   6.928
 3434SOL     OW11200   3.327   2.554   1.280
 3434SOL    HW111201   3.255   2.488   1.299
 3434SOL    HW211202   3.377   2.573   1.365
 3435SOL     OW11203   2.006   1.262   1.215
 3435SOL    HW111204   2.085   1.241   1.272
 3435SOL    HW211205   2.036   1.271   1.120
 3436SOL     OW11206   3.252   6.576   6.508
 3436SOL    HW111207   3.195   6.497   6.485
 3436SOL    HW211208   3.234   6.604   6.602
 3437SOL     OW11209   1.073   0.435   6.458
 3437SOL    HW111210   1.041   0.509   6.517
 3437SOL    HW211211   1.034   0.446   6.367
 3438SOL     OW11212   1.341   4.011   1.520
 3438SOL    HW111213   1.358   3.914   1.506
 3438SOL    HW211214   1.274   4.024   1.593
 3439SOL     OW11215   2.661   5.090   1.797
 3439SOL    HW111216   2.732   5.156   1.772
 3439SOL    HW211217   2.704   5.005   1.828
 3440SOL     OW11218   4.158   3.609   4.942
 3440SOL    HW111219   4.175   3.511   4.955
 3440SOL    HW211220   4.129   3.626   4.848
 3441SOL     OW11221   5.565   4.604   5.913
 3441SOL    HW111222   5.611   4.584   5.827
 3441SOL    HW211223   5.555   4.520   5.966
 3442SOL     OW11224   3.477   3.115   1.597
 3442SOL    HW111225   3.424   3.102   1.513
 3442SOL    HW211226   3.543   3.040   1.607
 3443SOL     OW11227   0.842   6.076   2.078
 3443SOL    HW111228   0.828   6.148   2.009
 3443SOL    HW211229   0.936   6.079   2.111
 3444SOL     OW11230   6.313   3.824   6.843
 3444SOL    HW111231   6.362   3.843   6.758
 3444SOL    HW211232   6.373   3.841   6.921
 3445SOL     OW11233   6.160   4.708   3.349
 3445SOL    HW111234   6.075   4.757   3.328
 3445SOL    HW211235   6.238   4.760   3.316
 3446SOL     OW11236   4.742   0.909   1.030
 3446SOL    HW111237   4.805   0.887   1.104
 3446SOL    HW211238   4.648   0.896   1.060
 3447SOL     OW11239   5.868   1.125   6.720
 3447SOL    HW111240   5.865   1.029   6.746
 3447SOL    HW211241   5.788   1.147   6.664
 3448SOL     OW11242   1.517   6.168   5.125
 3448SOL    HW111243   1.595   6.218   5.163
 3448SOL    HW211244   1.538   6.138   5.032
 3449SOL     OW11245   6.601   4.466   5.677
 3449SOL    HW111246   6.676   4.400   5.671
 3449SOL    HW211247   6.581   4.502   5.586
 3450SOL     OW11248   2.482   6.573   1.704
 3450SOL    HW111249   2.578   6.544   1.698
 3450SOL    HW211250   2.470   6.631   1.784
 3451SOL     OW11251   2.007   1.249   1.690
 3451SOL    HW111252   2.001   1.339   1.648
 3451SOL    HW211253   1.917   1.205   1.688
 3452SOL     OW11254   4.555   0.785   5.060
 3452SOL    HW111255   4.579   0.710   5.122
 3452SOL    HW211256   4.614   0.863   5.078
 3453SOL     OW11257   4.598   6.297   6.001
 3453SOL    HW111258   4.680   6.241   6.012
 3453SOL    HW211259   4.612   6.385   6.045
 3454SOL     OW11260   0.634   2.994   1.406
 3454SOL    HW111261   0.722   3.022   1.368
 3454SOL    HW211262   0.630   3.018   1.503
 3455SOL     OW11263   0.806   3.114   5.167
 3455SOL    HW111264   0.798   3.172   5.248
 3455SOL    HW211265   0.888   3.057   5.175
 3456SOL     OW11266   5.427   4.875   3.136
 3456SOL    HW111267   5.355   4.807   3.122
 3456SOL    HW211268   5.394   4.948   3.195
 3457SOL     OW11269   3.825   4.640   5.893
 3457SOL    HW111270   3.743   4.589   5.866
 3457SOL    HW211271   3.907   4.588   5.868
 3458SOL     OW11272   4.195   1.151   2.306
 3458SOL    HW111273   4.126   1.141   2.378
 3458SOL    HW211274   4.268   1.084   2.320
 3459SOL     OW11275   4.432   6.559   3.183
 3459SOL    HW111276   4.499   6.514   3.123
 3459SOL    HW211277   4.411   6.650   3.147
 3460SOL     OW11278   4.341   1.675   4.801
 3460SOL    HW111279   4.353   1.762   4.850
 3460SOL    HW211280   4.307   1.606   4.864
 3461SOL     OW11281   6.027   5.878   5.176
 3461SOL    HW111282   6.021   5.779   5.161
 3461SOL    HW211283   5.935   5.917   5.182
 3462SOL     OW11284   1.729   3.234   6.457
 3462SOL    HW111285   1.767   3.151   6.417
 3462SOL    HW211286   1.630   3.237   6.439
 3463SOL     OW11287   5.903   3.870   1.268
 3463SOL    HW111288   5.959   3.792   1.298
 3463SOL    HW211289   5.862   3.915   1.347
 3464SOL     OW11290   0.311   4.542   5.925
 3464SOL    HW111291   0.367   4.490   5.860
 3464SOL    HW211292   0.227   4.572   5.881
 3465SOL     OW11293   1.617   1.050   0.690
 3465SOL    HW111294   1.568   1.071   0.605
 3465SOL    HW211295   1.562   1.080   0.768
 3466SOL     OW11296   6.574   3.967   5.927
 3466SOL    HW111297   6.481   3.962   5.963
 3466SOL    HW211298   6.638   3.934   5.997
 3467SOL     OW11299   1.891   1.993   6.830
 3467SOL    HW111300   1.913   1.899   6.803
 3467SOL    HW211301   1.948   2.020   6.907
 3468SOL     OW11302   3.519   6.998   3.986
 3468SOL    HW111303   3.582   6.933   3.943
 3468SOL    HW211304   3.561   0.012   4.068
 3469SOL     OW11305   5.233   2.663   3.168
 3469SOL    HW111306   5.157   2.627   3.222
 3469SOL    HW211307   5.216   2.646   3.071
 3470SOL     OW11308   6.862   5.043   1.177
 3470SOL    HW111309   6.862   5.127   1.232
 3470SOL    HW211310   6.875   5.066   1.081
 3471SOL     OW11311   4.016   6.400   4.937
 3471SOL    HW111312   4.029   6.319   4.994
 3471SOL    HW211313   3.918   6.417   4.925
 3472SOL     OW11314   3.420   1.160   4.986
 3472SOL    HW111315   3.450   1.254   4.966
 3472SOL    HW211316   3.401   1.152   5.084
 3473SOL     OW11317   5.158   1.040   5.630
 3473SOL    HW111318   5.112   1.051   5.719
 3473SOL    HW211319   5.098   1.075   5.558
 3474SOL     OW11320   4.607   4.933   0.734
 3474SOL    HW111321   4.551   4.866   0.685
 3474SOL    HW211322   4.684   4.960   0.677
 3475SOL     OW11323   1.580   5.852   4.746
 3475SOL    HW111324   1.532   5.938   4.760
 3475SOL    HW211325   1.549   5.809   4.662
 3476SOL     OW11326   5.073   1.055   4.418
 3476SOL    HW111327   5.129   0.984   4.460
 3476SOL    HW211328   5.132   1.130   4.386
 3477SOL     OW11329   4.404   6.052   1.487
 3477SOL    HW111330   4.366   6.129   1.435
 3477SOL    HW211331   4.503   6.050   1.477
 3478SOL     OW11332   3.984   4.435   0.249
 3478SOL    HW111333   3.998   4.530   0.221
 3478SOL    HW211334   4.072   4.387   0.250
 3479SOL     OW11335   0.911   0.498   1.861
 3479SOL    HW111336   0.968   0.580   1.854
 3479SOL    HW211337   0.834   0.516   1.922
 3480SOL     OW11338   1.264   1.062   3.300
 3480SOL    HW111339   1.276   0.999   3.377
 3480SOL    HW211340   1.337   1.130   3.302
 3481SOL     OW11341   2.054   6.685   6.817
 3481SOL    HW111342   2.117   6.762   6.820
 3481SOL    HW211343   2.022   6.672   6.723
 3482SOL     OW11344   0.292   1.978   0.448
 3482SOL    HW111345   0.341   1.892   0.438
 3482SOL    HW211346   0.257   2.008   0.360
 3483SOL     OW11347   3.197   6.916   0.969
 3483SOL    HW111348   3.277   6.909   1.027
 3483SOL    HW211349   3.210   6.990   0.902
 3484SOL     OW11350   3.481   3.888   3.867
 3484SOL    HW111351   3.569   3.905   3.824
 3484SOL    HW211352   3.413   3.866   3.796
 3485SOL     OW11353   0.830   2.215   4.713
 3485SOL    HW111354   0.785   2.287   4.765
 3485SOL    HW211355   0.800   2.125   4.746
 3486SOL     OW11356   4.454   1.642   2.493
 3486SOL    HW111357   4.372   1.696   2.512
 3486SOL    HW211358   4.520   1.698   2.444
 3487SOL     OW11359   0.010   0.670   6.729
 3487SOL    HW111360   6.990   0.581   6.740
 3487SOL    HW211361   7.018   0.704   6.637
 3488SOL     OW11362   5.876   3.741   4.025
 3488SOL    HW111363   5.877   3.764   3.928
 3488SOL    HW211364   5.892   3.643   4.036
 3489SOL     OW11365   2.753   0.067   0.936
 3489SOL    HW111366   2.774   0.014   0.853
 3489SOL    HW211367   2.813   0.037   1.011
 3490SOL     OW11368   3.787   3.633   0.410
 3490SOL    HW111369   3.774   3.666   0.316
 3490SOL    HW211370   3.882   3.603   0.422
 3491SOL     OW11371   0.665   3.033   4.736
 3491SOL    HW111372   0.748   3.079   4.703
 3491SOL    HW211373   0.617   2.992   4.659
 3492SOL     OW11374   6.053   4.951   6.788
 3492SOL    HW111375   6.147   4.944   6.753
 3492SOL    HW211376   6.045   5.032   6.846
 3493SOL     OW11377   6.455   5.010   0.346
 3493SOL    HW111378   6.511   5.091   0.362
 3493SOL    HW211379   6.430   5.004   0.249
 3494SOL     OW11380   3.469   0.350   0.661
 3494SOL    HW111381   3.394   0.416   0.647
 3494SOL    HW211382   3.503   0.320   0.572
 3495SOL     OW11383   5.157   4.744   0.158
 3495SOL    HW111384   5.213   4.667   0.188
 3495SOL    HW211385   5.088   4.713   0.094
 3496SOL     OW11386   1.749   3.777   0.855
 3496SOL    HW111387   1.736   3.868   0.816
 3496SOL    HW211388   1.836   3.774   0.905
 3497SOL     OW11389   4.765   0.164   3.416
 3497SOL    HW111390   4.767   0.221   3.333
 3497SOL    HW211391   4.857   0.131   3.435
 3498SOL     OW11392   2.324   1.480   2.166
 3498SOL    HW111393   2.301   1.548   2.236
 3498SOL    HW211394   2.358   1.526   2.084
 3499SOL     OW11395   6.937   3.163   3.827
 3499SOL    HW111396   6.965   3.254   3.859
 3499SOL    HW211397   6.839   3.165   3.806
 3500SOL     OW11398   6.399   3.431   0.791
 3500SOL    HW111399   6.405   3.454   0.888
 3500SOL    HW211400   6.491   3.418   0.754
 3501SOL     OW11401   0.989   4.453   4.037
 3501SOL    HW111402   1.027   4.502   3.959
 3501SOL    HW211403   1.056   4.387   4.071
 3502SOL     OW11404   0.873   3.521   1.804
 3502SOL    HW111405   0.901   3.568   1.888
 3502SOL    HW211406   0.785   3.557   1.774
 3503SOL     OW11407   4.663   6.592   4.262
 3503SOL    HW111408   4.597   6.667   4.274
 3503SOL    HW211409   4.620   6.506   4.290
 3504SOL     OW11410   2.102   3.379   2.172
 3504SOL    HW111411   2.138   3.422   2.089
 3504SOL    HW211412   2.003   3.374   2.167
 3505SOL     OW11413   5.228   5.396   4.898
 3505SOL    HW111414   5.278   5.476   4.931
 3505SOL    HW211415   5.246   5.318   4.958
 3506SOL     OW11416   5.120   5.351   2.814
 3506SOL    HW111417   5.100   5.419   2.743
 3506SOL    HW211418   5.045   5.285   2.819
 3507SOL     OW11419   1.050   0.277   6.086
 3507SOL    HW111420   0.957   0.304   6.110
 3507SOL    HW211421   1.057   0.177   6.083
 3508SOL     OW11422   5.879   3.022   6.561
 3508SOL    HW111423   5.890   3.041   6.464
 3508SOL    HW211424   5.958   3.056   6.612
 3509SOL     OW11425   6.469   6.399   0.735
 3509SOL    HW111426   6.560   6.418   0.698
 3509SOL    HW211427   6.405   6.467   0.703
 3510SOL     OW11428   1.670   3.291   2.703
 3510SOL    HW111429   1.714   3.352   2.636
 3510SOL    HW211430   1.668   3.336   2.792
 3511SOL     OW11431   0.711   1.280   5.741
 3511SOL    HW111432   0.761   1.315   5.820
 3511SOL    HW211433   0.753   1.314   5.657
 3512SOL     OW11434   3.075   3.721   1.195
 3512SOL    HW111435   2.994   3.735   1.251
 3512SOL    HW211436   3.140   3.663   1.244
 3513SOL     OW11437   5.738   4.750   1.323
 3513SOL    HW111438   5.677   4.764   1.401
 3513SOL    HW211439   5.694   4.786   1.240
 3514SOL     OW11440   0.871   6.136   1.685
 3514SOL    HW111441   0.807   6.145   1.761
 3514SOL    HW211442   0.861   6.046   1.643
 3515SOL     OW11443   2.905   6.002   3.553
 3515SOL    HW111444   2.939   5.974   3.463
 3515SOL    HW211445   2.899   6.101   3.557
 3516SOL     OW11446   2.780   1.153   0.726
 3516SOL    HW111447   2.721   1.118   0.799
 3516SOL    HW211448   2.802   1.249   0.745
 3517SOL     OW11449   1.320   0.948   6.400
 3517SOL    HW111450   1.301   0.941   6.498
 3517SOL    HW211451   1.240   0.983   6.353
 3518SOL     OW11452   4.338   3.026   5.885
 3518SOL    HW111453   4.336   3.026   5.985
 3518SOL    HW211454   4.249   3.000   5.850
 3519SOL     OW11455   2.139   6.310   0.861
 3519SOL    HW111456   2.218   6.367   0.882
 3519SOL    HW211457   2.161   6.248   0.785
 3520SOL     OW11458   4.332   5.821   0.756
 3520SOL    HW111459   4.378   5.737   0.783
 3520SOL    HW211460   4.387   5.900   0.785
 3521SOL     OW11461   5.790   2.485   0.704
 3521SOL    HW111462   5.795   2.505   0.606
 3521SOL    HW211463   5.839   2.400   0.723
 3522SOL     OW11464   3.184   4.981   2.352
 3522SOL    HW111465   3.221   4.947   2.266
 3522SOL    HW211466   3.179   4.905   2.418
 3523SOL     OW11467   2.311   4.721   5.914
 3523SOL    HW111468   2.356   4.659   5.850
 3523SOL    HW211469   2.358   4.809   5.914
 3524SOL     OW11470   2.442   0.433   1.257
 3524SOL    HW111471   2.458   0.336   1.241
 3524SOL    HW211472   2.346   0.448   1.282
 3525SOL     OW11473   1.061   3.202   3.030
 3525SOL    HW111474   1.032   3.130   3.092
 3525SOL    HW211475   1.038   3.176   2.936
 3526SOL     OW11476   2.294   0.807   2.559
 3526SOL    HW111477   2.227   0.734   2.570
 3526SOL    HW211478   2.254   0.894   2.589
 3527SOL     OW11479   5.067   3.159   5.778
 3527SOL    HW111480   5.011   3.219   5.721
 3527SOL    HW211481   5.016   3.075   5.799
 3528SOL     OW11482   6.931   0.183   4.448
 3528SOL    HW111483   6.921   0.145   4.356
 3528SOL    HW211484   6.967   0.113   4.510
 3529SOL     OW11485   3.691   6.609   6.301
 3529SOL    HW111486   3.631   6.583   6.377
 3529SOL    HW211487   3.643   6.674   6.242
 3530SOL     OW11488   2.033   5.837   2.809
 3530SOL    HW111489   2.103   5.888   2.859
 3530SOL    HW211490   2.039   5.740   2.833
 3531SOL     OW11491   4.355   3.742   0.000
 3531SOL    HW111492   4.376   3.651   0.035
 3531SOL    HW211493   4.433   3.778   6.973
 3532SOL     OW11494   2.009   6.996   0.404
 3532SOL    HW111495   1.938   0.007   0.466
 3532SOL    HW211496   1.967   6.932   0.339
 3533SOL     OW11497   1.579   1.202   3.289
 3533SOL    HW111498   1.545   1.229   3.199
 3533SOL    HW211499   1.644   1.270   3.322
 3534SOL     OW11500   5.307   1.426   4.479
 3534SOL    HW111501   5.246   1.420   4.558
 3534SOL    HW211502   5.265   1.379   4.401
 3535SOL     OW11503   4.830   5.862   6.445
 3535SOL    HW111504   4.906   5.809   6.405
 3535SOL    HW211505   4.867   5.942   6.492
 3536SOL     OW11506   0.880   4.490   3.440
 3536SOL    HW111507   0.795   4.448   3.471
 3536SOL    HW211508   0.886   4.484   3.340
 3537SOL     OW11509   2.484   5.146   0.730
 3537SOL    HW111510   2.571   5.097   0.733
 3537SOL    HW211511   2.409   5.080   0.732
 3538SOL     OW11512   2.716   0.817   4.909
 3538SOL    HW111513   2.797   0.758   4.901
 3538SOL    HW211514   2.725   0.874   4.991
 3539SOL     OW11515   5.309   5.890   6.237
 3539SOL    HW111516   5.325   5.988   6.230
 3539SOL    HW211517   5.395   5.841   6.220
 3540SOL     OW11518   3.077   3.670   6.482
 3540SOL    HW111519   3.076   3.770   6.483
 3540SOL    HW211520   3.018   3.637   6.409
 3541SOL     OW11521   2.336   2.970   1.400
 3541SOL    HW111522   2.404   3.003   1.465
 3541SOL    HW211523   2.246   3.007   1.423
 3542SOL     OW11524   5.641   1.908   6.246
 3542SOL    HW111525   5.638   1.875   6.341
 3542SOL    HW211526   5.601   1.999   6.241
 3543SOL     OW11527   0.465   2.234   3.127
 3543SOL    HW111528   0.439   2.275   3.214
 3543SOL    HW211529   0.385   2.192   3.084
 3544SOL     OW11530   2.671   4.180   6.553
 3544SOL    HW111531   2.640   4.237   6.477
 3544SOL    HW211532   2.699   4.238   6.629
 3545SOL     OW11533   3.404   6.282   1.567
 3545SOL    HW111534   3.497   6.313   1.545
 3545SOL    HW211535   3.356   6.352   1.620
 3546SOL     OW11536   0.216   4.420   3.296
 3546SOL    HW111537   0.304   4.432   3.250
 3546SOL    HW211538   0.163   4.350   3.248
 3547SOL     OW11539   1.312   4.352   5.403
 3547SOL    HW111540   1.346   4.268   5.361
 3547SOL    HW211541   1.245   4.329   5.473
 3548SOL     OW11542   5.426   0.775   5.436
 3548SOL    HW111543   5.352   0.711   5.418
 3548SOL    HW211544   5.511   0.723   5.449
 3549SOL     OW11545   2.649   6.681   0.029
 3549SOL    HW111546   2.706   6.693   6.972
 3549SOL    HW211547   2.553   6.695   0.005
 3550SOL     OW11548   5.356   1.003   5.271
 3550SOL    HW111549   5.379   0.923   5.327
 3550SOL    HW211550   5.353   1.084   5.328
 3551SOL     OW11551   4.522   2.062   4.207
 3551SOL    HW111552   4.504   2.112   4.292
 3551SOL    HW211553   4.473   1.975   4.210
 3552SOL     OW11554   0.645   6.995   3.092
 3552SOL    HW111555   0.580   6.932   3.134
 3552SOL    HW211556   0.652   6.975   2.994
 3553SOL     OW11557   5.402   5.682   6.901
 3553SOL    HW111558   5.308   5.701   6.873
 3553SOL    HW211559   5.404   5.663   7.000
 3554SOL     OW11560   5.346   2.899   1.010
 3554SOL    HW111561   5.306   2.822   1.059
 3554SOL    HW211562   5.445   2.887   1.002
 3555SOL     OW11563   2.973   2.171   5.042
 3555SOL    HW111564   2.925   2.150   5.127
 3555SOL    HW211565   3.069   2.190   5.061
 3556SOL     OW11566   5.379   1.185   5.474
 3556SOL    HW111567   5.298   1.155   5.524
 3556SOL    HW211568   5.399   1.280   5.497
 3557SOL     OW11569   6.064   1.004   0.911
 3557SOL    HW111570   6.092   0.909   0.897
 3557SOL    HW211571   6.135   1.052   0.961
 3558SOL     OW11572   3.749   6.526   2.047
 3558SOL    HW111573   3.807   6.457   2.090
 3558SOL    HW211574   3.653   6.506   2.067
 3559SOL     OW11575   4.805   6.450   5.760
 3559SOL    HW111576   4.792   6.548   5.751
 3559SOL    HW211577   4.902   6.429   5.764
 3560SOL     OW11578   2.169   5.192   4.389
 3560SOL    HW111579   2.087   5.250   4.384
 3560SOL    HW211580   2.221   5.202   4.305
 3561SOL     OW11581   4.670   3.690   5.356
 3561SOL    HW111582   4.693   3.644   5.269
 3561SOL    HW211583   4.578   3.728   5.350
 3562SOL     OW11584   1.688   1.489   5.821
 3562SOL    HW111585   1.638   1.573   5.800
 3562SOL    HW211586   1.781   1.495   5.785
 3563SOL     OW11587   6.257   2.797   5.206
 3563SOL    HW111588   6.328   2.745   5.253
 3563SOL    HW211589   6.297   2.857   5.137
 3564SOL     OW11590   6.090   3.935   2.100
 3564SOL    HW111591   6.138   3.871   2.159
 3564SOL    HW211592   6.007   3.891   2.064
 3565SOL     OW11593   3.828   5.923   3.135
 3565SOL    HW111594   3.897   5.994   3.144
 3565SOL    HW211595   3.763   5.929   3.211
 3566SOL     OW11596   1.102   0.202   5.317
 3566SOL    HW111597   1.013   0.237   5.346
 3566SOL    HW211598   1.167   0.210   5.392
 3567SOL     OW11599   6.962   3.670   6.398
 3567SOL    HW111600   6.933   3.586   6.444
 3567SOL    HW211601   6.921   3.749   6.444
 3568SOL     OW11602   5.989   3.798   5.955
 3568SOL    HW111603   6.051   3.719   5.957
 3568SOL    HW211604   5.897   3.769   5.981
 3569SOL     OW11605   1.989   0.917   4.866
 3569SOL    HW111606   1.991   0.965   4.954
 3569SOL    HW211607   2.077   0.873   4.850
 3570SOL     OW11608   6.474   1.589   3.571
 3570SOL    HW111609   6.476   1.513   3.636
 3570SOL    HW211610   6.489   1.675   3.620
 3571SOL     OW11611   6.659   6.406   5.869
 3571SOL    HW111612   6.738   6.384   5.813
 3571SOL    HW211613   6.626   6.323   5.915
 3572SOL     OW11614   6.252   5.624   4.566
 3572SOL    HW111615   6.195   5.542   4.562
 3572SOL    HW211616   6.248   5.663   4.658
 3573SOL     OW11617   1.201   2.798   3.178
 3573SOL    HW111618   1.105   2.826   3.182
 3573SOL    HW211619   1.218   2.747   3.094
 3574SOL     OW11620   6.685   3.875   0.925
 3574SOL    HW111621   6.755   3.897   0.992
 3574SOL    HW211622   6.718   3.898   0.833
 3575SOL     OW11623   6.173   4.988   2.216
 3575SOL    HW111624   6.218   4.946   2.137
 3575SOL    HW211625   6.239   5.046   2.265
 3576SOL     OW11626   0.879   1.696   5.800
 3576SOL    HW111627   0.857   1.695   5.898
 3576SOL    HW211628   0.839   1.616   5.756
 3577SOL     OW11629   1.517   3.029   7.013
 3577SOL    HW111630   1.559   3.093   0.055
 3577SOL    HW211631   1.530   3.064   6.920
 3578SOL     OW11632   3.643   5.444   0.710
 3578SOL    HW111633   3.702   5.438   0.629
 3578SOL    HW211634   3.547   5.446   0.681
 3579SOL     OW11635   0.260   4.784   4.587
 3579SOL    HW111636   0.172   4.764   4.629
 3579SOL    HW211637   0.313   4.844   4.648
 3580SOL     OW11638   6.271   2.216   2.457
 3580SOL    HW111639   6.362   2.178   2.479
 3580SOL    HW211640   6.225   2.243   2.541
 3581SOL     OW11641   0.121   0.414   2.632
 3581SOL    HW111642   0.088   0.397   2.725
 3581SOL    HW211643   0.055   0.472   2.583
 3582SOL     OW11644   1.325   0.362   6.374
 3582SOL    HW111645   1.386   0.338   6.449
 3582SOL    HW211646   1.246   0.411   6.410
 3583SOL     OW11647   1.407   5.270   0.290
 3583SOL    HW111648   1.324   5.289   0.238
 3583SOL    HW211649   1.457   5.355   0.306
 3584SOL     OW11650   4.876   5.935   6.087
 3584SOL    HW111651   4.794   5.929   6.144
 3584SOL    HW211652   4.954   5.896   6.136
 3585SOL     OW11653   3.310   4.920   4.250
 3585SOL    HW111654   3.228   4.863   4.252
 3585SOL    HW211655   3.340   4.933   4.156
 3586SOL     OW11656   6.779   3.100   6.151
 3586SOL    HW111657   6.754   3.068   6.060
 3586SOL    HW211658   6.847   3.172   6.143
 3587SOL     OW11659   4.173   0.099   6.639
 3587SOL    HW111660   4.094   0.061   6.591
 3587SOL    HW211661   4.245   0.118   6.573
 3588SOL     OW11662   1.507   1.864   5.525
 3588SOL    HW111663   1.440   1.902   5.461
 3588SOL    HW211664   1.538   1.936   5.587
 3589SOL     OW11665   3.178   0.821   5.369
 3589SOL    HW111666   3.253   0.812   5.305
 3589SOL    HW211667   3.137   0.912   5.361
 3590SOL     OW11668   2.179   5.379   6.943
 3590SOL    HW111669   2.143   5.294   6.981
 3590SOL    HW211670   2.115   5.454   6.960
 3591SOL     OW11671   5.163   2.379   5.884
 3591SOL    HW111672   5.235   2.448   5.877
 3591SOL    HW211673   5.145   2.340   5.794
 3592SOL     OW11674   4.824   2.833   2.312
 3592SOL    HW111675   4.744   2.782   2.281
 3592SOL    HW211676   4.819   2.927   2.279
 3593SOL     OW11677   1.554   5.966   3.856
 3593SOL    HW111678   1.518   6.010   3.938
 3593SOL    HW211679   1.558   6.033   3.782
 3594SOL     OW11680   3.084   1.291   4.186
 3594SOL    HW111681   3.046   1.240   4.109
 3594SOL    HW211682   3.112   1.382   4.156
 3595SOL     OW11683   2.941   6.120   6.037
 3595SOL    HW111684   2.921   6.121   5.939
 3595SOL    HW211685   3.020   6.061   6.054
 3596SOL     OW11686   6.523   2.223   2.865
 3596SOL    HW111687   6.598   2.176   2.818
 3596SOL    HW211688   6.547   2.319   2.876
 3597SOL     OW11689   3.653   5.747   3.969
 3597SOL    HW111690   3.749   5.744   3.998
 3597SOL    HW211691   3.643   5.812   3.894
 3598SOL     OW11692   1.373   0.047   6.734
 3598SOL    HW111693   1.410   0.029   6.825
 3598SOL    HW211694   1.417   0.128   6.695
 3599SOL     OW11695   0.455   1.508   4.675
 3599SOL    HW111696   0.477   1.411   4.678
 3599SOL    HW211697   0.447   1.543   4.769
 3600SOL     OW11698   6.151   1.988   0.602
 3600SOL    HW111699   6.206   1.972   0.519
 3600SOL    HW211700   6.056   1.962   0.584
 3601SOL     OW11701   6.894   3.627   6.127
 3601SOL    HW111702   6.989   3.637   6.097
 3601SOL    HW211703   6.887   3.647   6.225
 3602SOL     OW11704   1.855   0.829   0.205
 3602SOL    HW111705   1.880   0.926   0.201
 3602SOL    HW211706   1.809   0.811   0.292
 3603SOL     OW11707   4.025   4.810   4.075
 3603SOL    HW111708   3.983   4.809   3.984
 3603SOL    HW211709   3.958   4.778   4.142
 3604SOL     OW11710   0.293   2.605   3.023
 3604SOL    HW111711   0.286   2.675   3.094
 3604SOL    HW211712   0.206   2.556   3.015
 3605SOL     OW11713   5.406   3.514   6.724
 3605SOL    HW111714   5.311   3.526   6.753
 3605SOL    HW211715   5.455   3.601   6.735
 3606SOL     OW11716   0.983   4.368   5.245
 3606SOL    HW111717   1.076   4.364   5.280
 3606SOL    HW211718   0.981   4.332   5.151
 3607SOL     OW11719   5.316   6.693   0.167
 3607SOL    HW111720   5.401   6.664   0.123
 3607SOL    HW211721   5.333   6.709   0.264
 3608SOL     OW11722   0.594   2.313   2.440
 3608SOL    HW111723   0.497   2.310   2.415
 3608SOL    HW211724   0.603   2.325   2.539
 3609SOL     OW11725   6.418   0.447   4.170
 3609SOL    HW111726   6.404   0.373   4.104
 3609SOL    HW211727   6.448   0.530   4.122
 3610SOL     OW11728   1.400   6.524   6.010
 3610SOL    HW111729   1.329   6.583   6.048
 3610SOL    HW211730   1.382   6.429   6.034
 3611SOL     OW11731   3.710   5.207   5.591
 3611SOL    HW111732   3.807   5.188   5.603
 3611SOL    HW211733   3.698   5.281   5.524
 3612SOL     OW11734   1.290   6.908   1.001
 3612SOL    HW111735   1.339   6.974   1.059
 3612SOL    HW211736   1.257   6.833   1.057
 3613SOL     OW11737   5.885   5.288   6.675
 3613SOL    HW111738   5.903   5.256   6.582
 3613SOL    HW211739   5.861   5.210   6.733
 3614SOL     OW11740   3.890   3.040   3.428
 3614SOL    HW111741   3.847   2.967   3.482
 3614SOL    HW211742   3.819   3.095   3.384
 3615SOL     OW11743   6.056   6.022   6.119
 3615SOL    HW111744   6.010   6.064   6.197
 3615SOL    HW211745   6.122   5.955   6.152
 3616SOL     OW11746   0.286   2.179   5.189
 3616SOL    HW111747   0.240   2.264   5.164
 3616SOL    HW211748   0.352   2.197   5.262
 3617SOL     OW11749   0.036   1.811   6.207
 3617SOL    HW111750   0.050   1.748   6.130
 3617SOL    HW211751   7.020   1.896   6.174
 3618SOL     OW11752   2.081   1.838   6.548
 3618SOL    HW111753   2.006   1.900   6.524
 3618SOL    HW211754   2.045   1.762   6.602
 3619SOL     OW11755   5.537   2.286   4.153
 3619SOL    HW111756   5.550   2.380   4.119
 3619SOL    HW211757   5.589   2.223   4.096
 3620SOL     OW11758   6.003   0.089   4.907
 3620SOL    HW111759   5.980   0.040   4.992
 3620SOL    HW211760   6.027   0.183   4.929
 3621SOL     OW11761   2.476   3.489   5.637
 3621SOL    HW111762   2.545   3.486   5.710
 3621SOL    HW211763   2.387   3.514   5.677
 3622SOL     OW11764   0.999   2.285   1.750
 3622SOL    HW111765   0.901   2.290   1.732
 3622SOL    HW211766   1.022   2.345   1.826
 3623SOL     OW11767   5.261   5.043   3.623
 3623SOL    HW111768   5.163   5.039   3.608
 3623SOL    HW211769   5.307   5.077   3.541
 3624SOL     OW11770   2.333   6.630   2.971
 3624SOL    HW111771   2.342   6.655   2.874
 3624SOL    HW211772   2.411   6.574   2.998
 3625SOL     OW11773   6.073   3.243   5.057
 3625SOL    HW111774   6.155   3.205   5.100
 3625SOL    HW211775   6.001   3.174   5.055
 3626SOL     OW11776   2.062   3.935   5.213
 3626SOL    HW111777   2.147   3.940   5.160
 3626SOL    HW211778   2.055   3.846   5.258
 3627SOL     OW11779   3.032   3.415   3.627
 3627SOL    HW111780   2.974   3.493   3.649
 3627SOL    HW211781   3.036   3.353   3.706
 3628SOL     OW11782   2.743   5.341   2.210
 3628SOL    HW111783   2.706   5.259   2.168
 3628SOL    HW211784   2.680   5.374   2.281
 3629SOL     OW11785   6.147   1.556   5.079
 3629SOL    HW111786   6.197   1.471   5.093
 3629SOL    HW211787   6.064   1.556   5.134
 3630SOL     OW11788   6.375   2.046   4.772
 3630SOL    HW111789   6.357   2.070   4.677
 3630SOL    HW211790   6.429   2.119   4.815
 3631SOL     OW11791   2.497   0.665   4.904
 3631SOL    HW111792   2.475   0.641   4.998
 3631SOL    HW211793   2.565   0.739   4.904
 3632SOL     OW11794   4.953   0.576   0.508
 3632SOL    HW111795   4.884   0.619   0.449
 3632SOL    HW211796   5.032   0.637   0.516
 3633SOL     OW11797   2.656   2.516   5.872
 3633SOL    HW111798   2.730   2.489   5.933
 3633SOL    HW211799   2.665   2.613   5.849
 3634SOL     OW11800   1.883   5.773   5.175
 3634SOL    HW111801   1.882   5.867   5.208
 3634SOL    HW211802   1.850   5.770   5.081
 3635SOL     OW11803   2.707   1.596   5.736
 3635SOL    HW111804   2.618   1.605   5.690
 3635SOL    HW211805   2.742   1.503   5.721
 3636SOL     OW11806   0.595   5.285   5.931
 3636SOL    HW111807   0.565   5.268   5.838
 3636SOL    HW211808   0.646   5.205   5.964
 3637SOL     OW11809   5.345   0.931   1.318
 3637SOL    HW111810   5.301   1.007   1.366
 3637SOL    HW211811   5.376   0.864   1.386
 3638SOL     OW11812   0.238   4.658   3.905
 3638SOL    HW111813   0.300   4.693   3.975
 3638SOL    HW211814   0.291   4.637   3.822
 3639SOL     OW11815   2.237   4.863   1.198
 3639SOL    HW111816   2.195   4.775   1.174
 3639SOL    HW211817   2.165   4.930   1.217
 3640SOL     OW11818   3.567   5.627   1.391
 3640SOL    HW111819   3.617   5.708   1.422
 3640SOL    HW211820   3.598   5.547   1.442
 3641SOL     OW11821   3.125   0.985   5.125
 3641SOL    HW111822   3.113   0.893   5.089
 3641SOL    HW211823   3.078   1.050   5.065
 3642SOL     OW11824   5.270   0.863   4.497
 3642SOL    HW111825   5.329   0.871   4.576
 3642SOL    HW211826   5.230   0.771   4.495
 3643SOL     OW11827   2.140   5.127   5.191
 3643SOL    HW111828   2.229   5.102   5.154
 3643SOL    HW211829   2.139   5.224   5.213
 3644SOL     OW11830   6.952   1.656   0.813
 3644SOL    HW111831   6.967   1.702   0.900
 3644SOL    HW211832   6.864   1.685   0.774
 3645SOL     OW11833   4.583   1.721   3.533
 3645SOL    HW111834   4.590   1.652   3.606
 3645SOL    HW211835   4.515   1.789   3.559
 3646SOL     OW11836   0.157   4.833   5.451
 3646SOL    HW111837   0.106   4.838   5.537
 3646SOL    HW211838   0.255   4.824   5.471
 3647SOL     OW11839   1.650   2.983   0.922
 3647SOL    HW111840   1.574   2.948   0.867
 3647SOL    HW211841   1.661   2.925   1.003
 3648SOL     OW11842   3.849   5.540   2.121
 3648SOL    HW111843   3.901   5.465   2.079
 3648SOL    HW211844   3.887   5.560   2.212
 3649SOL     OW11845   4.480   3.316   0.970
 3649SOL    HW111846   4.466   3.314   1.069
 3649SOL    HW211847   4.392   3.320   0.923
 3650SOL     OW11848   0.493   6.038   1.052
 3650SOL    HW111849   0.489   5.947   1.012
 3650SOL    HW211850   0.568   6.089   1.009
 3651SOL     OW11851   0.261   5.725   2.340
 3651SOL    HW111852   0.303   5.768   2.420
 3651SOL    HW211853   0.190   5.785   2.304
 3652SOL     OW11854   4.700   6.362   3.655
 3652SOL    HW111855   4.799   6.373   3.641
 3652SOL    HW211856   4.678   6.265   3.664
 3653SOL     OW11857   6.512   1.630   3.108
 3653SOL    HW111858   6.475   1.562   3.045
 3653SOL    HW211859   6.463   1.624   3.195
 3654SOL     OW11860   1.709   6.448   0.981
 3654SOL    HW111861   1.721   6.354   1.013
 3654SOL    HW211862   1.769   6.465   0.903
 3655SOL     OW11863   1.906   0.270   4.435
 3655SOL    HW111864   1.824   0.318   4.466
 3655SOL    HW211865   1.969   0.336   4.394
 3656SOL     OW11866   1.813   2.658   2.191
 3656SOL    HW111867   1.793   2.603   2.272
 3656SOL    HW211868   1.781   2.611   2.109
 3657SOL     OW11869   3.726   5.683   1.121
 3657SOL    HW111870   3.741   5.588   1.095
 3657SOL    HW211871   3.674   5.687   1.207
 3658SOL     OW11872   1.176   5.784   5.519
 3658SOL    HW111873   1.102   5.716   5.521
 3658SOL    HW211874   1.183   5.823   5.428
 3659SOL     OW11875   2.612   4.882   0.182
 3659SOL    HW111876   2.666   4.928   0.252
 3659SOL    HW211877   2.563   4.805   0.223
 3660SOL     OW11878   4.773   5.786   1.923
 3660SOL    HW111879   4.818   5.779   2.012
 3660SOL    HW211880   4.819   5.856   1.868
 3661SOL     OW11881   4.847   1.412   0.684
 3661SOL    HW111882   4.760   1.451   0.654
 3661SOL    HW211883   4.921   1.447   0.627
 3662SOL     OW11884   3.339   0.492   5.224
 3662SOL    HW111885   3.345   0.481   5.323
 3662SOL    HW211886   3.285   0.417   5.185
 3663SOL     OW11887   1.394   1.964   7.020
 3663SOL    HW111888   1.303   1.980   0.036
 3663SOL    HW211889   1.417   1.867   0.006
 3664SOL     OW11890   5.181   1.702   0.574
 3664SOL    HW111891   5.176   1.614   0.527
 3664SOL    HW211892   5.199   1.687   0.672
 3665SOL     OW11893   0.511   0.072   5.359
 3665SOL    HW111894   0.504   0.131   5.279
 3665SOL    HW211895   0.544   0.125   5.438
 3666SOL     OW11896   1.551   3.795   4.129
 3666SOL    HW111897   1.466   3.779   4.180
 3666SOL    HW211898   1.534   3.860   4.055
 3667SOL     OW11899   6.643   0.724   6.380
 3667SOL    HW111900   6.587   0.746   6.300
 3667SOL    HW211901   6.703   0.801   6.401
 3668SOL     OW11902   1.627   7.011   2.744
 3668SOL    HW111903   1.608   0.052   2.818
 3668SOL    HW211904   1.559   7.021   2.672
 3669SOL     OW11905   6.426   1.876   4.101
 3669SOL    HW111906   6.447   1.973   4.105
 3669SOL    HW211907   6.445   1.833   4.189
 3670SOL     OW11908   2.543   5.803   6.356
 3670SOL    HW111909   2.452   5.765   6.343
 3670SOL    HW211910   2.536   5.899   6.383
 3671SOL     OW11911   0.770   0.302   3.074
 3671SOL    HW111912   0.691   0.257   3.116
 3671SOL    HW211913   0.741   0.389   3.034
 3672SOL     OW11914   6.365   1.681   0.188
 3672SOL    HW111915   6.429   1.614   0.225
 3672SOL    HW211916   6.373   1.767   0.239
 3673SOL     OW11917   4.775   1.196   6.827
 3673SOL    HW111918   4.682   1.216   6.856
 3673SOL    HW211919   4.783   1.211   6.728
 3674SOL     OW11920   0.441   6.735   6.957
 3674SOL    HW111921   0.498   6.782   0.001
 3674SOL    HW211922   0.497   6.672   6.904
 3675SOL     OW11923   1.851   2.560   5.267
 3675SOL    HW111924   1.939   2.585   5.226
 3675SOL    HW211925   1.796   2.511   5.199
 3676SOL     OW11926   3.643   5.210   4.273
 3676SOL    HW111927   3.608   5.296   4.236
 3676SOL    HW211928   3.604   5.195   4.364
 3677SOL     OW11929   6.752   6.363   3.106
 3677SOL    HW111930   6.658   6.339   3.129
 3677SOL    HW211931   6.774   6.453   3.143
 3678SOL     OW11932   1.272   2.239   4.258
 3678SOL    HW111933   1.235   2.294   4.183
 3678SOL    HW211934   1.297   2.298   4.334
 3679SOL     OW11935   0.481   1.224   1.827
 3679SOL    HW111936   0.534   1.272   1.897
 3679SOL    HW211937   0.385   1.251   1.834
 3680SOL     OW11938   6.506   3.160   3.667
 3680SOL    HW111939   6.558   3.208   3.596
 3680SOL    HW211940   6.425   3.117   3.626
 3681SOL     OW11941   0.647   6.723   5.798
 3681SOL    HW111942   0.555   6.760   5.813
 3681SOL    HW211943   0.640   6.629   5.765
 3682SOL     OW11944   6.859   2.038   5.863
 3682SOL    HW111945   6.867   1.938   5.856
 3682SOL    HW211946   6.762   2.063   5.871
 3683SOL     OW11947   6.152   6.431   4.670
 3683SOL    HW111948   6.110   6.372   4.739
 3683SOL    HW211949   6.141   6.527   4.698
 3684SOL     OW11950   1.638   3.130   2.389
 3684SOL    HW111951   1.610   3.159   2.297
 3684SOL    HW211952   1.689   3.204   2.432
 3685SOL     OW11953   6.328   6.181   6.205
 3685SOL    HW111954   6.339   6.117   6.281
 3685SOL    HW211955   6.394   6.159   6.133
 3686SOL     OW11956   6.320   4.633   1.794
 3686SOL    HW111957   6.404   4.653   1.844
 3686SOL    HW211958   6.331   4.550   1.740
 3687SOL     OW11959   2.710   6.918   6.671
 3687SOL    HW111960   2.653   6.959   6.600
 3687SOL    HW211961   2.807   6.932   6.647
 3688SOL     OW11962   1.176   3.602   6.813
 3688SOL    HW111963   1.273   3.576   6.805
 3688SOL    HW211964   1.120   3.538   6.760
 3689SOL     OW11965   2.000   1.151   5.113
 3689SOL    HW111966   1.939   1.198   5.049
 3689SOL    HW211967   1.979   1.180   5.207
 3690SOL     OW11968   5.710   0.454   5.993
 3690SOL    HW111969   5.711   0.355   6.006
 3690SOL    HW211970   5.635   0.494   6.046
 3691SOL     OW11971   2.799   3.745   6.988
 3691SOL    HW111972   2.773   3.841   6.998
 3691SOL    HW211973   2.866   3.722   0.035
 3692SOL     OW11974   1.191   6.477   5.084
 3692SOL    HW111975   1.169   6.536   5.007
 3692SOL    HW211976   1.122   6.488   5.155
 3693SOL     OW11977   3.052   2.135   3.361
 3693SOL    HW111978   3.113   2.147   3.439
 3693SOL    HW211979   3.104   2.103   3.282
 3694SOL     OW11980   1.231   6.480   3.640
 3694SOL    HW111981   1.175   6.425   3.577
 3694SOL    HW211982   1.270   6.420   3.710
 3695SOL     OW11983   1.851   1.710   2.526
 3695SOL    HW111984   1.900   1.772   2.464
 3695SOL    HW211985   1.913   1.640   2.560
 3696SOL     OW11986   4.747   6.734   5.788
 3696SOL    HW111987   4.828   6.720   5.844
 3696SOL    HW211988   4.726   6.832   5.784
 3697SOL     OW11989   0.124   6.858   3.109
 3697SOL    HW111990   0.179   6.906   3.178
 3697SOL    HW211991   0.080   6.778   3.150
 3698SOL     OW11992   3.069   0.097   5.963
 3698SOL    HW111993   3.142   0.165   5.962
 3698SOL    HW211994   3.045   0.072   5.869
 3699SOL     OW11995   6.420   3.814   2.989
 3699SOL    HW111996   6.352   3.884   2.969
 3699SOL    HW211997   6.509   3.857   3.002
 3700SOL     OW11998   5.968   0.750   4.176
 3700SOL    HW111999   5.946   0.751   4.078
 3700SOL    HW212000   6.066   0.737   4.188
 3701SOL     OW12001   0.032   1.111   4.467
 3701SOL    HW112002   6.988   1.135   4.537
 3701SOL    HW212003   0.105   1.179   4.466
 3702SOL     OW12004   3.568   0.344   1.267
 3702SOL    HW112005   3.490   0.317   1.210
 3702SOL    HW212006   3.573   0.284   1.347
 3703SOL     OW12007   3.955   4.809   6.065
 3703SOL    HW112008   3.894   4.764   5.999
 3703SOL    HW212009   3.901   4.871   6.123
 3704SOL     OW12010   2.513   1.261   2.584
 3704SOL    HW112011   2.524   1.163   2.604
 3704SOL    HW212012   2.601   1.299   2.555
 3705SOL     OW12013   4.876   0.408   3.535
 3705SOL    HW112014   4.846   0.432   3.627
 3705SOL    HW212015   4.836   0.320   3.509
 3706SOL     OW12016   1.872   3.103   4.383
 3706SOL    HW112017   1.935   3.057   4.321
 3706SOL    HW212018   1.877   3.202   4.368
 3707SOL     OW12019   4.728   2.194   6.105
 3707SOL    HW112020   4.822   2.199   6.071
 3707SOL    HW212021   4.694   2.100   6.095
 3708SOL     OW12022   6.257   0.621   6.472
 3708SOL    HW112023   6.289   0.714   6.450
 3708SOL    HW212024   6.157   0.620   6.472
 3709SOL     OW12025   3.813   0.971   5.750
 3709SOL    HW112026   3.763   0.990   5.835
 3709SOL    HW212027   3.764   0.902   5.697
 3710SOL     OW12028   6.753   5.177   0.270
 3710SOL    HW112029   6.761   5.276   0.269
 3710SOL    HW212030   6.752   5.144   0.364
 3711SOL     OW12031   0.165   6.144   2.258
 3711SOL    HW112032   0.256   6.143   2.218
 3711SOL    HW212033   0.096   6.157   2.187
 3712SOL     OW12034   0.670   6.494   6.634
 3712SOL    HW112035   0.734   6.571   6.628
 3712SOL    HW212036   0.704   6.418   6.578
 3713SOL     OW12037   3.238   5.984   5.167
 3713SOL    HW112038   3.212   5.896   5.206
 3713SOL    HW212039   3.155   6.038   5.148
 3714SOL     OW12040   4.621   0.201   4.703
 3714SOL    HW112041   4.691   0.200   4.775
 3714SOL    HW212042   4.548   0.136   4.726
 3715SOL     OW12043   4.975   5.169   4.152
 3715SOL    HW112044   4.910   5.223   4.205
 3715SOL    HW212045   4.961   5.072   4.171
 3716SOL     OW12046   6.713   0.245   4.303
 3716SOL    HW112047   6.748   0.209   4.389
 3716SOL    HW212048   6.744   0.339   4.291
 3717SOL     OW12049   6.208   5.723   0.723
 3717SOL    HW112050   6.111   5.700   0.720
 3717SOL    HW212051   6.261   5.649   0.682
 3718SOL     OW12052   1.082   6.361   7.007
 3718SOL    HW112053   1.168   6.388   0.027
 3718SOL    HW212054   1.053   6.433   6.944
 3719SOL     OW12055   4.384   5.117   0.406
 3719SOL    HW112056   4.413   5.034   0.359
 3719SOL    HW212057   4.336   5.177   0.342
 3720SOL     OW12058   6.592   1.752   6.274
 3720SOL    HW112059   6.689   1.766   6.292
 3720SOL    HW212060   6.540   1.831   6.307
 3721SOL     OW12061   5.406   5.102   0.443
 3721SOL    HW112062   5.428   5.197   0.424
 3721SOL    HW212063   5.467   5.066   0.513
 3722SOL     OW12064   0.022   5.814   2.516
 3722SOL    HW112065   7.009   5.895   2.471
 3722SOL    HW212066   6.997   5.733   2.483
 3723SOL     OW12067   5.326   6.862   1.795
 3723SOL    HW112068   5.406   6.919   1.810
 3723SOL    HW212069   5.349   6.789   1.731
 3724SOL     OW12070   1.003   5.647   0.511
 3724SOL    HW112071   1.079   5.643   0.576
 3724SOL    HW212072   0.961   5.556   0.505
 3725SOL     OW12073   0.094   5.908   6.710
 3725SOL    HW112074   0.136   5.973   6.773
 3725SOL    HW212075   0.109   5.940   6.616
 3726SOL     OW12076   5.601   3.862   2.083
 3726SOL    HW112077   5.543   3.796   2.131
 3726SOL    HW212078   5.580   3.954   2.115
 3727SOL     OW12079   1.558   2.859   5.119
 3727SOL    HW112080   1.591   2.906   5.200
 3727SOL    HW212081   1.634   2.847   5.055
 3728SOL     OW12082   2.503   3.296   0.114
 3728SOL    HW112083   2.556   3.331   0.036
 3728SOL    HW212084   2.494   3.368   0.183
 3729SOL     OW12085   0.649   1.779   3.503
 3729SOL    HW112086   0.589   1.848   3.465
 3729SOL    HW212087   0.667   1.799   3.599
 3730SOL     OW12088   2.692   1.176   6.974
 3730SOL    HW112089   2.777   1.223   6.948
 3730SOL    HW212090   2.707   1.078   6.972
 3731SOL     OW12091   4.384   0.631   0.908
 3731SOL    HW112092   4.424   0.638   0.817
 3731SOL    HW212093   4.300   0.577   0.904
 3732SOL     OW12094   2.098   3.337   5.750
 3732SOL    HW112095   2.065   3.264   5.810
 3732SOL    HW212096   2.112   3.301   5.658
 3733SOL     OW12097   2.611   3.844   1.553
 3733SOL    HW112098   2.563   3.759   1.574
 3733SOL    HW212099   2.546   3.912   1.521
 3734SOL     OW12100   4.525   1.244   2.582
 3734SOL    HW112101   4.523   1.295   2.496
 3734SOL    HW212102   4.620   1.234   2.613
 3735SOL     OW12103   2.312   2.444   2.729
 3735SOL    HW112104   2.275   2.531   2.697
 3735SOL    HW212105   2.406   2.457   2.761
 3736SOL     OW12106   6.222   2.538   0.865
 3736SOL    HW112107   6.164   2.463   0.895
 3736SOL    HW212108   6.208   2.555   0.768
 3737SOL     OW12109   5.070   0.241   3.342
 3737SOL    HW112110   5.105   0.324   3.300
 3737SOL    HW212111   5.072   0.250   3.442
 3738SOL     OW12112   6.190   6.409   3.753
 3738SOL    HW112113   6.124   6.481   3.777
 3738SOL    HW212114   6.150   6.350   3.683
 3739SOL     OW12115   0.853   4.011   2.549
 3739SOL    HW112116   0.866   3.956   2.632
 3739SOL    HW212117   0.812   3.955   2.478
 3740SOL     OW12118   5.478   1.267   6.841
 3740SOL    HW112119   5.420   1.347   6.852
 3740SOL    HW212120   5.421   1.185   6.831
 3741SOL     OW12121   4.729   3.279   1.205
 3741SOL    HW112122   4.750   3.375   1.186
 3741SOL    HW212123   4.632   3.269   1.224
 3742SOL     OW12124   3.772   2.206   5.809
 3742SOL    HW112125   3.741   2.173   5.719
 3742SOL    HW212126   3.872   2.203   5.812
 3743SOL     OW12127   6.760   5.023   6.931
 3743SOL    HW112128   6.806   4.940   6.964
 3743SOL    HW212129   6.721   5.006   6.840
 3744SOL     OW12130   0.026   5.016   3.932
 3744SOL    HW112131   0.107   5.070   3.908
 3744SOL    HW212132   0.025   4.932   3.878
 3745SOL     OW12133   3.784   5.627   2.480
 3745SOL    HW112134   3.796   5.705   2.417
 3745SOL    HW212135   3.841   5.642   2.561
 3746SOL     OW12136   4.614   2.051   1.655
 3746SOL    HW112137   4.642   1.959   1.627
 3746SOL    HW212138   4.694   2.106   1.676
 3747SOL     OW12139   3.263   0.194   6.968
 3747SOL    HW112140   3.232   0.238   6.884
 3747SOL    HW212141   3.323   0.117   6.945
 3748SOL     OW12142   5.860   0.575   1.458
 3748SOL    HW112143   5.935   0.539   1.401
 3748SOL    HW212144   5.825   0.502   1.517
 3749SOL     OW12145   1.474   6.791   4.405
 3749SOL    HW112146   1.558   6.828   4.367
 3749SOL    HW212147   1.402   6.794   4.336
 3750SOL     OW12148   0.186   3.682   0.556
 3750SOL    HW112149   0.147   3.764   0.513
 3750SOL    HW212150   0.155   3.675   0.650
 3751SOL     OW12151   0.344   4.632   2.904
 3751SOL    HW112152   0.277   4.559   2.919
 3751SOL    HW212153   0.436   4.597   2.922
 3752SOL     OW12154   6.372   1.109   5.777
 3752SOL    HW112155   6.344   1.105   5.680
 3752SOL    HW212156   6.451   1.169   5.786
 3753SOL     OW12157   6.463   1.005   3.658
 3753SOL    HW112158   6.536   1.063   3.694
 3753SOL    HW212159   6.489   0.909   3.671
 3754SOL     OW12160   1.647   1.685   1.533
 3754SOL    HW112161   1.734   1.734   1.530
 3754SOL    HW212162   1.572   1.750   1.519
 3755SOL     OW12163   2.968   5.049   4.444
 3755SOL    HW112164   2.937   5.114   4.513
 3755SOL    HW212165   2.943   4.956   4.472
 3756SOL     OW12166   2.747   6.416   6.528
 3756SOL    HW112167   2.668   6.407   6.589
 3756SOL    HW212168   2.716   6.442   6.437
 3757SOL     OW12169   6.121   4.454   1.437
 3757SOL    HW112170   6.080   4.363   1.446
 3757SOL    HW212171   6.049   4.523   1.432
 3758SOL     OW12172   2.215   0.032   3.115
 3758SOL    HW112173   2.160   6.972   3.120
 3758SOL    HW212174   2.225   0.059   3.020
 3759SOL     OW12175   5.138   0.615   4.482
 3759SOL    HW112176   5.186   0.554   4.545
 3759SOL    HW212177   5.078   0.562   4.423
 3760SOL     OW12178   7.022   0.749   3.431
 3760SOL    HW112179   0.005   0.665   3.378
 3760SOL    HW212180   0.023   0.731   3.526
 3761SOL     OW12181   5.405   1.351   4.157
 3761SOL    HW112182   5.412   1.445   4.124
 3761SOL    HW212183   5.492   1.322   4.195
 3762SOL     OW12184   0.711   3.947   3.050
 3762SOL    HW112185   0.795   3.966   3.000
 3762SOL    HW212186   0.634   3.991   3.004
 3763SOL     OW12187   6.943   4.711   0.105
 3763SOL    HW112188   6.855   4.719   0.059
 3763SOL    HW212189   6.943   4.767   0.188
 3764SOL     OW12190   1.681   6.797   2.893
 3764SOL    HW112191   1.662   6.856   2.814
 3764SOL    HW212192   1.763   6.830   2.941
 3765SOL     OW12193   6.180   2.123   2.048
 3765SOL    HW112194   6.185   2.040   1.993
 3765SOL    HW212195   6.094   2.171   2.029
 3766SOL     OW12196   1.155   4.225   3.234
 3766SOL    HW112197   1.145   4.159   3.309
 3766SOL    HW212198   1.194   4.309   3.270
 3767SOL     OW12199   2.464   5.148   6.015
 3767SOL    HW112200   2.477   5.070   6.077
 3767SOL    HW212201   2.424   5.224   6.065
 3768SOL     OW12202   1.511   0.424   4.899
 3768SOL    HW112203   1.610   0.438   4.891
 3768SOL    HW212204   1.483   0.445   4.993
 3769SOL     OW12205   5.132   6.240   4.458
 3769SOL    HW112206   5.124   6.143   4.480
 3769SOL    HW212207   5.047   6.286   4.479
 3770SOL     OW12208   0.848   0.902   0.506
 3770SOL    HW112209   0.936   0.902   0.552
 3770SOL    HW212210   0.860   0.876   0.410
 3771SOL     OW12211   0.755   4.848   0.279
 3771SOL    HW112212   0.754   4.758   0.324
 3771SOL    HW212213   0.662   4.883   0.272
 3772SOL     OW12214   1.741   5.589   0.616
 3772SOL    HW112215   1.820   5.595   0.678
 3772SOL    HW212216   1.727   5.677   0.572
 3773SOL     OW12217   5.830   3.142   5.681
 3773SOL    HW112218   5.789   3.156   5.772
 3773SOL    HW212219   5.770   3.180   5.611
 3774SOL     OW12220   5.251   5.927   1.407
 3774SOL    HW112221   5.224   6.004   1.465
 3774SOL    HW212222   5.251   5.843   1.461
 3775SOL     OW12223   4.502   5.226   3.656
 3775SOL    HW112224   4.541   5.282   3.730
 3775SOL    HW212225   4.422   5.178   3.690
 3776SOL     OW12226   3.549   2.583   6.575
 3776SOL    HW112227   3.580   2.498   6.619
 3776SOL    HW212228   3.479   2.561   6.508
 3777SOL     OW12229   2.605   6.149   4.262
 3777SOL    HW112230   2.622   6.071   4.202
 3777SOL    HW212231   2.669   6.223   4.239
 3778SOL     OW12232   2.814   5.803   4.879
 3778SOL    HW112233   2.723   5.844   4.887
 3778SOL    HW212234   2.829   5.740   4.955
 3779SOL     OW12235   0.183   5.077   6.791
 3779SOL    HW112236   0.260   5.141   6.784
 3779SOL    HW212237   0.160   5.064   6.887
 3780SOL     OW12238   6.317   3.823   1.437
 3780SOL    HW112239   6.263   3.865   1.509
 3780SOL    HW212240   6.365   3.743   1.473
 3781SOL     OW12241   2.302   6.082   5.029
 3781SOL    HW112242   2.266   5.996   5.066
 3781SOL    HW212243   2.389   6.104   5.073
 3782SOL     OW12244   5.176   5.828   1.734
 3782SOL    HW112245   5.228   5.900   1.780
 3782SOL    HW212246   5.238   5.770   1.683
 3783SOL     OW12247   5.515   5.183   5.277
 3783SOL    HW112248   5.434   5.131   5.302
 3783SOL    HW212249   5.489   5.274   5.244
 3784SOL     OW12250   5.864   2.816   3.899
 3784SOL    HW112251   5.774   2.831   3.856
 3784SOL    HW212252   5.887   2.719   3.894
 3785SOL     OW12253   1.328   3.867   4.523
 3785SOL    HW112254   1.241   3.908   4.495
 3785SOL    HW212255   1.355   3.797   4.457
 3786SOL     OW12256   2.537   2.501   4.639
 3786SOL    HW112257   2.557   2.598   4.626
 3786SOL    HW212258   2.449   2.480   4.596
 3787SOL     OW12259   4.552   6.987   3.035
 3787SOL    HW112260   4.556   0.037   2.969
 3787SOL    HW212261   4.463   6.940   3.027
 3788SOL     OW12262   0.101   2.824   5.691
 3788SOL    HW112263   0.044   2.903   5.714
 3788SOL    HW212264   0.141   2.786   5.775
 3789SOL     OW12265   1.851   3.108   2.786
 3789SOL    HW112266   1.769   3.160   2.760
 3789SOL    HW212267   1.926   3.132   2.724
 3790SOL     OW12268   0.308   6.587   0.862
 3790SOL    HW112269   0.304   6.667   0.922
 3790SOL    HW212270   0.295   6.617   0.767
 3791SOL     OW12271   5.714   1.203   6.201
 3791SOL    HW112272   5.764   1.287   6.222
 3791SOL    HW212273   5.660   1.215   6.118
 3792SOL     OW12274   0.910   0.801   3.821
 3792SOL    HW112275   0.937   0.715   3.777
 3792SOL    HW212276   0.853   0.781   3.900
 3793SOL     OW12277   5.876   5.997   0.412
 3793SOL    HW112278   5.959   6.004   0.356
 3793SOL    HW212279   5.858   5.901   0.432
 3794SOL     OW12280   2.050   3.754   7.017
 3794SOL    HW112281   2.059   3.848   6.985
 3794SOL    HW212282   2.098   3.743   0.081
 3795SOL     OW12283   2.794   5.892   1.077
 3795SOL    HW112284   2.886   5.931   1.084
 3795SOL    HW212285   2.743   5.942   1.007
 3796SOL     OW12286   3.921   2.304   6.562
 3796SOL    HW112287   3.975   2.374   6.516
 3796SOL    HW212288   3.980   2.248   6.619
 3797SOL     OW12289   1.087   4.664   3.023
 3797SOL    HW112290   1.076   4.710   2.934
 3797SOL    HW212291   1.169   4.699   3.068
 3798SOL     OW12292   1.870   6.424   3.153
 3798SOL    HW112293   1.827   6.500   3.202
 3798SOL    HW212294   1.937   6.459   3.088
 3799SOL     OW12295   6.985   2.226   2.874
 3799SOL    HW112296   6.933   2.156   2.923
 3799SOL    HW212297   7.018   2.188   2.787
 3800SOL     OW12298   6.042   2.101   2.683
 3800SOL    HW112299   5.961   2.137   2.729
 3800SOL    HW212300   6.125   2.130   2.731
 3801SOL     OW12301   5.537   0.005   1.811
 3801SOL    HW112302   5.546   0.053   1.898
 3801SOL    HW212303   5.564   0.066   1.737
 3802SOL     OW12304   6.212   1.922   2.250
 3802SOL    HW112305   6.300   1.883   2.277
 3802SOL    HW212306   6.226   1.988   2.176
 3803SOL     OW12307   2.920   3.864   4.396
 3803SOL    HW112308   2.931   3.778   4.347
 3803SOL    HW212309   2.836   3.861   4.451
 3804SOL     OW12310   3.513   6.662   4.496
 3804SOL    HW112311   3.475   6.621   4.413
 3804SOL    HW212312   3.555   6.750   4.474
 3805SOL     OW12313   2.337   2.760   0.329
 3805SOL    HW112314   2.319   2.857   0.348
 3805SOL    HW212315   2.302   2.705   0.404
 3806SOL     OW12316   3.593   4.116   0.043
 3806SOL    HW112317   3.520   4.100   0.110
 3806SOL    HW212318   3.674   4.152   0.090
 3807SOL     OW12319   1.609   4.565   4.319
 3807SOL    HW112320   1.567   4.646   4.279
 3807SOL    HW212321   1.704   4.584   4.342
 3808SOL     OW12322   4.057   0.096   6.195
 3808SOL    HW112323   4.117   0.021   6.223
 3808SOL    HW212324   4.018   0.139   6.276
 3809SOL     OW12325   5.040   2.213   1.385
 3809SOL    HW112326   4.992   2.289   1.429
 3809SOL    HW212327   5.026   2.130   1.438
 3810SOL     OW12328   6.551   2.444   2.282
 3810SOL    HW112329   6.522   2.353   2.252
 3810SOL    HW212330   6.598   2.490   2.207
 3811SOL     OW12331   6.859   5.696   4.717
 3811SOL    HW112332   6.849   5.707   4.816
 3811SOL    HW212333   6.919   5.768   4.681
 3812SOL     OW12334   3.922   6.601   6.811
 3812SOL    HW112335   4.021   6.584   6.810
 3812SOL    HW212336   3.892   6.615   6.905
 3813SOL     OW12337   6.491   3.946   0.339
 3813SOL    HW112338   6.578   3.970   0.297
 3813SOL    HW212339   6.434   3.897   0.273
 3814SOL     OW12340   6.438   6.882   4.420
 3814SOL    HW112341   6.517   6.902   4.477
 3814SOL    HW212342   6.408   6.966   4.373
 3815SOL     OW12343   5.125   3.541   0.454
 3815SOL    HW112344   5.147   3.508   0.545
 3815SOL    HW212345   5.048   3.490   0.417
 3816SOL     OW12346   1.025   5.538   6.089
 3816SOL    HW112347   0.928   5.554   6.068
 3816SOL    HW212348   1.056   5.604   6.157
 3817SOL     OW12349   4.929   3.069   2.202
 3817SOL    HW112350   4.925   3.160   2.244
 3817SOL    HW212351   4.853   3.058   2.139
 3818SOL     OW12352   0.307   0.997   1.877
 3818SOL    HW112353   0.248   1.008   1.957
 3818SOL    HW212354   0.402   1.011   1.905
 3819SOL     OW12355   6.628   4.680   4.055
 3819SOL    HW112356   6.683   4.623   3.994
 3819SOL    HW212357   6.535   4.642   4.061
 3820SOL     OW12358   5.426   0.185   4.300
 3820SOL    HW112359   5.445   0.156   4.206
 3820SOL    HW212360   5.334   0.224   4.306
 3821SOL     OW12361   1.082   0.088   6.893
 3821SOL    HW112362   1.056   0.176   6.934
 3821SOL    HW212363   1.119   0.103   6.801
 3822SOL     OW12364   4.143   1.418   0.157
 3822SOL    HW112365   4.080   1.469   0.098
 3822SOL    HW212366   4.140   1.321   0.133
 3823SOL     OW12367   5.055   4.686   5.922
 3823SOL    HW112368   5.009   4.720   5.840
 3823SOL    HW212369   5.154   4.695   5.912
 3824SOL     OW12370   2.035   3.278   0.189
 3824SOL    HW112371   1.951   3.330   0.181
 3824SOL    HW212372   2.079   3.298   0.277
 3825SOL     OW12373   1.672   3.497   6.329
 3825SOL    HW112374   1.696   3.428   6.397
 3825SOL    HW212375   1.588   3.543   6.356
 3826SOL     OW12376   5.550   4.154   2.451
 3826SOL    HW112377   5.607   4.103   2.515
 3826SOL    HW212378   5.563   4.120   2.358
 3827SOL     OW12379   1.478   1.274   1.519
 3827SOL    HW112380   1.471   1.360   1.468
 3827SOL    HW212381   1.424   1.204   1.472
 3828SOL     OW12382   4.008   3.897   4.535
 3828SOL    HW112383   3.998   3.970   4.467
 3828SOL    HW212384   3.970   3.927   4.622
 3829SOL     OW12385   0.534   4.049   2.885
 3829SOL    HW112386   0.507   4.099   2.967
 3829SOL    HW212387   0.596   4.105   2.830
 3830SOL     OW12388   0.331   0.666   4.634
 3830SOL    HW112389   0.412   0.668   4.575
 3830SOL    HW212390   0.259   0.723   4.593
 3831SOL     OW12391   4.490   1.639   3.239
 3831SOL    HW112392   4.497   1.650   3.339
 3831SOL    HW212393   4.581   1.641   3.199
 3832SOL     OW12394   0.648   0.573   2.281
 3832SOL    HW112395   0.629   0.668   2.257
 3832SOL    HW212396   0.698   0.571   2.368
 3833SOL     OW12397   1.016   0.186   6.617
 3833SOL    HW112398   1.028   0.271   6.566
 3833SOL    HW212399   1.076   0.115   6.579
 3834SOL     OW12400   4.745   4.037   1.308
 3834SOL    HW112401   4.652   4.037   1.271
 3834SOL    HW212402   4.796   4.114   1.271
 3835SOL     OW12403   3.856   5.829   5.399
 3835SOL    HW112404   3.877   5.799   5.306
 3835SOL    HW212405   3.940   5.860   5.443
 3836SOL     OW12406   0.103   5.210   6.212
 3836SOL    HW112407   0.061   5.300   6.219
 3836SOL    HW212408   0.031   5.140   6.214
 3837SOL     OW12409   4.178   4.850   4.956
 3837SOL    HW112410   4.189   4.947   4.977
 3837SOL    HW212411   4.123   4.840   4.873
 3838SOL     OW12412   2.038   1.322   3.208
 3838SOL    HW112413   2.078   1.273   3.130
 3838SOL    HW212414   1.965   1.382   3.176
 3839SOL     OW12415   4.353   0.275   2.978
 3839SOL    HW112416   4.362   0.292   3.076
 3839SOL    HW212417   4.316   0.183   2.963
 3840SOL     OW12418   2.354   0.650   0.371
 3840SOL    HW112419   2.284   0.695   0.316
 3840SOL    HW212420   2.313   0.572   0.419
 3841SOL     OW12421   6.253   4.902   4.192
 3841SOL    HW112422   6.227   4.966   4.119
 3841SOL    HW212423   6.228   4.809   4.165
 3842SOL     OW12424   2.228   2.844   5.229
 3842SOL    HW112425   2.237   2.794   5.315
 3842SOL    HW212426   2.306   2.905   5.218
 3843SOL     OW12427   5.064   2.789   0.453
 3843SOL    HW112428   5.006   2.784   0.534
 3843SOL    HW212429   5.159   2.805   0.481
 3844SOL     OW12430   1.530   4.911   7.018
 3844SOL    HW112431   1.474   4.906   0.077
 3844SOL    HW212432   1.470   4.909   6.937
 3845SOL     OW12433   2.362   6.593   0.260
 3845SOL    HW112434   2.425   6.516   0.248
 3845SOL    HW212435   2.410   6.668   0.306
 3846SOL     OW12436   1.009   3.106   3.931
 3846SOL    HW112437   1.089   3.164   3.916
 3846SOL    HW212438   1.038   3.011   3.940
 3847SOL     OW12439   6.253   1.273   5.332
 3847SOL    HW112440   6.204   1.229   5.256
 3847SOL    HW212441   6.324   1.333   5.295
 3848SOL     OW12442   5.331   3.335   2.472
 3848SOL    HW112443   5.325   3.236   2.461
 3848SOL    HW212444   5.292   3.361   2.561
 3849SOL     OW12445   0.226   5.854   6.252
 3849SOL    HW112446   0.227   5.932   6.189
 3849SOL    HW212447   0.229   5.769   6.200
 3850SOL     OW12448   2.864   2.027   1.168
 3850SOL    HW112449   2.866   2.108   1.225
 3850SOL    HW212450   2.798   2.040   1.094
 3851SOL     OW12451   6.996   5.606   3.617
 3851SOL    HW112452   6.965   5.661   3.540
 3851SOL    HW212453   0.058   5.561   3.594
 3852SOL     OW12454   2.942   6.830   4.494
 3852SOL    HW112455   3.033   6.838   4.535
 3852SOL    HW212456   2.950   6.827   4.394
 3853SOL     OW12457   2.163   1.339   3.764
 3853SOL    HW112458   2.160   1.284   3.847
 3853SOL    HW212459   2.252   1.327   3.719
 3854SOL     OW12460   1.378   2.563   2.678
 3854SOL    HW112461   1.475   2.546   2.661
 3854SOL    HW212462   1.333   2.477   2.704
 3855SOL     OW12463   4.323   6.627   0.152
 3855SOL    HW112464   4.233   6.639   0.111
 3855SOL    HW212465   4.359   6.715   0.182
 3856SOL     OW12466   6.913   2.035   6.146
 3856SOL    HW112467   6.953   2.126   6.162
 3856SOL    HW212468   6.842   2.042   6.076
 3857SOL     OW12469   2.212   0.575   5.759
 3857SOL    HW112470   2.113   0.564   5.771
 3857SOL    HW212471   2.250   0.490   5.722
 3858SOL     OW12472   3.309   1.656   5.308
 3858SOL    HW112473   3.289   1.714   5.229
 3858SOL    HW212474   3.245   1.579   5.310
 3859SOL     OW12475   5.318   0.402   1.042
 3859SOL    HW112476   5.387   0.431   1.108
 3859SOL    HW212477   5.254   0.477   1.026
 3860SOL     OW12478   2.034   0.499   4.307
 3860SOL    HW112479   1.968   0.557   4.260
 3860SOL    HW212480   2.100   0.557   4.355
 3861SOL     OW12481   4.318   5.276   2.299
 3861SOL    HW112482   4.346   5.292   2.393
 3861SOL    HW212483   4.391   5.229   2.249
 3862SOL     OW12484   0.222   6.695   4.242
 3862SOL    HW112485   0.184   6.612   4.201
 3862SOL    HW212486   0.320   6.684   4.256
 3863SOL     OW12487   4.401   0.782   0.478
 3863SOL    HW112488   4.403   0.724   0.397
 3863SOL    HW212489   4.355   0.869   0.457
 3864SOL     OW12490   2.304   0.447   4.874
 3864SOL    HW112491   2.381   0.510   4.860
 3864SOL    HW212492   2.316   0.367   4.815
 3865SOL     OW12493   4.530   0.656   6.993
 3865SOL    HW112494   4.542   0.662   6.894
 3865SOL    HW212495   4.512   0.561   7.018
 3866SOL     OW12496   3.252   2.373   7.000
 3866SOL    HW112497   3.187   2.447   6.984
 3866SOL    HW212498   3.213   2.287   6.967
 3867SOL     OW12499   1.468   4.348   2.922
 3867SOL    HW112500   1.433   4.328   2.830
 3867SOL    HW212501   1.465   4.265   2.978
 3868SOL     OW12502   3.357   0.362   6.371
 3868SOL    HW112503   3.294   0.288   6.347
 3868SOL    HW212504   3.424   0.327   6.437
 3869SOL     OW12505   0.047   3.621   3.596
 3869SOL    HW112506   0.013   3.664   3.680
 3869SOL    HW212507   0.125   3.563   3.617
 3870SOL     OW12508   6.701   6.965   3.087
 3870SOL    HW112509   6.619   6.957   3.032
 3870SOL    HW212510   6.677   6.971   3.184
 3871SOL     OW12511   3.341   6.255   3.797
 3871SOL    HW112512   3.253   6.287   3.762
 3871SOL    HW212513   3.392   6.211   3.723
 3872SOL     OW12514   3.449   3.345   4.191
 3872SOL    HW112515   3.361   3.305   4.168
 3872SOL    HW212516   3.481   3.402   4.114
 3873SOL     OW12517   5.351   3.696   0.640
 3873SOL    HW112518   5.316   3.677   0.732
 3873SOL    HW212519   5.276   3.722   0.580
 3874SOL     OW12520   4.246   0.007   0.268
 3874SOL    HW112521   4.227   0.046   0.357
 3874SOL    HW212522   4.204   0.063   0.197
 3875SOL     OW12523   2.001   2.786   4.430
 3875SOL    HW112524   2.024   2.691   4.451
 3875SOL    HW212525   1.904   2.802   4.450
 3876SOL     OW12526   4.056   6.480   0.320
 3876SOL    HW112527   4.108   6.438   0.245
 3876SOL    HW212528   4.091   6.572   0.337
 3877SOL     OW12529   6.701   2.275   0.649
 3877SOL    HW112530   6.637   2.349   0.627
 3877SOL    HW212531   6.654   2.205   0.702
 3878SOL     OW12532   4.860   0.170   4.394
 3878SOL    HW112533   4.810   0.250   4.427
 3878SOL    HW212534   4.938   0.152   4.454
 3879SOL     OW12535   5.602   5.225   6.943
 3879SOL    HW112536   5.544   5.172   7.006
 3879SOL    HW212537   5.545   5.269   6.874
 3880SOL     OW12538   5.354   4.479   5.250
 3880SOL    HW112539   5.384   4.446   5.339
 3880SOL    HW212540   5.259   4.510   5.255
 3881SOL     OW12541   1.041   3.395   1.028
 3881SOL    HW112542   1.122   3.440   1.064
 3881SOL    HW212543   0.965   3.461   1.024
 3882SOL     OW12544   1.234   1.024   0.256
 3882SOL    HW112545   1.248   1.034   0.158
 3882SOL    HW212546   1.218   1.114   0.297
 3883SOL     OW12547   4.992   0.265   2.819
 3883SOL    HW112548   5.032   0.353   2.794
 3883SOL    HW212549   5.053   0.216   2.881
 3884SOL     OW12550   0.760   5.891   3.099
 3884SOL    HW112551   0.835   5.945   3.063
 3884SOL    HW212552   0.762   5.894   3.199
 3885SOL     OW12553   5.816   6.689   3.101
 3885SOL    HW112554   5.809   6.703   3.199
 3885SOL    HW212555   5.737   6.638   3.068
 3886SOL     OW12556   4.699   5.832   5.859
 3886SOL    HW112557   4.644   5.896   5.913
 3886SOL    HW212558   4.669   5.834   5.764
 3887SOL     OW12559   0.878   6.607   0.406
 3887SOL    HW112560   0.814   6.668   0.454
 3887SOL    HW212561   0.911   6.651   0.323
 3888SOL     OW12562   5.532   6.626   4.542
 3888SOL    HW112563   5.437   6.657   4.549
 3888SOL    HW212564   5.569   6.650   4.453
 3889SOL     OW12565   6.147   2.427   6.741
 3889SOL    HW112566   6.143   2.523   6.713
 3889SOL    HW212567   6.063   2.381   6.712
 3890SOL     OW12568   5.671   4.552   4.360
 3890SOL    HW112569   5.650   4.643   4.325
 3890SOL    HW212570   5.718   4.561   4.448
 3891SOL     OW12571   4.762   4.325   3.309
 3891SOL    HW112572   4.693   4.378   3.359
 3891SOL    HW212573   4.796   4.250   3.367
 3892SOL     OW12574   0.442   3.159   1.296
 3892SOL    HW112575   0.401   3.231   1.354
 3892SOL    HW212576   0.502   3.102   1.352
 3893SOL     OW12577   4.452   3.333   1.511
 3893SOL    HW112578   4.457   3.261   1.581
 3893SOL    HW212579   4.481   3.420   1.550
 3894SOL     OW12580   5.326   0.748   6.631
 3894SOL    HW112581   5.385   0.779   6.706
 3894SOL    HW212582   5.331   0.649   6.623
 3895SOL     OW12583   1.697   0.274   5.157
 3895SOL    HW112584   1.789   0.248   5.126
 3895SOL    HW212585   1.692   0.373   5.167
 3896SOL     OW12586   0.605   0.982   6.567
 3896SOL    HW112587   0.575   0.889   6.587
 3896SOL    HW212588   0.593   1.040   6.648
 3897SOL     OW12589   4.472   5.797   2.442
 3897SOL    HW112590   4.398   5.800   2.375
 3897SOL    HW212591   4.439   5.755   2.526
 3898SOL     OW12592   3.761   2.717   0.203
 3898SOL    HW112593   3.695   2.783   0.237
 3898SOL    HW212594   3.781   2.649   0.274
 3899SOL     OW12595   4.587   0.042   6.248
 3899SOL    HW112596   4.548   6.977   6.222
 3899SOL    HW212597   4.543   0.115   6.195
 3900SOL     OW12598   5.525   3.390   3.882
 3900SOL    HW112599   5.588   3.350   3.950
 3900SOL    HW212600   5.536   3.342   3.795
 3901SOL     OW12601   3.374   0.883   6.211
 3901SOL    HW112602   3.403   0.789   6.201
 3901SOL    HW212603   3.286   0.896   6.165
 3902SOL     OW12604   6.021   3.130   2.013
 3902SOL    HW112605   6.026   3.114   2.111
 3902SOL    HW212606   6.110   3.111   1.971
 3903SOL     OW12607   3.799   6.523   0.353
 3903SOL    HW112608   3.896   6.508   0.335
 3903SOL    HW212609   3.787   6.608   0.405
 3904SOL     OW12610   1.706   0.156   6.611
 3904SOL    HW112611   1.763   0.232   6.581
 3904SOL    HW212612   1.682   0.169   6.708
 3905SOL     OW12613   6.722   6.691   6.264
 3905SOL    HW112614   6.738   6.657   6.171
 3905SOL    HW212615   6.778   6.773   6.279
 3906SOL     OW12616   5.570   6.874   5.559
 3906SOL    HW112617   5.593   6.841   5.650
 3906SOL    HW212618   5.554   6.797   5.498
 3907SOL     OW12619   6.051   0.983   3.838
 3907SOL    HW112620   5.983   0.932   3.785
 3907SOL    HW212621   6.025   0.985   3.934
 3908SOL     OW12622   0.578   2.699   6.853
 3908SOL    HW112623   0.551   2.662   6.942
 3908SOL    HW212624   0.668   2.742   6.860
 3909SOL     OW12625   5.611   6.195   4.634
 3909SOL    HW112626   5.631   6.162   4.542
 3909SOL    HW212627   5.561   6.124   4.684
 3910SOL     OW12628   3.311   4.173   2.370
 3910SOL    HW112629   3.338   4.233   2.445
 3910SOL    HW212630   3.354   4.204   2.285
 3911SOL     OW12631   6.052   1.757   5.325
 3911SOL    HW112632   6.115   1.804   5.263
 3911SOL    HW212633   5.969   1.731   5.276
 3912SOL     OW12634   5.689   1.187   4.746
 3912SOL    HW112635   5.679   1.097   4.790
 3912SOL    HW212636   5.610   1.204   4.688
 3913SOL     OW12637   2.056   6.904   6.361
 3913SOL    HW112638   2.140   6.958   6.366
 3913SOL    HW212639   1.992   6.935   6.431
 3914SOL     OW12640   2.767   0.712   1.270
 3914SOL    HW112641   2.821   0.642   1.223
 3914SOL    HW212642   2.681   0.725   1.222
 3915SOL     OW12643   5.273   6.122   1.055
 3915SOL    HW112644   5.189   6.156   1.098
 3915SOL    HW212645   5.294   6.031   1.091
 3916SOL     OW12646   1.107   6.798   3.748
 3916SOL    HW112647   1.117   6.897   3.745
 3916SOL    HW212648   1.163   6.757   3.676
 3917SOL     OW12649   0.161   6.661   6.771
 3917SOL    HW112650   0.178   6.574   6.817
 3917SOL    HW212651   0.134   6.730   6.838
 3918SOL     OW12652   5.807   5.722   1.887
 3918SOL    HW112653   5.826   5.675   1.801
 3918SOL    HW212654   5.724   5.778   1.877
 3919SOL     OW12655   4.443   6.864   0.218
 3919SOL    HW112656   4.497   6.897   0.140
 3919SOL    HW212657   4.380   6.935   0.248
 3920SOL     OW12658   2.555   3.825   0.939
 3920SOL    HW112659   2.538   3.827   0.841
 3920SOL    HW212660   2.649   3.799   0.957
 3921SOL     OW12661   0.082   3.551   1.144
 3921SOL    HW112662   0.152   3.546   1.073
 3921SOL    HW212663   0.031   3.636   1.135
 3922SOL     OW12664   0.017   3.947   1.801
 3922SOL    HW112665   6.980   3.873   1.830
 3922SOL    HW212666   7.021   3.970   1.706
 3923SOL     OW12667   6.733   0.757   0.541
 3923SOL    HW112668   6.692   0.699   0.470
 3923SOL    HW212669   6.661   0.791   0.601
 3924SOL     OW12670   5.532   5.206   4.005
 3924SOL    HW112671   5.435   5.185   3.994
 3924SOL    HW212672   5.543   5.305   4.014
 3925SOL     OW12673   1.695   4.976   1.296
 3925SOL    HW112674   1.651   5.016   1.216
 3925SOL    HW212675   1.698   4.877   1.287
 3926SOL     OW12676   5.229   4.545   2.530
 3926SOL    HW112677   5.294   4.490   2.479
 3926SOL    HW212678   5.175   4.600   2.467
 3927SOL     OW12679   6.515   2.648   5.265
 3927SOL    HW112680   6.488   2.581   5.196
 3927SOL    HW212681   6.612   2.637   5.286
 3928SOL     OW12682   3.959   6.136   6.862
 3928SOL    HW112683   4.035   6.174   6.809
 3928SOL    HW212684   3.931   6.201   6.932
 3929SOL     OW12685   0.333   0.501   4.307
 3929SOL    HW112686   0.277   0.426   4.342
 3929SOL    HW212687   0.368   0.555   4.384
 3930SOL     OW12688   2.560   2.012   4.719
 3930SOL    HW112689   2.657   1.990   4.718
 3930SOL    HW212690   2.535   2.047   4.810
 3931SOL     OW12691   1.432   1.861   1.525
 3931SOL    HW112692   1.382   1.903   1.601
 3931SOL    HW212693   1.370   1.850   1.447
 3932SOL     OW12694   1.219   4.269   3.716
 3932SOL    HW112695   1.314   4.247   3.737
 3932SOL    HW212696   1.210   4.289   3.618
 3933SOL     OW12697   1.742   6.671   6.405
 3933SOL    HW112698   1.773   6.736   6.335
 3933SOL    HW212699   1.724   6.720   6.490
 3934SOL     OW12700   6.699   0.638   6.733
 3934SOL    HW112701   6.722   0.712   6.670
 3934SOL    HW212702   6.707   0.550   6.686
 3935SOL     OW12703   3.124   6.958   6.781
 3935SOL    HW112704   3.052   6.980   6.847
 3935SOL    HW212705   3.213   6.972   6.824
 3936SOL     OW12706   6.492   5.187   5.377
 3936SOL    HW112707   6.505   5.130   5.458
 3936SOL    HW212708   6.394   5.193   5.357
 3937SOL     OW12709   0.350   1.258   2.747
 3937SOL    HW112710   0.358   1.239   2.649
 3937SOL    HW212711   0.261   1.299   2.766
 3938SOL     OW12712   0.900   2.093   3.190
 3938SOL    HW112713   0.866   2.000   3.205
 3938SOL    HW212714   0.978   2.110   3.250
 3939SOL     OW12715   2.115   2.672   3.018
 3939SOL    HW112716   2.199   2.722   3.001
 3939SOL    HW212717   2.038   2.718   2.973
 3940SOL     OW12718   4.591   4.326   0.987
 3940SOL    HW112719   4.677   4.368   1.014
 3940SOL    HW212720   4.559   4.264   1.059
 3941SOL     OW12721   5.670   3.260   5.173
 3941SOL    HW112722   5.587   3.208   5.149
 3941SOL    HW212723   5.646   3.333   5.236
 3942SOL     OW12724   0.546   6.473   6.876
 3942SOL    HW112725   0.600   6.484   6.793
 3942SOL    HW212726   0.582   6.397   6.930
 3943SOL     OW12727   6.979   2.707   3.748
 3943SOL    HW112728   0.010   2.625   3.767
 3943SOL    HW212729   6.988   2.731   3.652
 3944SOL     OW12730   4.695   2.851   4.871
 3944SOL    HW112731   4.660   2.776   4.815
 3944SOL    HW212732   4.659   2.843   4.964
 3945SOL     OW12733   6.821   2.018   6.932
 3945SOL    HW112734   6.773   2.044   6.848
 3945SOL    HW212735   6.896   2.082   6.950
 3946SOL     OW12736   5.606   4.095   4.732
 3946SOL    HW112737   5.624   4.145   4.648
 3946SOL    HW212738   5.570   4.157   4.802
 3947SOL     OW12739   5.189   6.121   6.987
 3947SOL    HW112740   5.179   6.060   0.043
 3947SOL    HW212741   5.244   6.200   7.013
 3948SOL     OW12742   0.193   4.829   2.023
 3948SOL    HW112743   0.125   4.883   2.073
 3948SOL    HW212744   0.235   4.763   2.085
 3949SOL     OW12745   5.346   6.591   3.339
 3949SOL    HW112746   5.344   6.642   3.253
 3949SOL    HW212747   5.308   6.499   3.324
 3950SOL     OW12748   1.565   4.356   0.803
 3950SOL    HW112749   1.644   4.404   0.843
 3950SOL    HW212750   1.495   4.423   0.779
 3951SOL     OW12751   4.655   0.073   1.394
 3951SOL    HW112752   4.622   0.043   1.304
 3951SOL    HW212753   4.705   0.159   1.384
 3952SOL     OW12754   7.008   2.384   1.885
 3952SOL    HW112755   6.924   2.343   1.850
 3952SOL    HW212756   7.007   2.483   1.869
 3953SOL     OW12757   4.057   4.597   1.182
 3953SOL    HW112758   4.031   4.583   1.087
 3953SOL    HW212759   4.155   4.583   1.193
 3954SOL     OW12760   4.050   5.284   5.867
 3954SOL    HW112761   3.955   5.256   5.878
 3954SOL    HW212762   4.054   5.376   5.828
 3955SOL     OW12763   2.941   0.766   6.287
 3955SOL    HW112764   2.849   0.764   6.248
 3955SOL    HW212765   3.006   0.733   6.220
 3956SOL     OW12766   1.428   0.704   2.358
 3956SOL    HW112767   1.385   0.757   2.431
 3956SOL    HW212768   1.491   0.762   2.307
 3957SOL     OW12769   4.277   0.109   4.105
 3957SOL    HW112770   4.231   0.193   4.135
 3957SOL    HW212771   4.270   0.040   4.178
 3958SOL     OW12772   5.616   1.599   4.293
 3958SOL    HW112773   5.584   1.656   4.217
 3958SOL    HW212774   5.626   1.504   4.262
 3959SOL     OW12775   5.357   6.009   0.424
 3959SOL    HW112776   5.454   6.029   0.432
 3959SOL    HW212777   5.326   5.958   0.504
 3960SOL     OW12778   5.127   1.056   6.396
 3960SOL    HW112779   5.069   0.975   6.380
 3960SOL    HW212780   5.221   1.035   6.369
 3961SOL     OW12781   4.723   1.033   2.857
 3961SOL    HW112782   4.735   1.044   2.758
 3961SOL    HW212783   4.659   0.958   2.874
 3962SOL     OW12784   2.242   5.046   6.381
 3962SOL    HW112785   2.182   4.972   6.412
 3962SOL    HW212786   2.281   5.092   6.461
 3963SOL     OW12787   4.514   5.160   2.174
 3963SOL    HW112788   4.545   5.157   2.079
 3963SOL    HW212789   4.582   5.118   2.233
 3964SOL     OW12790   4.710   4.612   3.739
 3964SOL    HW112791   4.713   4.615   3.839
 3964SOL    HW212792   4.671   4.524   3.710
 3965SOL     OW12793   4.921   3.386   4.340
 3965SOL    HW112794   4.921   3.305   4.281
 3965SOL    HW212795   4.891   3.361   4.432
 3966SOL     OW12796   4.372   6.071   6.626
 3966SOL    HW112797   4.318   5.989   6.647
 3966SOL    HW212798   4.430   6.054   6.546
 3967SOL     OW12799   2.104   3.992   1.976
 3967SOL    HW112800   2.081   4.015   1.881
 3967SOL    HW212801   2.129   3.896   1.983
 3968SOL     OW12802   4.102   0.581   0.872
 3968SOL    HW112803   4.111   0.667   0.822
 3968SOL    HW212804   4.018   0.583   0.925
 3969SOL     OW12805   1.436   5.040   2.424
 3969SOL    HW112806   1.379   5.040   2.506
 3969SOL    HW212807   1.456   5.135   2.397
 3970SOL     OW12808   4.675   5.974   3.114
 3970SOL    HW112809   4.711   5.884   3.089
 3970SOL    HW212810   4.595   5.995   3.057
 3971SOL     OW12811   3.299   5.390   4.118
 3971SOL    HW112812   3.393   5.422   4.106
 3971SOL    HW212813   3.238   5.445   4.061
 3972SOL     OW12814   1.740   3.828   0.161
 3972SOL    HW112815   1.646   3.853   0.184
 3972SOL    HW212816   1.759   3.852   0.066
 3973SOL     OW12817   1.025   5.567   0.149
 3973SOL    HW112818   0.931   5.531   0.140
 3973SOL    HW212819   1.023   5.667   0.147
 3974SOL     OW12820   2.053   6.652   6.046
 3974SOL    HW112821   1.997   6.588   5.994
 3974SOL    HW212822   2.138   6.669   5.996
 3975SOL     OW12823   5.554   1.586   6.475
 3975SOL    HW112824   5.477   1.551   6.527
 3975SOL    HW212825   5.542   1.562   6.378
 3976SOL     OW12826   2.248   5.946   2.926
 3976SOL    HW112827   2.280   5.981   3.013
 3976SOL    HW212828   2.326   5.928   2.866
 3977SOL     OW12829   1.860   2.635   6.641
 3977SOL    HW112830   1.951   2.599   6.620
 3977SOL    HW212831   1.823   2.586   6.720
 3978SOL     OW12832   5.725   5.432   3.543
 3978SOL    HW112833   5.717   5.334   3.524
 3978SOL    HW212834   5.748   5.445   3.639
 3979SOL     OW12835   3.531   1.009   6.416
 3979SOL    HW112836   3.470   0.955   6.358
 3979SOL    HW212837   3.477   1.060   6.484
 3980SOL     OW12838   5.585   6.931   6.438
 3980SOL    HW112839   5.592   6.990   6.518
 3980SOL    HW212840   5.503   6.953   6.386
 3981SOL     OW12841   4.400   6.052   0.432
 3981SOL    HW112842   4.482   6.025   0.381
 3981SOL    HW212843   4.343   5.972   0.449
 3982SOL     OW12844   2.356   6.463   3.279
 3982SOL    HW112845   2.408   6.397   3.225
 3982SOL    HW212846   2.306   6.525   3.219
 3983SOL     OW12847   4.841   5.248   3.907
 3983SOL    HW112848   4.835   5.150   3.924
 3983SOL    HW212849   4.905   5.289   3.971
 3984SOL     OW12850   6.435   1.124   1.791
 3984SOL    HW112851   6.447   1.073   1.876
 3984SOL    HW212852   6.496   1.088   1.721
 3985SOL     OW12853   3.021   5.614   6.881
 3985SOL    HW112854   2.922   5.622   6.865
 3985SOL    HW212855   3.071   5.639   6.798
 3986SOL     OW12856   5.156   1.729   2.548
 3986SOL    HW112857   5.213   1.799   2.506
 3986SOL    HW212858   5.192   1.638   2.526
 3987SOL     OW12859   3.621   4.955   4.193
 3987SOL    HW112860   3.561   4.926   4.268
 3987SOL    HW212861   3.615   5.054   4.181
 3988SOL     OW12862   3.612   5.163   6.772
 3988SOL    HW112863   3.654   5.134   6.685
 3988SOL    HW212864   3.515   5.179   6.758
 3989SOL     OW12865   0.003   2.201   6.953
 3989SOL    HW112866   7.007   2.248   0.016
 3989SOL    HW212867   0.102   2.195   6.940
 3990SOL     OW12868   4.819   2.538   2.461
 3990SOL    HW112869   4.884   2.566   2.390
 3990SOL    HW212870   4.853   2.566   2.550
 3991SOL     OW12871   6.902   1.304   1.477
 3991SOL    HW112872   6.833   1.256   1.423
 3991SOL    HW212873   6.936   1.382   1.425
 3992SOL     OW12874   2.928   2.340   0.713
 3992SOL    HW112875   3.013   2.294   0.687
 3992SOL    HW212876   2.886   2.381   0.631
 3993SOL     OW12877   1.477   2.835   2.741
 3993SOL    HW112878   1.434   2.747   2.724
 3993SOL    HW212879   1.407   2.907   2.739
 3994SOL     OW12880   2.556   0.175   6.219
 3994SOL    HW112881   2.600   0.141   6.302
 3994SOL    HW212882   2.621   0.232   6.169
 3995SOL     OW12883   2.216   3.563   6.095
 3995SOL    HW112884   2.207   3.589   5.999
 3995SOL    HW212885   2.168   3.630   6.152
 3996SOL     OW12886   0.066   6.514   5.186
 3996SOL    HW112887   0.060   6.604   5.230
 3996SOL    HW212888   0.153   6.505   5.138
 3997SOL     OW12889   5.666   1.927   3.394
 3997SOL    HW112890   5.690   1.835   3.363
 3997SOL    HW212891   5.631   1.980   3.317
 3998SOL     OW12892   3.705   0.969   4.486
 3998SOL    HW112893   3.701   0.870   4.496
 3998SOL    HW212894   3.612   1.006   4.485
 3999SOL     OW12895   5.880   1.824   4.068
 3999SOL    HW112896   5.856   1.738   4.114
 3999SOL    HW212897   5.927   1.803   3.982
 4000SOL     OW12898   2.766   6.354   4.213
 4000SOL    HW112899   2.796   6.360   4.118
 4000SOL    HW212900   2.789   6.438   4.262
 4001SOL     OW12901   2.851   1.944   4.640
 4001SOL    HW112902   2.916   1.928   4.565
 4001SOL    HW212903   2.846   2.042   4.659
 4002SOL     OW12904   3.237   3.559   1.536
 4002SOL    HW112905   3.189   3.629   1.589
 4002SOL    HW212906   3.177   3.479   1.524
 4003SOL     OW12907   3.371   0.190   4.061
 4003SOL    HW112908   3.414   0.103   4.038
 4003SOL    HW212909   3.280   0.173   4.099
 4004SOL     OW12910   6.328   2.148   4.517
 4004SOL    HW112911   6.280   2.068   4.480
 4004SOL    HW212912   6.332   2.220   4.447
 4005SOL     OW12913   4.658   5.382   5.858
 4005SOL    HW112914   4.626   5.449   5.925
 4005SOL    HW212915   4.582   5.320   5.835
 4006SOL     OW12916   4.075   4.997   1.836
 4006SOL    HW112917   3.977   4.988   1.854
 4006SOL    HW212918   4.093   5.089   1.800
 4007SOL     OW12919   6.994   2.826   0.195
 4007SOL    HW112920   0.024   2.796   0.117
 4007SOL    HW212921   6.897   2.829   0.170
 4008SOL     OW12922   2.718   2.441   5.114
 4008SOL    HW112923   2.790   2.403   5.171
 4008SOL    HW212924   2.735   2.418   5.018
 4009SOL     OW12925   4.075   3.254   1.858
 4009SOL    HW112926   4.147   3.321   1.842
 4009SOL    HW212927   3.987   3.301   1.868
 4010SOL     OW12928   2.682   3.231   1.430
 4010SOL    HW112929   2.775   3.205   1.455
 4010SOL    HW212930   2.683   3.274   1.339
 4011SOL     OW12931   1.109   2.268   2.179
 4011SOL    HW112932   1.178   2.301   2.243
 4011SOL    HW212933   1.028   2.239   2.229
 4012SOL     OW12934   6.604   4.371   2.588
 4012SOL    HW112935   6.670   4.363   2.513
 4012SOL    HW212936   6.648   4.411   2.668
 4013SOL     OW12937   3.702   1.991   4.717
 4013SOL    HW112938   3.681   1.896   4.694
 4013SOL    HW212939   3.729   2.040   4.634
 4014SOL     OW12940   6.373   6.484   2.317
 4014SOL    HW112941   6.356   6.533   2.232
 4014SOL    HW212942   6.407   6.392   2.296
 4015SOL     OW12943   4.716   4.186   6.339
 4015SOL    HW112944   4.780   4.234   6.279
 4015SOL    HW212945   4.766   4.118   6.393
 4016SOL     OW12946   2.517   6.011   6.078
 4016SOL    HW112947   2.547   6.096   6.121
 4016SOL    HW212948   2.556   5.933   6.126
 4017SOL     OW12949   6.963   5.476   0.449
 4017SOL    HW112950   6.896   5.494   0.378
 4017SOL    HW212951   6.937   5.522   0.533
 4018SOL     OW12952   4.540   5.865   2.087
 4018SOL    HW112953   4.509   5.778   2.127
 4018SOL    HW212954   4.600   5.846   2.010
 4019SOL     OW12955   4.997   4.402   2.486
 4019SOL    HW112956   4.960   4.412   2.394
 4019SOL    HW212957   5.093   4.430   2.487
 4020SOL     OW12958   4.587   2.768   5.143
 4020SOL    HW112959   4.540   2.824   5.211
 4020SOL    HW212960   4.535   2.684   5.126
 4021SOL     OW12961   3.238   5.272   6.354
 4021SOL    HW112962   3.221   5.205   6.282
 4021SOL    HW212963   3.321   5.247   6.403
 4022SOL     OW12964   5.022   1.363   0.288
 4022SOL    HW112965   5.076   1.391   0.209
 4022SOL    HW212966   4.942   1.423   0.296
 4023SOL     OW12967   6.586   2.355   5.170
 4023SOL    HW112968   6.686   2.344   5.170
 4023SOL    HW212969   6.552   2.352   5.264
 4024SOL     OW12970   3.976   5.551   4.001
 4024SOL    HW112971   4.076   5.552   3.994
 4024SOL    HW212972   3.942   5.645   3.996
 4025SOL     OW12973   0.591   3.314   3.642
 4025SOL    HW112974   0.691   3.323   3.642
 4025SOL    HW212975   0.559   3.299   3.736
 4026SOL     OW12976   4.840   6.419   4.026
 4026SOL    HW112977   4.827   6.374   3.937
 4026SOL    HW212978   4.864   6.515   4.011
 4027SOL     OW12979   3.805   4.446   1.608
 4027SOL    HW112980   3.893   4.430   1.564
 4027SOL    HW212981   3.789   4.375   1.676
 4028SOL     OW12982   2.131   1.732   3.584
 4028SOL    HW112983   2.092   1.673   3.513
 4028SOL    HW212984   2.225   1.755   3.559
 4029SOL     OW12985   1.956   4.136   5.741
 4029SOL    HW112986   1.929   4.211   5.802
 4029SOL    HW212987   2.031   4.084   5.784
 4030SOL     OW12988   1.042   1.871   5.149
 4030SOL    HW112989   1.101   1.877   5.230
 4030SOL    HW212990   0.977   1.796   5.161
 4031SOL     OW12991   4.088   5.767   4.267
 4031SOL    HW112992   4.119   5.672   4.266
 4031SOL    HW212993   4.123   5.812   4.349
 4032SOL     OW12994   5.504   0.316   3.885
 4032SOL    HW112995   5.595   0.290   3.852
 4032SOL    HW212996   5.446   0.235   3.889
 4033SOL     OW12997   2.940   3.394   4.579
 4033SOL    HW112998   3.025   3.437   4.610
 4033SOL    HW212999   2.924   3.311   4.633
 4034SOL     OW13000   6.687   1.891   3.921
 4034SOL    HW113001   6.588   1.894   3.908
 4034SOL    HW213002   6.711   1.945   4.002
 4035SOL     OW13003   0.782   4.040   0.010
 4035SOL    HW113004   0.866   4.006   0.052
 4035SOL    HW213005   0.728   4.088   0.078
 4036SOL     OW13006   6.474   6.879   2.959
 4036SOL    HW113007   6.462   6.806   3.027
 4036SOL    HW213008   6.450   6.844   2.868
 4037SOL     OW13009   0.828   3.311   6.955
 4037SOL    HW113010   0.837   3.328   0.030
 4037SOL    HW213011   0.762   3.375   6.916
 4038SOL     OW13012   4.887   4.621   3.509
 4038SOL    HW113013   4.826   4.570   3.570
 4038SOL    HW213014   4.837   4.697   3.468
 4039SOL     OW13015   5.359   6.335   0.005
 4039SOL    HW113016   5.397   6.326   0.098
 4039SOL    HW213017   5.429   6.310   6.962
 4040SOL     OW13018   3.257   6.652   1.422
 4040SOL    HW113019   3.337   6.712   1.422
 4040SOL    HW213020   3.268   6.582   1.352
 4041SOL     OW13021   1.279   6.294   3.848
 4041SOL    HW113022   1.291   6.386   3.885
 4041SOL    HW213023   1.219   6.241   3.909
 4042SOL     OW13024   6.150   5.105   1.929
 4042SOL    HW113025   6.087   5.091   2.005
 4042SOL    HW213026   6.149   5.023   1.871
 4043SOL     OW13027   6.074   2.349   0.969
 4043SOL    HW113028   6.122   2.321   1.052
 4043SOL    HW213029   5.989   2.297   0.960
 4044SOL     OW13030   5.745   0.151   3.378
 4044SOL    HW113031   5.649   0.139   3.406
 4044SOL    HW213032   5.763   0.249   3.363
 4045SOL     OW13033   2.224   5.860   6.320
 4045SOL    HW113034   2.228   5.823   6.413
 4045SOL    HW213035   2.141   5.828   6.275
 4046SOL     OW13036   1.094   3.139   1.717
 4046SOL    HW113037   1.169   3.202   1.736
 4046SOL    HW213038   1.014   3.165   1.771
 4047SOL     OW13039   2.795   3.605   1.665
 4047SOL    HW113040   2.861   3.564   1.602
 4047SOL    HW213041   2.748   3.681   1.620
 4048SOL     OW13042   4.768   0.164   0.853
 4048SOL    HW113043   4.743   0.200   0.763
 4048SOL    HW213044   4.716   0.080   0.871
 4049SOL     OW13045   5.198   0.170   4.713
 4049SOL    HW113046   5.250   0.085   4.701
 4049SOL    HW213047   5.116   0.167   4.655
 4050SOL     OW13048   2.285   6.947   0.607
 4050SOL    HW113049   2.289   6.981   0.701
 4050SOL    HW213050   2.252   7.020   0.547
 4051SOL     OW13051   3.661   4.222   1.778
 4051SOL    HW113052   3.598   4.279   1.726
 4051SOL    HW213053   3.670   4.132   1.735
 4052SOL     OW13054   0.479   0.513   0.849
 4052SOL    HW113055   0.520   0.565   0.924
 4052SOL    HW213056   0.483   0.568   0.765
 4053SOL     OW13057   3.566   4.986   3.532
 4053SOL    HW113058   3.608   4.927   3.463
 4053SOL    HW213059   3.585   5.082   3.510
 4054SOL     OW13060   3.920   2.536   1.363
 4054SOL    HW113061   3.920   2.441   1.330
 4054SOL    HW213062   3.993   2.587   1.316
 4055SOL     OW13063   3.935   1.599   6.061
 4055SOL    HW113064   3.930   1.638   5.969
 4055SOL    HW213065   3.940   1.673   6.128
 4056SOL     OW13066   3.648   3.641   0.781
 4056SOL    HW113067   3.667   3.715   0.717
 4056SOL    HW213068   3.552   3.645   0.808
 4057SOL     OW13069   5.051   2.557   6.821
 4057SOL    HW113070   5.114   2.555   6.898
 4057SOL    HW213071   4.967   2.509   6.845
 4058SOL     OW13072   1.799   1.003   5.606
 4058SOL    HW113073   1.750   0.920   5.633
 4058SOL    HW213074   1.743   1.083   5.627
 4059SOL     OW13075   0.628   1.772   4.606
 4059SOL    HW113076   0.621   1.740   4.512
 4059SOL    HW213077   0.674   1.703   4.662
 4060SOL     OW13078   4.242   5.166   4.271
 4060SOL    HW113079   4.286   5.250   4.300
 4060SOL    HW213080   4.195   5.181   4.183
 4061SOL     OW13081   3.327   2.855   1.824
 4061SOL    HW113082   3.237   2.897   1.839
 4061SOL    HW213083   3.315   2.764   1.785
 4062SOL     OW13084   2.550   0.712   3.266
 4062SOL    HW113085   2.518   0.620   3.288
 4062SOL    HW213086   2.649   0.717   3.277
 4063SOL     OW13087   2.852   5.007   6.508
 4063SOL    HW113088   2.791   4.929   6.520
 4063SOL    HW213089   2.895   5.002   6.418
 4064SOL     OW13090   6.587   0.761   3.689
 4064SOL    HW113091   6.616   0.673   3.726
 4064SOL    HW213092   6.659   0.798   3.630
 4065SOL     OW13093   6.148   5.990   0.328
 4065SOL    HW113094   6.153   6.037   0.240
 4065SOL    HW213095   6.228   6.015   0.384
 4066SOL     OW13096   5.844   4.023   1.518
 4066SOL    HW113097   5.753   3.987   1.540
 4066SOL    HW213098   5.909   3.992   1.588
 4067SOL     OW13099   6.041   1.027   2.011
 4067SOL    HW113100   5.996   0.980   2.087
 4067SOL    HW213101   6.006   0.992   1.925
 4068SOL     OW13102   6.403   0.486   3.808
 4068SOL    HW113103   6.357   0.574   3.815
 4068SOL    HW213104   6.502   0.500   3.797
 4069SOL     OW13105   5.931   5.232   0.817
 4069SOL    HW113106   6.016   5.282   0.829
 4069SOL    HW213107   5.874   5.278   0.750
 4070SOL     OW13108   1.283   3.430   2.988
 4070SOL    HW113109   1.233   3.464   2.909
 4070SOL    HW213110   1.231   3.357   3.033
 4071SOL     OW13111   1.390   6.533   3.936
 4071SOL    HW113112   1.465   6.521   3.871
 4071SOL    HW213113   1.423   6.513   4.029
 4072SOL     OW13114   1.448   0.059   4.706
 4072SOL    HW113115   1.377   0.110   4.755
 4072SOL    HW213116   1.445   0.081   4.609
 4073SOL     OW13117   2.393   5.580   6.786
 4073SOL    HW113118   2.325   5.508   6.801
 4073SOL    HW213119   2.411   5.627   6.873
 4074SOL     OW13120   1.734   3.752   0.562
 4074SOL    HW113121   1.747   3.848   0.537
 4074SOL    HW213122   1.742   3.741   0.661
 4075SOL     OW13123   4.776   1.517   3.443
 4075SOL    HW113124   4.730   1.605   3.452
 4075SOL    HW213125   4.713   1.444   3.470
 4076SOL     OW13126   1.852   3.241   3.968
 4076SOL    HW113127   1.766   3.205   4.005
 4076SOL    HW213128   1.904   3.166   3.926
 4077SOL     OW13129   3.063   1.511   0.467
 4077SOL    HW113130   3.083   1.416   0.488
 4077SOL    HW213131   3.110   1.537   0.382
 4078SOL     OW13132   5.946   3.870   1.731
 4078SOL    HW113133   5.889   3.846   1.810
 4078SOL    HW213134   5.979   3.786   1.688
 4079SOL     OW13135   0.621   0.679   3.740
 4079SOL    HW113136   0.546   0.627   3.699
 4079SOL    HW213137   0.638   0.646   3.833
 4080SOL     OW13138   2.972   3.255   1.513
 4080SOL    HW113139   3.007   3.265   1.606
 4080SOL    HW213140   3.023   3.183   1.466
 4081SOL     OW13141   1.937   2.186   6.236
 4081SOL    HW113142   1.953   2.179   6.335
 4081SOL    HW213143   2.006   2.245   6.195
 4082SOL     OW13144   1.243   2.713   4.319
 4082SOL    HW113145   1.211   2.639   4.378
 4082SOL    HW213146   1.176   2.731   4.247
 4083SOL     OW13147   5.737   5.124   3.137
 4083SOL    HW113148   5.761   5.075   3.054
 4083SOL    HW213149   5.659   5.184   3.119
 4084SOL     OW13150   4.809   0.806   3.715
 4084SOL    HW113151   4.882   0.789   3.648
 4084SOL    HW213152   4.847   0.798   3.807
 4085SOL     OW13153   3.810   4.869   2.779
 4085SOL    HW113154   3.716   4.889   2.805
 4085SOL    HW213155   3.818   4.772   2.755
 4086SOL     OW13156   6.069   5.443   5.947
 4086SOL    HW113157   5.999   5.410   6.011
 4086SOL    HW213158   6.087   5.372   5.879
 4087SOL     OW13159   2.818   6.873   2.859
 4087SOL    HW113160   2.816   6.966   2.896
 4087SOL    HW213161   2.747   6.818   2.903
 4088SOL     OW13162   0.740   1.794   5.521
 4088SOL    HW113163   0.742   1.789   5.621
 4088SOL    HW213164   0.652   1.833   5.492
 4089SOL     OW13165   0.554   0.204   3.287
 4089SOL    HW113166   0.512   0.285   3.328
 4089SOL    HW213167   0.484   0.150   3.240
 4090SOL     OW13168   2.969   1.325   6.246
 4090SOL    HW113169   3.065   1.315   6.219
 4090SOL    HW213170   2.947   1.258   6.316
 4091SOL     OW13171   2.807   6.176   2.212
 4091SOL    HW113172   2.743   6.129   2.151
 4091SOL    HW213173   2.894   6.126   2.212
 4092SOL     OW13174   5.658   3.264   4.091
 4092SOL    HW113175   5.736   3.248   4.153
 4092SOL    HW213176   5.596   3.185   4.095
 4093SOL     OW13177   4.508   4.936   3.087
 4093SOL    HW113178   4.604   4.948   3.059
 4093SOL    HW213179   4.480   4.842   3.069
 4094SOL     OW13180   6.903   5.471   6.748
 4094SOL    HW113181   6.861   5.397   6.801
 4094SOL    HW213182   6.991   5.495   6.788
 4095SOL     OW13183   0.895   4.938   0.064
 4095SOL    HW113184   0.857   4.884   0.139
 4095SOL    HW213185   0.847   4.917   7.003
 4096SOL     OW13186   1.251   1.049   7.017
 4096SOL    HW113187   1.178   1.009   6.962
 4096SOL    HW213188   1.270   1.142   6.985
 4097SOL     OW13189   6.956   4.820   5.249
 4097SOL    HW113190   0.017   4.822   5.302
 4097SOL    HW213191   6.917   4.912   5.245
 4098SOL     OW13192   2.460   4.478   3.611
 4098SOL    HW113193   2.384   4.508   3.552
 4098SOL    HW213194   2.435   4.393   3.656
 4099SOL     OW13195   4.565   4.578   5.659
 4099SOL    HW113196   4.559   4.490   5.707
 4099SOL    HW213197   4.570   4.562   5.561
 4100SOL     OW13198   1.880   6.645   3.833
 4100SOL    HW113199   1.865   6.740   3.859
 4100SOL    HW213200   1.812   6.618   3.765
 4101SOL     OW13201   6.226   6.284   0.041
 4101SOL    HW113202   6.231   6.323   0.132
 4101SOL    HW213203   6.310   6.304   7.014
 4102SOL     OW13204   1.383   0.723   0.642
 4102SOL    HW113205   1.395   0.821   0.623
 4102SOL    HW213206   1.356   0.712   0.738
 4103SOL     OW13207   1.122   6.399   2.926
 4103SOL    HW113208   1.091   6.372   2.835
 4103SOL    HW213209   1.182   6.328   2.963
 4104SOL     OW13210   1.233   5.749   4.515
 4104SOL    HW113211   1.204   5.835   4.473
 4104SOL    HW213212   1.226   5.756   4.614
 4105SOL     OW13213   4.732   1.245   0.891
 4105SOL    HW113214   4.803   1.193   0.939
 4105SOL    HW213215   4.773   1.325   0.848
 4106SOL     OW13216   0.900   1.804   3.170
 4106SOL    HW113217   0.925   1.750   3.251
 4106SOL    HW213218   0.839   1.750   3.112
 4107SOL     OW13219   0.703   6.228   6.949
 4107SOL    HW113220   0.716   6.163   6.874
 4107SOL    HW213221   0.769   6.210   7.022
 4108SOL     OW13222   6.698   6.252   4.396
 4108SOL    HW113223   6.621   6.244   4.458
 4108SOL    HW213224   6.697   6.177   4.330
 4109SOL     OW13225   6.451   6.499   3.036
 4109SOL    HW113226   6.449   6.566   3.110
 4109SOL    HW213227   6.525   6.521   2.972
 4110SOL     OW13228   4.504   3.027   0.538
 4110SOL    HW113229   4.593   2.995   0.572
 4110SOL    HW213230   4.488   2.990   0.447
 4111SOL     OW13231   6.852   3.941   4.369
 4111SOL    HW113232   6.806   3.924   4.456
 4111SOL    HW213233   6.828   4.031   4.335
 4112SOL     OW13234   4.666   6.515   5.496
 4112SOL    HW113235   4.739   6.449   5.514
 4112SOL    HW213236   4.613   6.528   5.579
 4113SOL     OW13237   4.483   5.272   5.138
 4113SOL    HW113238   4.407   5.241   5.195
 4113SOL    HW213239   4.529   5.193   5.097
 4114SOL     OW13240   0.162   2.158   2.141
 4114SOL    HW113241   0.163   2.154   2.042
 4114SOL    HW213242   0.136   2.251   2.170
 4115SOL     OW13243   4.669   6.079   3.971
 4115SOL    HW113244   4.670   6.063   3.873
 4115SOL    HW213245   4.617   6.161   3.992
 4116SOL     OW13246   5.452   3.422   3.472
 4116SOL    HW113247   5.451   3.512   3.428
 4116SOL    HW213248   5.359   3.394   3.493
 4117SOL     OW13249   1.143   2.164   2.934
 4117SOL    HW113250   1.200   2.099   2.984
 4117SOL    HW213251   1.101   2.228   2.998
 4118SOL     OW13252   0.567   5.752   6.327
 4118SOL    HW113253   0.550   5.800   6.240
 4118SOL    HW213254   0.480   5.737   6.373
 4119SOL     OW13255   1.206   0.895   3.528
 4119SOL    HW113256   1.289   0.866   3.576
 4119SOL    HW213257   1.177   0.823   3.466
 4120SOL     OW13258   1.600   1.402   6.525
 4120SOL    HW113259   1.523   1.421   6.586
 4120SOL    HW213260   1.636   1.489   6.491
 4121SOL     OW13261   6.237   6.425   1.866
 4121SOL    HW113262   6.260   6.509   1.916
 4121SOL    HW213263   6.196   6.359   1.929
 4122SOL     OW13264   6.495   4.550   3.381
 4122SOL    HW113265   6.556   4.499   3.442
 4122SOL    HW213266   6.410   4.499   3.370
 4123SOL     OW13267   4.379   5.093   1.701
 4123SOL    HW113268   4.350   5.038   1.779
 4123SOL    HW213269   4.459   5.051   1.657
 4124SOL     OW13270   6.291   5.713   0.391
 4124SOL    HW113271   6.244   5.664   0.464
 4124SOL    HW213272   6.233   5.788   0.358
 4125SOL     OW13273   5.805   1.966   1.796
 4125SOL    HW113274   5.717   1.926   1.771
 4125SOL    HW213275   5.877   1.897   1.782
 4126SOL     OW13276   1.635   3.127   2.104
 4126SOL    HW113277   1.693   3.046   2.105
 4126SOL    HW213278   1.539   3.099   2.094
 4127SOL     OW13279   3.806   1.521   4.294
 4127SOL    HW113280   3.896   1.558   4.317
 4127SOL    HW213281   3.740   1.596   4.291
 4128SOL     OW13282   0.415   3.130   0.491
 4128SOL    HW113283   0.340   3.065   0.484
 4128SOL    HW213284   0.460   3.120   0.580
 4129SOL     OW13285   2.072   2.723   0.765
 4129SOL    HW113286   2.009   2.801   0.770
 4129SOL    HW213287   2.037   2.649   0.823
 4130SOL     OW13288   5.272   2.528   0.670
 4130SOL    HW113289   5.337   2.577   0.729
 4130SOL    HW213290   5.321   2.471   0.605
 4131SOL     OW13291   4.805   6.883   2.949
 4131SOL    HW113292   4.713   6.906   2.979
 4131SOL    HW213293   4.871   6.946   2.990
 4132SOL     OW13294   0.459   5.077   4.035
 4132SOL    HW113295   0.497   4.985   4.035
 4132SOL    HW213296   0.489   5.125   3.953
 4133SOL     OW13297   5.893   0.329   2.619
 4133SOL    HW113298   5.914   0.329   2.521
 4133SOL    HW213299   5.867   0.236   2.647
 4134SOL     OW13300   1.506   3.375   1.450
 4134SOL    HW113301   1.531   3.279   1.432
 4134SOL    HW213302   1.407   3.386   1.439
 4135SOL     OW13303   0.203   1.289   2.205
 4135SOL    HW113304   0.190   1.269   2.302
 4135SOL    HW213305   0.195   1.387   2.190
 4136SOL     OW13306   1.155   4.606   1.604
 4136SOL    HW113307   1.181   4.701   1.588
 4136SOL    HW213308   1.062   4.602   1.642
 4137SOL     OW13309   1.236   2.342   0.230
 4137SOL    HW113310   1.212   2.372   0.322
 4137SOL    HW213311   1.270   2.420   0.177
 4138SOL     OW13312   4.926   6.866   0.334
 4138SOL    HW113313   4.946   6.959   0.300
 4138SOL    HW213314   4.862   6.871   0.410
 4139SOL     OW13315   1.833   3.348   2.453
 4139SOL    HW113316   1.909   3.286   2.473
 4139SOL    HW213317   1.855   3.403   2.373
 4140SOL     OW13318   2.259   1.617   5.690
 4140SOL    HW113319   2.194   1.679   5.733
 4140SOL    HW213320   2.261   1.530   5.740
 4141SOL     OW13321   4.487   0.445   6.529
 4141SOL    HW113322   4.576   0.411   6.560
 4141SOL    HW213323   4.500   0.526   6.472
 4142SOL     OW13324   6.835   4.394   3.089
 4142SOL    HW113325   6.885   4.452   3.024
 4142SOL    HW213326   6.803   4.449   3.166
 4143SOL     OW13327   5.516   3.140   0.677
 4143SOL    HW113328   5.594   3.162   0.620
 4143SOL    HW213329   5.467   3.062   0.640
 4144SOL     OW13330   6.107   1.690   0.434
 4144SOL    HW113331   6.184   1.627   0.443
 4144SOL    HW213332   6.037   1.648   0.377
 4145SOL     OW13333   6.974   6.923   1.290
 4145SOL    HW113334   6.903   6.853   1.281
 4145SOL    HW213335   6.935   7.013   1.274
 4146SOL     OW13336   4.551   6.538   3.514
 4146SOL    HW113337   4.462   6.493   3.520
 4146SOL    HW213338   4.609   6.508   3.589
 4147SOL     OW13339   4.834   4.382   5.585
 4147SOL    HW113340   4.754   4.393   5.525
 4147SOL    HW213341   4.809   4.323   5.662
 4148SOL     OW13342   2.136   1.661   6.050
 4148SOL    HW113343   2.117   1.563   6.047
 4148SOL    HW213344   2.143   1.691   6.145
 4149SOL     OW13345   2.680   2.727   6.656
 4149SOL    HW113346   2.682   2.693   6.562
 4149SOL    HW213347   2.585   2.742   6.684
 4150SOL     OW13348   5.724   1.853   5.980
 4150SOL    HW113349   5.651   1.853   5.912
 4150SOL    HW213350   5.685   1.873   6.070
 4151SOL     OW13351   2.294   6.588   4.164
 4151SOL    HW113352   2.344   6.539   4.235
 4151SOL    HW213353   2.304   6.687   4.178
 4152SOL     OW13354   2.831   5.465   1.170
 4152SOL    HW113355   2.738   5.443   1.196
 4152SOL    HW213356   2.864   5.400   1.101
 4153SOL     OW13357   6.856   5.383   1.236
 4153SOL    HW113358   6.915   5.376   1.317
 4153SOL    HW213359   6.805   5.468   1.239
 4154SOL     OW13360   0.943   6.293   3.803
 4154SOL    HW113361   1.008   6.310   3.877
 4154SOL    HW213362   0.918   6.380   3.761
 4155SOL     OW13363   0.416   1.385   0.985
 4155SOL    HW113364   0.325   1.344   0.979
 4155SOL    HW213365   0.435   1.409   1.080
 4156SOL     OW13366   6.839   5.797   5.914
 4156SOL    HW113367   6.750   5.754   5.931
 4156SOL    HW213368   6.912   5.733   5.937
 4157SOL     OW13369   6.890   6.053   1.933
 4157SOL    HW113370   6.909   5.955   1.924
 4157SOL    HW213371   6.911   6.099   1.847
 4158SOL     OW13372   1.381   3.039   2.075
 4158SOL    HW113373   1.327   2.973   2.022
 4158SOL    HW213374   1.320   3.095   2.130
 4159SOL     OW13375   3.214   1.490   3.967
 4159SOL    HW113376   3.307   1.494   3.931
 4159SOL    HW213377   3.152   1.454   3.897
 4160SOL     OW13378   6.077   6.386   6.758
 4160SOL    HW113379   6.127   6.412   6.840
 4160SOL    HW213380   6.116   6.433   6.679
 4161SOL     OW13381   3.300   2.804   1.122
 4161SOL    HW113382   3.330   2.734   1.186
 4161SOL    HW213383   3.313   2.895   1.163
 4162SOL     OW13384   5.270   5.715   2.130
 4162SOL    HW113385   5.206   5.790   2.117
 4162SOL    HW213386   5.240   5.636   2.076
 4163SOL     OW13387   3.889   6.752   1.064
 4163SOL    HW113388   3.965   6.806   1.029
 4163SOL    HW213389   3.924   6.680   1.124
 4164SOL     OW13390   6.447   0.388   4.824
 4164SOL    HW113391   6.494   0.467   4.864
 4164SOL    HW213392   6.514   0.317   4.803
 4165SOL     OW13393   4.541   1.134   5.233
 4165SOL    HW113394   4.596   1.144   5.150
 4165SOL    HW213395   4.447   1.111   5.208
 4166SOL     OW13396   5.875   0.711   1.733
 4166SOL    HW113397   5.877   0.808   1.711
 4166SOL    HW213398   5.909   0.659   1.654
 4167SOL     OW13399   4.116   5.125   5.039
 4167SOL    HW113400   4.027   5.081   5.047
 4167SOL    HW213401   4.114   5.194   4.967
 4168SOL     OW13402   4.885   4.280   6.767
 4168SOL    HW113403   4.829   4.235   6.697
 4168SOL    HW213404   4.827   4.339   6.823
 4169SOL     OW13405   5.030   3.621   4.873
 4169SOL    HW113406   5.033   3.623   4.773
 4169SOL    HW213407   4.945   3.664   4.905
 4170SOL     OW13408   6.559   3.469   4.147
 4170SOL    HW113409   6.601   3.382   4.118
 4170SOL    HW213410   6.540   3.525   4.066
 4171SOL     OW13411   0.572   3.450   1.271
 4171SOL    HW113412   0.504   3.485   1.206
 4171SOL    HW213413   0.611   3.366   1.235
 4172SOL     OW13414   2.768   4.871   0.451
 4172SOL    HW113415   2.767   4.775   0.423
 4172SOL    HW213416   2.860   4.895   0.483
 4173SOL     OW13417   4.965   2.813   4.986
 4173SOL    HW113418   4.939   2.774   5.074
 4173SOL    HW213419   4.882   2.833   4.933
 4174SOL     OW13420   4.341   0.247   5.002
 4174SOL    HW113421   4.377   0.289   4.919
 4174SOL    HW213422   4.261   0.190   4.979
 4175SOL     OW13423   1.651   4.154   6.802
 4175SOL    HW113424   1.731   4.190   6.755
 4175SOL    HW213425   1.582   4.128   6.735
 4176SOL     OW13426   5.170   0.123   6.049
 4176SOL    HW113427   5.161   0.125   5.949
 4176SOL    HW213428   5.159   0.029   6.081
 4177SOL     OW13429   4.545   4.499   3.370
 4177SOL    HW113430   4.478   4.556   3.418
 4177SOL    HW213431   4.551   4.528   3.274
 4178SOL     OW13432   4.418   5.441   1.954
 4178SOL    HW113433   4.474   5.428   2.036
 4178SOL    HW213434   4.324   5.416   1.973
 4179SOL     OW13435   5.174   3.351   4.654
 4179SOL    HW113436   5.226   3.410   4.592
 4179SOL    HW213437   5.209   3.362   4.748
 4180SOL     OW13438   5.023   3.889   0.099
 4180SOL    HW113439   5.011   3.793   0.123
 4180SOL    HW213440   4.974   3.946   0.164
 4181SOL     OW13441   4.474   0.363   5.623
 4181SOL    HW113442   4.559   0.322   5.591
 4181SOL    HW213443   4.412   0.292   5.656
 4182SOL     OW13444   6.847   6.646   3.894
 4182SOL    HW113445   6.896   6.572   3.941
 4182SOL    HW213446   6.751   6.622   3.886
 4183SOL     OW13447   3.566   1.788   1.706
 4183SOL    HW113448   3.605   1.869   1.751
 4183SOL    HW213449   3.466   1.794   1.709
 4184SOL     OW13450   3.329   5.199   3.496
 4184SOL    HW113451   3.329   5.145   3.580
 4184SOL    HW213452   3.362   5.292   3.516
 4185SOL     OW13453   6.686   3.862   2.603
 4185SOL    HW113454   6.626   3.827   2.531
 4185SOL    HW213455   6.742   3.786   2.639
 4186SOL     OW13456   1.779   6.334   0.314
 4186SOL    HW113457   1.830   6.420   0.302
 4186SOL    HW213458   1.843   6.257   0.313
 4187SOL     OW13459   1.624   3.279   6.898
 4187SOL    HW113460   1.618   3.374   6.865
 4187SOL    HW213461   1.717   3.246   6.887
 4188SOL     OW13462   4.597   6.862   6.867
 4188SOL    HW113463   4.618   6.928   6.939
 4188SOL    HW213464   4.607   6.906   6.777
 4189SOL     OW13465   4.867   5.114   3.005
 4189SOL    HW113466   4.829   5.147   2.918
 4189SOL    HW213467   4.851   5.016   3.013
 4190SOL     OW13468   0.195   6.336   0.922
 4190SOL    HW113469   0.222   6.432   0.929
 4190SOL    HW213470   0.099   6.327   0.950
 4191SOL     OW13471   4.173   4.853   5.839
 4191SOL    HW113472   4.243   4.782   5.837
 4191SOL    HW213473   4.108   4.833   5.912
 4192SOL     OW13474   1.223   2.912   1.877
 4192SOL    HW113475   1.134   2.866   1.882
 4192SOL    HW213476   1.217   2.988   1.813
 4193SOL     OW13477   6.703   0.308   0.373
 4193SOL    HW113478   6.730   0.282   0.466
 4193SOL    HW213479   6.693   0.225   0.317
 4194SOL     OW13480   4.297   0.831   5.110
 4194SOL    HW113481   4.393   0.808   5.091
 4194SOL    HW213482   4.254   0.755   5.158
 4195SOL     OW13483   4.290   5.501   1.214
 4195SOL    HW113484   4.294   5.591   1.258
 4195SOL    HW213485   4.382   5.466   1.200
 4196SOL     OW13486   6.830   2.086   3.168
 4196SOL    HW113487   6.920   2.043   3.160
 4196SOL    HW213488   6.769   2.027   3.222
 4197SOL     OW13489   3.621   6.497   6.051
 4197SOL    HW113490   3.537   6.466   6.009
 4197SOL    HW213491   3.646   6.435   6.126
 4198SOL     OW13492   6.179   1.031   2.329
 4198SOL    HW113493   6.080   1.014   2.326
 4198SOL    HW213494   6.217   1.022   2.237
 4199SOL     OW13495   0.825   3.672   6.236
 4199SOL    HW113496   0.922   3.694   6.228
 4199SOL    HW213497   0.812   3.604   6.309
 4200SOL     OW13498   4.676   1.133   3.976
 4200SOL    HW113499   4.719   1.124   3.887
 4200SOL    HW213500   4.616   1.213   3.976
 4201SOL     OW13501   5.492   0.303   3.203
 4201SOL    HW113502   5.406   0.337   3.239
 4201SOL    HW213503   5.568   0.335   3.260
 4202SOL     OW13504   4.250   5.326   0.580
 4202SOL    HW113505   4.300   5.259   0.525
 4202SOL    HW213506   4.284   5.325   0.674
 4203SOL     OW13507   6.028   5.450   6.845
 4203SOL    HW113508   5.966   5.401   6.784
 4203SOL    HW213509   6.116   5.463   6.801
 4204SOL     OW13510   3.241   3.491   5.807
 4204SOL    HW113511   3.216   3.560   5.876
 4204SOL    HW213512   3.338   3.498   5.786
 4205SOL     OW13513   3.662   5.637   5.522
 4205SOL    HW113514   3.741   5.696   5.505
 4205SOL    HW213515   3.578   5.684   5.493
 4206SOL     OW13516   1.472   2.074   4.462
 4206SOL    HW113517   1.437   2.150   4.517
 4206SOL    HW213518   1.405   2.049   4.393
 4207SOL     OW13519   1.682   2.917   1.842
 4207SOL    HW113520   1.599   2.864   1.858
 4207SOL    HW213521   1.746   2.902   1.917
 4208SOL     OW13522   2.104   3.534   5.038
 4208SOL    HW113523   2.153   3.596   5.099
 4208SOL    HW213524   2.106   3.570   4.945
 4209SOL     OW13525   0.034   6.083   2.649
 4209SOL    HW113526   0.083   6.008   2.605
 4209SOL    HW213527   7.003   6.132   2.582
 4210SOL     OW13528   4.139   3.295   4.909
 4210SOL    HW113529   4.230   3.260   4.931
 4210SOL    HW213530   4.089   3.312   4.993
 4211SOL     OW13531   4.023   2.354   5.333
 4211SOL    HW113532   4.079   2.430   5.301
 4211SOL    HW213533   4.003   2.366   5.430
 4212SOL     OW13534   0.331   1.796   3.317
 4212SOL    HW113535   0.378   1.707   3.320
 4212SOL    HW213536   0.256   1.796   3.382
 4213SOL     OW13537   3.517   0.594   2.809
 4213SOL    HW113538   3.570   0.514   2.839
 4213SOL    HW213539   3.558   0.632   2.726
 4214SOL     OW13540   1.029   5.084   4.335
 4214SOL    HW113541   1.007   5.171   4.380
 4214SOL    HW213542   0.976   5.011   4.378
 4215SOL     OW13543   4.880   6.337   5.463
 4215SOL    HW113544   4.820   6.258   5.470
 4215SOL    HW213545   4.969   6.315   5.502
 4216SOL     OW13546   2.490   6.253   2.757
 4216SOL    HW113547   2.504   6.155   2.745
 4216SOL    HW213548   2.415   6.284   2.698
 4217SOL     OW13549   1.322   0.575   1.950
 4217SOL    HW113550   1.392   0.646   1.944
 4217SOL    HW213551   1.350   0.496   1.895
 4218SOL     OW13552   3.024   1.297   1.819
 4218SOL    HW113553   3.072   1.284   1.906
 4218SOL    HW213554   2.997   1.208   1.782
 4219SOL     OW13555   3.728   6.391   4.158
 4219SOL    HW113556   3.822   6.420   4.176
 4219SOL    HW213557   3.708   6.403   4.061
 4220SOL     OW13558   4.703   1.790   1.511
 4220SOL    HW113559   4.639   1.823   1.442
 4220SOL    HW213560   4.774   1.735   1.468
 4221SOL     OW13561   0.254   5.436   6.262
 4221SOL    HW113562   0.262   5.467   6.357
 4221SOL    HW213563   0.237   5.337   6.261
 4222SOL     OW13564   4.818   1.902   3.264
 4222SOL    HW113565   4.725   1.933   3.284
 4222SOL    HW213566   4.864   1.877   3.349
 4223SOL     OW13567   4.142   3.696   1.830
 4223SOL    HW113568   4.216   3.763   1.825
 4223SOL    HW213569   4.063   3.730   1.780
 4224SOL     OW13570   4.944   3.667   4.562
 4224SOL    HW113571   4.910   3.715   4.481
 4224SOL    HW213572   4.878   3.596   4.588
 4225SOL     OW13573   0.301   3.020   5.093
 4225SOL    HW113574   0.276   3.096   5.154
 4225SOL    HW213575   0.376   3.048   5.033
 4226SOL     OW13576   0.572   5.327   4.762
 4226SOL    HW113577   0.578   5.248   4.701
 4226SOL    HW213578   0.568   5.297   4.857
 4227SOL     OW13579   5.436   5.568   1.906
 4227SOL    HW113580   5.431   5.649   1.847
 4227SOL    HW213581   5.502   5.503   1.869
 4228SOL     OW13582   1.160   5.400   4.176
 4228SOL    HW113583   1.080   5.368   4.127
 4228SOL    HW213584   1.226   5.438   4.111
 4229SOL     OW13585   5.792   4.891   5.655
 4229SOL    HW113586   5.730   4.943   5.596
 4229SOL    HW213587   5.772   4.793   5.648
 4230SOL     OW13588   1.431   0.884   2.056
 4230SOL    HW113589   1.457   0.937   1.975
 4230SOL    HW213590   1.477   0.795   2.053
 4231SOL     OW13591   5.405   1.477   5.511
 4231SOL    HW113592   5.391   1.565   5.463
 4231SOL    HW213593   5.410   1.494   5.609
 4232SOL     OW13594   2.287   5.232   4.151
 4232SOL    HW113595   2.275   5.143   4.108
 4232SOL    HW213596   2.382   5.261   4.141
 4233SOL     OW13597   5.641   6.533   3.899
 4233SOL    HW113598   5.660   6.436   3.916
 4233SOL    HW213599   5.727   6.583   3.896
 4234SOL     OW13600   1.689   5.343   5.984
 4234SOL    HW113601   1.686   5.302   6.075
 4234SOL    HW213602   1.707   5.441   5.992
 4235SOL     OW13603   6.835   4.813   6.004
 4235SOL    HW113604   6.932   4.837   6.011
 4235SOL    HW213605   6.827   4.717   5.977
 4236SOL     OW13606   0.588   5.303   1.287
 4236SOL    HW113607   0.519   5.300   1.214
 4236SOL    HW213608   0.544   5.326   1.374
 4237SOL     OW13609   6.758   4.151   3.817
 4237SOL    HW113610   6.679   4.191   3.769
 4237SOL    HW213611   6.802   4.221   3.873
 4238SOL     OW13612   2.171   0.971   2.922
 4238SOL    HW113613   2.121   0.886   2.903
 4238SOL    HW213614   2.108   1.039   2.960
 4239SOL     OW13615   3.707   1.218   2.544
 4239SOL    HW113616   3.682   1.137   2.597
 4239SOL    HW213617   3.787   1.261   2.585
 4240SOL     OW13618   1.052   5.405   0.807
 4240SOL    HW113619   1.064   5.402   0.906
 4240SOL    HW213620   1.028   5.313   0.774
 4241SOL     OW13621   6.669   2.051   6.715
 4241SOL    HW113622   6.698   2.026   6.623
 4241SOL    HW213623   6.569   2.049   6.720
 4242SOL     OW13624   2.091   2.258   4.166
 4242SOL    HW113625   2.038   2.243   4.249
 4242SOL    HW213626   2.130   2.350   4.168
 4243SOL     OW13627   5.626   1.027   2.948
 4243SOL    HW113628   5.711   0.976   2.942
 4243SOL    HW213629   5.549   0.963   2.959
 4244SOL     OW13630   3.579   3.897   2.533
 4244SOL    HW113631   3.662   3.888   2.589
 4244SOL    HW213632   3.604   3.912   2.438
 4245SOL     OW13633   6.324   2.631   5.481
 4245SOL    HW113634   6.339   2.688   5.561
 4245SOL    HW213635   6.412   2.613   5.437
 4246SOL     OW13636   0.039   4.246   2.568
 4246SOL    HW113637   0.120   4.203   2.606
 4246SOL    HW213638   6.985   4.183   2.574
 4247SOL     OW13639   6.583   6.301   5.157
 4247SOL    HW113640   6.582   6.293   5.058
 4247SOL    HW213641   6.677   6.306   5.189
 4248SOL     OW13642   1.260   2.555   5.942
 4248SOL    HW113643   1.346   2.517   5.975
 4248SOL    HW213644   1.208   2.484   5.894
 4249SOL     OW13645   5.814   2.597   5.479
 4249SOL    HW113646   5.904   2.579   5.440
 4249SOL    HW213647   5.809   2.693   5.506
 4250SOL     OW13648   6.458   5.167   4.069
 4250SOL    HW113649   6.520   5.088   4.071
 4250SOL    HW213650   6.512   5.251   4.065
 4251SOL     OW13651   5.935   4.110   0.157
 4251SOL    HW113652   5.872   4.066   0.221
 4251SOL    HW213653   5.907   4.088   0.063
 4252SOL     OW13654   6.939   5.772   5.113
 4252SOL    HW113655   6.958   5.795   5.018
 4252SOL    HW213656   6.857   5.821   5.143
 4253SOL     OW13657   4.656   0.676   1.464
 4253SOL    HW113658   4.600   0.758   1.457
 4253SOL    HW213659   4.629   0.611   1.393
 4254SOL     OW13660   1.721   3.632   1.509
 4254SOL    HW113661   1.655   3.642   1.435
 4254SOL    HW213662   1.776   3.716   1.516
 4255SOL     OW13663   6.296   3.117   4.092
 4255SOL    HW113664   6.226   3.064   4.045
 4255SOL    HW213665   6.259   3.152   4.178
 4256SOL     OW13666   1.890   6.687   1.303
 4256SOL    HW113667   1.965   6.636   1.262
 4256SOL    HW213668   1.808   6.631   1.305
 4257SOL     OW13669   3.489   1.855   5.119
 4257SOL    HW113670   3.490   1.926   5.048
 4257SOL    HW213671   3.523   1.894   5.205
 4258SOL     OW13672   5.981   6.427   1.779
 4258SOL    HW113673   5.932   6.449   1.864
 4258SOL    HW213674   6.080   6.432   1.795
 4259SOL     OW13675   2.257   1.780   6.795
 4259SOL    HW113676   2.344   1.812   6.833
 4259SOL    HW213677   2.264   1.777   6.695
 4260SOL     OW13678   4.336   6.117   3.635
 4260SOL    HW113679   4.298   6.047   3.697
 4260SOL    HW213680   4.399   6.074   3.571
 4261SOL     OW13681   2.384   6.331   2.240
 4261SOL    HW113682   2.458   6.374   2.293
 4261SOL    HW213683   2.423   6.263   2.178
 4262SOL     OW13684   1.892   5.003   6.770
 4262SOL    HW113685   1.937   5.049   6.693
 4262SOL    HW213686   1.891   5.064   6.849
 4263SOL     OW13687   2.411   5.217   5.505
 4263SOL    HW113688   2.503   5.186   5.479
 4263SOL    HW213689   2.382   5.169   5.587
 4264SOL     OW13690   0.130   1.556   6.874
 4264SOL    HW113691   0.179   1.489   6.930
 4264SOL    HW213692   0.186   1.582   6.796
 4265SOL     OW13693   6.619   2.028   0.109
 4265SOL    HW113694   6.716   2.006   0.118
 4265SOL    HW213695   6.592   2.018   0.014
 4266SOL     OW13696   2.502   5.743   0.619
 4266SOL    HW113697   2.461   5.833   0.606
 4266SOL    HW213698   2.600   5.754   0.638
 4267SOL     OW13699   2.276   3.673   5.210
 4267SOL    HW113700   2.324   3.747   5.162
 4267SOL    HW213701   2.342   3.604   5.238
 4268SOL     OW13702   1.851   0.536   0.294
 4268SOL    HW113703   1.855   0.631   0.262
 4268SOL    HW213704   1.921   0.522   0.364
 4269SOL     OW13705   3.140   3.088   0.305
 4269SOL    HW113706   3.124   3.063   0.401
 4269SOL    HW213707   3.160   3.006   0.252
 4270SOL     OW13708   3.869   2.949   5.072
 4270SOL    HW113709   3.946   2.897   5.036
 4270SOL    HW213710   3.819   2.993   4.997
 4271SOL     OW13711   0.590   6.488   5.652
 4271SOL    HW113712   0.609   6.561   5.586
 4271SOL    HW213713   0.635   6.404   5.622
 4272SOL     OW13714   6.656   4.619   5.366
 4272SOL    HW113715   6.561   4.587   5.365
 4272SOL    HW213716   6.663   4.704   5.314
 4273SOL     OW13717   4.689   0.020   5.247
 4273SOL    HW113718   4.745   0.103   5.255
 4273SOL    HW213719   4.598   0.045   5.215
 4274SOL     OW13720   1.788   6.742   3.602
 4274SOL    HW113721   1.796   6.799   3.520
 4274SOL    HW213722   1.724   6.784   3.665
 4275SOL     OW13723   0.177   0.727   5.223
 4275SOL    HW113724   0.199   0.699   5.316
 4275SOL    HW213725   0.183   0.826   5.215
 4276SOL     OW13726   2.443   4.840   3.059
 4276SOL    HW113727   2.510   4.785   3.109
 4276SOL    HW213728   2.361   4.785   3.043
 4277SOL     OW13729   6.807   5.318   3.616
 4277SOL    HW113730   6.871   5.311   3.692
 4277SOL    HW213731   6.753   5.401   3.626
 4278SOL     OW13732   6.678   6.340   4.902
 4278SOL    HW113733   6.739   6.416   4.926
 4278SOL    HW213734   6.646   6.351   4.808
 4279SOL     OW13735   3.168   6.578   5.529
 4279SOL    HW113736   3.109   6.543   5.602
 4279SOL    HW213737   3.111   6.604   5.451
 4280SOL     OW13738   7.009   2.139   5.401
 4280SOL    HW113739   0.011   2.230   5.433
 4280SOL    HW213740   0.042   2.070   5.448
 4281SOL     OW13741   1.907   4.781   5.457
 4281SOL    HW113742   1.827   4.840   5.455
 4281SOL    HW213743   1.980   4.823   5.403
 4282SOL     OW13744   2.428   2.934   0.707
 4282SOL    HW113745   2.476   2.847   0.708
 4282SOL    HW213746   2.386   2.951   0.796
 4283SOL     OW13747   2.012   0.280   4.112
 4283SOL    HW113748   2.052   0.351   4.170
 4283SOL    HW213749   1.940   0.232   4.162
 4284SOL     OW13750   5.491   1.146   1.864
 4284SOL    HW113751   5.413   1.092   1.893
 4284SOL    HW213752   5.575   1.109   1.904
 4285SOL     OW13753   0.387   6.829   5.813
 4285SOL    HW113754   0.303   6.867   5.773
 4285SOL    HW213755   0.370   6.806   5.909
 4286SOL     OW13756   4.716   5.683   0.131
 4286SOL    HW113757   4.711   5.633   0.044
 4286SOL    HW213758   4.638   5.746   0.138
 4287SOL     OW13759   5.583   0.272   4.939
 4287SOL    HW113760   5.552   0.192   4.888
 4287SOL    HW213761   5.676   0.257   4.971
 4288SOL     OW13762   0.925   6.844   3.375
 4288SOL    HW113763   0.991   6.907   3.334
 4288SOL    HW213764   0.833   6.866   3.342
 4289SOL     OW13765   5.496   2.597   1.550
 4289SOL    HW113766   5.487   2.538   1.630
 4289SOL    HW213767   5.578   2.573   1.499
 4290SOL     OW13768   2.188   0.413   2.346
 4290SOL    HW113769   2.134   0.363   2.278
 4290SOL    HW213770   2.193   0.509   2.321
 4291SOL     OW13771   5.326   2.887   0.650
 4291SOL    HW113772   5.332   2.858   0.745
 4291SOL    HW213773   5.397   2.841   0.596
 4292SOL     OW13774   6.335   4.330   5.823
 4292SOL    HW113775   6.301   4.398   5.758
 4292SOL    HW213776   6.400   4.270   5.778
 4293SOL     OW13777   6.536   3.705   6.681
 4293SOL    HW113778   6.550   3.709   6.582
 4293SOL    HW213779   6.586   3.627   6.718
 4294SOL     OW13780   4.124   2.644   6.166
 4294SOL    HW113781   4.183   2.618   6.090
 4294SOL    HW213782   4.028   2.635   6.139
 4295SOL     OW13783   3.132   6.981   4.821
 4295SOL    HW113784   3.221   7.007   4.860
 4295SOL    HW213785   3.111   0.018   4.744
 4296SOL     OW13786   2.201   1.858   0.880
 4296SOL    HW113787   2.242   1.865   0.789
 4296SOL    HW213788   2.154   1.771   0.889
 4297SOL     OW13789   4.987   6.742   4.980
 4297SOL    HW113790   4.967   6.693   5.065
 4297SOL    HW213791   4.919   6.814   4.965
 4298SOL     OW13792   2.064   5.930   1.209
 4298SOL    HW113793   2.044   6.024   1.235
 4298SOL    HW213794   2.120   5.887   1.280
 4299SOL     OW13795   0.643   3.318   6.137
 4299SOL    HW113796   0.690   3.311   6.225
 4299SOL    HW213797   0.626   3.227   6.101
 4300SOL     OW13798   3.032   1.045   6.701
 4300SOL    HW113799   3.026   1.099   6.785
 4300SOL    HW213800   2.943   1.004   6.681
 4301SOL     OW13801   2.069   1.801   0.392
 4301SOL    HW113802   2.044   1.897   0.406
 4301SOL    HW213803   2.097   1.761   0.480
 4302SOL     OW13804   1.104   6.086   6.710
 4302SOL    HW113805   1.079   6.122   6.620
 4302SOL    HW213806   1.158   6.154   6.759
 4303SOL     OW13807   6.668   4.180   3.174
 4303SOL    HW113808   6.615   4.203   3.256
 4303SOL    HW213809   6.734   4.252   3.155
 4304SOL     OW13810   3.327   3.656   3.966
 4304SOL    HW113811   3.272   3.657   4.050
 4304SOL    HW213812   3.344   3.749   3.936
 4305SOL     OW13813   6.218   1.134   3.237
 4305SOL    HW113814   6.228   1.052   3.294
 4305SOL    HW213815   6.306   1.181   3.231
 4306SOL     OW13816   0.042   4.150   6.452
 4306SOL    HW113817   0.122   4.107   6.493
 4306SOL    HW213818   6.986   4.137   6.512
 4307SOL     OW13819   4.592   4.154   5.527
 4307SOL    HW113820   4.533   4.120   5.453
 4307SOL    HW213821   4.540   4.218   5.583
 4308SOL     OW13822   5.412   6.418   5.234
 4308SOL    HW113823   5.471   6.489   5.272
 4308SOL    HW213824   5.426   6.413   5.135
 4309SOL     OW13825   1.715   0.815   0.447
 4309SOL    HW113826   1.685   0.910   0.451
 4309SOL    HW213827   1.738   0.783   0.539
 4310SOL     OW13828   1.711   2.357   3.234
 4310SOL    HW113829   1.650   2.282   3.259
 4310SOL    HW213830   1.729   2.354   3.136
 4311SOL     OW13831   1.100   6.075   3.668
 4311SOL    HW113832   1.143   6.100   3.581
 4311SOL    HW213833   1.050   6.153   3.704
 4312SOL     OW13834   1.931   6.318   1.929
 4312SOL    HW113835   1.957   6.331   1.834
 4312SOL    HW213836   1.831   6.311   1.936
 4313SOL     OW13837   5.437   0.800   1.540
 4313SOL    HW113838   5.490   0.878   1.574
 4313SOL    HW213839   5.421   0.736   1.616
 4314SOL     OW13840   4.796   2.954   3.130
 4314SOL    HW113841   4.845   3.040   3.113
 4314SOL    HW213842   4.757   2.920   3.045
 4315SOL     OW13843   2.547   0.461   2.078
 4315SOL    HW113844   2.523   0.375   2.033
 4315SOL    HW213845   2.632   0.449   2.128
 4316SOL     OW13846   5.222   0.158   0.894
 4316SOL    HW113847   5.305   0.116   0.859
 4316SOL    HW213848   5.245   0.241   0.946
 4317SOL     OW13849   3.889   1.413   4.614
 4317SOL    HW113850   3.910   1.511   4.617
 4317SOL    HW213851   3.816   1.392   4.679
 4318SOL     OW13852   1.092   3.917   3.919
 4318SOL    HW113853   1.056   3.898   4.010
 4318SOL    HW213854   1.046   3.997   3.881
 4319SOL     OW13855   2.638   3.164   6.683
 4319SOL    HW113856   2.727   3.188   6.721
 4319SOL    HW213857   2.581   3.123   6.754
 4320SOL     OW13858   0.874   6.918   2.529
 4320SOL    HW113859   0.917   6.963   2.451
 4320SOL    HW213860   0.936   6.921   2.608
 4321SOL     OW13861   6.317   0.838   4.946
 4321SOL    HW113862   6.236   0.836   5.004
 4321SOL    HW213863   6.329   0.750   4.900
 4322SOL     OW13864   6.816   0.862   6.614
 4322SOL    HW113865   6.757   0.921   6.559
 4322SOL    HW213866   6.850   0.913   6.693
 4323SOL     OW13867   5.637   2.791   2.687
 4323SOL    HW113868   5.555   2.738   2.667
 4323SOL    HW213869   5.704   2.777   2.614
 4324SOL     OW13870   5.735   3.878   6.470
 4324SOL    HW113871   5.742   3.974   6.443
 4324SOL    HW213872   5.771   3.819   6.397
 4325SOL     OW13873   2.148   1.018   0.023
 4325SOL    HW113874   2.157   1.109   7.007
 4325SOL    HW213875   2.066   0.974   7.010
 4326SOL     OW13876   6.211   3.444   5.221
 4326SOL    HW113877   6.282   3.459   5.153
 4326SOL    HW213878   6.121   3.459   5.180
 4327SOL     OW13879   5.406   5.614   2.409
 4327SOL    HW113880   5.368   5.625   2.501
 4327SOL    HW213881   5.465   5.691   2.387
 4328SOL     OW13882   4.703   4.743   5.839
 4328SOL    HW113883   4.780   4.684   5.864
 4328SOL    HW213884   4.646   4.696   5.771
 4329SOL     OW13885   3.747   1.872   5.455
 4329SOL    HW113886   3.785   1.791   5.410
 4329SOL    HW213887   3.673   1.909   5.399
 4330SOL     OW13888   2.407   0.491   5.928
 4330SOL    HW113889   2.480   0.451   5.872
 4330SOL    HW213890   2.336   0.528   5.869
 4331SOL     OW13891   5.174   3.139   0.525
 4331SOL    HW113892   5.202   3.074   0.596
 4331SOL    HW213893   5.233   3.220   0.529
 4332SOL     OW13894   5.025   3.230   1.994
 4332SOL    HW113895   4.992   3.161   2.059
 4332SOL    HW213896   4.955   3.246   1.925
 4333SOL     OW13897   5.933   2.025   4.981
 4333SOL    HW113898   5.899   1.951   5.038
 4333SOL    HW213899   6.032   2.035   4.995
 4334SOL     OW13900   3.052   1.954   1.839
 4334SOL    HW113901   3.035   2.046   1.802
 4334SOL    HW213902   3.046   1.957   1.939
 4335SOL     OW13903   2.966   3.630   4.237
 4335SOL    HW113904   2.965   3.530   4.241
 4335SOL    HW213905   3.060   3.663   4.232
 4336SOL     OW13906   1.688   6.088   5.498
 4336SOL    HW113907   1.592   6.105   5.476
 4336SOL    HW213908   1.707   5.990   5.493
 4337SOL     OW13909   0.605   5.135   6.789
 4337SOL    HW113910   0.587   5.131   6.691
 4337SOL    HW213911   0.661   5.057   6.816
 4338SOL     OW13912   5.919   6.058   4.703
 4338SOL    HW113913   6.012   6.030   4.678
 4338SOL    HW213914   5.876   6.104   4.626
 4339SOL     OW13915   6.822   2.698   5.052
 4339SOL    HW113916   6.906   2.644   5.042
 4339SOL    HW213917   6.746   2.650   5.007
 4340SOL     OW13918   6.272   3.735   2.125
 4340SOL    HW113919   6.331   3.789   2.186
 4340SOL    HW213920   6.310   3.735   2.033
 4341SOL     OW13921   1.891   3.732   2.050
 4341SOL    HW113922   1.804   3.684   2.034
 4341SOL    HW213923   1.873   3.828   2.070
 4342SOL     OW13924   0.341   2.793   3.190
 4342SOL    HW113925   0.351   2.815   3.288
 4342SOL    HW213926   0.425   2.818   3.142
 4343SOL     OW13927   3.481   0.869   0.384
 4343SOL    HW113928   3.469   0.846   0.287
 4343SOL    HW213929   3.422   0.811   0.440
 4344SOL     OW13930   1.639   4.461   3.377
 4344SOL    HW113931   1.666   4.500   3.465
 4344SOL    HW213932   1.590   4.375   3.393
 4345SOL     OW13933   1.825   2.693   5.503
 4345SOL    HW113934   1.836   2.638   5.421
 4345SOL    HW213935   1.741   2.747   5.496
 4346SOL     OW13936   2.509   3.060   1.575
 4346SOL    HW113937   2.557   3.055   1.662
 4346SOL    HW213938   2.558   3.122   1.513
 4347SOL     OW13939   6.760   0.004   1.802
 4347SOL    HW113940   6.777   0.066   1.878
 4347SOL    HW213941   6.770   6.933   1.833
 4348SOL     OW13942   1.158   3.802   1.842
 4348SOL    HW113943   1.135   3.888   1.797
 4348SOL    HW213944   1.097   3.789   1.921
 4349SOL     OW13945   0.294   0.910   3.775
 4349SOL    HW113946   0.198   0.933   3.788
 4349SOL    HW213947   0.306   0.811   3.787
 4350SOL     OW13948   5.085   2.105   5.029
 4350SOL    HW113949   5.146   2.057   5.093
 4350SOL    HW213950   5.140   2.164   4.970
 4351SOL     OW13951   3.059   6.020   2.280
 4351SOL    HW113952   3.070   5.980   2.370
 4351SOL    HW213953   3.080   5.952   2.210
 4352SOL     OW13954   0.517   2.012   2.438
 4352SOL    HW113955   0.587   1.953   2.397
 4352SOL    HW213956   0.554   2.103   2.452
 4353SOL     OW13957   2.288   5.913   0.102
 4353SOL    HW113958   2.231   5.882   0.177
 4353SOL    HW213959   2.244   5.990   0.055
 4354SOL     OW13960   2.104   0.342   7.007
 4354SOL    HW113961   2.180   0.307   6.953
 4354SOL    HW213962   2.097   0.441   6.995
 4355SOL     OW13963   3.871   1.116   1.345
 4355SOL    HW113964   3.898   1.110   1.249
 4355SOL    HW213965   3.892   1.208   1.380
 4356SOL     OW13966   4.506   4.173   1.193
 4356SOL    HW113967   4.423   4.150   1.143
 4356SOL    HW213968   4.481   4.214   1.281
 4357SOL     OW13969   6.337   0.471   0.349
 4357SOL    HW113970   6.368   0.564   0.330
 4357SOL    HW213971   6.416   0.412   0.366
 4358SOL     OW13972   0.615   6.009   1.338
 4358SOL    HW113973   0.598   6.018   1.239
 4358SOL    HW213974   0.712   5.991   1.354
 4359SOL     OW13975   0.897   2.308   4.451
 4359SOL    HW113976   0.956   2.232   4.426
 4359SOL    HW213977   0.854   2.290   4.540
 4360SOL     OW13978   0.782   3.878   1.701
 4360SOL    HW113979   0.735   3.856   1.786
 4360SOL    HW213980   0.788   3.796   1.644
 4361SOL     OW13981   4.472   2.529   1.879
 4361SOL    HW113982   4.536   2.595   1.841
 4361SOL    HW213983   4.470   2.448   1.821
 4362SOL     OW13984   6.400   3.876   5.676
 4362SOL    HW113985   6.308   3.888   5.713
 4362SOL    HW213986   6.466   3.881   5.751
 4363SOL     OW13987   5.147   2.638   5.366
 4363SOL    HW113988   5.054   2.611   5.339
 4363SOL    HW213989   5.209   2.622   5.289
 4364SOL     OW13990   3.442   4.162   4.525
 4364SOL    HW113991   3.490   4.134   4.442
 4364SOL    HW213992   3.441   4.261   4.531
 4365SOL     OW13993   3.863   2.134   2.504
 4365SOL    HW113994   3.947   2.136   2.449
 4365SOL    HW213995   3.784   2.128   2.443
 4366SOL     OW13996   6.377   6.678   1.502
 4366SOL    HW113997   6.339   6.758   1.549
 4366SOL    HW213998   6.331   6.595   1.534
 4367SOL     OW13999   1.144   5.351   5.673
 4367SOL    HW114000   1.224   5.291   5.674
 4367SOL    HW214001   1.158   5.427   5.737
 4368SOL     OW14002   5.368   4.524   1.548
 4368SOL    HW114003   5.326   4.602   1.595
 4368SOL    HW214004   5.467   4.523   1.567
 4369SOL     OW14005   4.599   4.437   2.171
 4369SOL    HW114006   4.596   4.375   2.093
 4369SOL    HW214007   4.585   4.531   2.139
 4370SOL     OW14008   5.923   4.674   3.886
 4370SOL    HW114009   5.935   4.713   3.795
 4370SOL    HW214010   5.865   4.593   3.880
 4371SOL     OW14011   6.096   0.349   1.749
 4371SOL    HW114012   6.069   0.257   1.777
 4371SOL    HW214013   6.135   0.346   1.657
 4372SOL     OW14014   5.029   1.391   2.755
 4372SOL    HW114015   4.962   1.387   2.681
 4372SOL    HW214016   5.015   1.313   2.816
 4373SOL     OW14017   6.720   2.333   6.643
 4373SOL    HW114018   6.711   2.235   6.664
 4373SOL    HW214019   6.763   2.379   6.721
 4374SOL     OW14020   1.668   2.087   2.455
 4374SOL    HW114021   1.730   2.030   2.402
 4374SOL    HW214022   1.708   2.179   2.465
 4375SOL     OW14023   2.356   6.273   4.250
 4375SOL    HW114024   2.443   6.225   4.257
 4375SOL    HW214025   2.352   6.346   4.319
 4376SOL     OW14026   6.458   0.570   2.562
 4376SOL    HW114027   6.525   0.522   2.618
 4376SOL    HW214028   6.450   0.523   2.474
 4377SOL     OW14029   5.882   3.736   6.937
 4377SOL    HW114030   5.943   3.816   6.939
 4377SOL    HW214031   5.826   3.739   6.854
 4378SOL     OW14032   2.290   0.716   3.768
 4378SOL    HW114033   2.265   0.650   3.839
 4378SOL    HW214034   2.208   0.757   3.730
 4379SOL     OW14035   2.533   1.175   4.968
 4379SOL    HW114036   2.440   1.157   5.001
 4379SOL    HW214037   2.600   1.140   5.033
 4380SOL     OW14038   1.221   1.621   1.329
 4380SOL    HW114039   1.219   1.567   1.412
 4380SOL    HW214040   1.316   1.636   1.300
 4381SOL     OW14041   1.462   5.900   5.183
 4381SOL    HW114042   1.469   5.844   5.100
 4381SOL    HW214043   1.479   5.996   5.159
 4382SOL     OW14044   6.834   3.522   5.215
 4382SOL    HW114045   6.835   3.427   5.247
 4382SOL    HW214046   6.922   3.544   5.174
 4383SOL     OW14047   5.425   2.493   5.829
 4383SOL    HW114048   5.406   2.521   5.735
 4383SOL    HW214049   5.454   2.397   5.829
 4384SOL     OW14050   0.349   0.063   3.132
 4384SOL    HW114051   0.320   0.069   3.037
 4384SOL    HW214052   0.400   7.001   3.146
 4385SOL     OW14053   5.704   1.941   4.533
 4385SOL    HW114054   5.665   1.954   4.442
 4385SOL    HW214055   5.630   1.924   4.599
 4386SOL     OW14056   1.444   3.721   5.893
 4386SOL    HW114057   1.511   3.730   5.819
 4386SOL    HW214058   1.363   3.673   5.860
 4387SOL     OW14059   6.806   2.830   0.909
 4387SOL    HW114060   6.803   2.924   0.944
 4387SOL    HW214061   6.839   2.831   0.815
 4388SOL     OW14062   5.120   2.018   6.398
 4388SOL    HW114063   5.162   1.931   6.425
 4388SOL    HW214064   5.189   2.090   6.401
 4389SOL     OW14065   0.119   3.595   1.653
 4389SOL    HW114066   0.132   3.565   1.559
 4389SOL    HW214067   0.182   3.671   1.673
 4390SOL     OW14068   5.594   0.415   0.940
 4390SOL    HW114069   5.500   0.396   0.968
 4390SOL    HW214070   5.630   0.491   0.995
 4391SOL     OW14071   1.772   5.389   6.499
 4391SOL    HW114072   1.684   5.407   6.454
 4391SOL    HW214073   1.770   5.427   6.592
 4392SOL     OW14074   1.400   1.320   4.033
 4392SOL    HW114075   1.499   1.311   4.018
 4392SOL    HW214076   1.352   1.255   3.974
 4393SOL     OW14077   5.560   6.839   1.390
 4393SOL    HW114078   5.616   6.760   1.364
 4393SOL    HW214079   5.503   6.866   1.312
 4394SOL     OW14080   1.654   0.197   1.484
 4394SOL    HW114081   1.663   0.111   1.534
 4394SOL    HW214082   1.558   0.215   1.465
 4395SOL     OW14083   2.402   6.333   1.902
 4395SOL    HW114084   2.336   6.376   1.964
 4395SOL    HW214085   2.422   6.396   1.827
 4396SOL     OW14086   1.356   0.594   3.124
 4396SOL    HW114087   1.414   0.516   3.098
 4396SOL    HW214088   1.309   0.630   3.044
 4397SOL     OW14089   2.766   2.109   3.865
 4397SOL    HW114090   2.778   2.169   3.786
 4397SOL    HW214091   2.679   2.129   3.910
 4398SOL     OW14092   2.013   3.348   6.054
 4398SOL    HW114093   2.078   3.418   6.084
 4398SOL    HW214094   2.063   3.263   6.035
 4399SOL     OW14095   2.646   6.125   2.444
 4399SOL    HW114096   2.693   6.164   2.365
 4399SOL    HW214097   2.713   6.106   2.516
 4400SOL     OW14098   2.018   6.466   4.233
 4400SOL    HW114099   2.113   6.497   4.236
 4400SOL    HW214100   2.006   6.403   4.156
 4401SOL     OW14101   3.473   6.434   5.596
 4401SOL    HW114102   3.562   6.421   5.638
 4401SOL    HW214103   3.438   6.347   5.561
 4402SOL     OW14104   1.514   0.390   2.988
 4402SOL    HW114105   1.593   0.448   3.008
 4402SOL    HW214106   1.494   0.393   2.890
 4403SOL     OW14107   0.934   5.359   1.439
 4403SOL    HW114108   0.922   5.440   1.496
 4403SOL    HW214109   1.031   5.334   1.436
 4404SOL     OW14110   0.989   5.904   6.370
 4404SOL    HW114111   1.041   5.988   6.387
 4404SOL    HW214112   0.971   5.895   6.272
 4405SOL     OW14113   2.764   4.670   3.424
 4405SOL    HW114114   2.774   4.612   3.505
 4405SOL    HW214115   2.686   4.732   3.437
 4406SOL     OW14116   6.378   3.878   2.297
 4406SOL    HW114117   6.305   3.873   2.365
 4406SOL    HW214118   6.420   3.969   2.299
 4407SOL     OW14119   7.006   6.253   2.068
 4407SOL    HW114120   6.967   6.171   2.029
 4407SOL    HW214121   0.016   6.313   1.995
 4408SOL     OW14122   3.741   6.990   0.394
 4408SOL    HW114123   3.703   0.026   0.324
 4408SOL    HW214124   3.771   0.021   0.472
 4409SOL     OW14125   4.054   0.626   2.371
 4409SOL    HW114126   4.035   0.711   2.322
 4409SOL    HW214127   4.152   0.615   2.381
 4410SOL     OW14128   0.693   5.707   0.899
 4410SOL    HW114129   0.705   5.754   0.812
 4410SOL    HW214130   0.642   5.622   0.885
 4411SOL     OW14131   3.141   4.718   5.696
 4411SOL    HW114132   3.161   4.658   5.618
 4411SOL    HW214133   3.088   4.667   5.764
 4412SOL     OW14134   4.287   6.942   3.602
 4412SOL    HW114135   4.336   6.874   3.548
 4412SOL    HW214136   4.334   0.007   3.594
 4413SOL     OW14137   3.429   0.134   4.481
 4413SOL    HW114138   3.400   0.166   4.572
 4413SOL    HW214139   3.417   0.208   4.415
 4414SOL     OW14140   4.911   4.726   1.900
 4414SOL    HW114141   4.991   4.667   1.886
 4414SOL    HW214142   4.890   4.775   1.816
 4415SOL     OW14143   3.337   3.885   1.747
 4415SOL    HW114144   3.312   3.956   1.812
 4415SOL    HW214145   3.436   3.879   1.740
 4416SOL     OW14146   4.047   2.002   4.363
 4416SOL    HW114147   4.079   1.973   4.273
 4416SOL    HW214148   3.953   1.972   4.377
 4417SOL     OW14149   0.459   3.651   3.654
 4417SOL    HW114150   0.547   3.644   3.700
 4417SOL    HW214151   0.446   3.744   3.620
 4418SOL     OW14152   6.352   0.543   0.933
 4418SOL    HW114153   6.422   0.598   0.977
 4418SOL    HW214154   6.394   0.462   0.892
 4419SOL     OW14155   6.650   5.625   6.093
 4419SOL    HW114156   6.588   5.547   6.088
 4419SOL    HW214157   6.650   5.661   6.186
 4420SOL     OW14158   3.561   2.248   0.863
 4420SOL    HW114159   3.636   2.255   0.929
 4420SOL    HW214160   3.481   2.295   0.898
 4421SOL     OW14161   1.411   2.922   4.365
 4421SOL    HW114162   1.365   2.835   4.348
 4421SOL    HW214163   1.404   2.945   4.462
 4422SOL     OW14164   0.371   4.596   6.855
 4422SOL    HW114165   0.447   4.643   6.810
 4422SOL    HW214166   0.291   4.657   6.855
 4423SOL     OW14167   5.714   4.110   5.696
 4423SOL    HW114168   5.743   4.043   5.764
 4423SOL    HW214169   5.646   4.067   5.635
 4424SOL     OW14170   4.755   6.129   4.369
 4424SOL    HW114171   4.704   6.215   4.373
 4424SOL    HW214172   4.795   6.110   4.458
 4425SOL     OW14173   2.009   5.512   1.439
 4425SOL    HW114174   1.958   5.598   1.431
 4425SOL    HW214175   2.041   5.484   1.349
 4426SOL     OW14176   0.853   6.972   3.751
 4426SOL    HW114177   0.754   6.963   3.764
 4426SOL    HW214178   0.891   6.883   3.725
 4427SOL     OW14179   3.544   6.144   3.184
 4427SOL    HW114180   3.501   6.054   3.175
 4427SOL    HW214181   3.605   6.144   3.262
 4428SOL     OW14182   5.657   1.088   3.770
 4428SOL    HW114183   5.709   1.082   3.855
 4428SOL    HW214184   5.644   0.997   3.732
 4429SOL     OW14185   3.034   5.946   3.307
 4429SOL    HW114186   3.096   5.952   3.229
 4429SOL    HW214187   2.955   5.889   3.283
 4430SOL     OW14188   5.371   4.674   4.460
 4430SOL    HW114189   5.323   4.742   4.404
 4430SOL    HW214190   5.470   4.690   4.454
 4431SOL     OW14191   3.481   0.610   3.731
 4431SOL    HW114192   3.474   0.683   3.663
 4431SOL    HW214193   3.450   0.644   3.820
 4432SOL     OW14194   1.505   3.284   6.111
 4432SOL    HW114195   1.585   3.304   6.054
 4432SOL    HW214196   1.431   3.251   6.053
 4433SOL     OW14197   1.083   0.999   4.690
 4433SOL    HW114198   1.010   1.011   4.623
 4433SOL    HW214199   1.057   1.044   4.776
 4434SOL     OW14200   6.860   1.718   1.283
 4434SOL    HW114201   6.889   1.814   1.285
 4434SOL    HW214202   6.852   1.684   1.377
 4435SOL     OW14203   2.760   3.771   0.361
 4435SOL    HW114204   2.787   3.738   0.451
 4435SOL    HW214205   2.675   3.726   0.332
 4436SOL     OW14206   4.451   1.752   1.305
 4436SOL    HW114207   4.441   1.844   1.267
 4436SOL    HW214208   4.364   1.722   1.344
 4437SOL     OW14209   0.441   3.692   1.876
 4437SOL    HW114210   0.365   3.726   1.821
 4437SOL    HW214211   0.407   3.660   1.964
 4438SOL     OW14212   4.336   6.931   5.952
 4438SOL    HW114213   4.296   6.959   6.039
 4438SOL    HW214214   4.427   6.972   5.943
 4439SOL     OW14215   2.389   6.623   2.677
 4439SOL    HW114216   2.454   6.699   2.682
 4439SOL    HW214217   2.436   6.541   2.645
 4440SOL     OW14218   1.711   4.843   0.786
 4440SOL    HW114219   1.764   4.828   0.702
 4440SOL    HW214220   1.662   4.930   0.779
 4441SOL     OW14221   0.733   1.345   0.031
 4441SOL    HW114222   0.752   1.373   6.960
 4441SOL    HW214223   0.817   1.316   0.075
 4442SOL     OW14224   1.817   4.788   6.384
 4442SOL    HW114225   1.911   4.774   6.415
 4442SOL    HW214226   1.792   4.718   6.318
 4443SOL     OW14227   0.467   4.940   6.945
 4443SOL    HW114228   0.492   5.035   6.924
 4443SOL    HW214229   0.406   4.905   6.874
 4444SOL     OW14230   4.888   4.005   0.486
 4444SOL    HW114231   4.845   4.061   0.556
 4444SOL    HW214232   4.859   3.910   0.497
 4445SOL     OW14233   0.453   5.577   6.815
 4445SOL    HW114234   0.358   5.601   6.797
 4445SOL    HW214235   0.498   5.653   6.861
 4446SOL     OW14236   5.018   1.102   0.723
 4446SOL    HW114237   4.979   1.194   0.724
 4446SOL    HW214238   5.076   1.090   0.804
 4447SOL     OW14239   5.435   4.858   5.393
 4447SOL    HW114240   5.384   4.808   5.463
 4447SOL    HW214241   5.373   4.885   5.319
 4448SOL     OW14242   3.259   6.553   2.231
 4448SOL    HW114243   3.196   6.478   2.249
 4448SOL    HW214244   3.240   6.593   2.142
 4449SOL     OW14245   3.724   1.208   6.482
 4449SOL    HW114246   3.651   1.152   6.444
 4449SOL    HW214247   3.691   1.301   6.497
 4450SOL     OW14248   3.586   0.527   0.081
 4450SOL    HW114249   3.527   0.477   0.017
 4450SOL    HW214250   3.648   0.463   0.126
 4451SOL     OW14251   4.908   4.423   3.964
 4451SOL    HW114252   4.985   4.455   4.020
 4451SOL    HW214253   4.829   4.482   3.980
 4452SOL     OW14254   4.995   6.397   4.246
 4452SOL    HW114255   4.934   6.410   4.168
 4452SOL    HW214256   4.940   6.376   4.327
 4453SOL     OW14257   0.195   3.214   1.073
 4453SOL    HW114258   0.255   3.206   1.152
 4453SOL    HW214259   0.248   3.241   0.993
 4454SOL     OW14260   0.751   2.417   0.277
 4454SOL    HW114261   0.749   2.410   0.177
 4454SOL    HW214262   0.749   2.326   0.317
 4455SOL     OW14263   6.899   6.114   5.039
 4455SOL    HW114264   6.890   6.177   5.116
 4455SOL    HW214265   6.810   6.076   5.015
 4456SOL     OW14266   1.916   6.889   3.952
 4456SOL    HW114267   1.966   6.952   3.892
 4456SOL    HW214268   1.832   6.932   3.983
 4457SOL     OW14269   1.344   1.691   4.659
 4457SOL    HW114270   1.346   1.735   4.749
 4457SOL    HW214271   1.422   1.722   4.605
 4458SOL     OW14272   2.112   3.828   1.482
 4458SOL    HW114273   2.151   3.738   1.500
 4458SOL    HW214274   2.169   3.898   1.525
 4459SOL     OW14275   1.825   2.712   4.165
 4459SOL    HW114276   1.767   2.778   4.212
 4459SOL    HW214277   1.835   2.738   4.069
 4460SOL     OW14278   0.171   3.650   3.930
 4460SOL    HW114279   0.205   3.594   3.855
 4460SOL    HW214280   0.202   3.745   3.918
 4461SOL     OW14281   2.475   1.118   1.552
 4461SOL    HW114282   2.571   1.089   1.555
 4461SOL    HW214283   2.433   1.082   1.469
 4462SOL     OW14284   6.251   4.328   1.947
 4462SOL    HW114285   6.250   4.396   2.020
 4462SOL    HW214286   6.283   4.240   1.983
 4463SOL     OW14287   6.086   2.019   1.563
 4463SOL    HW114288   6.124   1.932   1.592
 4463SOL    HW214289   5.993   2.004   1.527
 4464SOL     OW14290   0.548   5.418   0.619
 4464SOL    HW114291   0.523   5.321   0.621
 4464SOL    HW214292   0.635   5.429   0.571
 4465SOL     OW14293   2.482   5.784   0.306
 4465SOL    HW114294   2.457   5.755   0.398
 4465SOL    HW214295   2.412   5.755   0.241
 4466SOL     OW14296   1.787   1.927   3.638
 4466SOL    HW114297   1.692   1.934   3.671
 4466SOL    HW214298   1.819   1.833   3.648
 4467SOL     OW14299   3.481   5.883   3.109
 4467SOL    HW114300   3.504   5.881   3.012
 4467SOL    HW214301   3.537   5.817   3.159
 4468SOL     OW14302   1.187   3.171   2.261
 4468SOL    HW114303   1.091   3.191   2.278
 4468SOL    HW214304   1.236   3.167   2.348
 4469SOL     OW14305   2.467   0.148   1.554
 4469SOL    HW114306   2.479   0.147   1.455
 4469SOL    HW214307   2.516   0.071   1.594
 4470SOL     OW14308   1.557   0.248   2.176
 4470SOL    HW114309   1.620   0.173   2.194
 4470SOL    HW214310   1.585   0.297   2.094
 4471SOL     OW14311   1.791   1.763   6.043
 4471SOL    HW114312   1.821   1.828   6.113
 4471SOL    HW214313   1.844   1.775   5.960
 4472SOL     OW14314   1.746   3.201   1.214
 4472SOL    HW114315   1.694   3.142   1.276
 4472SOL    HW214316   1.694   3.285   1.197
 4473SOL     OW14317   0.169   3.237   4.479
 4473SOL    HW114318   0.116   3.280   4.552
 4473SOL    HW214319   0.266   3.259   4.491
 4474SOL     OW14320   3.071   0.603   1.523
 4474SOL    HW114321   3.127   0.576   1.445
 4474SOL    HW214322   3.127   0.653   1.588
 4475SOL     OW14323   0.986   3.764   2.057
 4475SOL    HW114324   0.949   3.848   2.097
 4475SOL    HW214325   0.984   3.692   2.126
 4476SOL     OW14326   5.191   1.634   3.965
 4476SOL    HW114327   5.137   1.695   4.023
 4476SOL    HW214328   5.134   1.558   3.934
 4477SOL     OW14329   2.213   0.195   5.942
 4477SOL    HW114330   2.146   0.255   5.986
 4477SOL    HW214331   2.255   0.136   6.010
 4478SOL     OW14332   1.689   0.143   0.427
 4478SOL    HW114333   1.605   0.121   0.476
 4478SOL    HW214334   1.672   0.139   0.328
 4479SOL     OW14335   0.545   3.135   0.726
 4479SOL    HW114336   0.545   3.102   0.820
 4479SOL    HW214337   0.638   3.163   0.700
 4480SOL     OW14338   0.075   6.141   4.259
 4480SOL    HW114339   0.067   6.170   4.354
 4480SOL    HW214340   0.170   6.149   4.228
 4481SOL     OW14341   2.837   4.874   6.073
 4481SOL    HW114342   2.759   4.831   6.118
 4481SOL    HW214343   2.820   4.973   6.064
 4482SOL     OW14344   2.944   5.491   6.601
 4482SOL    HW114345   2.913   5.416   6.660
 4482SOL    HW214346   3.043   5.501   6.609
 4483SOL     OW14347   0.605   2.859   1.891
 4483SOL    HW114348   0.608   2.896   1.984
 4483SOL    HW214349   0.624   2.932   1.825
 4484SOL     OW14350   2.723   2.584   6.409
 4484SOL    HW114351   2.646   2.543   6.361
 4484SOL    HW214352   2.792   2.614   6.343
 4485SOL     OW14353   5.360   2.393   4.572
 4485SOL    HW114354   5.376   2.437   4.483
 4485SOL    HW214355   5.404   2.446   4.644
 4486SOL     OW14356   4.639   4.909   5.310
 4486SOL    HW114357   4.693   4.890   5.228
 4486SOL    HW214358   4.582   4.830   5.332
 4487SOL     OW14359   1.340   2.492   0.021
 4487SOL    HW114360   1.389   2.576   7.022
 4487SOL    HW214361   1.379   2.416   6.992
 4488SOL     OW14362   0.501   4.290   4.348
 4488SOL    HW114363   0.427   4.357   4.347
 4488SOL    HW214364   0.481   4.219   4.417
 4489SOL     OW14365   4.490   5.031   5.501
 4489SOL    HW114366   4.564   4.990   5.450
 4489SOL    HW214367   4.435   5.088   5.440
 4490SOL     OW14368   4.982   1.839   0.907
 4490SOL    HW114369   5.018   1.746   0.921
 4490SOL    HW214370   4.916   1.860   0.980
 4491SOL     OW14371   1.204   2.627   3.416
 4491SOL    HW114372   1.253   2.547   3.382
 4491SOL    HW214373   1.179   2.686   3.339
 4492SOL     OW14374   5.656   0.425   1.788
 4492SOL    HW114375   5.690   0.450   1.879
 4492SOL    HW214376   5.731   0.392   1.732
 4493SOL     OW14377   5.097   0.953   5.216
 4493SOL    HW114378   5.086   0.865   5.171
 4493SOL    HW214379   5.195   0.974   5.226
 4494SOL     OW14380   0.148   0.559   0.280
 4494SOL    HW114381   0.108   0.554   0.189
 4494SOL    HW214382   0.117   0.642   0.326
 4495SOL     OW14383   4.147   6.006   2.101
 4495SOL    HW114384   4.078   6.003   2.029
 4495SOL    HW214385   4.238   6.002   2.061
 4496SOL     OW14386   3.799   5.884   6.487
 4496SOL    HW114387   3.744   5.810   6.451
 4496SOL    HW214388   3.766   5.972   6.451
 4497SOL     OW14389   3.925   1.846   6.146
 4497SOL    HW114390   3.828   1.841   6.125
 4497SOL    HW214391   3.960   1.937   6.121
 4498SOL     OW14392   0.594   5.208   5.661
 4498SOL    HW114393   0.606   5.240   5.567
 4498SOL    HW214394   0.505   5.164   5.671
 4499SOL     OW14395   6.002   2.112   2.408
 4499SOL    HW114396   6.088   2.125   2.360
 4499SOL    HW214397   6.017   2.121   2.507
 4500SOL     OW14398   3.400   5.586   6.866
 4500SOL    HW114399   3.459   5.654   6.910
 4500SOL    HW214400   3.337   5.548   6.935
 4501SOL     OW14401   5.296   1.701   2.092
 4501SOL    HW114402   5.334   1.621   2.139
 4501SOL    HW214403   5.198   1.708   2.112
 4502SOL     OW14404   0.465   3.249   6.875
 4502SOL    HW114405   0.463   3.230   6.973
 4502SOL    HW214406   0.558   3.276   6.848
 4503SOL     OW14407   2.965   0.049   2.162
 4503SOL    HW114408   2.961   6.996   2.225
 4503SOL    HW214409   3.057   0.055   2.123
 4504SOL     OW14410   0.521   1.991   3.361
 4504SOL    HW114411   0.445   1.938   3.322
 4504SOL    HW214412   0.574   2.032   3.287
 4505SOL     OW14413   5.745   3.558   2.750
 4505SOL    HW114414   5.718   3.601   2.664
 4505SOL    HW214415   5.720   3.461   2.747
 4506SOL     OW14416   4.866   3.098   4.279
 4506SOL    HW114417   4.829   3.005   4.271
 4506SOL    HW214418   4.888   3.116   4.375
 4507SOL     OW14419   6.445   3.026   3.292
 4507SOL    HW114420   6.453   2.962   3.369
 4507SOL    HW214421   6.523   3.013   3.230
 4508SOL     OW14422   0.990   5.160   0.558
 4508SOL    HW114423   0.919   5.094   0.533
 4508SOL    HW214424   1.057   5.167   0.484
 4509SOL     OW14425   4.653   2.490   2.752
 4509SOL    HW114426   4.617   2.398   2.772
 4509SOL    HW214427   4.596   2.533   2.682
 4510SOL     OW14428   4.901   1.447   4.543
 4510SOL    HW114429   4.881   1.352   4.516
 4510SOL    HW214430   4.826   1.506   4.513
 4511SOL     OW14431   0.657   4.624   0.954
 4511SOL    HW114432   0.584   4.568   0.914
 4511SOL    HW214433   0.618   4.686   1.021
 4512SOL     OW14434   3.636   2.442   5.962
 4512SOL    HW114435   3.576   2.490   5.898
 4512SOL    HW214436   3.650   2.348   5.932
 4513SOL     OW14437   1.472   6.628   0.130
 4513SOL    HW114438   1.483   6.690   0.207
 4513SOL    HW214439   1.560   6.611   0.087
 4514SOL     OW14440   3.328   3.512   6.515
 4514SOL    HW114441   3.393   3.558   6.453
 4514SOL    HW214442   3.238   3.554   6.507
 4515SOL     OW14443   4.579   0.012   5.902
 4515SOL    HW114444   4.671   0.036   5.933
 4515SOL    HW214445   4.577   0.008   5.802
 4516SOL     OW14446   3.838   1.696   5.277
 4516SOL    HW114447   3.825   1.637   5.197
 4516SOL    HW214448   3.936   1.712   5.290
 4517SOL     OW14449   3.990   0.701   5.919
 4517SOL    HW114450   4.085   0.669   5.909
 4517SOL    HW214451   3.964   0.753   5.838
 4518SOL     OW14452   1.759   0.038   0.909
 4518SOL    HW114453   1.825   0.003   0.975
 4518SOL    HW214454   1.741   0.135   0.928
 4519SOL     OW14455   5.422   6.690   6.386
 4519SOL    HW114456   5.367   6.649   6.459
 4519SOL    HW214457   5.493   6.747   6.428
 4520SOL     OW14458   4.039   6.635   5.150
 4520SOL    HW114459   4.050   6.698   5.073
 4520SOL    HW214460   4.048   6.541   5.117
 4521SOL     OW14461   4.860   3.110   4.778
 4521SOL    HW114462   4.790   3.045   4.807
 4521SOL    HW214463   4.904   3.148   4.859
 4522SOL     OW14464   4.890   3.978   3.228
 4522SOL    HW114465   4.844   4.038   3.162
 4522SOL    HW214466   4.962   4.030   3.274
 4523SOL     OW14467   0.324   3.251   6.431
 4523SOL    HW114468   0.423   3.245   6.414
 4523SOL    HW214469   0.301   3.196   6.512
 4524SOL     OW14470   0.282   3.352   2.865
 4524SOL    HW114471   0.323   3.323   2.951
 4524SOL    HW214472   0.192   3.308   2.854
 4525SOL     OW14473   2.164   2.179   5.260
 4525SOL    HW114474   2.075   2.226   5.263
 4525SOL    HW214475   2.237   2.246   5.268
 4526SOL     OW14476   0.858   6.895   5.853
 4526SOL    HW114477   0.948   6.862   5.824
 4526SOL    HW214478   0.788   6.829   5.826
 4527SOL     OW14479   6.138   6.997   3.420
 4527SOL    HW114480   6.141   0.048   3.487
 4527SOL    HW214481   6.080   7.023   3.344
 4528SOL     OW14482   3.635   0.828   5.570
 4528SOL    HW114483   3.694   0.862   5.497
 4528SOL    HW214484   3.554   0.887   5.577
 4529SOL     OW14485   3.031   1.078   5.425
 4529SOL    HW114486   2.995   1.025   5.502
 4529SOL    HW214487   3.076   1.161   5.460
 4530SOL     OW14488   2.770   6.009   5.185
 4530SOL    HW114489   2.788   5.922   5.139
 4530SOL    HW214490   2.720   6.070   5.124
 4531SOL     OW14491   0.794   5.064   6.019
 4531SOL    HW114492   0.866   5.027   6.078
 4531SOL    HW214493   0.836   5.100   5.935
 4532SOL     OW14494   5.652   0.727   2.824
 4532SOL    HW114495   5.641   0.657   2.895
 4532SOL    HW214496   5.724   0.791   2.850
 4533SOL     OW14497   2.411   0.696   2.153
 4533SOL    HW114498   2.450   0.774   2.106
 4533SOL    HW214499   2.465   0.614   2.132
 4534SOL     OW14500   4.559   1.780   3.954
 4534SOL    HW114501   4.609   1.865   3.938
 4534SOL    HW214502   4.491   1.795   4.027
 4535SOL     OW14503   2.925   1.703   0.242
 4535SOL    HW114504   2.891   1.627   0.297
 4535SOL    HW214505   3.024   1.696   0.232
 4536SOL     OW14506   2.836   1.470   6.042
 4536SOL    HW114507   2.892   1.489   5.961
 4536SOL    HW214508   2.891   1.422   6.111
 4537SOL     OW14509   3.542   4.149   4.277
 4537SOL    HW114510   3.623   4.116   4.326
 4537SOL    HW214511   3.567   4.175   4.184
 4538SOL     OW14512   6.713   2.474   1.033
 4538SOL    HW114513   6.809   2.462   1.011
 4538SOL    HW214514   6.663   2.503   0.952
 4539SOL     OW14515   1.109   5.587   5.832
 4539SOL    HW114516   1.058   5.560   5.914
 4539SOL    HW214517   1.197   5.626   5.859
 4540SOL     OW14518   0.395   1.223   0.521
 4540SOL    HW114519   0.336   1.149   0.489
 4540SOL    HW214520   0.476   1.185   0.564
 4541SOL     OW14521   4.284   2.123   6.001
 4541SOL    HW114522   4.327   2.172   5.925
 4541SOL    HW214523   4.324   2.154   6.087
 4542SOL     OW14524   6.994   2.862   1.559
 4542SOL    HW114525   6.959   2.952   1.532
 4542SOL    HW214526   0.031   2.827   1.487
 4543SOL     OW14527   3.274   2.083   6.747
 4543SOL    HW114528   3.301   2.091   6.843
 4543SOL    HW214529   3.207   2.154   6.725
 4544SOL     OW14530   5.800   5.389   0.618
 4544SOL    HW114531   5.738   5.457   0.657
 4544SOL    HW214532   5.778   5.376   0.521
 4545SOL     OW14533   1.881   3.033   5.364
 4545SOL    HW114534   1.905   3.004   5.272
 4545SOL    HW214535   1.961   3.026   5.424
 4546SOL     OW14536   2.373   1.389   6.678
 4546SOL    HW114537   2.376   1.420   6.583
 4546SOL    HW214538   2.464   1.357   6.705
 4547SOL     OW14539   6.370   0.162   0.340
 4547SOL    HW114540   6.469   0.159   0.325
 4547SOL    HW214541   6.351   0.190   0.434
 4548SOL     OW14542   2.116   3.082   3.181
 4548SOL    HW114543   2.136   3.105   3.276
 4548SOL    HW214544   2.022   3.110   3.159
 4549SOL     OW14545   5.955   3.883   3.033
 4549SOL    HW114546   5.992   3.880   3.126
 4549SOL    HW214547   5.890   3.959   3.026
 4550SOL     OW14548   0.813   4.487   2.893
 4550SOL    HW114549   0.798   4.388   2.895
 4550SOL    HW214550   0.725   4.534   2.885
 4551SOL     OW14551   1.088   3.487   4.823
 4551SOL    HW114552   1.146   3.538   4.759
 4551SOL    HW214553   1.010   3.543   4.849
 4552SOL     OW14554   5.544   1.277   0.993
 4552SOL    HW114555   5.560   1.230   1.080
 4552SOL    HW214556   5.505   1.211   0.927
 4553SOL     OW14557   5.943   5.297   6.131
 4553SOL    HW114558   5.865   5.289   6.193
 4553SOL    HW214559   5.987   5.208   6.120
 4554SOL     OW14560   0.722   6.252   1.927
 4554SOL    HW114561   0.747   6.347   1.908
 4554SOL    HW214562   0.629   6.249   1.964
 4555SOL     OW14563   0.574   1.100   6.800
 4555SOL    HW114564   0.508   1.074   6.871
 4555SOL    HW214565   0.530   1.161   6.735
 4556SOL     OW14566   5.933   3.446   5.737
 4556SOL    HW114567   5.908   3.358   5.695
 4556SOL    HW214568   5.868   3.516   5.707
 4557SOL     OW14569   6.332   4.915   3.044
 4557SOL    HW114570   6.335   4.989   3.111
 4557SOL    HW214571   6.241   4.873   3.045
 4558SOL     OW14572   0.167   3.248   5.203
 4558SOL    HW114573   0.074   3.281   5.219
 4558SOL    HW214574   0.218   3.250   5.288
 4559SOL     OW14575   0.068   2.863   2.636
 4559SOL    HW114576   7.002   2.824   2.657
 4559SOL    HW214577   0.089   2.935   2.701
 4560SOL     OW14578   5.634   4.603   2.684
 4560SOL    HW114579   5.724   4.575   2.651
 4560SOL    HW214580   5.567   4.531   2.666
 4561SOL     OW14581   3.754   2.155   4.481
 4561SOL    HW114582   3.710   2.245   4.489
 4561SOL    HW214583   3.782   2.140   4.386
 4562SOL     OW14584   2.427   1.178   1.056
 4562SOL    HW114585   2.437   1.231   1.140
 4562SOL    HW214586   2.355   1.109   1.068
 4563SOL     OW14587   0.293   3.264   1.530
 4563SOL    HW114588   0.207   3.215   1.544
 4563SOL    HW214589   0.351   3.252   1.610
 4564SOL     OW14590   0.298   4.002   1.978
 4564SOL    HW114591   0.264   4.085   1.933
 4564SOL    HW214592   0.231   3.928   1.967
 4565SOL     OW14593   2.170   6.378   5.306
 4565SOL    HW114594   2.085   6.353   5.352
 4565SOL    HW214595   2.246   6.330   5.349
 4566SOL     OW14596   6.637   4.309   1.982
 4566SOL    HW114597   6.609   4.214   1.995
 4566SOL    HW214598   6.672   4.346   2.068
 4567SOL     OW14599   0.426   0.464   6.340
 4567SOL    HW114600   0.365   0.404   6.288
 4567SOL    HW214601   0.376   0.505   6.416
 4568SOL     OW14602   0.726   5.415   3.582
 4568SOL    HW114603   0.704   5.338   3.522
 4568SOL    HW214604   0.770   5.487   3.529
 4569SOL     OW14605   2.837   1.245   3.188
 4569SOL    HW114606   2.757   1.290   3.228
 4569SOL    HW214607   2.808   1.175   3.124
 4570SOL     OW14608   6.332   5.500   1.611
 4570SOL    HW114609   6.357   5.403   1.603
 4570SOL    HW214610   6.310   5.521   1.706
 4571SOL     OW14611   3.733   3.157   6.480
 4571SOL    HW114612   3.724   3.091   6.555
 4571SOL    HW214613   3.808   3.219   6.498
 4572SOL     OW14614   2.748   3.005   1.190
 4572SOL    HW114615   2.784   2.916   1.217
 4572SOL    HW214616   2.654   2.994   1.156
 4573SOL     OW14617   1.582   6.052   1.359
 4573SOL    HW114618   1.531   6.022   1.279
 4573SOL    HW214619   1.651   5.983   1.382
 4574SOL     OW14620   5.716   2.444   1.050
 4574SOL    HW114621   5.640   2.380   1.048
 4574SOL    HW214622   5.786   2.416   0.984
 4575SOL     OW14623   6.438   0.238   3.964
 4575SOL    HW114624   6.535   0.222   3.984
 4575SOL    HW214625   6.430   0.296   3.882
 4576SOL     OW14626   2.503   4.797   5.154
 4576SOL    HW114627   2.421   4.769   5.205
 4576SOL    HW214628   2.584   4.773   5.206
 4577SOL     OW14629   1.826   1.504   3.074
 4577SOL    HW114630   1.867   1.593   3.056
 4577SOL    HW214631   1.847   1.441   2.999
 4578SOL     OW14632   1.193   1.060   1.886
 4578SOL    HW114633   1.145   1.010   1.814
 4578SOL    HW214634   1.292   1.057   1.869
 4579SOL     OW14635   3.570   0.703   2.169
 4579SOL    HW114636   3.619   0.675   2.251
 4579SOL    HW214637   3.616   0.781   2.127
 4580SOL     OW14638   6.648   2.956   0.546
 4580SOL    HW114639   6.743   2.931   0.567
 4580SOL    HW214640   6.647   3.046   0.502
 4581SOL     OW14641   3.583   6.906   1.642
 4581SOL    HW114642   3.536   6.992   1.660
 4581SOL    HW214643   3.660   6.897   1.704
 4582SOL     OW14644   5.924   1.040   2.679
 4582SOL    HW114645   5.991   1.111   2.659
 4582SOL    HW214646   5.893   1.049   2.774
 4583SOL     OW14647   1.886   6.966   6.588
 4583SOL    HW114648   1.827   0.019   6.613
 4583SOL    HW214649   1.840   6.880   6.611
 4584SOL     OW14650   1.136   0.534   5.546
 4584SOL    HW114651   1.065   0.561   5.611
 4584SOL    HW214652   1.147   0.435   5.548
 4585SOL     OW14653   1.068   3.911   3.105
 4585SOL    HW114654   1.057   3.823   3.059
 4585SOL    HW214655   1.128   3.970   3.051
 4586SOL     OW14656   5.278   4.588   6.572
 4586SOL    HW114657   5.268   4.640   6.487
 4586SOL    HW214658   5.188   4.565   6.608
 4587SOL     OW14659   3.125   4.009   4.298
 4587SOL    HW114660   3.075   4.079   4.246
 4587SOL    HW214661   3.059   3.952   4.348
 4588SOL     OW14662   2.430   4.145   5.847
 4588SOL    HW114663   2.482   4.211   5.794
 4588SOL    HW214664   2.491   4.096   5.909
 4589SOL     OW14665   5.390   6.626   2.498
 4589SOL    HW114666   5.373   6.708   2.551
 4589SOL    HW214667   5.307   6.572   2.492
 4590SOL     OW14668   3.398   5.295   1.909
 4590SOL    HW114669   3.453   5.356   1.852
 4590SOL    HW214670   3.440   5.287   2.000
 4591SOL     OW14671   2.188   0.400   5.210
 4591SOL    HW114672   2.125   0.454   5.154
 4591SOL    HW214673   2.140   0.321   5.248
 4592SOL     OW14674   2.620   1.485   4.488
 4592SOL    HW114675   2.643   1.574   4.526
 4592SOL    HW214676   2.555   1.438   4.548
 4593SOL     OW14677   0.829   5.890   4.363
 4593SOL    HW114678   0.770   5.870   4.441
 4593SOL    HW214679   0.777   5.881   4.278
 4594SOL     OW14680   2.100   0.353   2.614
 4594SOL    HW114681   2.129   0.362   2.518
 4594SOL    HW214682   2.139   0.270   2.653
 4595SOL     OW14683   4.972   1.851   6.227
 4595SOL    HW114684   5.046   1.785   6.222
 4595SOL    HW214685   4.999   1.928   6.285
 4596SOL     OW14686   1.162   1.118   2.171
 4596SOL    HW114687   1.226   1.053   2.212
 4596SOL    HW214688   1.167   1.111   2.072
 4597SOL     OW14689   2.957   6.065   7.007
 4597SOL    HW114690   2.988   5.973   0.006
 4597SOL    HW214691   3.003   6.131   0.043
 4598SOL     OW14692   1.950   5.719   6.807
 4598SOL    HW114693   1.931   5.814   6.834
 4598SOL    HW214694   1.970   5.665   6.888
 4599SOL     OW14695   1.645   5.191   2.754
 4599SOL    HW114696   1.683   5.140   2.832
 4599SOL    HW214697   1.683   5.155   2.669
 4600SOL     OW14698   6.898   6.334   5.727
 4600SOL    HW114699   6.939   6.395   5.658
 4600SOL    HW214700   6.926   6.240   5.709
 4601SOL     OW14701   1.028   1.249   4.436
 4601SOL    HW114702   0.966   1.231   4.359
 4601SOL    HW214703   1.022   1.346   4.461
 4602SOL     OW14704   2.793   1.478   0.008
 4602SOL    HW114705   2.831   1.539   6.961
 4602SOL    HW214706   2.696   1.500   0.021
 4603SOL     OW14707   4.653   5.925   0.910
 4603SOL    HW114708   4.726   5.880   0.859
 4603SOL    HW214709   4.601   5.984   0.848
 4604SOL     OW14710   5.385   0.297   6.071
 4604SOL    HW114711   5.409   0.272   5.977
 4604SOL    HW214712   5.306   0.244   6.101
 4605SOL     OW14713   3.179   0.098   2.009
 4605SOL    HW114714   3.160   0.090   1.911
 4605SOL    HW214715   3.210   0.191   2.029
 4606SOL     OW14716   6.754   6.630   3.237
 4606SOL    HW114717   6.759   6.590   3.328
 4606SOL    HW214718   6.796   6.720   3.237
 4607SOL     OW14719   1.893   3.005   2.384
 4607SOL    HW114720   1.963   3.066   2.347
 4607SOL    HW214721   1.807   3.055   2.395
 4608SOL     OW14722   0.140   3.577   4.763
 4608SOL    HW114723   0.200   3.597   4.685
 4608SOL    HW214724   0.138   3.656   4.824
 4609SOL     OW14725   4.585   6.488   6.476
 4609SOL    HW114726   4.629   6.398   6.480
 4609SOL    HW214727   4.492   6.478   6.440
 4610SOL     OW14728   5.026   2.534   0.794
 4610SOL    HW114729   5.022   2.599   0.870
 4610SOL    HW214730   5.116   2.538   0.750
 4611SOL     OW14731   0.932   0.200   5.801
 4611SOL    HW114732   0.948   0.293   5.766
 4611SOL    HW214733   0.874   0.205   5.883
 4612SOL     OW14734   1.432   6.795   2.151
 4612SOL    HW114735   1.447   6.894   2.142
 4612SOL    HW214736   1.520   6.749   2.158
 4613SOL     OW14737   1.480   5.074   1.731
 4613SOL    HW114738   1.516   5.164   1.756
 4613SOL    HW214739   1.419   5.042   1.803
 4614SOL     OW14740   6.838   3.715   4.820
 4614SOL    HW114741   6.840   3.812   4.843
 4614SOL    HW214742   6.889   3.663   4.889
 4615SOL     OW14743   0.700   2.334   1.167
 4615SOL    HW114744   0.799   2.343   1.166
 4615SOL    HW214745   0.664   2.361   1.256
 4616SOL     OW14746   6.255   3.150   4.736
 4616SOL    HW114747   6.158   3.136   4.715
 4616SOL    HW214748   6.281   3.244   4.714
 4617SOL     OW14749   0.289   2.370   2.698
 4617SOL    HW114750   0.348   2.291   2.679
 4617SOL    HW214751   0.195   2.348   2.671
 4618SOL     OW14752   2.628   4.283   5.734
 4618SOL    HW114753   2.609   4.339   5.654
 4618SOL    HW214754   2.718   4.241   5.725
 4619SOL     OW14755   3.469   6.096   5.322
 4619SOL    HW114756   3.500   6.175   5.271
 4619SOL    HW214757   3.410   6.039   5.264
 4620SOL     OW14758   0.678   5.850   2.599
 4620SOL    HW114759   0.685   5.947   2.625
 4620SOL    HW214760   0.736   5.832   2.520
 4621SOL     OW14761   5.005   0.307   2.482
 4621SOL    HW114762   4.912   0.317   2.518
 4621SOL    HW214763   5.008   0.340   2.387
 4622SOL     OW14764   4.547   5.707   1.032
 4622SOL    HW114765   4.579   5.797   1.003
 4622SOL    HW214766   4.559   5.697   1.130
 4623SOL     OW14767   2.879   5.207   1.090
 4623SOL    HW114768   2.946   5.158   1.034
 4623SOL    HW214769   2.787   5.181   1.062
 4624SOL     OW14770   4.024   1.135   2.875
 4624SOL    HW114771   4.115   1.150   2.914
 4624SOL    HW214772   4.027   1.058   2.811
 4625SOL     OW14773   1.946   5.333   1.913
 4625SOL    HW114774   1.882   5.367   1.982
 4625SOL    HW214775   1.912   5.356   1.822
 4626SOL     OW14776   3.910   3.760   1.666
 4626SOL    HW114777   3.824   3.751   1.615
 4626SOL    HW214778   3.983   3.786   1.602
 4627SOL     OW14779   6.300   6.759   4.895
 4627SOL    HW114780   6.301   6.859   4.895
 4627SOL    HW214781   6.288   6.726   4.801
 4628SOL     OW14782   5.168   5.517   3.681
 4628SOL    HW114783   5.258   5.552   3.704
 4628SOL    HW214784   5.154   5.428   3.724
 4629SOL     OW14785   1.908   5.981   6.883
 4629SOL    HW114786   1.818   6.013   6.853
 4629SOL    HW214787   1.980   6.033   6.836
 4630SOL     OW14788   1.707   3.943   2.132
 4630SOL    HW114789   1.693   4.038   2.159
 4630SOL    HW214790   1.715   3.885   2.213
 4631SOL     OW14791   0.373   0.538   3.717
 4631SOL    HW114792   0.289   0.500   3.756
 4631SOL    HW214793   0.355   0.569   3.623
 4632SOL     OW14794   3.494   4.894   2.577
 4632SOL    HW114795   3.488   4.924   2.482
 4632SOL    HW214796   3.409   4.849   2.604
 4633SOL     OW14797   4.960   1.427   4.218
 4633SOL    HW114798   4.944   1.410   4.315
 4633SOL    HW214799   4.964   1.526   4.201
 4634SOL     OW14800   3.264   3.724   4.783
 4634SOL    HW114801   3.240   3.653   4.849
 4634SOL    HW214802   3.231   3.813   4.816
 4635SOL     OW14803   5.184   5.570   0.613
 4635SOL    HW114804   5.241   5.535   0.687
 4635SOL    HW214805   5.112   5.503   0.592
 4636SOL     OW14806   1.952   5.725   0.392
 4636SOL    HW114807   1.986   5.647   0.339
 4636SOL    HW214808   1.979   5.715   0.488
 4637SOL     OW14809   1.673   6.944   2.392
 4637SOL    HW114810   1.721   6.963   2.306
 4637SOL    HW214811   1.590   6.999   2.396
 4638SOL     OW14812   3.446   5.232   0.171
 4638SOL    HW114813   3.518   5.231   0.101
 4638SOL    HW214814   3.396   5.319   0.166
 4639SOL     OW14815   1.901   2.313   0.721
 4639SOL    HW114816   1.885   2.367   0.803
 4639SOL    HW214817   1.940   2.224   0.746
 4640SOL     OW14818   6.550   3.105   5.606
 4640SOL    HW114819   6.540   3.135   5.701
 4640SOL    HW214820   6.613   3.027   5.603
 4641SOL     OW14821   0.771   5.292   4.382
 4641SOL    HW114822   0.805   5.303   4.289
 4641SOL    HW214823   0.706   5.216   4.385
 4642SOL     OW14824   0.732   1.514   3.505
 4642SOL    HW114825   0.789   1.505   3.586
 4642SOL    HW214826   0.701   1.609   3.497
 4643SOL     OW14827   0.128   1.954   6.744
 4643SOL    HW114828   0.160   2.038   6.789
 4643SOL    HW214829   0.203   1.889   6.739
 4644SOL     OW14830   1.693   0.631   0.895
 4644SOL    HW114831   1.745   0.643   0.810
 4644SOL    HW214832   1.670   0.720   0.933
 4645SOL     OW14833   1.777   1.105   3.622
 4645SOL    HW114834   1.841   1.115   3.546
 4645SOL    HW214835   1.795   1.177   3.690
 4646SOL     OW14836   2.160   5.190   3.717
 4646SOL    HW114837   2.126   5.268   3.665
 4646SOL    HW214838   2.137   5.202   3.814
 4647SOL     OW14839   1.517   6.704   3.069
 4647SOL    HW114840   1.580   6.745   3.003
 4647SOL    HW214841   1.440   6.662   3.021
 4648SOL     OW14842   2.930   1.506   4.626
 4648SOL    HW114843   2.930   1.429   4.690
 4648SOL    HW214844   2.862   1.489   4.554
 4649SOL     OW14845   5.939   0.277   0.254
 4649SOL    HW114846   5.850   0.276   0.300
 4649SOL    HW214847   6.009   0.239   0.315
 4650SOL     OW14848   5.626   6.529   1.603
 4650SOL    HW114849   5.677   6.608   1.635
 4650SOL    HW214850   5.531   6.554   1.586
 4651SOL     OW14851   5.990   2.789   5.814
 4651SOL    HW114852   5.969   2.816   5.721
 4651SOL    HW214853   6.089   2.773   5.823
 4652SOL     OW14854   0.138   6.449   4.247
 4652SOL    HW114855   0.159   6.485   4.338
 4652SOL    HW214856   0.118   6.352   4.253
 4653SOL     OW14857   5.413   5.641   1.025
 4653SOL    HW114858   5.368   5.606   0.942
 4653SOL    HW214859   5.481   5.575   1.057
 4654SOL     OW14860   0.413   6.379   5.263
 4654SOL    HW114861   0.403   6.311   5.336
 4654SOL    HW214862   0.506   6.415   5.264
 4655SOL     OW14863   4.641   2.765   1.165
 4655SOL    HW114864   4.541   2.758   1.162
 4655SOL    HW214865   4.674   2.718   1.247
 4656SOL     OW14866   0.762   1.374   1.342
 4656SOL    HW114867   0.726   1.331   1.425
 4656SOL    HW214868   0.753   1.310   1.266
 4657SOL     OW14869   5.093   6.513   1.965
 4657SOL    HW114870   5.110   6.597   2.017
 4657SOL    HW214871   5.165   6.501   1.897
 4658SOL     OW14872   2.920   2.343   5.648
 4658SOL    HW114873   2.892   2.428   5.603
 4658SOL    HW214874   2.989   2.362   5.717
 4659SOL     OW14875   3.729   4.815   0.729
 4659SOL    HW114876   3.807   4.801   0.668
 4659SOL    HW214877   3.705   4.912   0.731
 4660SOL     OW14878   0.989   6.545   4.277
 4660SOL    HW114879   0.960   6.545   4.181
 4660SOL    HW214880   1.086   6.523   4.282
 4661SOL     OW14881   1.633   3.407   5.806
 4661SOL    HW114882   1.537   3.387   5.782
 4661SOL    HW214883   1.655   3.500   5.778
 4662SOL     OW14884   2.595   6.537   4.623
 4662SOL    HW114885   2.650   6.572   4.700
 4662SOL    HW214886   2.503   6.517   4.655
 4663SOL     OW14887   1.124   6.766   6.925
 4663SOL    HW114888   1.046   6.828   6.917
 4663SOL    HW214889   1.198   6.798   6.866
 4664SOL     OW14890   6.171   6.308   0.385
 4664SOL    HW114891   6.238   6.367   0.339
 4664SOL    HW214892   6.199   6.294   0.480
 4665SOL     OW14893   2.545   0.565   4.656
 4665SOL    HW114894   2.565   0.470   4.681
 4665SOL    HW214895   2.535   0.620   4.739
 4666SOL     OW14896   2.007   1.958   5.275
 4666SOL    HW114897   2.087   2.018   5.275
 4666SOL    HW214898   1.991   1.923   5.367
 4667SOL     OW14899   6.959   3.961   1.543
 4667SOL    HW114900   6.872   4.003   1.568
 4667SOL    HW214901   6.983   3.987   1.450
 4668SOL     OW14902   4.432   2.431   4.696
 4668SOL    HW114903   4.403   2.339   4.723
 4668SOL    HW214904   4.412   2.445   4.599
 4669SOL     OW14905   5.478   6.998   6.919
 4669SOL    HW114906   5.383   6.985   6.946
 4669SOL    HW214907   5.507   6.923   6.859
 4670SOL     OW14908   0.705   3.349   0.875
 4670SOL    HW114909   0.747   3.436   0.903
 4670SOL    HW214910   0.731   3.329   0.781
 4671SOL     OW14911   0.085   3.798   0.022
 4671SOL    HW114912   0.075   3.872   0.088
 4671SOL    HW214913   0.029   3.816   6.966
 4672SOL     OW14914   3.158   3.935   5.853
 4672SOL    HW114915   3.196   3.987   5.777
 4672SOL    HW214916   3.065   3.966   5.872
 4673SOL     OW14917   6.156   0.309   6.946
 4673SOL    HW114918   6.191   0.348   0.007
 4673SOL    HW214919   6.212   0.342   6.869
 4674SOL     OW14920   0.615   2.042   0.325
 4674SOL    HW114921   0.695   1.988   0.300
 4674SOL    HW214922   0.607   2.046   0.424
 4675SOL     OW14923   2.999   6.349   0.208
 4675SOL    HW114924   2.912   6.356   0.160
 4675SOL    HW214925   2.983   6.314   0.301
 4676SOL     OW14926   0.823   5.892   3.488
 4676SOL    HW114927   0.892   5.938   3.432
 4676SOL    HW214928   0.855   5.887   3.583
 4677SOL     OW14929   4.223   0.697   6.192
 4677SOL    HW114930   4.284   0.772   6.166
 4677SOL    HW214931   4.159   0.728   6.261
 4678SOL     OW14932   2.038   4.749   0.369
 4678SOL    HW114933   1.994   4.758   0.279
 4678SOL    HW214934   2.096   4.828   0.385
 4679SOL     OW14935   2.702   0.818   6.111
 4679SOL    HW114936   2.719   0.775   6.022
 4679SOL    HW214937   2.603   0.820   6.128
 4680SOL     OW14938   1.608   5.113   0.642
 4680SOL    HW114939   1.557   5.151   0.720
 4680SOL    HW214940   1.655   5.186   0.593
 4681SOL     OW14941   0.116   5.222   5.524
 4681SOL    HW114942   0.171   5.221   5.608
 4681SOL    HW214943   0.168   5.266   5.451
 4682SOL     OW14944   3.755   6.438   0.706
 4682SOL    HW114945   3.788   6.412   0.616
 4682SOL    HW214946   3.832   6.452   0.768
 4683SOL     OW14947   5.912   3.920   2.486
 4683SOL    HW114948   5.916   4.010   2.444
 4683SOL    HW214949   5.855   3.860   2.430
 4684SOL     OW14950   1.543   1.804   4.490
 4684SOL    HW114951   1.531   1.903   4.489
 4684SOL    HW214952   1.626   1.780   4.440
 4685SOL     OW14953   4.915   5.166   4.666
 4685SOL    HW114954   4.852   5.216   4.606
 4685SOL    HW214955   4.929   5.073   4.630
 4686SOL     OW14956   4.814   5.254   6.233
 4686SOL    HW114957   4.862   5.302   6.306
 4686SOL    HW214958   4.809   5.314   6.152
 4687SOL     OW14959   5.943   4.589   5.023
 4687SOL    HW114960   5.869   4.627   5.078
 4687SOL    HW214961   5.905   4.536   4.947
 4688SOL     OW14962   0.769   3.068   6.841
 4688SOL    HW114963   0.740   3.065   6.745
 4688SOL    HW214964   0.796   3.162   6.864
 4689SOL     OW14965   6.992   6.186   4.773
 4689SOL    HW114966   0.058   6.229   4.775
 4689SOL    HW214967   6.958   6.175   4.866
 4690SOL     OW14968   1.671   1.315   0.096
 4690SOL    HW114969   1.740   1.310   0.024
 4690SOL    HW214970   1.580   1.315   0.055
 4691SOL     OW14971   2.471   4.862   1.074
 4691SOL    HW114972   2.404   4.867   1.147
 4691SOL    HW214973   2.563   4.852   1.114
 4692SOL     OW14974   6.980   5.185   3.279
 4692SOL    HW114975   0.008   5.171   3.363
 4692SOL    HW214976   7.005   5.273   3.238
 4693SOL     OW14977   0.751   1.099   4.286
 4693SOL    HW114978   0.758   1.067   4.380
 4693SOL    HW214979   0.659   1.132   4.268
 4694SOL     OW14980   1.731   1.536   0.272
 4694SOL    HW114981   1.700   1.465   0.209
 4694SOL    HW214982   1.714   1.506   0.366
 4695SOL     OW14983   4.016   3.108   2.111
 4695SOL    HW114984   4.115   3.106   2.127
 4695SOL    HW214985   3.996   3.164   2.031
 4696SOL     OW14986   6.985   3.213   6.370
 4696SOL    HW114987   0.006   3.136   6.325
 4696SOL    HW214988   0.016   3.296   6.357
 4697SOL     OW14989   0.970   4.466   6.975
 4697SOL    HW114990   0.888   4.522   6.989
 4697SOL    HW214991   1.023   4.502   6.898
 4698SOL     OW14992   5.527   3.620   1.183
 4698SOL    HW114993   5.521   3.536   1.238
 4698SOL    HW214994   5.568   3.599   1.094
 4699SOL     OW14995   0.155   0.771   2.425
 4699SOL    HW114996   0.105   0.691   2.460
 4699SOL    HW214997   0.094   0.850   2.423
 4700SOL     OW14998   4.448   1.314   1.114
 4700SOL    HW114999   4.529   1.269   1.154
 4700SOL    HW215000   4.451   1.305   1.015
 4701SOL     OW15001   0.555   1.464   0.205
 4701SOL    HW115002   0.604   1.420   0.130
 4701SOL    HW215003   0.458   1.443   0.199
 4702SOL     OW15004   3.559   3.822   0.330
 4702SOL    HW115005   3.500   3.788   0.403
 4702SOL    HW215006   3.531   3.914   0.304
 4703SOL     OW15007   1.820   0.850   2.583
 4703SOL    HW115008   1.840   0.947   2.567
 4703SOL    HW215009   1.905   0.799   2.588
 4704SOL     OW15010   6.530   6.757   0.666
 4704SOL    HW115011   6.441   6.712   0.672
 4704SOL    HW215012   6.581   6.741   0.750
 4705SOL     OW15013   3.517   3.496   3.940
 4705SOL    HW115014   3.440   3.559   3.952
 4705SOL    HW215015   3.516   3.459   3.847
 4706SOL     OW15016   4.234   6.506   6.713
 4706SOL    HW115017   4.281   6.589   6.743
 4706SOL    HW215018   4.162   6.530   6.648
 4707SOL     OW15019   2.127   5.373   1.177
 4707SOL    HW115020   2.061   5.414   1.114
 4707SOL    HW215021   2.164   5.290   1.136
 4708SOL     OW15022   2.337   2.755   1.192
 4708SOL    HW115023   2.370   2.830   1.250
 4708SOL    HW215024   2.306   2.791   1.104
 4709SOL     OW15025   4.243   5.159   5.281
 4709SOL    HW115026   4.203   5.148   5.189
 4709SOL    HW215027   4.179   5.207   5.340
 4710SOL     OW15028   4.586   1.515   6.866
 4710SOL    HW115029   4.594   1.513   6.766
 4710SOL    HW215030   4.669   1.554   6.905
 4711SOL     OW15031   3.537   6.872   2.464
 4711SOL    HW115032   3.636   6.860   2.465
 4711SOL    HW215033   3.513   6.960   2.505
 4712SOL     OW15034   2.067   4.778   0.897
 4712SOL    HW115035   2.166   4.790   0.889
 4712SOL    HW215036   2.048   4.696   0.951
 4713SOL     OW15037   1.722   5.286   0.883
 4713SOL    HW115038   1.790   5.221   0.916
 4713SOL    HW215039   1.644   5.287   0.945
 4714SOL     OW15040   3.396   1.965   1.428
 4714SOL    HW115041   3.336   1.917   1.364
 4714SOL    HW215042   3.366   1.946   1.522
 4715SOL     OW15043   6.930   2.558   3.208
 4715SOL    HW115044   7.006   2.569   3.271
 4715SOL    HW215045   6.895   2.648   3.182
 4716SOL     OW15046   3.700   5.936   0.191
 4716SOL    HW115047   3.719   5.979   0.103
 4716SOL    HW215048   3.726   5.839   0.187
 4717SOL     OW15049   1.232   6.129   3.426
 4717SOL    HW115050   1.254   6.072   3.346
 4717SOL    HW215051   1.182   6.210   3.396
 4718SOL     OW15052   5.986   1.111   6.165
 4718SOL    HW115053   6.038   1.152   6.239
 4718SOL    HW215054   5.891   1.144   6.169
 4719SOL     OW15055   5.031   3.619   1.737
 4719SOL    HW115056   5.079   3.649   1.819
 4719SOL    HW215057   5.096   3.585   1.670
 4720SOL     OW15058   2.329   0.319   5.704
 4720SOL    HW115059   2.298   0.268   5.785
 4720SOL    HW215060   2.294   0.274   5.622
 4721SOL     OW15061   1.870   1.879   1.274
 4721SOL    HW115062   1.807   1.944   1.317
 4721SOL    HW215063   1.949   1.929   1.237
 4722SOL     OW15064   1.785   6.852   0.228
 4722SOL    HW115065   1.845   6.841   0.149
 4722SOL    HW215066   1.740   6.941   0.223
 4723SOL     OW15067   3.026   6.718   6.644
 4723SOL    HW115068   3.037   6.630   6.690
 4723SOL    HW215069   3.076   6.788   6.694
 4724SOL     OW15070   3.893   6.660   1.854
 4724SOL    HW115071   3.870   6.754   1.880
 4724SOL    HW215072   3.845   6.596   1.914
 4725SOL     OW15073   5.554   6.520   3.658
 4725SOL    HW115074   5.625   6.561   3.600
 4725SOL    HW215075   5.592   6.498   3.748
 4726SOL     OW15076   0.969   4.229   6.870
 4726SOL    HW115077   0.952   4.322   6.902
 4726SOL    HW215078   0.899   4.167   6.906
 4727SOL     OW15079   6.739   5.765   6.992
 4727SOL    HW115080   6.766   5.670   7.008
 4727SOL    HW215081   6.672   5.794   0.037
 4728SOL     OW15082   0.269   0.966   6.739
 4728SOL    HW115083   0.297   0.960   6.643
 4728SOL    HW215084   0.170   0.974   6.743
 4729SOL     OW15085   3.551   0.264   2.213
 4729SOL    HW115086   3.538   0.166   2.221
 4729SOL    HW215087   3.475   0.311   2.259
 4730SOL     OW15088   1.789   6.093   5.778
 4730SOL    HW115089   1.735   6.142   5.709
 4730SOL    HW215090   1.843   6.022   5.733
 4731SOL     OW15091   6.087   1.509   4.787
 4731SOL    HW115092   6.026   1.582   4.754
 4731SOL    HW215093   6.107   1.524   4.884
 4732SOL     OW15094   0.142   3.051   0.122
 4732SOL    HW115095   0.084   2.977   0.155
 4732SOL    HW215096   0.118   3.135   0.170
 4733SOL     OW15097   6.961   4.049   3.540
 4733SOL    HW115098   6.895   4.022   3.470
 4733SOL    HW215099   6.995   3.967   3.587
 4734SOL     OW15100   4.359   3.772   6.419
 4734SOL    HW115101   4.273   3.821   6.405
 4734SOL    HW215102   4.345   3.695   6.481
 4735SOL     OW15103   1.067   4.891   3.567
 4735SOL    HW115104   1.068   4.792   3.573
 4735SOL    HW215105   0.984   4.926   3.610
 4736SOL     OW15106   0.855   0.849   0.237
 4736SOL    HW115107   0.800   0.798   0.170
 4736SOL    HW215108   0.824   0.944   0.240
 4737SOL     OW15109   2.253   4.917   1.841
 4737SOL    HW115110   2.275   4.857   1.918
 4737SOL    HW215111   2.332   4.924   1.780
 4738SOL     OW15112   6.995   6.752   2.010
 4738SOL    HW115113   6.907   6.764   2.056
 4738SOL    HW215114   0.045   6.786   2.068
 4739SOL     OW15115   4.740   0.226   2.134
 4739SOL    HW115116   4.828   0.179   2.134
 4739SOL    HW215117   4.705   0.232   2.228
 4740SOL     OW15118   1.080   1.876   2.551
 4740SOL    HW115119   1.140   1.808   2.594
 4740SOL    HW215120   1.133   1.932   2.487
 4741SOL     OW15121   4.602   3.392   1.729
 4741SOL    HW115122   4.683   3.337   1.711
 4741SOL    HW215123   4.624   3.489   1.719
 4742SOL     OW15124   2.763   6.965   0.656
 4742SOL    HW115125   2.734   6.984   0.562
 4742SOL    HW215126   2.730   6.874   0.683
 4743SOL     OW15127   2.404   5.112   1.412
 4743SOL    HW115128   2.329   5.178   1.403
 4743SOL    HW215129   2.390   5.058   1.494
 4744SOL     OW15130   1.742   6.723   0.928
 4744SOL    HW115131   1.818   6.770   0.972
 4744SOL    HW215132   1.741   6.627   0.958
 4745SOL     OW15133   1.662   4.081   0.341
 4745SOL    HW115134   1.734   4.117   0.281
 4745SOL    HW215135   1.627   3.995   0.303
 4746SOL     OW15136   4.865   5.773   4.823
 4746SOL    HW115137   4.772   5.809   4.825
 4746SOL    HW215138   4.926   5.837   4.870
 4747SOL     OW15139   1.356   2.119   0.657
 4747SOL    HW115140   1.403   2.207   0.655
 4747SOL    HW215141   1.347   2.087   0.751
 4748SOL     OW15142   1.784   6.667   3.265
 4748SOL    HW115143   1.732   6.685   3.182
 4748SOL    HW215144   1.833   6.749   3.292
 4749SOL     OW15145   2.238   0.097   0.397
 4749SOL    HW115146   2.222   0.178   0.340
 4749SOL    HW215147   2.151   0.052   0.416
 4750SOL     OW15148   5.459   3.067   5.401
 4750SOL    HW115149   5.406   3.105   5.478
 4750SOL    HW215150   5.554   3.097   5.409
 4751SOL     OW15151   4.705   0.790   3.138
 4751SOL    HW115152   4.796   0.816   3.170
 4751SOL    HW215153   4.637   0.851   3.180
 4752SOL     OW15154   4.632   1.865   0.156
 4752SOL    HW115155   4.545   1.839   0.199
 4752SOL    HW215156   4.628   1.961   0.128
 4753SOL     OW15157   3.052   6.228   5.438
 4753SOL    HW115158   3.041   6.168   5.359
 4753SOL    HW215159   2.975   6.213   5.501
 4754SOL     OW15160   4.623   4.902   6.033
 4754SOL    HW115161   4.660   4.857   5.952
 4754SOL    HW215162   4.563   4.977   6.005
 4755SOL     OW15163   1.307   1.065   1.385
 4755SOL    HW115164   1.214   1.082   1.352
 4755SOL    HW215165   1.305   0.997   1.458
 4756SOL     OW15166   6.098   3.924   6.588
 4756SOL    HW115167   6.038   4.003   6.596
 4756SOL    HW215168   6.193   3.955   6.577
 4757SOL     OW15169   1.900   3.508   1.741
 4757SOL    HW115170   1.983   3.453   1.748
 4757SOL    HW215171   1.925   3.605   1.730
 4758SOL     OW15172   2.143   6.662   3.362
 4758SOL    HW115173   2.127   6.718   3.443
 4758SOL    HW215174   2.110   6.569   3.378
 4759SOL     OW15175   1.237   4.902   1.115
 4759SOL    HW115176   1.274   4.809   1.114
 4759SOL    HW215177   1.160   4.906   1.179
 4760SOL     OW15178   1.770   6.343   0.613
 4760SOL    HW115179   1.842   6.383   0.670
 4760SOL    HW215180   1.809   6.314   0.525
 4761SOL     OW15181   6.380   6.769   1.229
 4761SOL    HW115182   6.467   6.755   1.181
 4761SOL    HW215183   6.373   6.704   1.305
 4762SOL     OW15184   2.164   6.187   2.287
 4762SOL    HW115185   2.245   6.233   2.250
 4762SOL    HW215186   2.106   6.157   2.211
 4763SOL     OW15187   4.900   5.436   2.082
 4763SOL    HW115188   4.967   5.362   2.076
 4763SOL    HW215189   4.937   5.519   2.041
 4764SOL     OW15190   3.988   3.925   6.013
 4764SOL    HW115191   4.054   3.953   5.943
 4764SOL    HW215192   3.989   3.991   6.088
 4765SOL     OW15193   3.600   1.655   4.981
 4765SOL    HW115194   3.575   1.742   5.024
 4765SOL    HW215195   3.526   1.589   4.992
 4766SOL     OW15196   0.156   6.933   4.121
 4766SOL    HW115197   0.238   6.988   4.109
 4766SOL    HW215198   0.180   6.844   4.160
 4767SOL     OW15199   2.018   4.653   5.146
 4767SOL    HW115200   2.000   4.751   5.147
 4767SOL    HW215201   2.020   4.621   5.051
 4768SOL     OW15202   4.337   2.073   0.493
 4768SOL    HW115203   4.386   2.114   0.417
 4768SOL    HW215204   4.391   2.082   0.577
 4769SOL     OW15205   3.149   5.426   1.547
 4769SOL    HW115206   3.157   5.358   1.474
 4769SOL    HW215207   3.063   5.476   1.537
 4770SOL     OW15208   0.237   0.934   5.430
 4770SOL    HW115209   0.298   0.945   5.508
 4770SOL    HW215210   0.142   0.943   5.459
 4771SOL     OW15211   2.355   6.751   5.517
 4771SOL    HW115212   2.373   6.802   5.601
 4771SOL    HW215213   2.259   6.723   5.515
 4772SOL     OW15214   2.459   5.960   2.118
 4772SOL    HW115215   2.424   5.918   2.202
 4772SOL    HW215216   2.448   5.896   2.042
 4773SOL     OW15217   2.117   4.921   5.345
 4773SOL    HW115218   2.097   4.979   5.266
 4773SOL    HW215219   2.180   4.848   5.318
 4774SOL     OW15220   1.481   3.871   0.254
 4774SOL    HW115221   1.412   3.869   0.182
 4774SOL    HW215222   1.446   3.827   0.336
 4775SOL     OW15223   5.932   6.579   5.092
 4775SOL    HW115224   5.874   6.647   5.137
 4775SOL    HW215225   5.918   6.585   4.993
 4776SOL     OW15226   1.012   0.814   6.091
 4776SOL    HW115227   0.955   0.761   6.154
 4776SOL    HW215228   0.976   0.804   5.998
 4777SOL     OW15229   1.000   6.370   1.687
 4777SOL    HW115230   0.973   6.274   1.692
 4777SOL    HW215231   1.052   6.394   1.769
 4778SOL     OW15232   1.494   2.587   5.691
 4778SOL    HW115233   1.464   2.649   5.619
 4778SOL    HW215234   1.435   2.597   5.771
 4779SOL     OW15235   5.175   1.027   3.549
 4779SOL    HW115236   5.115   1.066   3.619
 4779SOL    HW215237   5.264   1.072   3.553
 4780SOL     OW15238   6.363   2.997   5.000
 4780SOL    HW115239   6.313   3.057   4.937
 4780SOL    HW215240   6.377   3.044   5.087
 4781SOL     OW15241   2.477   6.323   3.067
 4781SOL    HW115242   2.494   6.354   2.973
 4781SOL    HW215243   2.545   6.254   3.092
 4782SOL     OW15244   6.625   5.832   4.484
 4782SOL    HW115245   6.724   5.830   4.468
 4782SOL    HW215246   6.581   5.760   4.431
 4783SOL     OW15247   6.331   3.190   1.173
 4783SOL    HW115248   6.349   3.288   1.159
 4783SOL    HW215249   6.255   3.162   1.115
 4784SOL     OW15250   5.081   2.316   6.273
 4784SOL    HW115251   5.074   2.261   6.189
 4784SOL    HW215252   5.002   2.377   6.279
 4785SOL     OW15253   0.715   5.559   4.063
 4785SOL    HW115254   0.792   5.580   4.003
 4785SOL    HW215255   0.749   5.526   4.151
 4786SOL     OW15256   1.958   6.108   0.336
 4786SOL    HW115257   1.898   6.092   0.258
 4786SOL    HW215258   2.035   6.045   0.333
 4787SOL     OW15259   3.432   1.043   4.521
 4787SOL    HW115260   3.391   1.130   4.548
 4787SOL    HW215261   3.384   0.968   4.568
 4788SOL     OW15262   5.606   6.059   6.500
 4788SOL    HW115263   5.582   6.137   6.443
 4788SOL    HW215264   5.674   6.087   6.568
 4789SOL     OW15265   5.442   0.755   2.645
 4789SOL    HW115266   5.512   0.729   2.711
 4789SOL    HW215267   5.483   0.766   2.555
 4790SOL     OW15268   6.479   2.226   4.941
 4790SOL    HW115269   6.529   2.274   5.014
 4790SOL    HW215270   6.411   2.288   4.901
 4791SOL     OW15271   0.074   1.835   7.009
 4791SOL    HW115272   0.078   1.888   6.923
 4791SOL    HW215273   0.103   1.741   6.991
 4792SOL     OW15274   2.067   3.386   3.298
 4792SOL    HW115275   1.973   3.412   3.318
 4792SOL    HW215276   2.102   3.327   3.371
 4793SOL     OW15277   0.505   3.522   5.708
 4793SOL    HW115278   0.505   3.614   5.747
 4793SOL    HW215279   0.586   3.473   5.740
 4794SOL     OW15280   4.477   0.785   3.811
 4794SOL    HW115281   4.534   0.863   3.783
 4794SOL    HW215282   4.431   0.747   3.730
 4795SOL     OW15283   0.548   0.627   5.471
 4795SOL    HW115284   0.626   0.577   5.509
 4795SOL    HW215285   0.477   0.634   5.541
 4796SOL     OW15286   3.830   1.495   5.042
 4796SOL    HW115287   3.864   1.408   5.079
 4796SOL    HW215288   3.788   1.478   4.953
 4797SOL     OW15289   0.919   5.681   4.614
 4797SOL    HW115290   0.915   5.621   4.533
 4797SOL    HW215291   0.850   5.653   4.680
 4798SOL     OW15292   4.421   4.518   6.332
 4798SOL    HW115293   4.434   4.505   6.431
 4798SOL    HW215294   4.499   4.568   6.295
 4799SOL     OW15295   3.587   2.847   6.357
 4799SOL    HW115296   3.660   2.891   6.409
 4799SOL    HW215297   3.625   2.774   6.301
 4800SOL     OW15298   0.805   4.981   0.536
 4800SOL    HW115299   0.793   4.944   0.444
 4800SOL    HW215300   0.768   4.916   0.603
 4801SOL     OW15301   4.805   2.568   1.938
 4801SOL    HW115302   4.733   2.526   1.884
 4801SOL    HW215303   4.764   2.616   2.016
 4802SOL     OW15304   6.861   6.742   2.936
 4802SOL    HW115305   6.808   6.796   3.002
 4802SOL    HW215306   6.936   6.697   2.983
 4803SOL     OW15307   5.545   3.477   6.112
 4803SOL    HW115308   5.473   3.536   6.076
 4803SOL    HW215309   5.560   3.499   6.209
 4804SOL     OW15310   5.387   1.291   0.568
 4804SOL    HW115311   5.475   1.302   0.521
 4804SOL    HW215312   5.374   1.194   0.592
 4805SOL     OW15313   6.237   1.925   0.871
 4805SOL    HW115314   6.208   1.952   0.779
 4805SOL    HW215315   6.227   2.003   0.933
 4806SOL     OW15316   1.051   1.010   3.157
 4806SOL    HW115317   1.085   0.931   3.106
 4806SOL    HW215318   1.128   1.063   3.192
 4807SOL     OW15319   0.900   3.035   6.011
 4807SOL    HW115320   0.806   3.065   5.994
 4807SOL    HW215321   0.904   2.987   6.098
 4808SOL     OW15322   3.877   5.927   0.567
 4808SOL    HW115323   3.920   5.908   0.655
 4808SOL    HW215324   3.913   5.864   0.498
 4809SOL     OW15325   3.649   4.928   1.597
 4809SOL    HW115326   3.611   5.011   1.557
 4809SOL    HW215327   3.623   4.849   1.540
 4810SOL     OW15328   0.416   3.919   3.565
 4810SOL    HW115329   0.494   3.980   3.572
 4810SOL    HW215330   0.357   3.949   3.491
 4811SOL     OW15331   2.988   4.028   4.752
 4811SOL    HW115332   2.967   4.124   4.767
 4811SOL    HW215333   3.065   4.020   4.688
 4812SOL     OW15334   0.252   0.292   2.421
 4812SOL    HW115335   0.207   0.317   2.507
 4812SOL    HW215336   0.345   0.329   2.419
 4813SOL     OW15337   6.123   1.606   5.960
 4813SOL    HW115338   6.029   1.599   5.927
 4813SOL    HW215339   6.179   1.535   5.916
 4814SOL     OW15340   6.715   4.013   1.650
 4814SOL    HW115341   6.749   4.087   1.709
 4814SOL    HW215342   6.672   3.943   1.707
 4815SOL     OW15343   5.175   5.050   2.996
 4815SOL    HW115344   5.223   5.027   3.081
 4815SOL    HW215345   5.104   5.118   3.016
 4816SOL     OW15346   1.913   0.419   2.079
 4816SOL    HW115347   2.009   0.393   2.075
 4816SOL    HW215348   1.885   0.459   1.992
 4817SOL     OW15349   4.289   1.578   1.019
 4817SOL    HW115350   4.302   1.568   0.920
 4817SOL    HW215351   4.218   1.515   1.050
 4818SOL     OW15352   3.448   0.190   4.997
 4818SOL    HW115353   3.458   0.134   4.915
 4818SOL    HW215354   3.355   0.226   5.002
 4819SOL     OW15355   2.634   0.649   0.931
 4819SOL    HW115356   2.593   0.666   1.021
 4819SOL    HW215357   2.600   0.562   0.895
 4820SOL     OW15358   6.620   4.048   2.055
 4820SOL    HW115359   6.605   4.061   2.153
 4820SOL    HW215360   6.716   4.065   2.033
 4821SOL     OW15361   6.543   4.727   1.402
 4821SOL    HW115362   6.530   4.815   1.356
 4821SOL    HW215363   6.532   4.653   1.337
 4822SOL     OW15364   1.842   4.148   3.514
 4822SOL    HW115365   1.875   4.200   3.436
 4822SOL    HW215366   1.775   4.202   3.565
 4823SOL     OW15367   0.613   0.557   4.764
 4823SOL    HW115368   0.584   0.464   4.745
 4823SOL    HW215369   0.569   0.620   4.700
 4824SOL     OW15370   5.020   2.739   2.615
 4824SOL    HW115371   4.984   2.688   2.693
 4824SOL    HW215372   5.079   2.813   2.648
 4825SOL     OW15373   0.844   3.874   2.789
 4825SOL    HW115374   0.761   3.830   2.823
 4825SOL    HW215375   0.924   3.827   2.828
 4826SOL     OW15376   6.925   5.902   0.657
 4826SOL    HW115377   6.988   5.980   0.661
 4826SOL    HW215378   6.838   5.931   0.616
 4827SOL     OW15379   4.738   0.604   1.064
 4827SOL    HW115380   4.756   0.696   1.029
 4827SOL    HW215381   4.787   0.537   1.007
 4828SOL     OW15382   5.231   3.689   1.195
 4828SOL    HW115383   5.331   3.688   1.191
 4828SOL    HW215384   5.201   3.743   1.274
 4829SOL     OW15385   3.201   1.291   6.079
 4829SOL    HW115386   3.265   1.364   6.053
 4829SOL    HW215387   3.209   1.216   6.014
 4830SOL     OW15388   4.395   6.961   4.572
 4830SOL    HW115389   4.414   0.011   4.507
 4830SOL    HW215390   4.442   6.980   4.659
 4831SOL     OW15391   6.210   4.519   5.629
 4831SOL    HW115392   6.144   4.445   5.620
 4831SOL    HW215393   6.166   4.606   5.610
 4832SOL     OW15394   2.428   3.179   5.877
 4832SOL    HW115395   2.439   3.104   5.942
 4832SOL    HW215396   2.434   3.266   5.926
 4833SOL     OW15397   3.926   1.316   2.674
 4833SOL    HW115398   4.006   1.369   2.645
 4833SOL    HW215399   3.954   1.250   2.745
 4834SOL     OW15400   5.032   1.737   2.169
 4834SOL    HW115401   5.065   1.826   2.138
 4834SOL    HW215402   4.990   1.689   2.092
 4835SOL     OW15403   1.890   0.099   6.844
 4835SOL    HW115404   1.930   0.035   6.778
 4835SOL    HW215405   1.929   0.190   6.830
 4836SOL     OW15406   4.944   2.064   4.328
 4836SOL    HW115407   4.977   2.015   4.409
 4836SOL    HW215408   5.022   2.084   4.268
 4837SOL     OW15409   2.519   3.042   0.224
 4837SOL    HW115410   2.421   3.030   0.243
 4837SOL    HW215411   2.532   3.124   0.168
 4838SOL     OW15412   3.745   4.958   2.164
 4838SOL    HW115413   3.675   4.969   2.235
 4838SOL    HW215414   3.708   4.987   2.076
 4839SOL     OW15415   0.246   5.201   5.974
 4839SOL    HW115416   0.161   5.253   5.983
 4839SOL    HW215417   0.290   5.192   6.064
 4840SOL     OW15418   6.799   6.168   0.257
 4840SOL    HW115419   6.789   6.239   0.187
 4840SOL    HW215420   6.896   6.155   0.277
 4841SOL     OW15421   3.025   5.256   2.176
 4841SOL    HW115422   3.117   5.294   2.185
 4841SOL    HW215423   2.958   5.321   2.212
 4842SOL     OW15424   4.965   5.946   1.316
 4842SOL    HW115425   5.003   5.882   1.249
 4842SOL    HW215426   5.038   6.004   1.352
 4843SOL     OW15427   6.345   3.575   0.199
 4843SOL    HW115428   6.444   3.578   0.212
 4843SOL    HW215429   6.311   3.485   0.229
 4844SOL     OW15430   5.862   2.187   6.147
 4844SOL    HW115431   5.948   2.223   6.185
 4844SOL    HW215432   5.787   2.209   6.209
 4845SOL     OW15433   5.770   5.061   4.034
 4845SOL    HW115434   5.813   5.070   3.945
 4845SOL    HW215435   5.671   5.078   4.026
 4846SOL     OW15436   1.478   3.135   1.104
 4846SOL    HW115437   1.497   3.228   1.136
 4846SOL    HW215438   1.549   3.107   1.040
 4847SOL     OW15439   3.519   2.044   4.921
 4847SOL    HW115440   3.571   2.014   4.842
 4847SOL    HW215441   3.428   2.075   4.891
 4848SOL     OW15442   2.523   1.929   2.617
 4848SOL    HW115443   2.437   1.914   2.666
 4848SOL    HW215444   2.508   1.919   2.519
 4849SOL     OW15445   0.841   0.372   0.249
 4849SOL    HW115446   0.824   0.284   0.204
 4849SOL    HW215447   0.916   0.362   0.314
 4850SOL     OW15448   4.161   0.473   1.798
 4850SOL    HW115449   4.096   0.510   1.865
 4850SOL    HW215450   4.248   0.454   1.843
 4851SOL     OW15451   4.498   6.483   5.073
 4851SOL    HW115452   4.500   6.538   5.157
 4851SOL    HW215453   4.462   6.539   4.998
 4852SOL     OW15454   1.962   0.876   6.856
 4852SOL    HW115455   2.011   0.936   6.792
 4852SOL    HW215456   1.864   0.883   6.840
 4853SOL     OW15457   3.606   1.430   2.187
 4853SOL    HW115458   3.686   1.411   2.244
 4853SOL    HW215459   3.635   1.451   2.094
 4854SOL     OW15460   5.511   6.476   2.298
 4854SOL    HW115461   5.442   6.405   2.307
 4854SOL    HW215462   5.490   6.551   2.362
 4855SOL     OW15463   6.216   1.510   2.367
 4855SOL    HW115464   6.140   1.562   2.328
 4855SOL    HW215465   6.245   1.439   2.303
 4856SOL     OW15466   2.601   4.856   3.601
 4856SOL    HW115467   2.571   4.765   3.630
 4856SOL    HW215468   2.685   4.881   3.650
 4857SOL     OW15469   0.383   1.990   5.687
 4857SOL    HW115470   0.385   2.090   5.686
 4857SOL    HW215471   0.379   1.958   5.782
 4858SOL     OW15472   1.874   2.203   4.376
 4858SOL    HW115473   1.844   2.293   4.408
 4858SOL    HW215474   1.877   2.140   4.453
 4859SOL     OW15475   1.793   5.779   4.920
 4859SOL    HW115476   1.712   5.826   4.886
 4859SOL    HW215477   1.802   5.690   4.874
 4860SOL     OW15478   4.871   4.842   1.663
 4860SOL    HW115479   4.818   4.865   1.581
 4860SOL    HW215480   4.909   4.926   1.702
 4861SOL     OW15481   4.810   4.094   5.419
 4861SOL    HW115482   4.765   4.048   5.342
 4861SOL    HW215483   4.740   4.127   5.482
 4862SOL     OW15484   2.155   5.876   2.349
 4862SOL    HW115485   2.085   5.946   2.354
 4862SOL    HW215486   2.120   5.796   2.300
 4863SOL     OW15487   5.773   4.095   6.975
 4863SOL    HW115488   5.744   4.191   6.974
 4863SOL    HW215489   5.768   4.058   6.882
 4864SOL     OW15490   3.043   1.308   3.013
 4864SOL    HW115491   2.967   1.305   3.077
 4864SOL    HW215492   3.100   1.389   3.033
 4865SOL     OW15493   2.555   5.841   4.939
 4865SOL    HW115494   2.484   5.833   4.869
 4865SOL    HW215495   2.537   5.776   5.013
 4866SOL     OW15496   6.692   3.980   1.189
 4866SOL    HW115497   6.629   3.951   1.117
 4866SOL    HW215498   6.657   3.952   1.278
 4867SOL     OW15499   4.685   6.492   3.058
 4867SOL    HW115500   4.722   6.410   3.015
 4867SOL    HW215501   4.710   6.572   3.005
 4868SOL     OW15502   6.779   4.448   1.796
 4868SOL    HW115503   6.795   4.386   1.718
 4868SOL    HW215504   6.715   4.404   1.859
 4869SOL     OW15505   0.710   1.578   6.029
 4869SOL    HW115506   0.767   1.657   6.054
 4869SOL    HW215507   0.614   1.600   6.047
 4870SOL     OW15508   0.833   5.868   1.874
 4870SOL    HW115509   0.831   5.916   1.962
 4870SOL    HW215510   0.743   5.876   1.830
 4871SOL     OW15511   1.624   0.747   4.383
 4871SOL    HW115512   1.576   0.819   4.334
 4871SOL    HW215513   1.569   0.663   4.381
 4872SOL     OW15514   6.655   6.911   3.356
 4872SOL    HW115515   6.706   6.947   3.434
 4872SOL    HW215516   6.566   6.955   3.350
 4873SOL     OW15517   0.283   6.464   5.031
 4873SOL    HW115518   0.341   6.438   5.108
 4873SOL    HW215519   0.261   6.383   4.977
 4874SOL     OW15520   4.742   2.865   3.426
 4874SOL    HW115521   4.775   2.924   3.499
 4874SOL    HW215522   4.764   2.906   3.337
 4875SOL     OW15523   5.304   6.494   6.635
 4875SOL    HW115524   5.387   6.438   6.646
 4875SOL    HW215525   5.262   6.510   6.724
 4876SOL     OW15526   1.533   1.512   2.961
 4876SOL    HW115527   1.464   1.583   2.945
 4876SOL    HW215528   1.618   1.554   2.992
 4877SOL     OW15529   1.104   0.904   4.158
 4877SOL    HW115530   1.024   0.862   4.201
 4877SOL    HW215531   1.080   0.996   4.126
 4878SOL     OW15532   6.612   1.481   2.337
 4878SOL    HW115533   6.575   1.440   2.421
 4878SOL    HW215534   6.680   1.551   2.362
 4879SOL     OW15535   4.790   1.538   2.913
 4879SOL    HW115536   4.757   1.625   2.950
 4879SOL    HW215537   4.757   1.528   2.819
 4880SOL     OW15538   5.897   3.001   5.986
 4880SOL    HW115539   5.824   2.951   6.032
 4880SOL    HW215540   5.951   2.937   5.931
 4881SOL     OW15541   1.809   2.912   2.114
 4881SOL    HW115542   1.817   2.824   2.159
 4881SOL    HW215543   1.900   2.945   2.088
 4882SOL     OW15544   4.465   2.501   4.970
 4882SOL    HW115545   4.381   2.462   5.008
 4882SOL    HW215546   4.451   2.521   4.873
 4883SOL     OW15547   5.617   3.604   0.912
 4883SOL    HW115548   5.597   3.679   0.849
 4883SOL    HW215549   5.715   3.582   0.907
 4884SOL     OW15550   1.776   6.171   1.643
 4884SOL    HW115551   1.792   6.075   1.666
 4884SOL    HW215552   1.678   6.186   1.629
 4885SOL     OW15553   1.895   5.003   0.998
 4885SOL    HW115554   1.795   5.002   1.001
 4885SOL    HW215555   1.929   4.912   0.976
 4886SOL     OW15556   3.840   1.095   2.166
 4886SOL    HW115557   3.852   1.151   2.084
 4886SOL    HW215558   3.747   1.105   2.200
 4887SOL     OW15559   0.883   6.647   1.899
 4887SOL    HW115560   0.922   6.618   1.811
 4887SOL    HW215561   0.926   6.596   1.973
 4888SOL     OW15562   3.191   6.727   2.864
 4888SOL    HW115563   3.287   6.704   2.880
 4888SOL    HW215564   3.147   6.749   2.951
 4889SOL     OW15565   6.467   2.245   4.115
 4889SOL    HW115566   6.426   2.248   4.206
 4889SOL    HW215567   6.473   2.338   4.078
 4890SOL     OW15568   0.690   0.681   5.124
 4890SOL    HW115569   0.599   0.647   5.147
 4890SOL    HW215570   0.717   0.752   5.189
 4891SOL     OW15571   2.420   5.383   6.193
 4891SOL    HW115572   2.338   5.338   6.227
 4891SOL    HW215573   2.394   5.472   6.154
 4892SOL     OW15574   5.823   6.617   2.441
 4892SOL    HW115575   5.798   6.562   2.362
 4892SOL    HW215576   5.918   6.598   2.466
 4893SOL     OW15577   0.262   3.821   1.678
 4893SOL    HW115578   0.187   3.870   1.721
 4893SOL    HW215579   0.336   3.885   1.658
 4894SOL     OW15580   3.923   6.655   2.229
 4894SOL    HW115581   3.978   6.582   2.189
 4894SOL    HW215582   3.829   6.648   2.196
 4895SOL     OW15583   0.022   5.143   3.564
 4895SOL    HW115584   0.005   5.227   3.615
 4895SOL    HW215585   6.975   5.076   3.585
 4896SOL     OW15586   1.905   5.091   3.902
 4896SOL    HW115587   1.866   5.183   3.893
 4896SOL    HW215588   1.897   5.042   3.816
 4897SOL     OW15589   1.870   5.881   5.644
 4897SOL    HW115590   1.894   5.869   5.547
 4897SOL    HW215591   1.908   5.805   5.697
 4898SOL     OW15592   3.535   2.038   4.143
 4898SOL    HW115593   3.551   2.089   4.059
 4898SOL    HW215594   3.456   1.978   4.131
 4899SOL     OW15595   6.911   5.199   1.917
 4899SOL    HW115596   6.958   5.282   1.948
 4899SOL    HW215597   6.958   5.119   1.955
 4900SOL     OW15598   4.224   5.935   5.811
 4900SOL    HW115599   4.278   5.997   5.755
 4900SOL    HW215600   4.177   5.986   5.883
 4901SOL     OW15601   0.868   1.347   5.997
 4901SOL    HW115602   0.819   1.426   6.033
 4901SOL    HW215603   0.951   1.377   5.949
 4902SOL     OW15604   2.200   0.670   6.638
 4902SOL    HW115605   2.276   0.619   6.679
 4902SOL    HW215606   2.128   0.607   6.609
 4903SOL     OW15607   5.424   5.404   1.373
 4903SOL    HW115608   5.485   5.452   1.310
 4903SOL    HW215609   5.329   5.429   1.353
 4904SOL     OW15610   1.116   0.769   0.195
 4904SOL    HW115611   1.146   0.863   0.205
 4904SOL    HW215612   1.017   0.764   0.206
 4905SOL     OW15613   3.482   6.636   3.031
 4905SOL    HW115614   3.501   6.552   2.980
 4905SOL    HW215615   3.489   6.714   2.970
 4906SOL     OW15616   5.157   3.005   5.007
 4906SOL    HW115617   5.090   2.931   5.016
 4906SOL    HW215618   5.110   3.091   4.990
 4907SOL     OW15619   4.978   1.418   6.878
 4907SOL    HW115620   4.982   1.344   6.811
 4907SOL    HW215621   4.886   1.422   6.918
 4908SOL     OW15622   4.924   0.193   0.031
 4908SOL    HW115623   4.899   0.117   6.993
 4908SOL    HW215624   4.842   0.244   0.055
 4909SOL     OW15625   5.965   4.299   3.401
 4909SOL    HW115626   5.998   4.272   3.492
 4909SOL    HW215627   5.883   4.356   3.411
 4910SOL     OW15628   4.630   1.106   6.127
 4910SOL    HW115629   4.582   1.189   6.100
 4910SOL    HW215630   4.636   1.101   6.227
 4911SOL     OW15631   1.584   2.237   2.131
 4911SOL    HW115632   1.530   2.178   2.070
 4911SOL    HW215633   1.540   2.326   2.140
 4912SOL     OW15634   6.253   2.206   5.180
 4912SOL    HW115635   6.205   2.286   5.216
 4912SOL    HW215636   6.321   2.175   5.247
 4913SOL     OW15637   6.060   2.836   4.693
 4913SOL    HW115638   6.065   2.932   4.665
 4913SOL    HW215639   6.147   2.791   4.671
 4914SOL     OW15640   4.761   0.969   4.190
 4914SOL    HW115641   4.711   1.025   4.125
 4914SOL    HW215642   4.856   0.958   4.159
 4915SOL     OW15643   3.425   5.854   5.524
 4915SOL    HW115644   3.493   5.928   5.522
 4915SOL    HW215645   3.342   5.887   5.568
 4916SOL     OW15646   6.014   1.309   3.801
 4916SOL    HW115647   6.079   1.267   3.864
 4916SOL    HW215648   6.063   1.350   3.724
 4917SOL     OW15649   4.248   6.208   0.601
 4917SOL    HW115650   4.154   6.236   0.581
 4917SOL    HW215651   4.272   6.128   0.545
 4918SOL     OW15652   6.572   5.537   1.937
 4918SOL    HW115653   6.656   5.550   1.883
 4918SOL    HW215654   6.573   5.599   2.016
 4919SOL     OW15655   4.155   3.506   2.022
 4919SOL    HW115656   4.148   3.567   1.943
 4919SOL    HW215657   4.245   3.462   2.022
 4920SOL     OW15658   6.091   1.230   4.778
 4920SOL    HW115659   6.094   1.326   4.806
 4920SOL    HW215660   6.180   1.188   4.796
 4921SOL     OW15661   0.378   0.042   1.348
 4921SOL    HW115662   0.451   6.998   1.352
 4921SOL    HW215663   0.292   7.023   1.378
 4922SOL     OW15664   3.959   2.054   5.568
 4922SOL    HW115665   3.868   2.027   5.537
 4922SOL    HW215666   4.021   2.059   5.489
 4923SOL     OW15667   3.538   1.802   3.113
 4923SOL    HW115668   3.605   1.873   3.089
 4923SOL    HW215669   3.584   1.728   3.162
 4924SOL     OW15670   2.644   1.735   6.263
 4924SOL    HW115671   2.682   1.749   6.172
 4924SOL    HW215672   2.705   1.675   6.316
 4925SOL     OW15673   4.675   6.969   3.294
 4925SOL    HW115674   4.623   6.984   3.210
 4925SOL    HW215675   4.704   0.033   3.332
 4926SOL     OW15676   5.444   2.407   1.748
 4926SOL    HW115677   5.544   2.413   1.745
 4926SOL    HW215678   5.414   2.322   1.705
 4927SOL     OW15679   3.520   1.389   6.793
 4927SOL    HW115680   3.438   1.431   6.832
 4927SOL    HW215681   3.512   1.289   6.799
 4928SOL     OW15682   0.959   2.639   1.124
 4928SOL    HW115683   0.923   2.635   1.031
 4928SOL    HW215684   0.948   2.550   1.168
 4929SOL     OW15685   6.850   0.085   3.841
 4929SOL    HW115686   6.912   0.006   3.835
 4929SOL    HW215687   6.902   0.166   3.869
 4930SOL     OW15688   5.825   6.541   1.979
 4930SOL    HW115689   5.750   6.492   1.936
 4930SOL    HW215690   5.818   6.639   1.959
 4931SOL     OW15691   6.175   6.040   1.737
 4931SOL    HW115692   6.182   6.105   1.661
 4931SOL    HW215693   6.238   5.964   1.722
 4932SOL     OW15694   2.930   3.485   2.201
 4932SOL    HW115695   2.940   3.552   2.275
 4932SOL    HW215696   2.916   3.534   2.114
 4933SOL     OW15697   3.193   6.169   4.792
 4933SOL    HW115698   3.144   6.083   4.783
 4933SOL    HW215699   3.250   6.166   4.874
 4934SOL     OW15700   3.750   5.317   3.228
 4934SOL    HW115701   3.840   5.319   3.271
 4934SOL    HW215702   3.761   5.309   3.129
 4935SOL     OW15703   0.603   1.747   6.819
 4935SOL    HW115704   0.624   1.696   6.736
 4935SOL    HW215705   0.641   1.840   6.813
 4936SOL     OW15706   2.632   4.111   0.923
 4936SOL    HW115707   2.715   4.110   0.978
 4936SOL    HW215708   2.591   4.020   0.921
 4937SOL     OW15709   5.220   3.438   4.947
 4937SOL    HW115710   5.297   3.494   4.978
 4937SOL    HW215711   5.147   3.498   4.914
 4938SOL     OW15712   3.851   5.822   6.116
 4938SOL    HW115713   3.752   5.834   6.109
 4938SOL    HW215714   3.896   5.897   6.066
 4939SOL     OW15715   4.744   3.207   5.601
 4939SOL    HW115716   4.650   3.239   5.588
 4939SOL    HW215717   4.751   3.113   5.568
 4940SOL     OW15718   2.126   6.219   4.846
 4940SOL    HW115719   2.129   6.185   4.752
 4940SOL    HW215720   2.197   6.174   4.900
 4941SOL     OW15721   5.063   1.086   0.318
 4941SOL    HW115722   5.044   1.183   0.303
 4941SOL    HW215723   4.995   1.049   0.381
 4942SOL     OW15724   4.979   3.603   5.240
 4942SOL    HW115725   4.981   3.504   5.225
 4942SOL    HW215726   4.894   3.641   5.201
 4943SOL     OW15727   3.884   2.382   0.980
 4943SOL    HW115728   3.937   2.375   1.064
 4943SOL    HW215729   3.914   2.312   0.915
 4944SOL     OW15730   1.893   4.704   2.362
 4944SOL    HW115731   1.937   4.772   2.303
 4944SOL    HW215732   1.814   4.746   2.408
 4945SOL     OW15733   0.218   6.322   3.748
 4945SOL    HW115734   0.133   6.288   3.788
 4945SOL    HW215735   0.271   6.368   3.819
 4946SOL     OW15736   1.543   3.763   2.476
 4946SOL    HW115737   1.633   3.786   2.441
 4946SOL    HW215738   1.510   3.837   2.535
 4947SOL     OW15739   0.649   6.674   0.809
 4947SOL    HW115740   0.718   6.720   0.865
 4947SOL    HW215741   0.610   6.597   0.860
 4948SOL     OW15742   2.554   1.345   2.222
 4948SOL    HW115743   2.468   1.384   2.189
 4948SOL    HW215744   2.599   1.410   2.283
 4949SOL     OW15745   5.672   1.384   4.975
 4949SOL    HW115746   5.653   1.302   4.922
 4949SOL    HW215747   5.590   1.440   4.980
 4950SOL     OW15748   2.872   5.301   5.091
 4950SOL    HW115749   2.789   5.296   5.035
 4950SOL    HW215750   2.916   5.211   5.093
 4951SOL     OW15751   4.139   1.855   4.559
 4951SOL    HW115752   4.196   1.777   4.532
 4951SOL    HW215753   4.118   1.911   4.479
 4952SOL     OW15754   0.232   6.433   5.612
 4952SOL    HW115755   0.283   6.452   5.695
 4952SOL    HW215756   0.268   6.350   5.569
 4953SOL     OW15757   1.901   5.699   1.943
 4953SOL    HW115758   1.864   5.708   2.036
 4953SOL    HW215759   1.995   5.665   1.948
 4954SOL     OW15760   5.567   5.546   6.740
 4954SOL    HW115761   5.515   5.606   6.800
 4954SOL    HW215762   5.663   5.576   6.736
 4955SOL     OW15763   1.701   6.695   1.689
 4955SOL    HW115764   1.716   6.781   1.640
 4955SOL    HW215765   1.708   6.618   1.625
 4956SOL     OW15766   4.061   6.873   4.969
 4956SOL    HW115767   4.141   6.878   5.029
 4956SOL    HW215768   4.083   6.818   4.889
 4957SOL     OW15769   0.769   0.373   3.709
 4957SOL    HW115770   0.750   0.372   3.808
 4957SOL    HW215771   0.819   0.456   3.686
 4958SOL     OW15772   0.579   5.758   7.001
 4958SOL    HW115773   0.619   5.815   0.049
 4958SOL    HW215774   0.587   5.805   6.913
 4959SOL     OW15775   0.824   1.089   1.656
 4959SOL    HW115776   0.886   1.138   1.718
 4959SOL    HW215777   0.754   1.152   1.621
 4960SOL     OW15778   3.766   6.466   4.572
 4960SOL    HW115779   3.689   6.443   4.513
 4960SOL    HW215780   3.836   6.394   4.567
 4961SOL     OW15781   5.076   0.903   4.827
 4961SOL    HW115782   5.168   0.939   4.813
 4961SOL    HW215783   5.081   0.824   4.889
 4962SOL     OW15784   6.696   2.370   1.291
 4962SOL    HW115785   6.714   2.410   1.202
 4962SOL    HW215786   6.669   2.443   1.355
 4963SOL     OW15787   0.444   5.100   1.647
 4963SOL    HW115788   0.413   5.057   1.732
 4963SOL    HW215789   0.462   5.029   1.579
 4964SOL     OW15790   3.196   6.665   3.487
 4964SOL    HW115791   3.175   6.567   3.487
 4964SOL    HW215792   3.253   6.687   3.409
 4965SOL     OW15793   6.453   0.582   4.424
 4965SOL    HW115794   6.438   0.518   4.349
 4965SOL    HW215795   6.524   0.546   4.485
 4966SOL     OW15796   3.041   4.938   4.724
 4966SOL    HW115797   2.965   4.874   4.743
 4966SOL    HW215798   3.034   5.016   4.787
 4967SOL     OW15799   3.872   2.562   6.032
 4967SOL    HW115800   3.877   2.526   6.125
 4967SOL    HW215801   3.782   2.543   5.993
 4968SOL     OW15802   6.066   3.394   5.462
 4968SOL    HW115803   6.104   3.334   5.533
 4968SOL    HW215804   6.122   3.385   5.380
 4969SOL     OW15805   1.459   0.991   1.809
 4969SOL    HW115806   1.514   1.061   1.764
 4969SOL    HW215807   1.431   0.923   1.742
 4970SOL     OW15808   0.949   2.147   5.099
 4970SOL    HW115809   0.996   2.058   5.098
 4970SOL    HW215810   0.933   2.177   5.005
 4971SOL     OW15811   5.710   6.830   3.589
 4971SOL    HW115812   5.628   6.860   3.540
 4971SOL    HW215813   5.700   6.851   3.687
 4972SOL     OW15814   1.821   3.432   0.144
 4972SOL    HW115815   1.830   3.484   0.059
 4972SOL    HW215816   1.788   3.493   0.216
 4973SOL     OW15817   6.016   6.099   2.582
 4973SOL    HW115818   6.097   6.158   2.580
 4973SOL    HW215819   5.952   6.134   2.650
 4974SOL     OW15820   5.842   6.453   2.233
 4974SOL    HW115821   5.780   6.374   2.230
 4974SOL    HW215822   5.849   6.493   2.141
 4975SOL     OW15823   5.934   5.660   0.691
 4975SOL    HW115824   5.873   5.735   0.716
 4975SOL    HW215825   5.890   5.604   0.620
 4976SOL     OW15826   3.726   0.582   5.251
 4976SOL    HW115827   3.675   0.591   5.165
 4976SOL    HW215828   3.662   0.585   5.328
 4977SOL     OW15829   3.226   3.095   0.909
 4977SOL    HW115830   3.184   3.006   0.894
 4977SOL    HW215831   3.197   3.158   0.836
 4978SOL     OW15832   5.230   3.000   6.185
 4978SOL    HW115833   5.231   3.092   6.144
 4978SOL    HW215834   5.211   3.007   6.282
 4979SOL     OW15835   1.006   6.987   5.534
 4979SOL    HW115836   1.034   0.036   5.470
 4979SOL    HW215837   1.058   6.996   5.619
 4980SOL     OW15838   3.527   5.275   2.153
 4980SOL    HW115839   3.551   5.312   2.243
 4980SOL    HW215840   3.606   5.284   2.091
 4981SOL     OW15841   4.072   6.151   5.472
 4981SOL    HW115842   4.094   6.206   5.552
 4981SOL    HW215843   4.057   6.056   5.499
 4982SOL     OW15844   2.605   3.031   0.487
 4982SOL    HW115845   2.537   3.019   0.559
 4982SOL    HW215846   2.560   3.060   0.402
 4983SOL     OW15847   5.366   3.174   4.237
 4983SOL    HW115848   5.406   3.213   4.320
 4983SOL    HW215849   5.291   3.112   4.262
 4984SOL     OW15850   4.881   3.807   3.449
 4984SOL    HW115851   4.868   3.867   3.371
 4984SOL    HW215852   4.874   3.712   3.420
 4985SOL     OW15853   5.627   5.007   2.351
 4985SOL    HW115854   5.530   5.031   2.360
 4985SOL    HW215855   5.678   5.049   2.426
 4986SOL     OW15856   5.134   4.574   2.790
 4986SOL    HW115857   5.056   4.530   2.834
 4986SOL    HW215858   5.149   4.532   2.700
 4987SOL     OW15859   7.007   3.174   1.516
 4987SOL    HW115860   6.936   3.241   1.534
 4987SOL    HW215861   0.000   3.168   1.418
 4988SOL     OW15862   0.924   1.212   4.111
 4988SOL    HW115863   0.929   1.180   4.016
 4988SOL    HW215864   0.862   1.153   4.163
 4989SOL     OW15865   0.281   1.464   0.466
 4989SOL    HW115866   0.232   1.521   0.533
 4989SOL    HW215867   0.330   1.391   0.513
 4990SOL     OW15868   1.422   2.481   5.251
 4990SOL    HW115869   1.386   2.566   5.212
 4990SOL    HW215870   1.504   2.453   5.200
 4991SOL     OW15871   1.156   2.880   4.022
 4991SOL    HW115872   1.104   2.867   4.107
 4991SOL    HW215873   1.251   2.857   4.037
 4992SOL     OW15874   3.393   0.848   5.194
 4992SOL    HW115875   3.480   0.888   5.220
 4992SOL    HW215876   3.409   0.767   5.137
 4993SOL     OW15877   2.871   6.349   3.942
 4993SOL    HW115878   2.950   6.373   3.886
 4993SOL    HW215879   2.845   6.255   3.925
 4994SOL     OW15880   0.496   0.411   2.442
 4994SOL    HW115881   0.569   0.345   2.462
 4994SOL    HW215882   0.530   0.479   2.377
 4995SOL     OW15883   6.103   2.318   6.248
 4995SOL    HW115884   6.080   2.385   6.320
 4995SOL    HW215885   6.198   2.330   6.220
 4996SOL     OW15886   1.208   1.418   3.199
 4996SOL    HW115887   1.166   1.423   3.289
 4996SOL    HW215888   1.141   1.388   3.131
 4997SOL     OW15889   0.231   2.940   3.629
 4997SOL    HW115890   0.261   2.862   3.683
 4997SOL    HW215891   0.152   2.915   3.574
 4998SOL     OW15892   1.395   5.537   4.734
 4998SOL    HW115893   1.409   5.556   4.637
 4998SOL    HW215894   1.300   5.510   4.750
 4999SOL     OW15895   5.974   5.416   1.161
 4999SOL    HW115896   5.881   5.435   1.129
 4999SOL    HW215897   6.038   5.431   1.086
 5000SOL     OW15898   0.023   6.987   4.609
 5000SOL    HW115899   0.067   0.001   4.691
 5000SOL    HW215900   0.055   6.894   4.595
 5001SOL     OW15901   3.378   4.272   5.248
 5001SOL    HW115902   3.444   4.323   5.304
 5001SOL    HW215903   3.285   4.295   5.277
 5002SOL     OW15904   1.768   0.987   1.889
 5002SOL    HW115905   1.746   1.052   1.961
 5002SOL    HW215906   1.722   1.014   1.804
 5003SOL     OW15907   6.468   6.024   2.720
 5003SOL    HW115908   6.483   5.965   2.799
 5003SOL    HW215909   6.473   6.120   2.748
 5004SOL     OW15910   2.953   6.315   6.856
 5004SOL    HW115911   2.856   6.320   6.831
 5004SOL    HW215912   2.969   6.230   6.907
 5005SOL     OW15913   4.718   2.941   6.952
 5005SOL    HW115914   4.784   2.990   7.009
 5005SOL    HW215915   4.722   2.843   6.972
 5006SOL     OW15916   5.127   6.129   4.759
 5006SOL    HW115917   5.206   6.157   4.705
 5006SOL    HW215918   5.103   6.202   4.823
 5007SOL     OW15919   3.893   1.241   5.135
 5007SOL    HW115920   3.934   1.179   5.068
 5007SOL    HW215921   3.889   1.195   5.224
 5008SOL     OW15922   5.975   0.958   3.395
 5008SOL    HW115923   6.047   0.900   3.358
 5008SOL    HW215924   6.013   1.045   3.425
 5009SOL     OW15925   0.823   6.430   2.920
 5009SOL    HW115926   0.755   6.411   2.849
 5009SOL    HW215927   0.909   6.384   2.898
 5010SOL     OW15928   3.911   3.712   4.336
 5010SOL    HW115929   3.849   3.780   4.376
 5010SOL    HW215930   3.966   3.755   4.265
 5011SOL     OW15931   0.923   2.777   2.965
 5011SOL    HW115932   0.863   2.813   2.893
 5011SOL    HW215933   0.883   2.694   3.003
 5012SOL     OW15934   6.822   2.648   6.627
 5012SOL    HW115935   6.776   2.736   6.615
 5012SOL    HW215936   6.816   2.619   6.723
 5013SOL     OW15937   4.213   1.662   6.066
 5013SOL    HW115938   4.114   1.669   6.058
 5013SOL    HW215939   4.240   1.658   6.162
 5014SOL     OW15940   5.769   6.260   0.483
 5014SOL    HW115941   5.817   6.176   0.458
 5014SOL    HW215942   5.695   6.239   0.547
 5015SOL     OW15943   4.444   2.428   3.969
 5015SOL    HW115944   4.474   2.493   3.899
 5015SOL    HW215945   4.513   2.422   4.041
 5016SOL     OW15946   2.514   0.140   3.036
 5016SOL    HW115947   2.574   0.194   3.094
 5016SOL    HW215948   2.422   0.179   3.036
 5017SOL     OW15949   2.477   2.563   0.855
 5017SOL    HW115950   2.560   2.507   0.848
 5017SOL    HW215951   2.397   2.505   0.843
 5018SOL     OW15952   6.161   5.154   3.750
 5018SOL    HW115953   6.143   5.252   3.745
 5018SOL    HW215954   6.206   5.124   3.667
 5019SOL     OW15955   2.004   4.160   0.076
 5019SOL    HW115956   2.070   4.153   0.000
 5019SOL    HW215957   2.045   4.122   0.159
 5020SOL     OW15958   5.222   4.776   6.373
 5020SOL    HW115959   5.307   4.767   6.320
 5020SOL    HW215960   5.144   4.777   6.311
 5021SOL     OW15961   1.814   4.257   6.338
 5021SOL    HW115962   1.904   4.279   6.376
 5021SOL    HW215963   1.769   4.342   6.309
 5022SOL     OW15964   1.541   6.058   0.508
 5022SOL    HW115965   1.562   6.098   0.419
 5022SOL    HW215966   1.572   6.119   0.580
 5023SOL     OW15967   6.262   2.982   1.939
 5023SOL    HW115968   6.313   2.931   1.870
 5023SOL    HW215969   6.241   2.922   2.017
 5024SOL     OW15970   6.402   4.033   4.462
 5024SOL    HW115971   6.363   4.117   4.501
 5024SOL    HW215972   6.466   3.993   4.528
 5025SOL     OW15973   5.370   1.189   3.390
 5025SOL    HW115974   5.436   1.224   3.324
 5025SOL    HW215975   5.321   1.266   3.432
 5026SOL     OW15976   6.970   6.440   4.007
 5026SOL    HW115977   6.992   6.429   4.105
 5026SOL    HW215978   6.973   6.351   3.963
 5027SOL     OW15979   0.773   6.751   3.604
 5027SOL    HW115980   0.684   6.795   3.591
 5027SOL    HW215981   0.836   6.781   3.533
 5028SOL     OW15982   0.331   0.878   3.082
 5028SOL    HW115983   0.406   0.864   3.018
 5028SOL    HW215984   0.362   0.857   3.175
 5029SOL     OW15985   0.179   1.878   1.241
 5029SOL    HW115986   0.188   1.833   1.330
 5029SOL    HW215987   0.270   1.887   1.199
 5030SOL     OW15988   0.894   6.902   6.910
 5030SOL    HW115989   0.944   6.984   6.885
 5030SOL    HW215990   0.815   6.891   6.849
 5031SOL     OW15991   5.649   0.797   4.189
 5031SOL    HW115992   5.629   0.745   4.272
 5031SOL    HW215993   5.657   0.735   4.111
 5032SOL     OW15994   1.907   5.540   1.061
 5032SOL    HW115995   1.929   5.630   1.098
 5032SOL    HW215996   1.838   5.496   1.118
 5033SOL     OW15997   2.530   3.951   5.583
 5033SOL    HW115998   2.550   3.880   5.514
 5033SOL    HW215999   2.494   3.908   5.666
 5034SOL     OW16000   6.564   3.044   1.121
 5034SOL    HW116001   6.491   3.111   1.133
 5034SOL    HW216002   6.546   2.991   1.038
 5035SOL     OW16003   5.005   4.721   0.463
 5035SOL    HW116004   4.972   4.705   0.370
 5035SOL    HW216005   5.090   4.774   0.459
 5036SOL     OW16006   0.965   0.082   1.270
 5036SOL    HW116007   0.978   0.129   1.357
 5036SOL    HW216008   0.868   0.072   1.252
 5037SOL     OW16009   4.196   2.257   4.419
 5037SOL    HW116010   4.282   2.208   4.402
 5037SOL    HW216011   4.120   2.193   4.412
 5038SOL     OW16012   1.428   6.497   5.752
 5038SOL    HW116013   1.413   6.531   5.844
 5038SOL    HW216014   1.477   6.410   5.755
 5039SOL     OW16015   1.865   2.223   5.011
 5039SOL    HW116016   1.876   2.130   5.046
 5039SOL    HW216017   1.924   2.286   5.061
 5040SOL     OW16018   3.193   4.118   5.641
 5040SOL    HW116019   3.197   4.038   5.581
 5040SOL    HW216020   3.271   4.179   5.621
 5041SOL     OW16021   1.393   3.762   1.428
 5041SOL    HW116022   1.416   3.796   1.336
 5041SOL    HW216023   1.367   3.666   1.422
 5042SOL     OW16024   5.414   2.636   6.078
 5042SOL    HW116025   5.386   2.605   5.987
 5042SOL    HW216026   5.343   2.696   6.116
 5043SOL     OW16027   3.370   0.724   3.270
 5043SOL    HW116028   3.392   0.763   3.360
 5043SOL    HW216029   3.302   0.782   3.225
 5044SOL     OW16030   5.981   5.107   3.399
 5044SOL    HW116031   5.976   5.080   3.302
 5044SOL    HW216032   6.068   5.077   3.438
 5045SOL     OW16033   6.360   2.310   6.565
 5045SOL    HW116034   6.446   2.330   6.613
 5045SOL    HW216035   6.283   2.337   6.623
 5046SOL     OW16036   3.479   3.062   5.120
 5046SOL    HW116037   3.473   2.999   5.041
 5046SOL    HW216038   3.544   3.026   5.186
 5047SOL     OW16039   1.041   0.832   2.114
 5047SOL    HW116040   1.081   0.921   2.094
 5047SOL    HW216041   1.104   0.759   2.086
 5048SOL     OW16042   6.457   2.772   1.314
 5048SOL    HW116043   6.414   2.750   1.227
 5048SOL    HW216044   6.409   2.723   1.388
 5049SOL     OW16045   0.832   2.573   2.638
 5049SOL    HW116046   0.894   2.495   2.623
 5049SOL    HW216047   0.766   2.577   2.564
 5050SOL     OW16048   0.980   3.513   2.218
 5050SOL    HW116049   1.043   3.567   2.275
 5050SOL    HW216050   0.963   3.425   2.262
 5051SOL     OW16051   2.969   5.359   0.806
 5051SOL    HW116052   2.971   5.389   0.710
 5051SOL    HW216053   2.874   5.359   0.838
 5052SOL     OW16054   5.436   4.907   1.369
 5052SOL    HW116055   5.348   4.896   1.323
 5052SOL    HW216056   5.460   4.821   1.414
 5053SOL     OW16057   2.487   4.561   0.714
 5053SOL    HW116058   2.398   4.538   0.754
 5053SOL    HW216059   2.556   4.567   0.786
 5054SOL     OW16060   3.693   5.678   4.812
 5054SOL    HW116061   3.614   5.704   4.867
 5054SOL    HW216062   3.682   5.712   4.718
 5055SOL     OW16063   1.048   1.201   5.132
 5055SOL    HW116064   0.966   1.150   5.106
 5055SOL    HW216065   1.129   1.142   5.122
 5056SOL     OW16066   1.097   2.985   4.895
 5056SOL    HW116067   1.187   3.024   4.919
 5056SOL    HW216068   1.109   2.915   4.824
 5057SOL     OW16069   0.032   5.478   3.234
 5057SOL    HW116070   6.974   5.534   3.218
 5057SOL    HW216071   0.104   5.534   3.275
 5058SOL     OW16072   4.556   4.511   6.673
 5058SOL    HW116073   4.476   4.468   6.715
 5058SOL    HW216074   4.530   4.602   6.639
 5059SOL     OW16075   3.412   1.800   3.740
 5059SOL    HW116076   3.373   1.892   3.737
 5059SOL    HW216077   3.340   1.733   3.718
 5060SOL     OW16078   0.679   3.277   5.406
 5060SOL    HW116079   0.622   3.315   5.333
 5060SOL    HW216080   0.769   3.319   5.403
 5061SOL     OW16081   3.696   2.961   5.279
 5061SOL    HW116082   3.745   2.926   5.359
 5061SOL    HW216083   3.754   2.954   5.198
 5062SOL     OW16084   5.184   1.096   2.762
 5062SOL    HW116085   5.215   1.012   2.805
 5062SOL    HW216086   5.262   1.157   2.746
 5063SOL     OW16087   0.905   6.994   2.277
 5063SOL    HW116088   0.966   0.007   2.206
 5063SOL    HW216089   0.811   7.021   2.257
 5064SOL     OW16090   4.460   5.565   0.830
 5064SOL    HW116091   4.369   5.543   0.867
 5064SOL    HW216092   4.519   5.596   0.904
 5065SOL     OW16093   2.555   6.825   3.063
 5065SOL    HW116094   2.560   6.900   2.997
 5065SOL    HW216095   2.512   6.746   3.020
 5066SOL     OW16096   2.323   4.486   1.716
 5066SOL    HW116097   2.233   4.527   1.708
 5066SOL    HW216098   2.390   4.556   1.742
 5067SOL     OW16099   3.902   3.124   1.452
 5067SOL    HW116100   3.821   3.074   1.421
 5067SOL    HW216101   3.946   3.168   1.373
 5068SOL     OW16102   3.059   6.301   0.467
 5068SOL    HW116103   3.076   6.340   0.558
 5068SOL    HW216104   3.033   6.205   0.477
 5069SOL     OW16105   3.257   4.944   6.124
 5069SOL    HW116106   3.256   4.892   6.038
 5069SOL    HW216107   3.343   4.995   6.131
 5070SOL     OW16108   6.323   3.316   3.850
 5070SOL    HW116109   6.413   3.278   3.870
 5070SOL    HW216110   6.260   3.242   3.825
 5071SOL     OW16111   3.146   0.802   3.860
 5071SOL    HW116112   3.174   0.748   3.781
 5071SOL    HW216113   3.057   0.771   3.892
 5072SOL     OW16114   1.397   1.238   0.614
 5072SOL    HW116115   1.475   1.281   0.568
 5072SOL    HW216116   1.401   1.259   0.712
 5073SOL     OW16117   2.855   6.881   2.567
 5073SOL    HW116118   2.818   6.904   2.657
 5073SOL    HW216119   2.917   6.953   2.536
 5074SOL     OW16120   3.407   2.278   1.758
 5074SOL    HW116121   3.371   2.213   1.826
 5074SOL    HW216122   3.497   2.310   1.788
 5075SOL     OW16123   1.076   3.266   6.885
 5075SOL    HW116124   0.982   3.299   6.884
 5075SOL    HW216125   1.089   3.204   6.962
 5076SOL     OW16126   5.689   0.134   6.818
 5076SOL    HW116127   5.612   0.102   6.873
 5076SOL    HW216128   5.768   0.150   6.876
 5077SOL     OW16129   0.956   4.156   3.837
 5077SOL    HW116130   1.017   4.214   3.784
 5077SOL    HW216131   0.873   4.137   3.785
 5078SOL     OW16132   0.317   1.081   4.091
 5078SOL    HW116133   0.246   1.146   4.065
 5078SOL    HW216134   0.304   0.995   4.042
 5079SOL     OW16135   1.473   2.527   6.285
 5079SOL    HW116136   1.413   2.478   6.222
 5079SOL    HW216137   1.568   2.504   6.265
 5080SOL     OW16138   6.120   5.319   6.400
 5080SOL    HW116139   6.143   5.413   6.427
 5080SOL    HW216140   6.029   5.319   6.358
 5081SOL     OW16141   3.066   5.685   5.285
 5081SOL    HW116142   3.163   5.662   5.284
 5081SOL    HW216143   3.039   5.710   5.378
 5082SOL     OW16144   5.835   5.923   1.650
 5082SOL    HW116145   5.855   6.021   1.647
 5082SOL    HW216146   5.846   5.889   1.743
 5083SOL     OW16147   2.355   0.106   3.348
 5083SOL    HW116148   2.315   0.094   3.258
 5083SOL    HW216149   2.451   0.134   3.338
 5084SOL     OW16150   1.331   5.017   5.440
 5084SOL    HW116151   1.394   5.075   5.491
 5084SOL    HW216152   1.375   4.929   5.422
 5085SOL     OW16153   0.185   3.613   6.156
 5085SOL    HW116154   0.161   3.521   6.185
 5085SOL    HW216155   0.205   3.669   6.236
 5086SOL     OW16156   1.961   4.834   1.981
 5086SOL    HW116157   2.034   4.892   1.945
 5086SOL    HW216158   1.993   4.739   1.985
 5087SOL     OW16159   6.395   4.866   2.476
 5087SOL    HW116160   6.379   4.793   2.410
 5087SOL    HW216161   6.335   4.854   2.555
 5088SOL     OW16162   4.645   6.211   1.906
 5088SOL    HW116163   4.547   6.207   1.925
 5088SOL    HW216164   4.696   6.184   1.987
 5089SOL     OW16165   5.672   5.131   4.658
 5089SOL    HW116166   5.722   5.148   4.573
 5089SOL    HW216167   5.636   5.217   4.693
 5090SOL     OW16168   2.918   0.237   4.920
 5090SOL    HW116169   2.961   0.220   4.831
 5090SOL    HW216170   2.847   0.168   4.935
 5091SOL     OW16171   6.273   6.953   0.251
 5091SOL    HW116172   6.320   0.017   0.259
 5091SOL    HW216173   6.220   6.951   0.167
 5092SOL     OW16174   3.256   3.598   5.080
 5092SOL    HW116175   3.347   3.582   5.117
 5092SOL    HW216176   3.196   3.522   5.106
 5093SOL     OW16177   1.848   1.962   2.300
 5093SOL    HW116178   1.843   1.979   2.202
 5093SOL    HW216179   1.943   1.949   2.327
 5094SOL     OW16180   2.535   6.080   6.408
 5094SOL    HW116181   2.614   6.134   6.379
 5094SOL    HW216182   2.452   6.117   6.366
 5095SOL     OW16183   0.059   0.584   2.886
 5095SOL    HW116184   0.049   0.486   2.871
 5095SOL    HW216185   0.155   0.607   2.898
 5096SOL     OW16186   4.957   2.534   5.998
 5096SOL    HW116187   5.016   2.488   5.932
 5096SOL    HW216188   5.012   2.588   6.061
 5097SOL     OW16189   0.578   5.848   6.736
 5097SOL    HW116190   0.491   5.888   6.707
 5097SOL    HW216191   0.637   5.835   6.656
 5098SOL     OW16192   3.887   2.356   1.688
 5098SOL    HW116193   3.961   2.411   1.727
 5098SOL    HW216194   3.805   2.366   1.744
 5099SOL     OW16195   1.380   6.320   1.876
 5099SOL    HW116196   1.404   6.287   1.785
 5099SOL    HW216197   1.404   6.251   1.945
 5100SOL     OW16198   4.890   3.712   2.618
 5100SOL    HW116199   4.909   3.658   2.536
 5100SOL    HW216200   4.870   3.650   2.694
 5101SOL     OW16201   3.963   6.788   5.565
 5101SOL    HW116202   4.008   6.824   5.646
 5101SOL    HW216203   3.865   6.779   5.581
 5102SOL     OW16204   4.961   4.872   4.459
 5102SOL    HW116205   5.014   4.904   4.538
 5102SOL    HW216206   4.973   4.774   4.449
 5103SOL     OW16207   1.192   0.111   5.754
 5103SOL    HW116208   1.231   0.029   5.794
 5103SOL    HW216209   1.100   0.126   5.790
 5104SOL     OW16210   3.652   4.702   1.459
 5104SOL    HW116211   3.743   4.709   1.419
 5104SOL    HW216212   3.589   4.663   1.392
 5105SOL     OW16213   3.906   2.491   6.842
 5105SOL    HW116214   3.838   2.560   6.865
 5105SOL    HW216215   3.872   2.435   6.766
 5106SOL     OW16216   4.386   3.021   1.220
 5106SOL    HW116217   4.426   2.939   1.179
 5106SOL    HW216218   4.347   2.998   1.310
 5107SOL     OW16219   5.116   3.450   1.097
 5107SOL    HW116220   5.155   3.535   1.130
 5107SOL    HW216221   5.172   3.414   1.022
 5108SOL     OW16222   4.544   3.734   6.241
 5108SOL    HW116223   4.479   3.769   6.308
 5108SOL    HW216224   4.558   3.802   6.169
 5109SOL     OW16225   1.691   2.453   1.009
 5109SOL    HW116226   1.643   2.486   1.091
 5109SOL    HW216227   1.694   2.353   1.011
 5110SOL     OW16228   6.080   0.234   6.620
 5110SOL    HW116229   6.057   0.330   6.602
 5110SOL    HW216230   6.170   0.214   6.581
 5111SOL     OW16231   0.968   6.206   5.112
 5111SOL    HW116232   0.924   6.129   5.067
 5111SOL    HW216233   1.057   6.178   5.147
 5112SOL     OW16234   0.280   0.432   3.237
 5112SOL    HW116235   0.185   0.460   3.251
 5112SOL    HW216236   0.297   0.417   3.139
 5113SOL     OW16237   2.010   4.900   0.645
 5113SOL    HW116238   2.032   4.873   0.738
 5113SOL    HW216239   2.005   4.818   0.587
 5114SOL     OW16240   4.343   6.155   1.037
 5114SOL    HW116241   4.321   6.058   1.049
 5114SOL    HW216242   4.430   6.175   1.080
 5115SOL     OW16243   1.748   3.576   1.216
 5115SOL    HW116244   1.783   3.553   1.125
 5115SOL    HW216245   1.823   3.600   1.276
 5116SOL     OW16246   1.997   6.650   6.557
 5116SOL    HW116247   2.061   6.648   6.480
 5116SOL    HW216248   1.904   6.645   6.523
 5117SOL     OW16249   1.673   2.921   4.253
 5117SOL    HW116250   1.581   2.899   4.285
 5117SOL    HW216251   1.721   2.973   4.323
 5118SOL     OW16252   5.740   5.738   6.992
 5118SOL    HW116253   5.674   5.802   6.954
 5118SOL    HW216254   5.696   5.685   0.042
 5119SOL     OW16255   4.828   1.571   0.350
 5119SOL    HW116256   4.746   1.576   0.406
 5119SOL    HW216257   4.899   1.629   0.390
 5120SOL     OW16258   4.831   0.279   5.278
 5120SOL    HW116259   4.924   0.279   5.315
 5120SOL    HW216260   4.808   0.371   5.245
 5121SOL     OW16261   2.814   4.027   6.816
 5121SOL    HW116262   2.746   3.964   6.776
 5121SOL    HW216263   2.771   4.115   6.835
 5122SOL     OW16264   4.592   5.373   3.851
 5122SOL    HW116265   4.616   5.457   3.801
 5122SOL    HW216266   4.675   5.331   3.886
 5123SOL     OW16267   4.561   2.575   2.486
 5123SOL    HW116268   4.658   2.552   2.480
 5123SOL    HW216269   4.545   2.665   2.444
 5124SOL     OW16270   2.306   6.469   3.940
 5124SOL    HW116271   2.232   6.493   3.877
 5124SOL    HW216272   2.280   6.497   4.033
 5125SOL     OW16273   0.448   2.018   4.008
 5125SOL    HW116274   0.359   2.061   3.999
 5125SOL    HW216275   0.473   1.974   3.922
 5126SOL     OW16276   2.205   0.134   1.398
 5126SOL    HW116277   2.207   0.220   1.449
 5126SOL    HW216278   2.199   0.057   1.462
 5127SOL     OW16279   2.132   5.436   0.609
 5127SOL    HW116280   2.088   5.371   0.549
 5127SOL    HW216281   2.086   5.436   0.698
 5128SOL     OW16282   6.384   5.998   1.449
 5128SOL    HW116283   6.304   5.954   1.407
 5128SOL    HW216284   6.443   5.928   1.488
 5129SOL     OW16285   5.481   6.799   0.836
 5129SOL    HW116286   5.418   6.813   0.760
 5129SOL    HW216287   5.487   6.702   0.858
 5130SOL     OW16288   6.215   5.017   3.507
 5130SOL    HW116289   6.313   5.003   3.492
 5130SOL    HW216290   6.178   4.942   3.561
 5131SOL     OW16291   2.121   2.353   3.708
 5131SOL    HW116292   2.146   2.406   3.627
 5131SOL    HW216293   2.109   2.415   3.786
 5132SOL     OW16294   3.125   5.118   5.901
 5132SOL    HW116295   3.097   5.195   5.958
 5132SOL    HW216296   3.181   5.055   5.955
 5133SOL     OW16297   3.931   6.370   6.294
 5133SOL    HW116298   3.928   6.298   6.364
 5133SOL    HW216299   3.847   6.423   6.296
 5134SOL     OW16300   0.432   3.667   1.120
 5134SOL    HW116301   0.366   3.692   1.190
 5134SOL    HW216302   0.384   3.648   1.034
 5135SOL     OW16303   6.919   1.927   4.665
 5135SOL    HW116304   6.993   1.992   4.681
 5135SOL    HW216305   6.831   1.971   4.683
 5136SOL     OW16306   4.892   1.307   3.990
 5136SOL    HW116307   4.892   1.349   4.081
 5136SOL    HW216308   4.829   1.229   3.988
 5137SOL     OW16309   4.311   4.491   6.088
 5137SOL    HW116310   4.360   4.489   6.175
 5137SOL    HW216311   4.213   4.506   6.105
 5138SOL     OW16312   2.461   3.790   5.781
 5138SOL    HW116313   2.385   3.725   5.783
 5138SOL    HW216314   2.545   3.741   5.756
 5139SOL     OW16315   1.220   6.732   3.976
 5139SOL    HW116316   1.268   6.645   3.965
 5139SOL    HW216317   1.200   6.771   3.886
 5140SOL     OW16318   3.382   2.921   0.548
 5140SOL    HW116319   3.452   2.974   0.596
 5140SOL    HW216320   3.407   2.825   0.549
 5141SOL     OW16321   5.562   3.031   6.984
 5141SOL    HW116322   5.616   2.983   0.030
 5141SOL    HW216323   5.586   2.996   6.893
 5142SOL     OW16324   5.828   3.936   4.740
 5142SOL    HW116325   5.739   3.978   4.722
 5142SOL    HW216326   5.864   3.968   4.828
 5143SOL     OW16327   6.641   5.538   4.629
 5143SOL    HW116328   6.719   5.601   4.634
 5143SOL    HW216329   6.584   5.563   4.551
 5144SOL     OW16330   1.388   0.576   5.644
 5144SOL    HW116331   1.299   0.559   5.602
 5144SOL    HW216332   1.375   0.603   5.740
 5145SOL     OW16333   2.146   5.276   6.232
 5145SOL    HW116334   2.092   5.305   6.153
 5145SOL    HW216335   2.122   5.183   6.258
 5146SOL     OW16336   3.475   4.465   6.966
 5146SOL    HW116337   3.395   4.519   6.942
 5146SOL    HW216338   3.485   4.462   0.042
 5147SOL     OW16339   6.439   4.071   0.028
 5147SOL    HW116340   6.347   4.068   0.069
 5147SOL    HW216341   6.467   3.978   0.003
 5148SOL     OW16342   0.034   6.142   1.291
 5148SOL    HW116343   0.066   6.123   1.384
 5148SOL    HW216344   0.113   6.161   1.232
 5149SOL     OW16345   6.385   1.416   3.775
 5149SOL    HW116346   6.371   1.333   3.830
 5149SOL    HW216347   6.347   1.495   3.824
 5150SOL     OW16348   1.822   5.341   3.903
 5150SOL    HW116349   1.819   5.432   3.945
 5150SOL    HW216350   1.763   5.340   3.822
 5151SOL     OW16351   5.062   1.240   6.577
 5151SOL    HW116352   5.110   1.328   6.573
 5151SOL    HW216353   5.105   1.176   6.513
 5152SOL     OW16354   1.001   3.953   0.175
 5152SOL    HW116355   1.030   3.884   0.109
 5152SOL    HW216356   1.039   3.933   0.265
 5153SOL     OW16357   1.489   1.964   0.445
 5153SOL    HW116358   1.436   1.997   0.523
 5153SOL    HW216359   1.442   1.987   0.360
 5154SOL     OW16360   1.531   2.994   5.665
 5154SOL    HW116361   1.469   2.998   5.743
 5154SOL    HW216362   1.625   2.985   5.696
 5155SOL     OW16363   3.771   6.952   1.825
 5155SOL    HW116364   3.851   6.930   1.769
 5155SOL    HW216365   3.800   7.007   1.903
 5156SOL     OW16366   6.610   2.420   5.484
 5156SOL    HW116367   6.646   2.337   5.526
 5156SOL    HW216368   6.682   2.489   5.481
 5157SOL     OW16369   4.913   3.075   3.535
 5157SOL    HW116370   5.002   3.032   3.517
 5157SOL    HW216371   4.914   3.169   3.502
 5158SOL     OW16372   4.197   1.138   1.140
 5158SOL    HW116373   4.114   1.185   1.111
 5158SOL    HW216374   4.250   1.198   1.199
 5159SOL     OW16375   1.271   3.684   4.203
 5159SOL    HW116376   1.190   3.664   4.148
 5159SOL    HW216377   1.341   3.615   4.185
 5160SOL     OW16378   1.990   4.051   4.488
 5160SOL    HW116379   2.084   4.036   4.457
 5160SOL    HW216380   1.970   4.149   4.485
 5161SOL     OW16381   1.196   3.071   5.266
 5161SOL    HW116382   1.184   3.160   5.221
 5161SOL    HW216383   1.204   3.084   5.364
 5162SOL     OW16384   6.748   6.527   3.488
 5162SOL    HW116385   6.692   6.445   3.475
 5162SOL    HW216386   6.811   6.513   3.564
 5163SOL     OW16387   5.590   4.744   1.597
 5163SOL    HW116388   5.597   4.661   1.652
 5163SOL    HW216389   5.539   4.813   1.648
 5164SOL     OW16390   5.862   3.592   5.406
 5164SOL    HW116391   5.871   3.670   5.468
 5164SOL    HW216392   5.923   3.518   5.436
 5165SOL     OW16393   6.569   4.676   4.342
 5165SOL    HW116394   6.623   4.686   4.258
 5165SOL    HW216395   6.630   4.682   4.422
 5166SOL     OW16396   1.782   5.374   2.137
 5166SOL    HW116397   1.690   5.413   2.142
 5166SOL    HW216398   1.780   5.279   2.171
 5167SOL     OW16399   0.408   6.419   5.843
 5167SOL    HW116400   0.473   6.473   5.789
 5167SOL    HW216401   0.422   6.322   5.824
 5168SOL     OW16402   4.067   2.152   3.037
 5168SOL    HW116403   4.154   2.105   3.047
 5168SOL    HW216404   4.046   2.163   2.939
 5169SOL     OW16405   3.558   3.801   6.005
 5169SOL    HW116406   3.465   3.819   6.037
 5169SOL    HW216407   3.570   3.703   5.991
 5170SOL     OW16408   6.346   4.454   4.880
 5170SOL    HW116409   6.395   4.430   4.796
 5170SOL    HW216410   6.256   4.410   4.879
 5171SOL     OW16411   1.652   4.770   4.630
 5171SOL    HW116412   1.705   4.815   4.558
 5171SOL    HW216413   1.706   4.695   4.668
 5172SOL     OW16414   0.838   4.879   2.284
 5172SOL    HW116415   0.762   4.892   2.221
 5172SOL    HW216416   0.818   4.803   2.346
 5173SOL     OW16417   5.206   2.601   6.590
 5173SOL    HW116418   5.140   2.556   6.651
 5173SOL    HW216419   5.172   2.692   6.566
 5174SOL     OW16420   1.364   4.798   6.179
 5174SOL    HW116421   1.379   4.863   6.253
 5174SOL    HW216422   1.389   4.841   6.092
 5175SOL     OW16423   1.060   4.160   0.738
 5175SOL    HW116424   1.019   4.133   0.651
 5175SOL    HW216425   1.005   4.233   0.779
 5176SOL     OW16426   3.960   3.757   0.675
 5176SOL    HW116427   3.935   3.668   0.714
 5176SOL    HW216428   3.877   3.814   0.666
 5177SOL     OW16429   5.002   6.910   6.151
 5177SOL    HW116430   5.044   6.866   6.072
 5177SOL    HW216431   5.061   6.897   6.231
 5178SOL     OW16432   2.591   2.596   1.543
 5178SOL    HW116433   2.607   2.554   1.632
 5178SOL    HW216434   2.664   2.663   1.525
 5179SOL     OW16435   3.328   6.232   5.509
 5179SOL    HW116436   3.235   6.237   5.472
 5179SOL    HW216437   3.388   6.184   5.444
 5180SOL     OW16438   2.989   2.819   1.208
 5180SOL    HW116439   2.989   2.749   1.278
 5180SOL    HW216440   3.078   2.822   1.162
 5181SOL     OW16441   4.610   0.184   2.879
 5181SOL    HW116442   4.657   0.215   2.797
 5181SOL    HW216443   4.533   0.245   2.899
 5182SOL     OW16444   5.934   4.463   1.982
 5182SOL    HW116445   5.971   4.445   1.891
 5182SOL    HW216446   5.945   4.382   2.039
 5183SOL     OW16447   4.430   6.754   1.474
 5183SOL    HW116448   4.516   6.800   1.496
 5183SOL    HW216449   4.368   6.818   1.429
 5184SOL     OW16450   0.917   0.635   3.111
 5184SOL    HW116451   0.854   0.692   3.164
 5184SOL    HW216452   0.996   0.690   3.082
 5185SOL     OW16453   3.272   0.344   2.045
 5185SOL    HW116454   3.286   0.431   2.093
 5185SOL    HW216455   3.304   0.352   1.951
 5186SOL     OW16456   6.468   4.749   0.436
 5186SOL    HW116457   6.486   4.759   0.534
 5186SOL    HW216458   6.487   4.836   0.390
 5187SOL     OW16459   6.348   1.957   3.479
 5187SOL    HW116460   6.409   1.944   3.401
 5187SOL    HW216461   6.304   1.870   3.503
 5188SOL     OW16462   0.766   3.909   5.850
 5188SOL    HW116463   0.807   3.995   5.819
 5188SOL    HW216464   0.730   3.922   5.943
 5189SOL     OW16465   4.710   4.807   6.369
 5189SOL    HW116466   4.679   4.898   6.342
 5189SOL    HW216467   4.691   4.742   6.296
 5190SOL     OW16468   1.201   2.446   4.067
 5190SOL    HW116469   1.266   2.520   4.080
 5190SOL    HW216470   1.112   2.484   4.042
 5191SOL     OW16471   3.526   1.341   1.557
 5191SOL    HW116472   3.428   1.326   1.552
 5191SOL    HW216473   3.569   1.309   1.472
 5192SOL     OW16474   5.807   5.681   2.744
 5192SOL    HW116475   5.887   5.726   2.704
 5192SOL    HW216476   5.834   5.593   2.782
 5193SOL     OW16477   4.806   4.010   3.949
 5193SOL    HW116478   4.823   3.934   3.886
 5193SOL    HW216479   4.864   4.001   4.029
 5194SOL     OW16480   5.412   0.929   5.671
 5194SOL    HW116481   5.322   0.972   5.665
 5194SOL    HW216482   5.435   0.886   5.584
 5195SOL     OW16483   6.156   6.438   5.373
 5195SOL    HW116484   6.149   6.537   5.384
 5195SOL    HW216485   6.251   6.409   5.386
 5196SOL     OW16486   0.092   4.227   1.636
 5196SOL    HW116487   0.155   4.302   1.614
 5196SOL    HW216488   0.115   4.189   1.725
 5197SOL     OW16489   2.514   5.363   5.154
 5197SOL    HW116490   2.564   5.321   5.229
 5197SOL    HW216491   2.537   5.317   5.068
 5198SOL     OW16492   3.793   6.310   5.400
 5198SOL    HW116493   3.857   6.236   5.418
 5198SOL    HW216494   3.778   6.363   5.484
 5199SOL     OW16495   2.187   5.380   1.627
 5199SOL    HW116496   2.151   5.292   1.660
 5199SOL    HW216497   2.124   5.419   1.561
 5200SOL     OW16498   0.192   1.423   5.143
 5200SOL    HW116499   0.142   1.475   5.074
 5200SOL    HW216500   0.213   1.482   5.221
 5201SOL     OW16501   5.815   4.848   4.208
 5201SOL    HW116502   5.898   4.857   4.263
 5201SOL    HW216503   5.808   4.926   4.145
 5202SOL     OW16504   3.923   2.747   6.512
 5202SOL    HW116505   3.848   2.724   6.574
 5202SOL    HW216506   3.987   2.808   6.557
 5203SOL     OW16507   1.952   0.283   0.457
 5203SOL    HW116508   1.863   0.242   0.434
 5203SOL    HW216509   2.016   0.267   0.383
 5204SOL     OW16510   3.406   0.742   0.108
 5204SOL    HW116511   3.394   0.795   0.024
 5204SOL    HW216512   3.483   0.679   0.096
 5205SOL     OW16513   0.541   5.499   0.871
 5205SOL    HW116514   0.514   5.473   0.778
 5205SOL    HW216515   0.467   5.479   0.935
 5206SOL     OW16516   0.913   4.616   5.136
 5206SOL    HW116517   0.911   4.536   5.196
 5206SOL    HW216518   0.970   4.596   5.056
 5207SOL     OW16519   0.192   0.716   4.215
 5207SOL    HW116520   0.134   0.718   4.296
 5207SOL    HW216521   0.251   0.635   4.218
 5208SOL     OW16522   4.584   2.220   0.447
 5208SOL    HW116523   4.566   2.170   0.532
 5208SOL    HW216524   4.623   2.310   0.468
 5209SOL     OW16525   4.974   5.757   2.800
 5209SOL    HW116526   4.980   5.727   2.896
 5209SOL    HW216527   5.024   5.692   2.743
 5210SOL     OW16528   5.526   4.242   0.416
 5210SOL    HW116529   5.582   4.206   0.491
 5210SOL    HW216530   5.475   4.322   0.448
 5211SOL     OW16531   4.841   2.822   4.323
 5211SOL    HW116532   4.851   2.800   4.420
 5211SOL    HW216533   4.757   2.782   4.288
 5212SOL     OW16534   1.141   3.431   1.588
 5212SOL    HW116535   1.186   3.423   1.499
 5212SOL    HW216536   1.057   3.376   1.587
 5213SOL     OW16537   4.082   3.724   2.579
 5213SOL    HW116538   4.008   3.668   2.543
 5213SOL    HW216539   4.144   3.666   2.633
 5214SOL     OW16540   5.470   3.386   5.742
 5214SOL    HW116541   5.469   3.482   5.714
 5214SOL    HW216542   5.474   3.380   5.841
 5215SOL     OW16543   0.429   3.737   4.879
 5215SOL    HW116544   0.478   3.768   4.961
 5215SOL    HW216545   0.380   3.814   4.839
 5216SOL     OW16546   5.189   5.250   0.119
 5216SOL    HW116547   5.141   5.335   0.142
 5216SOL    HW216548   5.142   5.173   0.162
 5217SOL     OW16549   4.179   6.478   4.005
 5217SOL    HW116550   4.265   6.506   4.047
 5217SOL    HW216551   4.197   6.445   3.912
 5218SOL     OW16552   0.262   6.892   0.700
 5218SOL    HW116553   0.303   6.895   0.791
 5218SOL    HW216554   0.205   6.973   0.687
 5219SOL     OW16555   2.289   1.915   5.114
 5219SOL    HW116556   2.286   1.815   5.121
 5219SOL    HW216557   2.297   1.955   5.205
 5220SOL     OW16558   2.003   4.520   4.119
 5220SOL    HW116559   1.920   4.553   4.074
 5220SOL    HW216560   2.067   4.595   4.130
 5221SOL     OW16561   6.700   6.986   1.315
 5221SOL    HW116562   6.690   0.048   1.365
 5221SOL    HW216563   6.693   6.909   1.379
 5222SOL     OW16564   4.811   4.433   1.083
 5222SOL    HW116565   4.811   4.445   1.183
 5222SOL    HW216566   4.815   4.522   1.039
 5223SOL     OW16567   0.882   2.967   1.230
 5223SOL    HW116568   0.818   2.898   1.196
 5223SOL    HW216569   0.941   2.998   1.156
 5224SOL     OW16570   0.466   2.815   4.833
 5224SOL    HW116571   0.478   2.892   4.770
 5224SOL    HW216572   0.371   2.813   4.865
 5225SOL     OW16573   0.418   1.975   4.595
 5225SOL    HW116574   0.333   1.986   4.544
 5225SOL    HW216575   0.475   1.905   4.552
 5226SOL     OW16576   0.313   6.408   4.003
 5226SOL    HW116577   0.378   6.333   3.994
 5226SOL    HW216578   0.271   6.405   4.094
 5227SOL     OW16579   0.131   2.801   5.158
 5227SOL    HW116580   0.079   2.835   5.236
 5227SOL    HW216581   0.190   2.874   5.123
 5228SOL     OW16582   1.747   2.490   5.699
 5228SOL    HW116583   1.800   2.564   5.657
 5228SOL    HW216584   1.650   2.509   5.688
 5229SOL     OW16585   4.387   0.919   6.129
 5229SOL    HW116586   4.318   0.958   6.189
 5229SOL    HW216587   4.470   0.975   6.131
 5230SOL     OW16588   6.759   6.660   1.880
 5230SOL    HW116589   6.663   6.646   1.857
 5230SOL    HW216590   6.767   6.691   1.975
 5231SOL     OW16591   6.480   1.906   2.650
 5231SOL    HW116592   6.481   1.982   2.585
 5231SOL    HW216593   6.388   1.867   2.654
 5232SOL     OW16594   2.190   2.603   5.633
 5232SOL    HW116595   2.263   2.618   5.566
 5232SOL    HW216596   2.137   2.687   5.643
 5233SOL     OW16597   3.022   0.291   2.703
 5233SOL    HW116598   3.106   0.344   2.714
 5233SOL    HW216599   2.945   0.353   2.686
 5234SOL     OW16600   2.428   1.934   0.421
 5234SOL    HW116601   2.499   1.979   0.475
 5234SOL    HW216602   2.372   2.003   0.376
 5235SOL     OW16603   2.468   1.665   1.176
 5235SOL    HW116604   2.513   1.714   1.251
 5235SOL    HW216605   2.537   1.613   1.125
 5236SOL     OW16606   3.839   5.595   1.671
 5236SOL    HW116607   3.872   5.656   1.742
 5236SOL    HW216608   3.883   5.618   1.584
 5237SOL     OW16609   1.866   2.202   3.586
 5237SOL    HW116610   1.960   2.217   3.618
 5237SOL    HW216611   1.839   2.108   3.604
 5238SOL     OW16612   0.972   6.259   2.749
 5238SOL    HW116613   1.043   6.205   2.703
 5238SOL    HW216614   0.904   6.288   2.682
 5239SOL     OW16615   2.349   3.837   1.256
 5239SOL    HW116616   2.341   3.903   1.332
 5239SOL    HW216617   2.441   3.797   1.256
 5240SOL     OW16618   2.247   3.577   5.803
 5240SOL    HW116619   2.196   3.491   5.797
 5240SOL    HW216620   2.193   3.651   5.762
 5241SOL     OW16621   0.796   5.836   2.344
 5241SOL    HW116622   0.714   5.817   2.289
 5241SOL    HW216623   0.875   5.791   2.302
 5242SOL     OW16624   4.926   0.517   6.321
 5242SOL    HW116625   4.917   0.613   6.348
 5242SOL    HW216626   4.904   0.508   6.224
 5243SOL     OW16627   2.834   6.886   1.960
 5243SOL    HW116628   2.861   6.974   2.000
 5243SOL    HW216629   2.890   6.813   2.001
 5244SOL     OW16630   4.932   3.107   1.125
 5244SOL    HW116631   4.871   3.043   1.078
 5244SOL    HW216632   4.879   3.187   1.154
 5245SOL     OW16633   4.459   3.713   1.532
 5245SOL    HW116634   4.514   3.760   1.601
 5245SOL    HW216635   4.434   3.777   1.460
 5246SOL     OW16636   6.027   3.045   1.363
 5246SOL    HW116637   6.120   3.010   1.348
 5246SOL    HW216638   6.027   3.144   1.354
 5247SOL     OW16639   4.077   2.135   6.710
 5247SOL    HW116640   4.149   2.204   6.705
 5247SOL    HW216641   4.117   2.045   6.724
 5248SOL     OW16642   6.707   1.262   3.465
 5248SOL    HW116643   6.675   1.242   3.558
 5248SOL    HW216644   6.682   1.356   3.441
 5249SOL     OW16645   0.726   4.859   6.869
 5249SOL    HW116646   0.728   4.777   6.811
 5249SOL    HW216647   0.640   4.863   6.919
 5250SOL     OW16648   2.351   6.060   0.892
 5250SOL    HW116649   2.339   6.116   0.974
 5250SOL    HW216650   2.312   5.969   0.907
 5251SOL     OW16651   0.746   4.781   0.712
 5251SOL    HW116652   0.729   4.765   0.809
 5251SOL    HW216653   0.794   4.703   0.673
 5252SOL     OW16654   4.051   0.371   2.168
 5252SOL    HW116655   3.962   0.344   2.205
 5252SOL    HW216656   4.056   0.471   2.164
 5253SOL     OW16657   6.150   5.146   4.512
 5253SOL    HW116658   6.055   5.119   4.500
 5253SOL    HW216659   6.206   5.065   4.531
 5254SOL     OW16660   6.117   0.245   3.066
 5254SOL    HW116661   6.207   0.202   3.053
 5254SOL    HW216662   6.069   0.248   2.978
 5255SOL     OW16663   6.264   1.781   5.136
 5255SOL    HW116664   6.239   1.700   5.083
 5255SOL    HW216665   6.257   1.862   5.077
 5256SOL     OW16666   5.818   1.462   2.368
 5256SOL    HW116667   5.837   1.557   2.343
 5256SOL    HW216668   5.758   1.459   2.447
 5257SOL     OW16669   3.943   0.931   6.125
 5257SOL    HW116670   3.887   0.987   6.064
 5257SOL    HW216671   3.963   0.843   6.081
 5258SOL     OW16672   4.574   1.916   2.918
 5258SOL    HW116673   4.656   1.927   2.861
 5258SOL    HW216674   4.492   1.924   2.862
 5259SOL     OW16675   5.882   5.432   2.807
 5259SOL    HW116676   5.796   5.396   2.770
 5259SOL    HW216677   5.947   5.357   2.818
 5260SOL     OW16678   2.001   1.074   0.951
 5260SOL    HW116679   1.946   1.061   0.869
 5260SOL    HW216680   2.035   1.168   0.954
 5261SOL     OW16681   5.999   4.351   0.020
 5261SOL    HW116682   6.019   4.314   6.952
 5261SOL    HW216683   6.004   4.278   0.087
 5262SOL     OW16684   2.025   0.742   2.851
 5262SOL    HW116685   2.064   0.693   2.773
 5262SOL    HW216686   2.021   0.681   2.929
 5263SOL     OW16687   2.190   0.160   2.858
 5263SOL    HW116688   2.218   0.068   2.832
 5263SOL    HW216689   2.264   0.224   2.839
 5264SOL     OW16690   6.808   2.231   1.749
 5264SOL    HW116691   6.859   2.163   1.696
 5264SOL    HW216692   6.710   2.218   1.734
 5265SOL     OW16693   6.778   4.453   4.679
 5265SOL    HW116694   6.724   4.417   4.756
 5265SOL    HW216695   6.869   4.410   4.680
 5266SOL     OW16696   2.378   0.775   0.837
 5266SOL    HW116697   2.461   0.719   0.830
 5266SOL    HW216698   2.393   0.849   0.902
 5267SOL     OW16699   5.046   2.419   4.320
 5267SOL    HW116700   4.953   2.449   4.340
 5267SOL    HW216701   5.046   2.359   4.240
 5268SOL     OW16702   5.887   0.785   6.267
 5268SOL    HW116703   5.928   0.874   6.249
 5268SOL    HW216704   5.803   0.797   6.319
 5269SOL     OW16705   0.563   6.110   3.412
 5269SOL    HW116706   0.626   6.033   3.416
 5269SOL    HW216707   0.510   6.114   3.497
 5270SOL     OW16708   0.153   2.506   6.390
 5270SOL    HW116709   0.078   2.457   6.435
 5270SOL    HW216710   0.240   2.465   6.417
 5271SOL     OW16711   6.710   5.582   3.972
 5271SOL    HW116712   6.809   5.594   3.970
 5271SOL    HW216713   6.688   5.490   4.005
 5272SOL     OW16714   4.885   0.614   0.034
 5272SOL    HW116715   4.962   0.553   0.054
 5272SOL    HW216716   4.909   0.707   0.061
 5273SOL     OW16717   1.034   2.415   3.049
 5273SOL    HW116718   1.096   2.488   3.020
 5273SOL    HW216719   0.940   2.444   3.034
 5274SOL     OW16720   4.627   5.437   2.150
 5274SOL    HW116721   4.723   5.424   2.126
 5274SOL    HW216722   4.585   5.348   2.171
 5275SOL     OW16723   4.009   1.248   6.286
 5275SOL    HW116724   3.986   1.256   6.383
 5275SOL    HW216725   3.928   1.220   6.235
 5276SOL     OW16726   4.021   6.437   2.646
 5276SOL    HW116727   4.100   6.401   2.597
 5276SOL    HW216728   3.955   6.474   2.580
 5277SOL     OW16729   2.282   2.251   1.422
 5277SOL    HW116730   2.256   2.218   1.513
 5277SOL    HW216731   2.376   2.285   1.425
 5278SOL     OW16732   4.354   4.859   1.339
 5278SOL    HW116733   4.358   4.843   1.241
 5278SOL    HW216734   4.260   4.850   1.371
 5279SOL     OW16735   3.143   5.390   1.858
 5279SOL    HW116736   3.228   5.338   1.866
 5279SOL    HW216737   3.140   5.436   1.769
 5280SOL     OW16738   4.119   6.060   4.623
 5280SOL    HW116739   4.064   6.015   4.693
 5280SOL    HW216740   4.158   5.991   4.562
 5281SOL     OW16741   0.602   2.168   1.596
 5281SOL    HW116742   0.537   2.176   1.672
 5281SOL    HW216743   0.670   2.098   1.617
 5282SOL     OW16744   3.813   1.611   3.165
 5282SOL    HW116745   3.854   1.526   3.197
 5282SOL    HW216746   3.754   1.592   3.086
 5283SOL     OW16747   5.118   5.157   6.442
 5283SOL    HW116748   5.045   5.170   6.374
 5283SOL    HW216749   5.133   5.060   6.456
 5284SOL     OW16750   5.614   3.014   3.254
 5284SOL    HW116751   5.517   3.003   3.232
 5284SOL    HW216752   5.662   3.046   3.172
 5285SOL     OW16753   3.383   5.568   2.982
 5285SOL    HW116754   3.348   5.484   2.941
 5285SOL    HW216755   3.394   5.555   3.081
 5286SOL     OW16756   2.137   4.627   1.417
 5286SOL    HW116757   2.057   4.611   1.359
 5286SOL    HW216758   2.121   4.589   1.508
 5287SOL     OW16759   1.453   2.070   1.072
 5287SOL    HW116760   1.450   2.120   1.159
 5287SOL    HW216761   1.527   2.106   1.016
 5288SOL     OW16762   3.636   7.008   0.805
 5288SOL    HW116763   3.624   6.908   0.805
 5288SOL    HW216764   3.561   0.027   0.755
 5289SOL     OW16765   1.838   5.399   1.631
 5289SOL    HW116766   1.807   5.304   1.637
 5289SOL    HW216767   1.897   5.410   1.551
 5290SOL     OW16768   4.372   6.456   0.568
 5290SOL    HW116769   4.450   6.469   0.629
 5290SOL    HW216770   4.335   6.364   0.579
 5291SOL     OW16771   2.090   4.848   6.465
 5291SOL    HW116772   2.128   4.841   6.557
 5291SOL    HW216773   2.101   4.761   6.418
 5292SOL     OW16774   4.138   3.001   6.231
 5292SOL    HW116775   4.059   2.946   6.258
 5292SOL    HW216776   4.107   3.092   6.201
 5293SOL     OW16777   0.538   0.230   4.381
 5293SOL    HW116778   0.631   0.235   4.344
 5293SOL    HW216779   0.473   0.227   4.305
 5294SOL     OW16780   5.601   1.868   5.737
 5294SOL    HW116781   5.525   1.916   5.694
 5294SOL    HW216782   5.643   1.806   5.671
 5295SOL     OW16783   6.220   1.278   1.843
 5295SOL    HW116784   6.167   1.235   1.916
 5295SOL    HW216785   6.298   1.219   1.819
 5296SOL     OW16786   0.855   4.440   0.867
 5296SOL    HW116787   0.790   4.507   0.903
 5296SOL    HW216788   0.888   4.382   0.941
 5297SOL     OW16789   2.109   2.594   1.236
 5297SOL    HW116790   2.201   2.633   1.234
 5297SOL    HW216791   2.115   2.496   1.255
 5298SOL     OW16792   0.833   5.426   1.187
 5298SOL    HW116793   0.869   5.416   1.280
 5298SOL    HW216794   0.733   5.420   1.189
 5299SOL     OW16795   2.717   0.170   2.084
 5299SOL    HW116796   2.665   0.223   2.151
 5299SOL    HW216797   2.802   0.136   2.126
 5300SOL     OW16798   6.736   5.171   3.383
 5300SOL    HW116799   6.746   5.218   3.470
 5300SOL    HW216800   6.825   5.162   3.338
 5301SOL     OW16801   4.094   1.777   0.036
 5301SOL    HW116802   4.038   1.695   0.043
 5301SOL    HW216803   4.155   1.769   6.981
 5302SOL     OW16804   6.226   4.410   3.018
 5302SOL    HW116805   6.168   4.416   3.099
 5302SOL    HW216806   6.283   4.328   3.024
 5303SOL     OW16807   0.716   4.728   3.506
 5303SOL    HW116808   0.635   4.760   3.457
 5303SOL    HW216809   0.791   4.714   3.441
 5304SOL     OW16810   5.125   1.955   5.836
 5304SOL    HW116811   5.035   1.918   5.859
 5304SOL    HW216812   5.165   1.901   5.762
 5305SOL     OW16813   2.670   1.035   3.054
 5305SOL    HW116814   2.623   1.053   3.140
 5305SOL    HW216815   2.604   1.039   2.979
 5306SOL     OW16816   2.581   0.145   5.734
 5306SOL    HW116817   2.534   0.209   5.674
 5306SOL    HW216818   2.680   0.156   5.723
 5307SOL     OW16819   5.253   6.909   6.702
 5307SOL    HW116820   5.330   6.848   6.723
 5307SOL    HW216821   5.282   7.004   6.715
 5308SOL     OW16822   6.962   1.087   2.766
 5308SOL    HW116823   0.002   1.013   2.746
 5308SOL    HW216824   6.936   1.084   2.862
 5309SOL     OW16825   3.318   3.804   3.680
 5309SOL    HW116826   3.229   3.849   3.677
 5309SOL    HW216827   3.306   3.705   3.673
 5310SOL     OW16828   4.782   2.061   0.997
 5310SOL    HW116829   4.785   2.079   1.095
 5310SOL    HW216830   4.737   2.137   0.950
 5311SOL     OW16831   0.954   5.859   0.108
 5311SOL    HW116832   0.858   5.883   0.123
 5311SOL    HW216833   0.998   5.934   0.058
 5312SOL     OW16834   0.620   3.703   2.765
 5312SOL    HW116835   0.550   3.765   2.729
 5312SOL    HW216836   0.603   3.611   2.730
 5313SOL     OW16837   1.176   5.792   1.172
 5313SOL    HW116838   1.137   5.828   1.087
 5313SOL    HW216839   1.232   5.862   1.215
 5314SOL     OW16840   3.427   5.012   0.622
 5314SOL    HW116841   3.466   4.956   0.548
 5314SOL    HW216842   3.365   5.079   0.583
 5315SOL     OW16843   5.235   2.660   2.362
 5315SOL    HW116844   5.309   2.686   2.300
 5315SOL    HW216845   5.161   2.618   2.309
 5316SOL     OW16846   5.944   5.199   4.178
 5316SOL    HW116847   6.017   5.156   4.125
 5316SOL    HW216848   5.856   5.179   4.134
 5317SOL     OW16849   5.706   6.051   2.693
 5317SOL    HW116850   5.647   6.008   2.625
 5317SOL    HW216851   5.719   6.148   2.669
 5318SOL     OW16852   0.239   2.650   4.592
 5318SOL    HW116853   0.228   2.666   4.690
 5318SOL    HW216854   0.325   2.602   4.576
 5319SOL     OW16855   4.516   0.132   0.567
 5319SOL    HW116856   4.422   0.102   0.576
 5319SOL    HW216857   4.534   0.207   0.631
 5320SOL     OW16858   5.562   2.502   5.425
 5320SOL    HW116859   5.552   2.466   5.333
 5320SOL    HW216860   5.653   2.542   5.436
 5321SOL     OW16861   1.974   5.029   6.167
 5321SOL    HW116862   2.007   4.936   6.153
 5321SOL    HW216863   1.933   5.037   6.258
 5322SOL     OW16864   3.429   5.980   0.152
 5322SOL    HW116865   3.388   6.072   0.147
 5322SOL    HW216866   3.518   5.986   0.196
 5323SOL     OW16867   5.328   2.766   0.216
 5323SOL    HW116868   5.375   2.854   0.227
 5323SOL    HW216869   5.231   2.783   0.199
 5324SOL     OW16870   3.686   3.759   1.900
 5324SOL    HW116871   3.645   3.755   1.809
 5324SOL    HW216872   3.777   3.718   1.897
 5325SOL     OW16873   4.958   5.801   3.362
 5325SOL    HW116874   4.930   5.886   3.317
 5325SOL    HW216875   5.046   5.771   3.326
 5326SOL     OW16876   6.482   6.165   1.782
 5326SOL    HW116877   6.384   6.155   1.765
 5326SOL    HW216878   6.532   6.153   1.697
 5327SOL     OW16879   6.534   0.698   4.100
 5327SOL    HW116880   6.614   0.709   4.041
 5327SOL    HW216881   6.463   0.763   4.072
 5328SOL     OW16882   3.817   5.077   1.045
 5328SOL    HW116883   3.729   5.050   1.083
 5328SOL    HW216884   3.818   5.062   0.946
 5329SOL     OW16885   6.976   5.070   6.520
 5329SOL    HW116886   0.041   5.024   6.527
 5329SOL    HW216887   6.933   5.045   6.433
 5330SOL     OW16888   4.650   4.255   0.403
 5330SOL    HW116889   4.575   4.244   0.338
 5330SOL    HW216890   4.616   4.246   0.497
 5331SOL     OW16891   4.774   3.000   6.662
 5331SOL    HW116892   4.728   2.979   6.748
 5331SOL    HW216893   4.753   3.094   6.635
 5332SOL     OW16894   5.661   2.387   0.134
 5332SOL    HW116895   5.628   2.469   0.181
 5332SOL    HW216896   5.699   2.413   0.045
 5333SOL     OW16897   1.688   1.703   3.936
 5333SOL    HW116898   1.674   1.802   3.944
 5333SOL    HW216899   1.708   1.665   4.027
 5334SOL     OW16900   4.236   5.673   1.911
 5334SOL    HW116901   4.205   5.618   1.989
 5334SOL    HW216902   4.335   5.662   1.901
 5335SOL     OW16903   6.958   3.999   1.266
 5335SOL    HW116904   6.862   4.027   1.269
 5335SOL    HW216905   7.001   4.036   1.184
 5336SOL     OW16906   1.671   3.357   4.199
 5336SOL    HW116907   1.642   3.309   4.282
 5336SOL    HW216908   1.755   3.408   4.218
 5337SOL     OW16909   5.994   4.785   0.976
 5337SOL    HW116910   6.065   4.777   1.046
 5337SOL    HW216911   5.922   4.718   0.995
 5338SOL     OW16912   6.527   3.613   0.953
 5338SOL    HW116913   6.620   3.583   0.976
 5338SOL    HW216914   6.524   3.713   0.954
 5339SOL     OW16915   5.128   3.331   3.035
 5339SOL    HW116916   5.171   3.324   3.125
 5339SOL    HW216917   5.166   3.409   2.985
 5340SOL     OW16918   5.988   2.957   2.579
 5340SOL    HW116919   5.949   3.049   2.587
 5340SOL    HW216920   6.044   2.937   2.660
 5341SOL     OW16921   4.034   5.085   4.063
 5341SOL    HW116922   4.016   5.113   3.969
 5341SOL    HW216923   4.046   4.986   4.067
 5342SOL     OW16924   5.898   0.162   4.436
 5342SOL    HW116925   5.971   0.214   4.481
 5342SOL    HW216926   5.925   0.142   4.342
 5343SOL     OW16927   3.219   3.299   6.662
 5343SOL    HW116928   3.255   3.386   6.629
 5343SOL    HW216929   3.286   3.227   6.646
 5344SOL     OW16930   1.248   1.893   6.416
 5344SOL    HW116931   1.216   1.955   6.488
 5344SOL    HW216932   1.343   1.914   6.393
 5345SOL     OW16933   4.884   1.795   0.139
 5345SOL    HW116934   4.907   1.761   0.231
 5345SOL    HW216935   4.786   1.812   0.134
 5346SOL     OW16936   3.125   6.273   4.064
 5346SOL    HW116937   3.192   6.281   3.990
 5346SOL    HW216938   3.075   6.359   4.073
 5347SOL     OW16939   6.131   1.285   4.073
 5347SOL    HW116940   6.133   1.385   4.070
 5347SOL    HW216941   6.218   1.250   4.106
 5348SOL     OW16942   5.723   2.627   3.563
 5348SOL    HW116943   5.822   2.618   3.569
 5348SOL    HW216944   5.699   2.680   3.481
 5349SOL     OW16945   0.660   3.658   2.423
 5349SOL    HW116946   0.578   3.612   2.459
 5349SOL    HW216947   0.636   3.751   2.395
 5350SOL     OW16948   1.496   6.773   0.363
 5350SOL    HW116949   1.519   6.691   0.415
 5350SOL    HW216950   1.562   6.846   0.382
 5351SOL     OW16951   6.491   6.250   2.861
 5351SOL    HW116952   6.588   6.272   2.853
 5351SOL    HW216953   6.461   6.264   2.955
 5352SOL     OW16954   1.453   3.215   4.876
 5352SOL    HW116955   1.415   3.127   4.904
 5352SOL    HW216956   1.405   3.289   4.923
 5353SOL     OW16957   4.069   5.547   3.262
 5353SOL    HW116958   4.152   5.520   3.213
 5353SOL    HW216959   4.069   5.505   3.353
 5354SOL     OW16960   4.815   5.592   0.515
 5354SOL    HW116961   4.730   5.640   0.537
 5354SOL    HW216962   4.794   5.496   0.495
 5355SOL     OW16963   5.473   4.697   5.079
 5355SOL    HW116964   5.503   4.626   5.142
 5355SOL    HW216965   5.552   4.747   5.044
 5356SOL     OW16966   0.360   5.181   0.871
 5356SOL    HW116967   0.441   5.154   0.820
 5356SOL    HW216968   0.284   5.195   0.808
 5357SOL     OW16969   5.851   3.240   2.505
 5357SOL    HW116970   5.921   3.310   2.492
 5357SOL    HW216971   5.804   3.256   2.592
 5358SOL     OW16972   4.061   1.908   0.269
 5358SOL    HW116973   4.071   1.844   0.344
 5358SOL    HW216974   4.058   1.859   0.182
 5359SOL     OW16975   3.908   2.297   0.049
 5359SOL    HW116976   3.905   2.373   7.008
 5359SOL    HW216977   3.985   2.237   0.027
 5360SOL     OW16978   5.726   4.547   3.334
 5360SOL    HW116979   5.692   4.501   3.417
 5360SOL    HW216980   5.797   4.613   3.359
 5361SOL     OW16981   2.336   5.565   2.275
 5361SOL    HW116982   2.398   5.608   2.340
 5361SOL    HW216983   2.301   5.479   2.313
 5362SOL     OW16984   5.121   0.389   2.021
 5362SOL    HW116985   5.104   0.412   2.117
 5362SOL    HW216986   5.033   0.383   1.973
 5363SOL     OW16987   5.838   5.437   3.104
 5363SOL    HW116988   5.749   5.392   3.098
 5363SOL    HW216989   5.856   5.486   3.019
 5364SOL     OW16990   4.918   1.119   2.300
 5364SOL    HW116991   4.877   1.029   2.282
 5364SOL    HW216992   4.853   1.190   2.273
 5365SOL     OW16993   3.461   2.831   3.790
 5365SOL    HW116994   3.506   2.765   3.850
 5365SOL    HW216995   3.443   2.915   3.840
 5366SOL     OW16996   6.047   5.808   2.609
 5366SOL    HW116997   6.064   5.814   2.707
 5366SOL    HW216998   6.028   5.900   2.573
 5367SOL     OW16999   6.470   6.259   1.470
 5367SOL    HW117000   6.423   6.171   1.469
 5367SOL    HW217001   6.421   6.322   1.530
 5368SOL     OW17002   6.516   6.102   3.895
 5368SOL    HW117003   6.578   6.177   3.876
 5368SOL    HW217004   6.513   6.039   3.817
 5369SOL     OW17005   3.150   5.431   2.846
 5369SOL    HW117006   3.093   5.419   2.927
 5369SOL    HW217007   3.113   5.506   2.790
 5370SOL     OW17008   1.551   3.600   0.969
 5370SOL    HW117009   1.471   3.656   0.946
 5370SOL    HW217010   1.632   3.660   0.975
 5371SOL     OW17011   5.752   5.818   4.515
 5371SOL    HW117012   5.762   5.790   4.610
 5371SOL    HW217013   5.655   5.814   4.489
 5372SOL     OW17014   1.255   6.871   3.238
 5372SOL    HW117015   1.292   6.941   3.177
 5372SOL    HW217016   1.272   6.780   3.200
 5373SOL     OW17017   3.122   1.625   6.825
 5373SOL    HW117018   3.119   1.721   6.796
 5373SOL    HW217019   3.073   1.569   6.758
 5374SOL     OW17020   1.626   4.850   2.442
 5374SOL    HW117021   1.555   4.914   2.411
 5374SOL    HW217022   1.627   4.847   2.542
 5375SOL     OW17023   1.878   4.368   4.797
 5375SOL    HW117024   1.881   4.284   4.851
 5375SOL    HW217025   1.943   4.434   4.834
 5376SOL     OW17026   0.548   6.952   6.180
 5376SOL    HW117027   0.525   6.934   6.276
 5376SOL    HW217028   0.563   6.865   6.132
 5377SOL     OW17029   1.993   1.059   3.162
 5377SOL    HW117030   2.092   1.055   3.177
 5377SOL    HW217031   1.952   1.123   3.226
 5378SOL     OW17032   4.839   0.787   2.472
 5378SOL    HW117033   4.861   0.691   2.457
 5378SOL    HW217034   4.922   0.837   2.496
 5379SOL     OW17035   1.670   2.290   5.520
 5379SOL    HW117036   1.699   2.367   5.576
 5379SOL    HW217037   1.680   2.313   5.423
 5380SOL     OW17038   4.368   6.495   1.463
 5380SOL    HW117039   4.314   6.460   1.540
 5380SOL    HW217040   4.395   6.589   1.482
 5381SOL     OW17041   4.045   7.020   3.947
 5381SOL    HW117042   4.031   0.028   4.041
 5381SOL    HW217043   4.109   6.944   3.946
 5382SOL     OW17044   4.671   1.221   1.281
 5382SOL    HW117045   4.748   1.276   1.250
 5382SOL    HW217046   4.625   1.267   1.357
 5383SOL     OW17047   2.410   2.746   4.635
 5383SOL    HW117048   2.368   2.833   4.662
 5383SOL    HW217049   2.390   2.677   4.704
 5384SOL     OW17050   5.422   5.503   4.475
 5384SOL    HW117051   5.486   5.508   4.398
 5384SOL    HW217052   5.384   5.411   4.482
 5385SOL     OW17053   3.747   3.178   6.173
 5385SOL    HW117054   3.817   3.249   6.172
 5385SOL    HW217055   3.708   3.171   6.265
 5386SOL     OW17056   5.873   4.936   4.719
 5386SOL    HW117057   5.807   5.008   4.695
 5386SOL    HW217058   5.949   4.976   4.771
 5387SOL     OW17059   1.768   1.402   3.617
 5387SOL    HW117060   1.798   1.371   3.527
 5387SOL    HW217061   1.670   1.384   3.627
 5388SOL     OW17062   0.397   6.712   2.186
 5388SOL    HW117063   0.445   6.755   2.262
 5388SOL    HW217064   0.410   6.766   2.103
 5389SOL     OW17065   4.394   1.814   4.178
 5389SOL    HW117066   4.403   1.741   4.245
 5389SOL    HW217067   4.298   1.824   4.152
 5390SOL     OW17068   0.580   2.807   3.023
 5390SOL    HW117069   0.629   2.804   2.935
 5390SOL    HW217070   0.612   2.733   3.082
 5391SOL     OW17071   2.898   3.514   0.605
 5391SOL    HW117072   2.860   3.424   0.627
 5391SOL    HW217073   2.934   3.514   0.512
 5392SOL     OW17074   5.196   2.042   3.867
 5392SOL    HW117075   5.163   2.131   3.835
 5392SOL    HW217076   5.272   2.012   3.809
 5393SOL     OW17077   4.618   1.794   4.670
 5393SOL    HW117078   4.598   1.718   4.732
 5393SOL    HW217079   4.671   1.759   4.592
 5394SOL     OW17080   1.080   2.105   1.175
 5394SOL    HW117081   1.100   2.123   1.079
 5394SOL    HW217082   1.149   2.043   1.212
 5395SOL     OW17083   6.485   1.914   0.534
 5395SOL    HW117084   6.482   1.817   0.556
 5395SOL    HW217085   6.574   1.952   0.561
 5396SOL     OW17086   4.581   3.971   0.520
 5396SOL    HW117087   4.626   4.020   0.595
 5396SOL    HW217088   4.515   3.906   0.558
 5397SOL     OW17089   0.535   1.010   2.356
 5397SOL    HW117090   0.486   1.029   2.441
 5397SOL    HW217091   0.504   1.073   2.285
 5398SOL     OW17092   5.892   1.758   2.560
 5398SOL    HW117093   5.829   1.752   2.483
 5398SOL    HW217094   5.864   1.833   2.620
 5399SOL     OW17095   1.847   1.761   0.179
 5399SOL    HW117096   1.792   1.691   0.224
 5399SOL    HW217097   1.932   1.721   0.146
 5400SOL     OW17098   5.156   3.463   2.088
 5400SOL    HW117099   5.247   3.441   2.054
 5400SOL    HW217100   5.093   3.388   2.067
 5401SOL     OW17101   5.986   2.537   1.577
 5401SOL    HW117102   5.996   2.632   1.606
 5401SOL    HW217103   6.003   2.476   1.655
 5402SOL     OW17104   1.391   6.144   2.091
 5402SOL    HW117105   1.460   6.190   2.147
 5402SOL    HW217106   1.314   6.116   2.149
 5403SOL     OW17107   4.911   3.033   0.070
 5403SOL    HW117108   4.992   3.075   0.031
 5403SOL    HW217109   4.908   3.051   0.169
 5404SOL     OW17110   5.727   0.555   0.391
 5404SOL    HW117111   5.771   0.484   0.336
 5404SOL    HW217112   5.685   0.622   0.329
 5405SOL     OW17113   0.249   5.467   0.155
 5405SOL    HW117114   0.201   5.553   0.136
 5405SOL    HW217115   0.220   5.433   0.244
 5406SOL     OW17116   2.128   0.842   5.558
 5406SOL    HW117117   2.087   0.933   5.553
 5406SOL    HW217118   2.183   0.835   5.641
 5407SOL     OW17119   2.232   6.918   2.784
 5407SOL    HW117120   2.180   6.867   2.716
 5407SOL    HW217121   2.330   6.906   2.767
 5408SOL     OW17122   3.294   1.925   4.100
 5408SOL    HW117123   3.250   1.840   4.127
 5408SOL    HW217124   3.249   1.961   4.018
 5409SOL     OW17125   0.904   3.225   2.279
 5409SOL    HW117126   0.866   3.172   2.355
 5409SOL    HW217127   0.858   3.199   2.194
 5410SOL     OW17128   1.169   2.755   1.283
 5410SOL    HW117129   1.205   2.836   1.237
 5410SOL    HW217130   1.076   2.737   1.251
 5411SOL     OW17131   3.197   5.493   0.009
 5411SOL    HW117132   3.152   5.416   0.054
 5411SOL    HW217133   3.131   5.544   6.977
 5412SOL     OW17134   0.175   2.092   6.025
 5412SOL    HW117135   0.102   2.062   5.964
 5412SOL    HW217136   0.153   2.182   6.063
 5413SOL     OW17137   6.946   6.160   4.504
 5413SOL    HW117138   6.864   6.200   4.463
 5413SOL    HW217139   6.948   6.181   4.601
 5414SOL     OW17140   5.410   4.311   5.873
 5414SOL    HW117141   5.314   4.284   5.871
 5414SOL    HW217142   5.450   4.284   5.961
 5415SOL     OW17143   4.419   0.988   0.108
 5415SOL    HW117144   4.328   0.953   0.088
 5415SOL    HW217145   4.411   1.075   0.157
 5416SOL     OW17146   3.166   6.151   6.486
 5416SOL    HW117147   3.144   6.089   6.562
 5416SOL    HW217148   3.189   6.097   6.405
 5417SOL     OW17149   4.193   6.747   4.212
 5417SOL    HW117150   4.174   6.741   4.310
 5417SOL    HW217151   4.264   6.681   4.188
 5418SOL     OW17152   6.835   3.351   4.959
 5418SOL    HW117153   6.908   3.283   4.948
 5418SOL    HW217154   6.749   3.305   4.980
 5419SOL     OW17155   4.887   0.445   6.041
 5419SOL    HW117156   4.960   0.396   5.993
 5419SOL    HW217157   4.819   0.478   5.976
 5420SOL     OW17158   1.016   1.365   2.227
 5420SOL    HW117159   1.038   1.272   2.197
 5420SOL    HW217160   0.965   1.361   2.313
 5421SOL     OW17161   3.986   4.856   2.166
 5421SOL    HW117162   4.012   4.839   2.071
 5421SOL    HW217163   3.896   4.899   2.169
 5422SOL     OW17164   2.697   5.336   3.891
 5422SOL    HW117165   2.778   5.279   3.875
 5422SOL    HW217166   2.623   5.280   3.928
 5423SOL     OW17167   5.584   5.872   1.872
 5423SOL    HW117168   5.555   5.893   1.965
 5423SOL    HW217169   5.520   5.913   1.807
 5424SOL     OW17170   4.267   4.045   5.452
 5424SOL    HW117171   4.183   4.082   5.491
 5424SOL    HW217172   4.319   4.118   5.408
 5425SOL     OW17173   1.787   4.143   5.518
 5425SOL    HW117174   1.687   4.131   5.523
 5425SOL    HW217175   1.825   4.134   5.610
 5426SOL     OW17176   6.274   5.318   1.085
 5426SOL    HW117177   6.353   5.300   1.143
 5426SOL    HW217178   6.228   5.232   1.064
 5427SOL     OW17179   4.243   2.263   6.255
 5427SOL    HW117180   4.261   2.213   6.340
 5427SOL    HW217181   4.329   2.284   6.210
 5428SOL     OW17182   5.697   5.653   2.342
 5428SOL    HW117183   5.646   5.629   2.259
 5428SOL    HW217184   5.785   5.694   2.317
 5429SOL     OW17185   3.650   0.150   4.659
 5429SOL    HW117186   3.663   0.249   4.672
 5429SOL    HW217187   3.659   0.128   4.562
 5430SOL     OW17188   2.764   3.748   5.665
 5430SOL    HW117189   2.792   3.828   5.612
 5430SOL    HW217190   2.769   3.666   5.607
 5431SOL     OW17191   3.360   4.250   0.469
 5431SOL    HW117192   3.347   4.289   0.560
 5431SOL    HW217193   3.300   4.295   0.404
 5432SOL     OW17194   0.195   5.660   6.807
 5432SOL    HW117195   0.175   5.749   6.766
 5432SOL    HW217196   0.151   5.655   6.897
 5433SOL     OW17197   2.141   0.791   1.626
 5433SOL    HW117198   2.179   0.882   1.644
 5433SOL    HW217199   2.116   0.748   1.712
 5434SOL     OW17200   5.363   0.862   4.944
 5434SOL    HW117201   5.347   0.955   4.980
 5434SOL    HW217202   5.417   0.868   4.860
 5435SOL     OW17203   6.390   4.542   0.761
 5435SOL    HW117204   6.301   4.560   0.720
 5435SOL    HW217205   6.428   4.628   0.795
 5436SOL     OW17206   0.956   4.166   2.879
 5436SOL    HW117207   1.018   4.244   2.891
 5436SOL    HW217208   1.009   4.084   2.859
 5437SOL     OW17209   4.091   5.384   1.492
 5437SOL    HW117210   4.074   5.423   1.401
 5437SOL    HW217211   4.111   5.458   1.556
 5438SOL     OW17212   4.680   5.652   2.336
 5438SOL    HW117213   4.598   5.702   2.365
 5438SOL    HW217214   4.653   5.574   2.279
 5439SOL     OW17215   0.876   5.011   1.938
 5439SOL    HW117216   0.888   4.930   1.880
 5439SOL    HW217217   0.906   5.092   1.888
 5440SOL     OW17218   6.265   6.782   3.784
 5440SOL    HW117219   6.331   6.852   3.757
 5440SOL    HW217220   6.177   6.801   3.740
 5441SOL     OW17221   6.161   3.428   4.074
 5441SOL    HW117222   6.240   3.448   4.132
 5441SOL    HW217223   6.188   3.365   4.002
 5442SOL     OW17224   4.063   6.920   5.773
 5442SOL    HW117225   4.133   6.888   5.837
 5442SOL    HW217226   4.046   7.017   5.788
 5443SOL     OW17227   4.688   1.178   3.494
 5443SOL    HW117228   4.734   1.157   3.579
 5443SOL    HW217229   4.754   1.177   3.418
 5444SOL     OW17230   6.321   1.520   4.648
 5444SOL    HW117231   6.370   1.449   4.699
 5444SOL    HW217232   6.227   1.527   4.684
 5445SOL     OW17233   6.165   5.956   4.678
 5445SOL    HW117234   6.196   5.868   4.716
 5445SOL    HW217235   6.220   5.978   4.598
 5446SOL     OW17236   6.938   4.095   6.188
 5446SOL    HW117237   6.919   4.178   6.136
 5446SOL    HW217238   6.980   4.120   6.275
 5447SOL     OW17239   0.386   2.695   1.329
 5447SOL    HW117240   0.424   2.618   1.381
 5447SOL    HW217241   0.456   2.766   1.318
 5448SOL     OW17242   5.018   4.894   3.183
 5448SOL    HW117243   5.050   4.834   3.110
 5448SOL    HW217244   4.947   4.848   3.235
 5449SOL     OW17245   3.413   1.035   2.027
 5449SOL    HW117246   3.356   1.087   1.964
 5449SOL    HW217247   3.480   0.981   1.976
 5450SOL     OW17248   4.473   5.637   1.527
 5450SOL    HW117249   4.430   5.570   1.587
 5450SOL    HW217250   4.540   5.691   1.580
 5451SOL     OW17251   6.959   7.017   2.955
 5451SOL    HW117252   6.862   6.996   2.964
 5451SOL    HW217253   7.009   6.977   3.032
 5452SOL     OW17254   2.344   4.150   1.931
 5452SOL    HW117255   2.268   4.115   1.984
 5452SOL    HW217256   2.383   4.230   1.976
 5453SOL     OW17257   6.115   3.533   3.060
 5453SOL    HW117258   6.049   3.459   3.069
 5453SOL    HW217259   6.084   3.597   2.990
 5454SOL     OW17260   5.868   4.183   2.343
 5454SOL    HW117261   5.796   4.249   2.361
 5454SOL    HW217262   5.950   4.231   2.310
 5455SOL     OW17263   1.831   1.976   4.039
 5455SOL    HW117264   1.899   1.912   4.075
 5455SOL    HW217265   1.877   2.058   4.005
 5456SOL     OW17266   5.267   1.665   0.829
 5456SOL    HW117267   5.293   1.569   0.817
 5456SOL    HW217268   5.335   1.711   0.886
 5457SOL     OW17269   5.803   1.382   6.785
 5457SOL    HW117270   5.787   1.418   6.693
 5457SOL    HW217271   5.852   1.295   6.778
 5458SOL     OW17272   5.845   3.148   6.971
 5458SOL    HW117273   5.813   3.075   6.909
 5458SOL    HW217274   5.768   3.185   7.022
 5459SOL     OW17275   1.812   3.308   5.304
 5459SOL    HW117276   1.835   3.222   5.349
 5459SOL    HW217277   1.863   3.315   5.218
 5460SOL     OW17278   1.486   1.100   1.154
 5460SOL    HW117279   1.576   1.108   1.197
 5460SOL    HW217280   1.415   1.126   1.219
 5461SOL     OW17281   6.467   1.449   5.195
 5461SOL    HW117282   6.439   1.532   5.242
 5461SOL    HW217283   6.561   1.426   5.221
 5462SOL     OW17284   4.632   4.251   6.610
 5462SOL    HW117285   4.612   4.347   6.630
 5462SOL    HW217286   4.656   4.242   6.513
 5463SOL     OW17287   1.156   2.829   6.942
 5463SOL    HW117288   1.151   2.729   6.942
 5463SOL    HW217289   1.201   2.859   6.857
 5464SOL     OW17290   0.885   5.894   6.118
 5464SOL    HW117291   0.933   5.955   6.055
 5464SOL    HW217292   0.848   5.816   6.068
 5465SOL     OW17293   6.551   6.564   3.886
 5465SOL    HW117294   6.496   6.557   3.802
 5465SOL    HW217295   6.500   6.615   3.955
 5466SOL     OW17296   5.936   2.695   4.917
 5466SOL    HW117297   6.009   2.628   4.936
 5466SOL    HW217298   5.958   2.746   4.834
 5467SOL     OW17299   4.590   2.657   4.448
 5467SOL    HW117300   4.617   2.676   4.543
 5467SOL    HW217301   4.503   2.607   4.448
 5468SOL     OW17302   6.972   1.377   0.790
 5468SOL    HW117303   6.973   1.466   0.745
 5468SOL    HW217304   6.924   1.311   0.733
 5469SOL     OW17305   3.172   0.297   4.959
 5469SOL    HW117306   3.087   0.262   4.997
 5469SOL    HW217307   3.169   0.397   4.954
 5470SOL     OW17308   3.679   5.236   3.491
 5470SOL    HW117309   3.690   5.308   3.560
 5470SOL    HW217310   3.685   5.276   3.400
 5471SOL     OW17311   4.368   0.683   3.280
 5471SOL    HW117312   4.275   0.717   3.292
 5471SOL    HW217313   4.428   0.758   3.252
 5472SOL     OW17314   2.511   2.378   6.703
 5472SOL    HW117315   2.522   2.477   6.708
 5472SOL    HW217316   2.593   2.337   6.663
 5473SOL     OW17317   2.766   4.603   1.614
 5473SOL    HW117318   2.809   4.519   1.580
 5473SOL    HW217319   2.778   4.608   1.713
 5474SOL     OW17320   1.168   5.088   2.903
 5474SOL    HW117321   1.095   5.058   2.841
 5474SOL    HW217322   1.238   5.136   2.851
 5475SOL     OW17323   0.264   1.578   5.372
 5475SOL    HW117324   0.346   1.626   5.340
 5475SOL    HW217325   0.196   1.645   5.401
 5476SOL     OW17326   2.501   6.739   5.843
 5476SOL    HW117327   2.466   6.818   5.793
 5476SOL    HW217328   2.599   6.751   5.859
 5477SOL     OW17329   1.441   4.502   4.540
 5477SOL    HW117330   1.499   4.537   4.467
 5477SOL    HW217331   1.493   4.439   4.597
 5478SOL     OW17332   5.255   4.139   5.668
 5478SOL    HW117333   5.184   4.070   5.686
 5478SOL    HW217334   5.215   4.230   5.673
 5479SOL     OW17335   4.327   1.159   4.550
 5479SOL    HW117336   4.289   1.067   4.554
 5479SOL    HW217337   4.420   1.158   4.589
 5480SOL     OW17338   0.118   3.951   4.277
 5480SOL    HW117339   0.189   3.917   4.339
 5480SOL    HW217340   0.029   3.944   4.322
 5481SOL     OW17341   4.241   1.055   6.751
 5481SOL    HW117342   4.196   1.104   6.825
 5481SOL    HW217343   4.330   1.022   6.784
 5482SOL     OW17344   4.983   2.845   1.373
 5482SOL    HW117345   5.073   2.881   1.396
 5482SOL    HW217346   4.919   2.921   1.361
 5483SOL     OW17347   0.049   3.386   5.635
 5483SOL    HW117348   0.093   3.310   5.588
 5483SOL    HW217349   0.113   3.462   5.642
 5484SOL     OW17350   6.076   6.435   4.416
 5484SOL    HW117351   6.114   6.455   4.506
 5484SOL    HW217352   6.006   6.364   4.424
 5485SOL     OW17353   2.953   6.771   5.426
 5485SOL    HW117354   2.940   6.765   5.327
 5485SOL    HW217355   3.046   6.802   5.446
 5486SOL     OW17356   0.446   0.841   3.408
 5486SOL    HW117357   0.354   0.879   3.402
 5486SOL    HW217358   0.512   0.916   3.417
 5487SOL     OW17359   5.194   4.948   0.528
 5487SOL    HW117360   5.268   5.006   0.495
 5487SOL    HW217361   5.207   4.931   0.626
 5488SOL     OW17362   5.810   1.476   6.516
 5488SOL    HW117363   5.818   1.469   6.417
 5488SOL    HW217364   5.728   1.528   6.539
 5489SOL     OW17365   1.343   4.145   3.071
 5489SOL    HW117366   1.271   4.154   3.140
 5489SOL    HW217367   1.428   4.114   3.116
 5490SOL     OW17368   2.098   1.648   0.687
 5490SOL    HW117369   2.108   1.552   0.660
 5490SOL    HW217370   2.184   1.697   0.672
 5491SOL     OW17371   1.044   5.093   0.806
 5491SOL    HW117372   1.026   5.121   0.711
 5491SOL    HW217373   1.122   5.032   0.808
 5492SOL     OW17374   1.006   1.460   6.442
 5492SOL    HW117375   1.034   1.549   6.405
 5492SOL    HW217376   0.910   1.443   6.418
 5493SOL     OW17377   3.285   3.622   0.154
 5493SOL    HW117378   3.310   3.688   0.083
 5493SOL    HW217379   3.283   3.667   0.242
 5494SOL     OW17380   5.595   2.782   1.838
 5494SOL    HW117381   5.618   2.836   1.758
 5494SOL    HW217382   5.506   2.738   1.825
 5495SOL     OW17383   3.887   3.544   2.451
 5495SOL    HW117384   3.922   3.457   2.486
 5495SOL    HW217385   3.954   3.583   2.387
 5496SOL     OW17386   4.088   5.939   1.412
 5496SOL    HW117387   4.104   5.985   1.499
 5496SOL    HW217388   4.007   5.977   1.368
 5497SOL     OW17389   6.347   0.461   1.564
 5497SOL    HW117390   6.426   0.472   1.503
 5497SOL    HW217391   6.379   0.460   1.659
 5498SOL     OW17392   4.291   1.045   5.511
 5498SOL    HW117393   4.322   1.136   5.539
 5498SOL    HW217394   4.214   1.018   5.569
 5499SOL     OW17395   0.078   1.334   2.726
 5499SOL    HW117396   0.018   1.414   2.717
 5499SOL    HW217397   0.027   1.258   2.764
 5500SOL     OW17398   2.517   5.587   1.537
 5500SOL    HW117399   2.464   5.596   1.452
 5500SOL    HW217400   2.510   5.493   1.570
 5501SOL     OW17401   2.710   0.015   2.335
 5501SOL    HW117402   2.787   0.025   2.399
 5501SOL    HW217403   2.643   0.087   2.353
 5502SOL     OW17404   5.468   3.645   5.649
 5502SOL    HW117405   5.414   3.644   5.565
 5502SOL    HW217406   5.452   3.731   5.698
 5503SOL     OW17407   1.050   5.319   3.633
 5503SOL    HW117408   1.137   5.291   3.673
 5503SOL    HW217409   1.055   5.311   3.533
 5504SOL     OW17410   3.275   2.064   5.199
 5504SOL    HW117411   3.276   2.142   5.136
 5504SOL    HW217412   3.366   2.025   5.205
 5505SOL     OW17413   2.994   5.359   5.604
 5505SOL    HW117414   3.042   5.272   5.615
 5505SOL    HW217415   3.033   5.408   5.526
 5506SOL     OW17416   6.192   0.411   5.608
 5506SOL    HW117417   6.141   0.497   5.600
 5506SOL    HW217418   6.258   0.405   5.533
 5507SOL     OW17419   2.451   6.039   3.706
 5507SOL    HW117420   2.506   5.956   3.697
 5507SOL    HW217421   2.448   6.066   3.803
 5508SOL     OW17422   3.402   0.662   6.516
 5508SOL    HW117423   3.305   0.675   6.498
 5508SOL    HW217424   3.435   0.583   6.466
 5509SOL     OW17425   5.804   6.811   6.684
 5509SOL    HW117426   5.838   6.902   6.662
 5509SOL    HW217427   5.817   6.750   6.606
 5510SOL     OW17428   5.374   1.035   5.928
 5510SOL    HW117429   5.285   1.077   5.914
 5510SOL    HW217430   5.404   0.990   5.844
 5511SOL     OW17431   0.791   0.783   1.988
 5511SOL    HW117432   0.753   0.711   2.046
 5511SOL    HW217433   0.877   0.815   2.026
 5512SOL     OW17434   1.246   0.680   6.982
 5512SOL    HW117435   1.302   0.610   0.003
 5512SOL    HW217436   1.193   0.729   0.027
 5513SOL     OW17437   4.735   4.295   4.418
 5513SOL    HW117438   4.752   4.214   4.474
 5513SOL    HW217439   4.756   4.275   4.323
 5514SOL     OW17440   5.279   4.508   2.167
 5514SOL    HW117441   5.375   4.535   2.173
 5514SOL    HW217442   5.273   4.408   2.161
 5515SOL     OW17443   6.669   2.563   1.496
 5515SOL    HW117444   6.736   2.627   1.457
 5515SOL    HW217445   6.614   2.610   1.565
 5516SOL     OW17446   1.250   3.697   6.266
 5516SOL    HW117447   1.176   3.759   6.291
 5516SOL    HW217448   1.284   3.721   6.175
 5517SOL     OW17449   2.395   1.991   1.812
 5517SOL    HW117450   2.407   1.966   1.908
 5517SOL    HW217451   2.409   2.090   1.801
 5518SOL     OW17452   6.119   5.246   5.144
 5518SOL    HW117453   6.038   5.213   5.096
 5518SOL    HW217454   6.195   5.183   5.129
 5519SOL     OW17455   5.442   4.254   3.889
 5519SOL    HW117456   5.347   4.228   3.874
 5519SOL    HW217457   5.502   4.192   3.838
 5520SOL     OW17458   1.502   4.116   1.964
 5520SOL    HW117459   1.539   4.192   2.018
 5520SOL    HW217460   1.511   4.031   2.016
 5521SOL     OW17461   5.990   5.397   1.555
 5521SOL    HW117462   5.970   5.317   1.499
 5521SOL    HW217463   6.070   5.445   1.518
 5522SOL     OW17464   2.547   3.470   1.628
 5522SOL    HW117465   2.640   3.479   1.664
 5522SOL    HW217466   2.481   3.473   1.703
 5523SOL     OW17467   2.881   0.644   1.939
 5523SOL    HW117468   2.796   0.644   1.886
 5523SOL    HW217469   2.937   0.565   1.914
 5524SOL     OW17470   0.044   4.930   6.066
 5524SOL    HW117471   0.110   4.861   6.095
 5524SOL    HW217472   0.080   4.980   5.987
 5525SOL     OW17473   6.537   5.664   5.463
 5525SOL    HW117474   6.552   5.734   5.533
 5525SOL    HW217475   6.490   5.704   5.385
 5526SOL     OW17476   6.240   3.179   4.419
 5526SOL    HW117477   6.205   3.267   4.452
 5526SOL    HW217478   6.214   3.107   4.483
 5527SOL     OW17479   1.530   3.485   1.751
 5527SOL    HW117480   1.453   3.422   1.764
 5527SOL    HW217481   1.499   3.579   1.765
 5528SOL     OW17482   0.838   3.909   4.077
 5528SOL    HW117483   0.780   3.922   3.996
 5528SOL    HW217484   0.780   3.908   4.159
 5529SOL     OW17485   2.472   1.467   4.850
 5529SOL    HW117486   2.524   1.551   4.866
 5529SOL    HW217487   2.526   1.389   4.882
 5530SOL     OW17488   0.775   2.711   0.618
 5530SOL    HW117489   0.813   2.769   0.547
 5530SOL    HW217490   0.699   2.758   0.663
 5531SOL     OW17491   3.545   2.934   5.903
 5531SOL    HW117492   3.573   2.923   5.808
 5531SOL    HW217493   3.619   2.906   5.964
 5532SOL     OW17494   2.198   1.629   1.195
 5532SOL    HW117495   2.150   1.624   1.107
 5532SOL    HW217496   2.297   1.632   1.180
 5533SOL     OW17497   3.625   1.225   1.316
 5533SOL    HW117498   3.567   1.144   1.323
 5533SOL    HW217499   3.721   1.197   1.319
 5534SOL     OW17500   0.325   4.158   6.730
 5534SOL    HW117501   0.257   4.212   6.779
 5534SOL    HW217502   0.314   4.061   6.752
 5535SOL     OW17503   6.254   3.453   2.314
 5535SOL    HW117504   6.291   3.475   2.224
 5535SOL    HW217505   6.327   3.462   2.382
 5536SOL     OW17506   2.748   0.672   3.805
 5536SOL    HW117507   2.804   0.638   3.880
 5536SOL    HW217508   2.747   0.604   3.731
 5537SOL     OW17509   4.056   6.945   5.383
 5537SOL    HW117510   4.014   6.897   5.460
 5537SOL    HW217511   3.985   6.987   5.327
 5538SOL     OW17512   4.386   1.626   0.009
 5538SOL    HW117513   4.303   1.601   6.982
 5538SOL    HW217514   4.466   1.605   6.977
 5539SOL     OW17515   2.477   6.875   1.306
 5539SOL    HW117516   2.573   6.864   1.330
 5539SOL    HW217517   2.422   6.887   1.389
 5540SOL     OW17518   5.159   1.784   0.116
 5540SOL    HW117519   5.073   1.813   0.075
 5540SOL    HW217520   5.230   1.852   0.096
 5541SOL     OW17521   4.531   3.971   6.660
 5541SOL    HW117522   4.498   3.941   6.570
 5541SOL    HW217523   4.591   4.050   6.648
 5542SOL     OW17524   5.548   4.234   6.350
 5542SOL    HW117525   5.517   4.151   6.397
 5542SOL    HW217526   5.522   4.314   6.405
 5543SOL     OW17527   1.812   0.261   1.268
 5543SOL    HW117528   1.766   0.240   1.354
 5543SOL    HW217529   1.887   0.197   1.253
 5544SOL     OW17530   4.356   5.466   6.000
 5544SOL    HW117531   4.273   5.504   5.959
 5544SOL    HW217532   4.420   5.540   6.023
 5545SOL     OW17533   4.572   0.808   2.906
 5545SOL    HW117534   4.512   0.729   2.919
 5545SOL    HW217535   4.636   0.814   2.983
 5546SOL     OW17536   0.173   6.016   5.777
 5546SOL    HW117537   0.211   5.990   5.689
 5546SOL    HW217538   0.075   6.034   5.767
 5547SOL     OW17539   5.209   1.703   5.130
 5547SOL    HW117540   5.114   1.671   5.133
 5547SOL    HW217541   5.261   1.647   5.066
 5548SOL     OW17542   6.695   4.037   5.135
 5548SOL    HW117543   6.717   3.973   5.210
 5548SOL    HW217544   6.623   4.099   5.164
 5549SOL     OW17545   3.840   3.344   1.922
 5549SOL    HW117546   3.816   3.341   1.825
 5549SOL    HW217547   3.765   3.385   1.974
 5550SOL     OW17548   1.516   4.233   3.406
 5550SOL    HW117549   1.540   4.157   3.346
 5550SOL    HW217550   1.434   4.209   3.458
 5551SOL     OW17551   2.360   5.407   3.528
 5551SOL    HW117552   2.345   5.436   3.623
 5551SOL    HW217553   2.424   5.470   3.484
 5552SOL     OW17554   6.877   6.916   6.307
 5552SOL    HW117555   6.856   6.987   6.373
 5552SOL    HW217556   6.971   6.885   6.319
 5553SOL     OW17557   4.773   0.460   6.694
 5553SOL    HW117558   4.791   0.554   6.725
 5553SOL    HW217559   4.854   0.424   6.649
 5554SOL     OW17560   5.794   2.949   1.267
 5554SOL    HW117561   5.891   2.972   1.271
 5554SOL    HW217562   5.746   2.989   1.345
 5555SOL     OW17563   1.119   4.083   2.622
 5555SOL    HW117564   1.025   4.082   2.587
 5555SOL    HW217565   1.152   3.990   2.633
 5556SOL     OW17566   6.710   1.030   4.392
 5556SOL    HW117567   6.793   1.059   4.344
 5556SOL    HW217568   6.674   1.106   4.446
 5557SOL     OW17569   3.263   5.383   2.212
 5557SOL    HW117570   3.307   5.467   2.246
 5557SOL    HW217571   3.327   5.333   2.154
 5558SOL     OW17572   3.312   4.381   0.720
 5558SOL    HW117573   3.302   4.479   0.705
 5558SOL    HW217574   3.364   4.364   0.804
 5559SOL     OW17575   1.255   6.947   2.803
 5559SOL    HW117576   1.303   0.012   2.802
 5559SOL    HW217577   1.157   6.962   2.790
 5560SOL     OW17578   0.341   5.544   2.907
 5560SOL    HW117579   0.350   5.545   2.807
 5560SOL    HW217580   0.310   5.454   2.937
 5561SOL     OW17581   3.251   1.113   3.870
 5561SOL    HW117582   3.190   1.176   3.918
 5561SOL    HW217583   3.217   1.020   3.880
 5562SOL     OW17584   4.055   4.159   0.428
 5562SOL    HW117585   4.044   4.064   0.399
 5562SOL    HW217586   4.116   4.207   0.365
 5563SOL     OW17587   3.175   4.868   3.006
 5563SOL    HW117588   3.270   4.894   3.023
 5563SOL    HW217589   3.147   4.800   3.073
 5564SOL     OW17590   5.438   0.597   5.808
 5564SOL    HW117591   5.500   0.623   5.882
 5564SOL    HW217592   5.362   0.663   5.804
 5565SOL     OW17593   3.688   3.201   0.467
 5565SOL    HW117594   3.765   3.206   0.403
 5565SOL    HW217595   3.677   3.290   0.511
 5566SOL     OW17596   0.965   3.751   0.447
 5566SOL    HW117597   1.048   3.807   0.449
 5566SOL    HW217598   0.979   3.670   0.504
 5567SOL     OW17599   6.902   3.685   1.584
 5567SOL    HW117600   6.947   3.772   1.565
 5567SOL    HW217601   6.968   3.622   1.626
 5568SOL     OW17602   4.446   6.494   2.636
 5568SOL    HW117603   4.405   6.522   2.550
 5568SOL    HW217604   4.377   6.495   2.709
 5569SOL     OW17605   2.778   2.072   3.385
 5569SOL    HW117606   2.874   2.093   3.368
 5569SOL    HW217607   2.725   2.157   3.388
 5570SOL     OW17608   6.638   3.288   3.461
 5570SOL    HW117609   6.594   3.328   3.381
 5570SOL    HW217610   6.698   3.356   3.504
 5571SOL     OW17611   0.015   5.422   2.007
 5571SOL    HW117612   0.069   5.371   2.073
 5571SOL    HW217613   0.076   5.483   1.955
 5572SOL     OW17614   1.034   3.647   5.072
 5572SOL    HW117615   0.936   3.629   5.087
 5572SOL    HW217616   1.044   3.714   4.998
 5573SOL     OW17617   1.630   4.835   5.216
 5573SOL    HW117618   1.666   4.881   5.297
 5573SOL    HW217619   1.659   4.739   5.217
 5574SOL     OW17620   0.486   2.334   6.306
 5574SOL    HW117621   0.496   2.428   6.274
 5574SOL    HW217622   0.527   2.271   6.239
 5575SOL     OW17623   1.155   0.390   1.521
 5575SOL    HW117624   1.186   0.434   1.437
 5575SOL    HW217625   1.135   0.459   1.589
 5576SOL     OW17626   2.391   4.397   3.170
 5576SOL    HW117627   2.317   4.346   3.215
 5576SOL    HW217628   2.383   4.385   3.071
 5577SOL     OW17629   1.344   3.303   6.825
 5577SOL    HW117630   1.405   3.292   6.903
 5577SOL    HW217631   1.251   3.278   6.850
 5578SOL     OW17632   3.751   3.471   3.053
 5578SOL    HW117633   3.806   3.552   3.075
 5578SOL    HW217634   3.786   3.427   2.971
 5579SOL     OW17635   0.071   3.073   1.280
 5579SOL    HW117636   0.111   3.128   1.207
 5579SOL    HW217637   7.018   3.020   1.243
 5580SOL     OW17638   5.018   1.466   6.270
 5580SOL    HW117639   5.037   1.529   6.195
 5580SOL    HW217640   5.085   1.392   6.270
 5581SOL     OW17641   0.429   1.899   0.893
 5581SOL    HW117642   0.516   1.943   0.915
 5581SOL    HW217643   0.446   1.816   0.839
 5582SOL     OW17644   2.525   3.693   6.731
 5582SOL    HW117645   2.618   3.663   6.710
 5582SOL    HW217646   2.522   3.793   6.732
 5583SOL     OW17647   5.104   0.515   2.752
 5583SOL    HW117648   5.053   0.573   2.815
 5583SOL    HW217649   5.128   0.568   2.670
 5584SOL     OW17650   6.930   4.223   4.884
 5584SOL    HW117651   6.981   4.281   4.821
 5584SOL    HW217652   6.844   4.267   4.908
 5585SOL     OW17653   5.306   4.931   2.419
 5585SOL    HW117654   5.246   4.898   2.346
 5585SOL    HW217655   5.279   4.891   2.506
 5586SOL     OW17656   6.771   3.881   6.110
 5586SOL    HW117657   6.837   3.946   6.148
 5586SOL    HW217658   6.799   3.788   6.134
 5587SOL     OW17659   4.264   1.469   6.610
 5587SOL    HW117660   4.210   1.393   6.648
 5587SOL    HW217661   4.306   1.440   6.524
 5588SOL     OW17662   2.775   6.698   2.352
 5588SOL    HW117663   2.845   6.631   2.324
 5588SOL    HW217664   2.819   6.784   2.376
 5589SOL     OW17665   5.808   4.447   6.218
 5589SOL    HW117666   5.744   4.498   6.275
 5589SOL    HW217667   5.884   4.415   6.274
 5590SOL     OW17668   5.275   5.974   4.145
 5590SOL    HW117669   5.285   5.974   4.046
 5590SOL    HW217670   5.249   5.882   4.175
 5591SOL     OW17671   6.964   1.786   1.582
 5591SOL    HW117672   6.905   1.835   1.646
 5591SOL    HW217673   0.026   1.837   1.569
 5592SOL     OW17674   1.498   4.771   3.284
 5592SOL    HW117675   1.454   4.732   3.365
 5592SOL    HW217676   1.509   4.699   3.215
 5593SOL     OW17677   6.821   2.869   6.869
 5593SOL    HW117678   6.918   2.848   6.854
 5593SOL    HW217679   6.779   2.891   6.781
 5594SOL     OW17680   5.153   1.387   5.135
 5594SOL    HW117681   5.097   1.469   5.129
 5594SOL    HW217682   5.098   1.311   5.169
 5595SOL     OW17683   1.020   2.607   5.088
 5595SOL    HW117684   1.033   2.706   5.102
 5595SOL    HW217685   1.065   2.557   5.162
 5596SOL     OW17686   3.832   0.036   2.885
 5596SOL    HW117687   3.817   0.129   2.852
 5596SOL    HW217688   3.833   6.996   2.808
 5597SOL     OW17689   5.047   2.805   4.116
 5597SOL    HW117690   5.063   2.728   4.055
 5597SOL    HW217691   4.966   2.787   4.172
 5598SOL     OW17692   4.578   2.648   3.823
 5598SOL    HW117693   4.671   2.675   3.849
 5598SOL    HW217694   4.516   2.724   3.839
 5599SOL     OW17695   1.388   0.639   4.465
 5599SOL    HW117696   1.381   0.652   4.564
 5599SOL    HW217697   1.360   0.546   4.441
 5600SOL     OW17698   1.168   2.064   3.403
 5600SOL    HW117699   1.133   2.157   3.394
 5600SOL    HW217700   1.156   2.016   3.316
 5601SOL     OW17701   2.240   0.898   5.806
 5601SOL    HW117702   2.253   0.817   5.864
 5601SOL    HW217703   2.191   0.968   5.858
 5602SOL     OW17704   0.668   1.396   0.867
 5602SOL    HW117705   0.716   1.462   0.925
 5602SOL    HW217706   0.570   1.401   0.883
 5603SOL     OW17707   5.397   1.500   6.971
 5603SOL    HW117708   5.328   1.468   0.013
 5603SOL    HW217709   5.475   1.537   7.020
 5604SOL     OW17710   6.409   2.055   5.695
 5604SOL    HW117711   6.420   1.974   5.752
 5604SOL    HW217712   6.478   2.123   5.720
 5605SOL     OW17713   0.553   1.235   4.735
 5605SOL    HW117714   0.630   1.182   4.770
 5605SOL    HW217715   0.495   1.264   4.811
 5606SOL     OW17716   5.858   6.308   1.325
 5606SOL    HW117717   5.846   6.382   1.258
 5606SOL    HW217718   5.768   6.269   1.347
 5607SOL     OW17719   5.346   1.374   2.093
 5607SOL    HW117720   5.359   1.297   2.031
 5607SOL    HW217721   5.263   1.360   2.146
 5608SOL     OW17722   4.536   0.376   4.274
 5608SOL    HW117723   4.591   0.377   4.357
 5608SOL    HW217724   4.466   0.448   4.279
 5609SOL     OW17725   2.170   5.909   0.388
 5609SOL    HW117726   2.222   5.935   0.470
 5609SOL    HW217727   2.119   5.825   0.406
 5610SOL     OW17728   4.968   0.109   0.291
 5610SOL    HW117729   4.999   0.192   0.337
 5610SOL    HW217730   4.966   0.124   0.192
 5611SOL     OW17731   1.802   5.067   2.566
 5611SOL    HW117732   1.805   4.997   2.495
 5611SOL    HW217733   1.881   5.127   2.557
 5612SOL     OW17734   3.642   1.928   6.384
 5612SOL    HW117735   3.678   2.020   6.366
 5612SOL    HW217736   3.709   1.860   6.358
 5613SOL     OW17737   4.660   4.341   2.530
 5613SOL    HW117738   4.727   4.415   2.529
 5613SOL    HW217739   4.570   4.378   2.506
 5614SOL     OW17740   4.403   2.343   3.499
 5614SOL    HW117741   4.315   2.370   3.538
 5614SOL    HW217742   4.475   2.404   3.530
 5615SOL     OW17743   0.690   0.374   6.766
 5615SOL    HW117744   0.629   0.436   6.815
 5615SOL    HW217745   0.727   0.420   6.686
 5616SOL     OW17746   2.414   0.620   5.154
 5616SOL    HW117747   2.342   0.560   5.189
 5616SOL    HW217748   2.427   0.697   5.217
 5617SOL     OW17749   2.273   0.055   6.357
 5617SOL    HW117750   2.236   0.148   6.354
 5617SOL    HW217751   2.272   0.015   6.265
 5618SOL     OW17752   7.000   3.764   4.603
 5618SOL    HW117753   6.945   3.745   4.684
 5618SOL    HW217754   0.007   3.860   4.604
 5619SOL     OW17755   2.845   4.011   6.417
 5619SOL    HW117756   2.784   3.939   6.381
 5619SOL    HW217757   2.793   4.073   6.474
 5620SOL     OW17758   3.849   3.247   0.256
 5620SOL    HW117759   3.903   3.326   0.228
 5620SOL    HW217760   3.842   3.182   0.180
 5621SOL     OW17761   1.525   1.678   5.775
 5621SOL    HW117762   1.476   1.728   5.847
 5621SOL    HW217763   1.517   1.729   5.689
 5622SOL     OW17764   4.816   0.070   6.026
 5622SOL    HW117765   4.774   0.124   6.100
 5622SOL    HW217766   4.862   7.014   6.065
 5623SOL     OW17767   1.889   6.221   6.152
 5623SOL    HW117768   1.926   6.166   6.228
 5623SOL    HW217769   1.819   6.283   6.187
 5624SOL     OW17770   1.357   4.659   3.491
 5624SOL    HW117771   1.382   4.678   3.586
 5624SOL    HW217772   1.259   4.644   3.484
 5625SOL     OW17773   6.131   2.441   4.367
 5625SOL    HW117774   6.100   2.512   4.303
 5625SOL    HW217775   6.081   2.356   4.350
 5626SOL     OW17776   3.044   6.471   5.002
 5626SOL    HW117777   2.979   6.413   4.953
 5626SOL    HW217778   3.022   6.567   4.985
 5627SOL     OW17779   1.619   5.699   1.101
 5627SOL    HW117780   1.647   5.795   1.102
 5627SOL    HW217781   1.673   5.648   1.169
 5628SOL     OW17782   1.591   2.077   5.668
 5628SOL    HW117783   1.608   2.170   5.638
 5628SOL    HW217784   1.625   2.065   5.762
 5629SOL     OW17785   3.080   3.808   1.631
 5629SOL    HW117786   3.029   3.844   1.709
 5629SOL    HW217787   3.178   3.817   1.647
 5630SOL     OW17788   1.540   4.695   0.933
 5630SOL    HW117789   1.491   4.653   0.856
 5630SOL    HW217790   1.618   4.747   0.899
 5631SOL     OW17791   3.913   2.145   0.303
 5631SOL    HW117792   3.940   2.214   0.236
 5631SOL    HW217793   3.952   2.057   0.277
 5632SOL     OW17794   4.171   3.751   6.133
 5632SOL    HW117795   4.169   3.788   6.226
 5632SOL    HW217796   4.110   3.805   6.075
 5633SOL     OW17797   6.425   2.409   3.673
 5633SOL    HW117798   6.493   2.425   3.602
 5633SOL    HW217799   6.456   2.451   3.758
 5634SOL     OW17800   3.082   5.356   5.339
 5634SOL    HW117801   3.066   5.265   5.375
 5634SOL    HW217802   3.032   5.368   5.253
 5635SOL     OW17803   2.104   3.093   4.950
 5635SOL    HW117804   2.192   3.068   4.990
 5635SOL    HW217805   2.113   3.096   4.850
 5636SOL     OW17806   3.813   6.110   2.574
 5636SOL    HW117807   3.775   6.103   2.667
 5636SOL    HW217808   3.883   6.181   2.573
 5637SOL     OW17809   5.960   0.157   4.152
 5637SOL    HW117810   6.058   0.140   4.142
 5637SOL    HW217811   5.909   0.074   4.132
 5638SOL     OW17812   5.707   2.650   1.219
 5638SOL    HW117813   5.704   2.582   1.145
 5638SOL    HW217814   5.763   2.727   1.191
 5639SOL     OW17815   0.456   1.269   6.624
 5639SOL    HW117816   0.360   1.286   6.599
 5639SOL    HW217817   0.515   1.292   6.547
 5640SOL     OW17818   2.652   0.407   3.972
 5640SOL    HW117819   2.635   0.314   3.939
 5640SOL    HW217820   2.719   0.404   4.046
 5641SOL     OW17821   6.802   4.560   5.959
 5641SOL    HW117822   6.835   4.466   5.950
 5641SOL    HW217823   6.704   4.558   5.981
 5642SOL     OW17824   1.821   0.298   0.077
 5642SOL    HW117825   1.809   0.376   0.138
 5642SOL    HW217826   1.914   0.297   0.041
 5643SOL     OW17827   5.810   2.527   4.280
 5643SOL    HW117828   5.810   2.592   4.356
 5643SOL    HW217829   5.802   2.434   4.316
 5644SOL     OW17830   3.051   0.016   5.716
 5644SOL    HW117831   3.132   0.067   5.687
 5644SOL    HW217832   3.070   6.942   5.714
 5645SOL     OW17833   6.254   3.419   3.353
 5645SOL    HW117834   6.190   3.457   3.421
 5645SOL    HW217835   6.347   3.448   3.375
 5646SOL     OW17836   2.069   4.721   2.893
 5646SOL    HW117837   2.070   4.740   2.991
 5646SOL    HW217838   2.014   4.639   2.877
 5647SOL     OW17839   5.621   6.020   2.394
 5647SOL    HW117840   5.703   5.964   2.408
 5647SOL    HW217841   5.540   5.960   2.391
 5648SOL     OW17842   2.943   5.759   2.926
 5648SOL    HW117843   2.885   5.709   2.863
 5648SOL    HW217844   3.038   5.758   2.893
 5649SOL     OW17845   0.851   5.306   4.089
 5649SOL    HW117846   0.858   5.337   3.994
 5649SOL    HW217847   0.821   5.211   4.091
 5650SOL     OW17848   0.791   4.623   0.404
 5650SOL    HW117849   0.785   4.535   0.356
 5650SOL    HW217850   0.842   4.611   0.489
 5651SOL     OW17851   1.364   0.109   0.185
 5651SOL    HW117852   1.312   0.025   0.173
 5651SOL    HW217853   1.301   0.185   0.204
 5652SOL     OW17854   0.181   5.266   2.150
 5652SOL    HW117855   0.257   5.244   2.091
 5652SOL    HW217856   0.207   5.251   2.246
 5653SOL     OW17857   0.273   6.184   1.151
 5653SOL    HW117858   0.275   6.258   1.083
 5653SOL    HW217859   0.350   6.123   1.136
 5654SOL     OW17860   1.563   6.152   4.822
 5654SOL    HW117861   1.641   6.213   4.827
 5654SOL    HW217862   1.493   6.191   4.762
 5655SOL     OW17863   6.561   3.183   4.115
 5655SOL    HW117864   6.598   3.142   4.031
 5655SOL    HW217865   6.461   3.178   4.113
 5656SOL     OW17866   0.164   3.021   6.585
 5656SOL    HW117867   0.149   2.977   6.497
 5656SOL    HW217868   0.262   3.037   6.599
 5657SOL     OW17869   4.460   4.653   4.407
 5657SOL    HW117870   4.399   4.668   4.329
 5657SOL    HW217871   4.481   4.740   4.451
 5658SOL     OW17872   1.833   2.768   6.001
 5658SOL    HW117873   1.804   2.847   6.056
 5658SOL    HW217874   1.815   2.786   5.904
 5659SOL     OW17875   3.221   4.049   6.705
 5659SOL    HW117876   3.314   4.059   6.671
 5659SOL    HW217877   3.206   4.111   6.782
 5660SOL     OW17878   4.754   7.001   6.487
 5660SOL    HW117879   4.723   7.009   6.392
 5660SOL    HW217880   4.682   0.008   6.549
 5661SOL     OW17881   0.811   5.657   5.968
 5661SOL    HW117882   0.717   5.621   5.965
 5661SOL    HW217883   0.830   5.708   5.884
 5662SOL     OW17884   2.837   6.383   2.836
 5662SOL    HW117885   2.837   6.289   2.870
 5662SOL    HW217886   2.760   6.395   2.773
 5663SOL     OW17887   1.253   2.425   0.986
 5663SOL    HW117888   1.185   2.485   0.943
 5663SOL    HW217889   1.337   2.425   0.932
 5664SOL     OW17890   5.641   4.215   4.482
 5664SOL    HW117891   5.576   4.276   4.438
 5664SOL    HW217892   5.719   4.200   4.421
 5665SOL     OW17893   1.825   0.007   0.653
 5665SOL    HW117894   1.811   0.027   0.750
 5665SOL    HW217895   1.746   0.040   0.601
 5666SOL     OW17896   6.474   1.419   4.274
 5666SOL    HW117897   6.392   1.400   4.329
 5666SOL    HW217898   6.501   1.337   4.224
 5667SOL     OW17899   1.573   5.046   4.740
 5667SOL    HW117900   1.636   5.050   4.818
 5667SOL    HW217901   1.576   4.955   4.700
 5668SOL     OW17902   5.971   2.862   3.318
 5668SOL    HW117903   6.049   2.800   3.313
 5668SOL    HW217904   5.898   2.827   3.260
 5669SOL     OW17905   5.913   3.718   6.643
 5669SOL    HW117906   5.841   3.727   6.575
 5669SOL    HW217907   5.972   3.799   6.640
 5670SOL     OW17908   1.163   2.900   2.842
 5670SOL    HW117909   1.126   2.969   2.780
 5670SOL    HW217910   1.088   2.848   2.883
 5671SOL     OW17911   6.951   6.504   3.673
 5671SOL    HW117912   6.967   6.554   3.759
 5671SOL    HW217913   0.010   6.506   3.617
 5672SOL     OW17914   5.112   3.950   5.192
 5672SOL    HW117915   5.030   3.952   5.134
 5672SOL    HW217916   5.128   4.040   5.231
 5673SOL     OW17917   0.792   6.930   1.502
 5673SOL    HW117918   0.843   7.004   1.545
 5673SOL    HW217919   0.800   6.937   1.402
 5674SOL     OW17920   1.162   5.321   4.939
 5674SOL    HW117921   1.160   5.415   4.906
 5674SOL    HW217922   1.230   5.268   4.889
 5675SOL     OW17923   2.916   1.089   0.269
 5675SOL    HW117924   2.835   1.108   0.326
 5675SOL    HW217925   2.951   1.175   0.232
 5676SOL     OW17926   2.676   2.509   1.786
 5676SOL    HW117927   2.624   2.563   1.853
 5676SOL    HW217928   2.743   2.452   1.832
 5677SOL     OW17929   6.787   0.895   0.954
 5677SOL    HW117930   6.830   0.983   0.974
 5677SOL    HW217931   6.833   0.853   0.875
 5678SOL     OW17932   3.469   1.573   1.919
 5678SOL    HW117933   3.415   1.501   1.875
 5678SOL    HW217934   3.458   1.659   1.868
 5679SOL     OW17935   5.996   3.107   4.606
 5679SOL    HW117936   5.914   3.121   4.661
 5679SOL    HW217937   5.969   3.079   4.513
 5680SOL     OW17938   1.197   5.049   5.993
 5680SOL    HW117939   1.150   5.138   5.986
 5680SOL    HW217940   1.295   5.064   5.997
 5681SOL     OW17941   0.328   4.030   3.100
 5681SOL    HW117942   0.333   3.932   3.083
 5681SOL    HW217943   0.271   4.074   3.030
 5682SOL     OW17944   2.106   4.835   2.649
 5682SOL    HW117945   2.064   4.838   2.740
 5682SOL    HW217946   2.111   4.740   2.617
 5683SOL     OW17947   4.442   2.461   6.953
 5683SOL    HW117948   4.483   2.480   6.864
 5683SOL    HW217949   4.346   2.433   6.939
 5684SOL     OW17950   2.153   2.517   5.895
 5684SOL    HW117951   2.239   2.473   5.922
 5684SOL    HW217952   2.147   2.519   5.796
 5685SOL     OW17953   1.918   2.225   3.958
 5685SOL    HW117954   1.968   2.198   3.876
 5685SOL    HW217955   1.983   2.239   4.033
 5686SOL     OW17956   3.512   0.793   5.910
 5686SOL    HW117957   3.490   0.805   5.813
 5686SOL    HW217958   3.546   0.700   5.925
 5687SOL     OW17959   1.367   6.254   5.978
 5687SOL    HW117960   1.337   6.199   5.901
 5687SOL    HW217961   1.454   6.219   6.013
 5688SOL     OW17962   2.167   3.625   3.343
 5688SOL    HW117963   2.150   3.528   3.329
 5688SOL    HW217964   2.143   3.675   3.259
 5689SOL     OW17965   1.434   1.113   0.893
 5689SOL    HW117966   1.433   1.139   0.990
 5689SOL    HW217967   1.382   1.029   0.881
 5690SOL     OW17968   0.779   5.531   0.011
 5690SOL    HW117969   0.703   5.593   7.017
 5690SOL    HW217970   0.789   5.467   6.958
 5691SOL     OW17971   3.828   1.355   2.344
 5691SOL    HW117972   3.785   1.289   2.405
 5691SOL    HW217973   3.873   1.308   2.268
 5692SOL     OW17974   4.747   5.511   1.406
 5692SOL    HW117975   4.804   5.522   1.487
 5692SOL    HW217976   4.724   5.601   1.369
 5693SOL     OW17977   3.422   0.643   0.983
 5693SOL    HW117978   3.440   0.706   0.907
 5693SOL    HW217979   3.503   0.636   1.040
 5694SOL     OW17980   0.365   0.500   2.695
 5694SOL    HW117981   0.267   0.485   2.682
 5694SOL    HW217982   0.413   0.478   2.611
 5695SOL     OW17983   1.138   0.897   1.645
 5695SOL    HW117984   1.081   0.940   1.576
 5695SOL    HW217985   1.224   0.866   1.603
 5696SOL     OW17986   1.271   6.819   4.247
 5696SOL    HW117987   1.274   6.760   4.167
 5696SOL    HW217988   1.184   6.805   4.295
 5697SOL     OW17989   6.028   2.736   1.270
 5697SOL    HW117990   5.998   2.803   1.202
 5697SOL    HW217991   5.986   2.757   1.358
 5698SOL     OW17992   1.830   3.003   3.606
 5698SOL    HW117993   1.847   3.041   3.515
 5698SOL    HW217994   1.749   2.944   3.603
 5699SOL     OW17995   2.386   2.422   3.432
 5699SOL    HW117996   2.300   2.471   3.446
 5699SOL    HW217997   2.439   2.424   3.517
 5700SOL     OW17998   6.410   0.153   1.851
 5700SOL    HW117999   6.453   0.080   1.904
 5700SOL    HW218000   6.314   0.163   1.880
 5701SOL     OW18001   6.575   1.385   1.423
 5701SOL    HW118002   6.628   1.344   1.349
 5701SOL    HW218003   6.523   1.463   1.388
 5702SOL     OW18004   2.237   0.034   4.740
 5702SOL    HW118005   2.279   0.106   4.684
 5702SOL    HW218006   2.250   0.056   4.837
 5703SOL     OW18007   6.776   3.454   6.500
 5703SOL    HW118008   6.864   3.434   6.543
 5703SOL    HW218009   6.702   3.419   6.557
 5704SOL     OW18010   5.083   4.155   3.355
 5704SOL    HW118011   5.034   4.217   3.417
 5704SOL    HW218012   5.082   4.193   3.262
 5705SOL     OW18013   5.867   6.158   6.298
 5705SOL    HW118014   5.772   6.154   6.265
 5705SOL    HW218015   5.894   6.254   6.309
 5706SOL     OW18016   5.765   1.755   0.312
 5706SOL    HW118017   5.733   1.666   0.281
 5706SOL    HW218018   5.798   1.808   0.234
 5707SOL     OW18019   5.319   6.577   1.530
 5707SOL    HW118020   5.219   6.582   1.537
 5707SOL    HW218021   5.345   6.561   1.435
 5708SOL     OW18022   4.719   5.570   3.720
 5708SOL    HW118023   4.672   5.621   3.647
 5708SOL    HW218024   4.815   5.599   3.723
 5709SOL     OW18025   0.941   1.194   1.886
 5709SOL    HW118026   1.028   1.145   1.887
 5709SOL    HW218027   0.888   1.170   1.968
 5710SOL     OW18028   2.573   2.797   1.000
 5710SOL    HW118029   2.539   2.703   0.991
 5710SOL    HW218030   2.518   2.858   0.944
 5711SOL     OW18031   5.121   0.847   1.790
 5711SOL    HW118032   5.026   0.875   1.779
 5711SOL    HW218033   5.158   0.817   1.702
 5712SOL     OW18034   6.626   6.368   0.962
 5712SOL    HW118035   6.599   6.315   1.042
 5712SOL    HW218036   6.555   6.364   0.892
 5713SOL     OW18037   2.639   6.054   0.885
 5713SOL    HW118038   2.673   6.138   0.843
 5713SOL    HW218039   2.539   6.052   0.879
 5714SOL     OW18040   5.827   5.855   1.153
 5714SOL    HW118041   5.864   5.786   1.215
 5714SOL    HW218042   5.735   5.881   1.182
 5715SOL     OW18043   1.043   6.922   0.467
 5715SOL    HW118044   1.105   6.843   0.470
 5715SOL    HW218045   1.010   6.941   0.559
 5716SOL     OW18046   0.713   4.288   5.933
 5716SOL    HW118047   0.732   4.385   5.945
 5716SOL    HW218048   0.733   4.239   6.018
 5717SOL     OW18049   2.053   4.777   3.145
 5717SOL    HW118050   1.955   4.779   3.166
 5717SOL    HW218051   2.096   4.859   3.184
 5718SOL     OW18052   0.848   3.141   0.616
 5718SOL    HW118053   0.803   3.227   0.590
 5718SOL    HW218054   0.941   3.160   0.646
 5719SOL     OW18055   2.979   4.165   1.636
 5719SOL    HW118056   2.895   4.122   1.602
 5719SOL    HW218057   3.006   4.122   1.722
 5720SOL     OW18058   2.122   5.101   5.921
 5720SOL    HW118059   2.079   5.062   6.003
 5720SOL    HW218060   2.126   5.200   5.929
 5721SOL     OW18061   4.981   4.202   7.011
 5721SOL    HW118062   4.986   4.102   7.017
 5721SOL    HW218063   4.991   4.230   6.915
 5722SOL     OW18064   0.700   0.448   5.617
 5722SOL    HW118065   0.652   0.414   5.698
 5722SOL    HW218066   0.756   0.375   5.578
 5723SOL     OW18067   4.252   3.370   6.963
 5723SOL    HW118068   4.329   3.413   7.011
 5723SOL    HW218069   4.229   3.284   7.009
 5724SOL     OW18070   5.533   2.439   3.399
 5724SOL    HW118071   5.462   2.503   3.370
 5724SOL    HW218072   5.605   2.488   3.449
 5725SOL     OW18073   5.904   4.773   3.348
 5725SOL    HW118074   5.826   4.818   3.303
 5725SOL    HW218075   5.909   4.801   3.443
 5726SOL     OW18076   4.655   4.563   3.092
 5726SOL    HW118077   4.751   4.547   3.116
 5726SOL    HW218078   4.639   4.533   2.998
 5727SOL     OW18079   1.097   2.289   4.779
 5727SOL    HW118080   1.105   2.215   4.845
 5727SOL    HW218081   1.008   2.286   4.735
 5728SOL     OW18082   5.175   6.182   5.103
 5728SOL    HW118083   5.163   6.162   5.200
 5728SOL    HW218084   5.261   6.142   5.071
 5729SOL     OW18085   2.409   1.639   6.033
 5729SOL    HW118086   2.310   1.636   6.022
 5729SOL    HW218087   2.436   1.729   6.068
 5730SOL     OW18088   6.520   4.595   5.935
 5730SOL    HW118089   6.423   4.583   5.958
 5730SOL    HW218090   6.543   4.537   5.857
 5731SOL     OW18091   0.199   6.604   1.656
 5731SOL    HW118092   0.139   6.601   1.576
 5731SOL    HW218093   0.148   6.573   1.737
 5732SOL     OW18094   0.939   6.818   4.110
 5732SOL    HW118095   0.904   6.731   4.076
 5732SOL    HW218096   1.028   6.836   4.069
 5733SOL     OW18097   3.425   7.021   5.239
 5733SOL    HW118098   3.453   6.931   5.204
 5733SOL    HW218099   3.424   0.064   5.165
 5734SOL     OW18100   1.709   5.723   3.697
 5734SOL    HW118101   1.663   5.759   3.616
 5734SOL    HW218102   1.659   5.751   3.779
 5735SOL     OW18103   3.041   1.425   1.500
 5735SOL    HW118104   3.000   1.419   1.591
 5735SOL    HW218105   3.067   1.520   1.481
 5736SOL     OW18106   0.968   5.644   6.375
 5736SOL    HW118107   0.871   5.621   6.368
 5736SOL    HW218108   0.978   5.742   6.389
 5737SOL     OW18109   4.862   4.865   6.691
 5737SOL    HW118110   4.817   4.931   6.631
 5737SOL    HW218111   4.961   4.884   6.693
 5738SOL     OW18112   1.455   3.273   6.368
 5738SOL    HW118113   1.463   3.250   6.271
 5738SOL    HW218114   1.436   3.371   6.378
 5739SOL     OW18115   0.984   1.047   0.834
 5739SOL    HW118116   0.996   1.068   0.931
 5739SOL    HW218117   0.973   1.132   0.783
 5740SOL     OW18118   4.089   5.875   6.519
 5740SOL    HW118119   4.112   5.915   6.607
 5740SOL    HW218120   3.990   5.877   6.506
 5741SOL     OW18121   0.006   5.392   4.605
 5741SOL    HW118122   6.992   5.419   4.516
 5741SOL    HW218123   0.054   5.469   4.646
 5742SOL     OW18124   6.466   6.266   3.143
 5742SOL    HW118125   6.392   6.216   3.189
 5742SOL    HW218126   6.435   6.358   3.119
 5743SOL     OW18127   1.727   6.337   5.165
 5743SOL    HW118128   1.808   6.358   5.219
 5743SOL    HW218129   1.661   6.411   5.173
 5744SOL     OW18130   6.084   0.622   1.054
 5744SOL    HW118131   6.087   0.522   1.060
 5744SOL    HW218132   6.115   0.651   0.964
 5745SOL     OW18133   2.185   1.808   4.132
 5745SOL    HW118134   2.111   1.771   4.188
 5745SOL    HW218135   2.221   1.891   4.174
 5746SOL     OW18136   5.295   2.048   7.006
 5746SOL    HW118137   5.303   2.146   6.993
 5746SOL    HW218138   5.201   2.018   6.988
 5747SOL     OW18139   0.992   5.589   3.242
 5747SOL    HW118140   0.934   5.571   3.322
 5747SOL    HW218141   0.953   5.543   3.162
 5748SOL     OW18142   2.904   6.047   2.640
 5748SOL    HW118143   2.842   5.992   2.585
 5748SOL    HW218144   2.997   6.011   2.632
 5749SOL     OW18145   2.357   2.344   3.172
 5749SOL    HW118146   2.327   2.382   3.259
 5749SOL    HW218147   2.280   2.343   3.108
 5750SOL     OW18148   6.673   5.501   2.920
 5750SOL    HW118149   6.633   5.539   2.836
 5750SOL    HW218150   6.608   5.436   2.960
 5751SOL     OW18151   2.468   3.516   5.334
 5751SOL    HW118152   2.465   3.523   5.433
 5751SOL    HW218153   2.478   3.420   5.308
 5752SOL     OW18154   6.686   0.017   6.793
 5752SOL    HW118155   6.700   0.107   6.833
 5752SOL    HW218156   6.621   6.989   6.849
 5753SOL     OW18157   3.416   2.685   0.363
 5753SOL    HW118158   3.461   2.596   0.373
 5753SOL    HW218159   3.483   2.758   0.376
 5754SOL     OW18160   6.250   4.875   1.710
 5754SOL    HW118161   6.310   4.915   1.641
 5754SOL    HW218162   6.276   4.780   1.727
 5755SOL     OW18163   3.207   4.286   0.240
 5755SOL    HW118164   3.122   4.294   0.290
 5755SOL    HW218165   3.241   4.192   0.246
 5756SOL     OW18166   6.922   5.786   4.332
 5756SOL    HW118167   6.902   5.816   4.238
 5756SOL    HW218168   6.911   5.687   4.338
 5757SOL     OW18169   0.106   5.197   0.755
 5757SOL    HW118170   0.118   5.296   0.759
 5757SOL    HW218171   0.117   5.165   0.661
 5758SOL     OW18172   1.379   2.354   5.487
 5758SOL    HW118173   1.378   2.409   5.403
 5758SOL    HW218174   1.467   2.308   5.495
 5759SOL     OW18175   5.368   1.829   6.204
 5759SOL    HW118176   5.356   1.905   6.141
 5759SOL    HW218177   5.446   1.847   6.264
 5760SOL     OW18178   1.820   5.685   2.429
 5760SOL    HW118179   1.841   5.773   2.471
 5760SOL    HW218180   1.785   5.699   2.337
 5761SOL     OW18181   4.773   6.963   4.546
 5761SOL    HW118182   4.783   6.896   4.473
 5761SOL    HW218183   4.757   0.030   4.506
 5762SOL     OW18184   5.590   5.964   1.281
 5762SOL    HW118185   5.627   6.053   1.306
 5762SOL    HW218186   5.526   5.933   1.351
 5763SOL     OW18187   1.667   0.884   1.466
 5763SOL    HW118188   1.741   0.819   1.483
 5763SOL    HW218189   1.617   0.857   1.384
 5764SOL     OW18190   4.898   3.436   5.544
 5764SOL    HW118191   4.988   3.400   5.521
 5764SOL    HW218192   4.841   3.363   5.581
 5765SOL     OW18193   5.701   4.361   6.938
 5765SOL    HW118194   5.701   4.454   6.902
 5765SOL    HW218195   5.722   4.363   0.013
 5766SOL     OW18196   3.096   1.685   2.420
 5766SOL    HW118197   3.027   1.743   2.376
 5766SOL    HW218198   3.054   1.598   2.445
 5767SOL     OW18199   0.043   6.568   1.409
 5767SOL    HW118200   0.004   6.488   1.364
 5767SOL    HW218201   6.998   6.641   1.414
 5768SOL     OW18202   6.543   2.120   2.470
 5768SOL    HW118203   6.590   2.208   2.483
 5768SOL    HW218204   6.600   2.060   2.415
 5769SOL     OW18205   2.341   5.562   4.371
 5769SOL    HW118206   2.270   5.554   4.301
 5769SOL    HW218207   2.301   5.594   4.456
 5770SOL     OW18208   6.317   0.665   1.279
 5770SOL    HW118209   6.254   0.592   1.253
 5770SOL    HW218210   6.410   0.628   1.287
 5771SOL     OW18211   1.369   1.446   1.089
 5771SOL    HW118212   1.276   1.424   1.117
 5771SOL    HW218213   1.432   1.428   1.164
 5772SOL     OW18214   5.475   4.022   0.146
 5772SOL    HW118215   5.532   3.942   0.127
 5772SOL    HW218216   5.531   4.093   0.190
 5773SOL     OW18217   5.458   5.867   4.551
 5773SOL    HW118218   5.397   5.790   4.530
 5773SOL    HW218219   5.436   5.944   4.492
 5774SOL     OW18220   1.840   5.577   4.082
 5774SOL    HW118221   1.867   5.670   4.056
 5774SOL    HW218222   1.743   5.577   4.108
 5775SOL     OW18223   0.614   6.697   6.111
 5775SOL    HW118224   0.617   6.629   6.184
 5775SOL    HW218225   0.659   6.660   6.030
 5776SOL     OW18226   4.988   0.505   5.490
 5776SOL    HW118227   4.923   0.564   5.537
 5776SOL    HW218228   5.003   0.422   5.544
 5777SOL     OW18229   0.274   1.100   4.682
 5777SOL    HW118230   0.270   1.044   4.599
 5777SOL    HW218231   0.365   1.141   4.691
 5778SOL     OW18232   1.599   6.886   3.742
 5778SOL    HW118233   1.590   6.900   3.840
 5778SOL    HW218234   1.511   6.860   3.703
 5779SOL     OW18235   4.677   1.195   1.995
 5779SOL    HW118236   4.748   1.200   1.925
 5779SOL    HW218237   4.680   1.277   2.053
 5780SOL     OW18238   5.606   4.005   1.749
 5780SOL    HW118239   5.661   4.057   1.814
 5780SOL    HW218240   5.519   3.979   1.791
 5781SOL     OW18241   1.757   5.525   4.795
 5781SOL    HW118242   1.679   5.513   4.856
 5781SOL    HW218243   1.812   5.441   4.792
 5782SOL     OW18244   2.911   1.860   2.272
 5782SOL    HW118245   2.980   1.916   2.226
 5782SOL    HW218246   2.821   1.881   2.234
 5783SOL     OW18247   1.565   6.824   1.219
 5783SOL    HW118248   1.549   6.729   1.191
 5783SOL    HW218249   1.634   6.865   1.159
 5784SOL     OW18250   1.880   6.149   0.074
 5784SOL    HW118251   1.914   6.086   0.004
 5784SOL    HW218252   1.815   6.213   0.032
 5785SOL     OW18253   1.719   1.989   0.208
 5785SOL    HW118254   1.764   1.907   0.172
 5785SOL    HW218255   1.668   1.965   0.291
 5786SOL     OW18256   1.131   3.331   2.035
 5786SOL    HW118257   1.159   3.271   2.109
 5786SOL    HW218258   1.063   3.396   2.068
 5787SOL     OW18259   6.600   3.178   5.199
 5787SOL    HW118260   6.594   3.116   5.122
 5787SOL    HW218261   6.600   3.273   5.166
 5788SOL     OW18262   2.397   1.666   1.939
 5788SOL    HW118263   2.446   1.714   1.865
 5788SOL    HW218264   2.299   1.665   1.919
 5789SOL     OW18265   3.627   4.492   6.390
 5789SOL    HW118266   3.559   4.490   6.463
 5789SOL    HW218267   3.585   4.462   6.305
 5790SOL     OW18268   5.615   5.986   4.255
 5790SOL    HW118269   5.551   6.037   4.314
 5790SOL    HW218270   5.623   6.034   4.167
 5791SOL     OW18271   4.218   1.443   2.325
 5791SOL    HW118272   4.170   1.369   2.278
 5791SOL    HW218273   4.177   1.458   2.415
 5792SOL     OW18274   4.866   3.250   3.001
 5792SOL    HW118275   4.939   3.318   3.003
 5792SOL    HW218276   4.842   3.230   2.906
 5793SOL     OW18277   4.628   1.991   5.980
 5793SOL    HW118278   4.573   1.908   5.971
 5793SOL    HW218279   4.602   2.056   5.908
 5794SOL     OW18280   4.292   0.365   0.240
 5794SOL    HW118281   4.342   0.290   0.283
 5794SOL    HW218282   4.352   0.444   0.229
 5795SOL     OW18283   2.273   5.785   2.007
 5795SOL    HW118284   2.208   5.786   2.082
 5795SOL    HW218285   2.249   5.712   1.943
 5796SOL     OW18286   4.969   2.268   6.545
 5796SOL    HW118287   5.048   2.275   6.483
 5796SOL    HW218288   4.919   2.355   6.544
 5797SOL     OW18289   5.114   2.205   1.089
 5797SOL    HW118290   5.090   2.209   1.186
 5797SOL    HW218291   5.077   2.285   1.042
 5798SOL     OW18292   1.543   4.036   5.469
 5798SOL    HW118293   1.572   3.941   5.467
 5798SOL    HW218294   1.443   4.040   5.472
 5799SOL     OW18295   2.634   6.766   3.317
 5799SOL    HW118296   2.557   6.791   3.376
 5799SOL    HW218297   2.602   6.758   3.222
 5800SOL     OW18298   0.668   0.096   1.241
 5800SOL    HW118299   0.640   0.131   1.152
 5800SOL    HW218300   0.588   0.082   1.298
 5801SOL     OW18301   2.233   2.093   2.710
 5801SOL    HW118302   2.262   2.162   2.644
 5801SOL    HW218303   2.304   2.081   2.779
 5802SOL     OW18304   0.318   1.577   1.816
 5802SOL    HW118305   0.312   1.477   1.812
 5802SOL    HW218306   0.230   1.616   1.789
 5803SOL     OW18307   0.329   4.855   3.616
 5803SOL    HW118308   0.335   4.756   3.608
 5803SOL    HW218309   0.386   4.886   3.692
 5804SOL     OW18310   5.538   1.583   3.593
 5804SOL    HW118311   5.458   1.641   3.573
 5804SOL    HW218312   5.550   1.575   3.692
 5805SOL     OW18313   1.690   2.530   1.985
 5805SOL    HW118314   1.674   2.554   1.889
 5805SOL    HW218315   1.611   2.556   2.040
 5806SOL     OW18316   0.167   4.244   1.910
 5806SOL    HW118317   0.221   4.322   1.880
 5806SOL    HW218318   0.109   4.272   1.987
 5807SOL     OW18319   1.139   0.160   0.941
 5807SOL    HW118320   1.160   0.156   1.039
 5807SOL    HW218321   1.159   0.071   0.899
 5808SOL     OW18322   6.772   6.621   5.985
 5808SOL    HW118323   6.711   6.547   5.953
 5808SOL    HW218324   6.863   6.584   6.001
 5809SOL     OW18325   0.878   2.305   5.697
 5809SOL    HW118326   0.976   2.327   5.699
 5809SOL    HW218327   0.866   2.207   5.709
 5810SOL     OW18328   3.318   0.052   5.607
 5810SOL    HW118329   3.324   0.112   5.526
 5810SOL    HW218330   3.402   0.061   5.661
 5811SOL     OW18331   3.303   3.829   6.058
 5811SOL    HW118332   3.250   3.751   6.092
 5811SOL    HW218333   3.256   3.869   5.980
 5812SOL     OW18334   5.677   2.124   0.548
 5812SOL    HW118335   5.646   2.106   0.455
 5812SOL    HW218336   5.597   2.145   0.606
 5813SOL     OW18337   4.993   6.437   0.370
 5813SOL    HW118338   4.920   6.476   0.314
 5813SOL    HW218339   5.032   6.358   0.323
 5814SOL     OW18340   5.351   1.425   0.817
 5814SOL    HW118341   5.425   1.414   0.883
 5814SOL    HW218342   5.370   1.369   0.736
 5815SOL     OW18343   6.621   1.697   4.277
 5815SOL    HW118344   6.593   1.603   4.262
 5815SOL    HW218345   6.554   1.744   4.334
 5816SOL     OW18346   0.300   3.285   2.510
 5816SOL    HW118347   0.216   3.280   2.564
 5816SOL    HW218348   0.375   3.241   2.559
 5817SOL     OW18349   6.531   3.481   3.305
 5817SOL    HW118350   6.483   3.470   3.217
 5817SOL    HW218351   6.579   3.569   3.306
 5818SOL     OW18352   2.016   0.198   5.299
 5818SOL    HW118353   1.959   0.119   5.319
 5818SOL    HW218354   1.974   0.280   5.340
 5819SOL     OW18355   4.688   5.273   0.331
 5819SOL    HW118356   4.695   5.301   0.235
 5819SOL    HW218357   4.607   5.316   0.372
 5820SOL     OW18358   5.397   5.894   2.260
 5820SOL    HW118359   5.369   5.831   2.187
 5820SOL    HW218360   5.399   5.987   2.224
 5821SOL     OW18361   6.704   0.056   1.069
 5821SOL    HW118362   6.694   7.020   1.148
 5821SOL    HW218363   6.789   0.109   1.078
 5822SOL     OW18364   1.717   3.415   2.984
 5822SOL    HW118365   1.682   3.509   2.980
 5822SOL    HW218366   1.808   3.412   2.944
 5823SOL     OW18367   2.311   5.533   3.807
 5823SOL    HW118368   2.251   5.467   3.852
 5823SOL    HW218369   2.276   5.626   3.822
 5824SOL     OW18370   0.619   0.195   2.136
 5824SOL    HW118371   0.532   0.240   2.116
 5824SOL    HW218372   0.604   0.124   2.205
 5825SOL     OW18373   5.907   0.859   4.438
 5825SOL    HW118374   5.999   0.877   4.472
 5825SOL    HW218375   5.913   0.825   4.344
 5826SOL     OW18376   0.072   0.097   5.118
 5826SOL    HW118377   0.138   0.053   5.179
 5826SOL    HW218378   0.060   0.192   5.146
 5827SOL     OW18379   2.226   4.476   4.658
 5827SOL    HW118380   2.176   4.459   4.574
 5827SOL    HW218381   2.230   4.391   4.712
 5828SOL     OW18382   4.073   6.718   4.746
 5828SOL    HW118383   3.993   6.667   4.777
 5828SOL    HW218384   4.077   6.716   4.646
 5829SOL     OW18385   2.223   0.942   4.348
 5829SOL    HW118386   2.206   0.898   4.260
 5829SOL    HW218387   2.135   0.960   4.393
 5830SOL     OW18388   3.426   5.669   4.414
 5830SOL    HW118389   3.463   5.727   4.486
 5830SOL    HW218390   3.360   5.605   4.454
 5831SOL     OW18391   1.633   2.055   5.288
 5831SOL    HW118392   1.683   2.010   5.214
 5831SOL    HW218393   1.696   2.071   5.365
 5832SOL     OW18394   2.865   5.489   1.705
 5832SOL    HW118395   2.845   5.462   1.799
 5832SOL    HW218396   2.833   5.419   1.641
 5833SOL     OW18397   3.465   4.464   6.619
 5833SOL    HW118398   3.454   4.552   6.664
 5833SOL    HW218399   3.496   4.396   6.686
 5834SOL     OW18400   5.732   2.814   6.106
 5834SOL    HW118401   5.642   2.838   6.143
 5834SOL    HW218402   5.720   2.749   6.031
 5835SOL     OW18403   5.327   1.915   2.390
 5835SOL    HW118404   5.313   1.995   2.448
 5835SOL    HW218405   5.264   1.919   2.312
 5836SOL     OW18406   5.108   6.712   3.520
 5836SOL    HW118407   5.104   6.654   3.601
 5836SOL    HW218408   5.105   6.654   3.438
 5837SOL     OW18409   3.309   5.251   6.715
 5837SOL    HW118410   3.305   5.346   6.684
 5837SOL    HW218411   3.260   5.192   6.650
 5838SOL     OW18412   2.933   2.334   1.111
 5838SOL    HW118413   2.933   2.346   1.012
 5838SOL    HW218414   3.016   2.287   1.139
 5839SOL     OW18415   1.982   2.063   0.829
 5839SOL    HW118416   1.952   2.012   0.910
 5839SOL    HW218417   2.082   2.071   0.829
 5840SOL     OW18418   0.948   2.965   3.175
 5840SOL    HW118419   0.937   2.895   3.103
 5840SOL    HW218420   0.870   3.027   3.174
 5841SOL     OW18421   5.020   2.074   0.582
 5841SOL    HW118422   4.960   2.154   0.594
 5841SOL    HW218423   5.065   2.052   0.668
 5842SOL     OW18424   2.366   2.170   1.044
 5842SOL    HW118425   2.446   2.226   1.068
 5842SOL    HW218426   2.387   2.074   1.061
 5843SOL     OW18427   1.955   3.786   1.015
 5843SOL    HW118428   1.972   3.701   1.066
 5843SOL    HW218429   2.002   3.862   1.061
 5844SOL     OW18430   0.873   6.852   5.181
 5844SOL    HW118431   0.781   6.887   5.166
 5844SOL    HW218432   0.882   6.819   5.275
 5845SOL     OW18433   1.080   0.045   2.080
 5845SOL    HW118434   1.176   0.071   2.090
 5845SOL    HW218435   1.033   0.112   2.022
 5846SOL     OW18436   6.297   3.967   6.020
 5846SOL    HW118437   6.214   3.918   5.994
 5846SOL    HW218438   6.279   4.065   6.025
 5847SOL     OW18439   2.289   4.211   0.409
 5847SOL    HW118440   2.228   4.263   0.350
 5847SOL    HW218441   2.305   4.262   0.494
 5848SOL     OW18442   1.926   4.951   2.199
 5848SOL    HW118443   2.015   4.996   2.208
 5848SOL    HW218444   1.926   4.895   2.116
 5849SOL     OW18445   3.654   6.013   5.523
 5849SOL    HW118446   3.610   6.066   5.450
 5849SOL    HW218447   3.726   5.956   5.484
 5850SOL     OW18448   1.197   1.754   2.817
 5850SOL    HW118449   1.174   1.758   2.914
 5850SOL    HW218450   1.277   1.810   2.799
 5851SOL     OW18451   6.565   3.750   4.396
 5851SOL    HW118452   6.478   3.781   4.357
 5851SOL    HW218453   6.634   3.745   4.324
 5852SOL     OW18454   4.730   4.103   2.396
 5852SOL    HW118455   4.729   4.177   2.463
 5852SOL    HW218456   4.643   4.054   2.398
 5853SOL     OW18457   3.623   4.898   5.617
 5853SOL    HW118458   3.680   4.876   5.537
 5853SOL    HW218459   3.528   4.908   5.587
 5854SOL     OW18460   3.081   4.687   5.362
 5854SOL    HW118461   3.024   4.661   5.284
 5854SOL    HW218462   3.104   4.606   5.415
 5855SOL     OW18463   2.146   3.441   3.031
 5855SOL    HW118464   2.118   3.416   3.124
 5855SOL    HW218465   2.201   3.367   2.992
 5856SOL     OW18466   1.524   6.676   3.341
 5856SOL    HW118467   1.477   6.659   3.254
 5856SOL    HW218468   1.622   6.685   3.324
 5857SOL     OW18469   6.121   4.257   6.779
 5857SOL    HW118470   6.150   4.349   6.753
 5857SOL    HW218471   6.090   4.207   6.698
 5858SOL     OW18472   1.901   0.338   3.447
 5858SOL    HW118473   1.853   0.383   3.372
 5858SOL    HW218474   1.897   0.397   3.528
 5859SOL     OW18475   5.954   0.168   1.484
 5859SOL    HW118476   5.940   0.069   1.485
 5859SOL    HW218477   6.015   0.192   1.409
 5860SOL     OW18478   0.468   4.538   3.260
 5860SOL    HW118479   0.555   4.540   3.210
 5860SOL    HW218480   0.444   4.630   3.290
 5861SOL     OW18481   5.053   1.054   5.901
 5861SOL    HW118482   4.993   0.997   5.956
 5861SOL    HW218483   5.019   1.148   5.902
 5862SOL     OW18484   6.956   5.786   1.940
 5862SOL    HW118485   0.009   5.739   1.897
 5862SOL    HW218486   6.945   5.753   2.034
 5863SOL     OW18487   4.056   0.148   5.767
 5863SOL    HW118488   4.037   0.225   5.828
 5863SOL    HW218489   3.988   0.147   5.694
 5864SOL     OW18490   3.330   3.801   2.516
 5864SOL    HW118491   3.268   3.856   2.460
 5864SOL    HW218492   3.412   3.855   2.538
 5865SOL     OW18493   6.265   0.579   5.822
 5865SOL    HW118494   6.240   0.524   5.743
 5865SOL    HW218495   6.325   0.654   5.794
 5866SOL     OW18496   3.911   3.148   3.120
 5866SOL    HW118497   3.928   3.054   3.148
 5866SOL    HW218498   3.968   3.171   3.041
 5867SOL     OW18499   3.709   1.639   2.036
 5867SOL    HW118500   3.689   1.715   2.098
 5867SOL    HW218501   3.626   1.612   1.988
 5868SOL     OW18502   1.136   1.155   5.849
 5868SOL    HW118503   1.236   1.165   5.841
 5868SOL    HW218504   1.113   1.057   5.845
 5869SOL     OW18505   0.440   5.661   3.942
 5869SOL    HW118506   0.513   5.615   3.992
 5869SOL    HW218507   0.352   5.638   3.983
 5870SOL     OW18508   3.918   5.269   4.265
 5870SOL    HW118509   3.934   5.224   4.178
 5870SOL    HW218510   3.829   5.243   4.301
 5871SOL     OW18511   2.912   3.744   3.994
 5871SOL    HW118512   2.935   3.840   3.980
 5871SOL    HW218513   2.918   3.723   4.092
 5872SOL     OW18514   4.530   5.665   1.867
 5872SOL    HW118515   4.502   5.572   1.891
 5872SOL    HW218516   4.625   5.679   1.897
 5873SOL     OW18517   4.049   5.634   2.302
 5873SOL    HW118518   4.067   5.602   2.395
 5873SOL    HW218519   3.979   5.705   2.304
 5874SOL     OW18520   2.271   4.372   5.941
 5874SOL    HW118521   2.342   4.302   5.938
 5874SOL    HW218522   2.224   4.376   5.853
 5875SOL     OW18523   2.692   1.336   1.062
 5875SOL    HW118524   2.727   1.245   1.043
 5875SOL    HW218525   2.632   1.334   1.142
 5876SOL     OW18526   3.649   3.075   1.955
 5876SOL    HW118527   3.551   3.066   1.938
 5876SOL    HW218528   3.664   3.151   2.019
 5877SOL     OW18529   5.911   4.287   0.400
 5877SOL    HW118530   5.944   4.367   0.350
 5877SOL    HW218531   5.906   4.208   0.337
 5878SOL     OW18532   2.289   4.467   2.648
 5878SOL    HW118533   2.347   4.477   2.567
 5878SOL    HW218534   2.195   4.448   2.620
 5879SOL     OW18535   0.056   4.159   5.231
 5879SOL    HW118536   0.111   4.118   5.159
 5879SOL    HW218537   0.045   4.093   5.306
 5880SOL     OW18538   2.233   5.825   0.979
 5880SOL    HW118539   2.181   5.866   1.055
 5880SOL    HW218540   2.278   5.742   1.010
 5881SOL     OW18541   0.644   5.858   4.558
 5881SOL    HW118542   0.566   5.855   4.495
 5881SOL    HW218543   0.612   5.839   4.650
 5882SOL     OW18544   4.840   0.958   1.631
 5882SOL    HW118545   4.799   0.867   1.619
 5882SOL    HW218546   4.852   1.001   1.542
 5883SOL     OW18547   0.421   3.641   6.032
 5883SOL    HW118548   0.428   3.553   5.984
 5883SOL    HW218549   0.330   3.649   6.073
 5884SOL     OW18550   1.587   1.225   2.860
 5884SOL    HW118551   1.519   1.264   2.921
 5884SOL    HW218552   1.576   1.125   2.856
 5885SOL     OW18553   6.035   6.664   1.380
 5885SOL    HW118554   6.030   6.574   1.423
 5885SOL    HW218555   6.114   6.668   1.319
 5886SOL     OW18556   1.453   1.369   5.964
 5886SOL    HW118557   1.546   1.406   5.951
 5886SOL    HW218558   1.386   1.439   5.942
 5887SOL     OW18559   3.891   6.986   4.407
 5887SOL    HW118560   3.873   6.889   4.421
 5887SOL    HW218561   3.974   7.013   4.457
 5888SOL     OW18562   2.491   0.510   3.791
 5888SOL    HW118563   2.404   0.466   3.769
 5888SOL    HW218564   2.532   0.466   3.870
 5889SOL     OW18565   2.721   0.830   0.758
 5889SOL    HW118566   2.663   0.911   0.761
 5889SOL    HW218567   2.701   0.771   0.836
 5890SOL     OW18568   3.063   4.683   6.088
 5890SOL    HW118569   2.972   4.718   6.111
 5890SOL    HW218570   3.084   4.604   6.147
 5891SOL     OW18571   3.274   3.818   6.986
 5891SOL    HW118572   3.209   3.851   6.917
 5891SOL    HW218573   3.267   3.875   0.044
 5892SOL     OW18574   0.666   6.696   1.505
 5892SOL    HW118575   0.581   6.738   1.538
 5892SOL    HW218576   0.736   6.767   1.495
 5893SOL     OW18577   1.200   0.583   3.572
 5893SOL    HW118578   1.260   0.508   3.543
 5893SOL    HW218579   1.156   0.623   3.492
 5894SOL     OW18580   1.237   3.598   3.504
 5894SOL    HW118581   1.332   3.626   3.513
 5894SOL    HW218582   1.182   3.675   3.471
 5895SOL     OW18583   5.432   3.831   3.907
 5895SOL    HW118584   5.504   3.808   3.972
 5895SOL    HW218585   5.362   3.886   3.952
 5896SOL     OW18586   3.617   2.227   6.197
 5896SOL    HW118587   3.535   2.201   6.146
 5896SOL    HW218588   3.698   2.192   6.151
 5897SOL     OW18589   3.864   0.206   0.944
 5897SOL    HW118590   3.869   0.266   1.024
 5897SOL    HW218591   3.841   0.113   0.975
 5898SOL     OW18592   1.887   0.005   2.554
 5898SOL    HW118593   1.867   0.036   2.647
 5898SOL    HW218594   1.804   6.991   2.512
 5899SOL     OW18595   5.625   0.242   4.513
 5899SOL    HW118596   5.555   0.223   4.444
 5899SOL    HW218597   5.710   0.197   4.489
 5900SOL     OW18598   4.773   5.202   2.767
 5900SOL    HW118599   4.677   5.178   2.752
 5900SOL    HW218600   4.812   5.241   2.684
 5901SOL     OW18601   2.551   6.595   5.375
 5901SOL    HW118602   2.505   6.513   5.340
 5901SOL    HW218603   2.484   6.654   5.419
 5902SOL     OW18604   6.386   1.859   6.418
 5902SOL    HW118605   6.358   1.775   6.463
 5902SOL    HW218606   6.310   1.896   6.364
 5903SOL     OW18607   5.890   3.102   6.297
 5903SOL    HW118608   5.909   3.007   6.272
 5903SOL    HW218609   5.904   3.161   6.218
 5904SOL     OW18610   6.808   3.597   2.676
 5904SOL    HW118611   6.754   3.513   2.671
 5904SOL    HW218612   6.879   3.596   2.605
 5905SOL     OW18613   6.884   5.645   2.148
 5905SOL    HW118614   6.878   5.547   2.125
 5905SOL    HW218615   6.873   5.657   2.246
 5906SOL     OW18616   5.814   1.246   3.623
 5906SOL    HW118617   5.748   1.197   3.680
 5906SOL    HW218618   5.894   1.271   3.678
 5907SOL     OW18619   1.356   5.825   2.179
 5907SOL    HW118620   1.401   5.881   2.249
 5907SOL    HW218621   1.379   5.861   2.089
 5908SOL     OW18622   6.540   3.337   5.499
 5908SOL    HW118623   6.576   3.315   5.408
 5908SOL    HW218624   6.545   3.256   5.558
 5909SOL     OW18625   6.911   5.099   0.893
 5909SOL    HW118626   6.846   5.172   0.910
 5909SOL    HW218627   6.993   5.136   0.850
 5910SOL     OW18628   2.645   2.335   3.374
 5910SOL    HW118629   2.555   2.308   3.340
 5910SOL    HW218630   2.634   2.409   3.441
 5911SOL     OW18631   6.566   6.154   6.014
 5911SOL    HW118632   6.594   6.088   5.944
 5911SOL    HW218633   6.647   6.188   6.062
 5912SOL     OW18634   0.218   1.239   3.583
 5912SOL    HW118635   0.134   1.257   3.530
 5912SOL    HW218636   0.240   1.142   3.578
 5913SOL     OW18637   5.828   2.366   6.947
 5913SOL    HW118638   5.859   2.276   6.979
 5913SOL    HW218639   5.852   2.377   6.851
 5914SOL     OW18640   0.974   6.655   0.143
 5914SOL    HW118641   1.062   6.608   0.151
 5914SOL    HW218642   0.957   6.679   0.047
 5915SOL     OW18643   3.918   1.767   6.495
 5915SOL    HW118644   3.945   1.841   6.435
 5915SOL    HW218645   3.940   1.790   6.590
 5916SOL     OW18646   0.890   6.049   2.511
 5916SOL    HW118647   0.871   5.983   2.438
 5916SOL    HW218648   0.805   6.069   2.560
 5917SOL     OW18649   3.477   4.440   0.202
 5917SOL    HW118650   3.410   4.370   0.226
 5917SOL    HW218651   3.565   4.418   0.244
 5918SOL     OW18652   3.304   6.103   5.788
 5918SOL    HW118653   3.269   6.173   5.726
 5918SOL    HW218654   3.402   6.091   5.772
 5919SOL     OW18655   4.136   3.295   3.244
 5919SOL    HW118656   4.203   3.274   3.173
 5919SOL    HW218657   4.049   3.252   3.222
 5920SOL     OW18658   6.913   0.020   5.685
 5920SOL    HW118659   6.849   0.006   5.760
 5920SOL    HW218660   7.004   0.039   5.722
 5921SOL     OW18661   3.228   4.751   6.327
 5921SOL    HW118662   3.246   4.806   6.245
 5921SOL    HW218663   3.291   4.778   6.400
 5922SOL     OW18664   5.249   3.905   3.292
 5922SOL    HW118665   5.219   3.997   3.269
 5922SOL    HW218666   5.170   3.844   3.296
 5923SOL     OW18667   6.489   0.064   1.626
 5923SOL    HW118668   6.458   0.110   1.710
 5923SOL    HW218669   6.571   0.010   1.647
 5924SOL     OW18670   6.091   0.466   3.278
 5924SOL    HW118671   6.177   0.456   3.328
 5924SOL    HW218672   6.095   0.413   3.193
 5925SOL     OW18673   4.721   5.987   1.416
 5925SOL    HW118674   4.706   5.967   1.512
 5925SOL    HW218675   4.812   5.956   1.389
 5926SOL     OW18676   4.375   5.386   3.415
 5926SOL    HW118677   4.367   5.300   3.364
 5926SOL    HW218678   4.440   5.374   3.490
 5927SOL     OW18679   0.827   4.636   1.590
 5927SOL    HW118680   0.862   4.626   1.497
 5927SOL    HW218681   0.845   4.728   1.623
 5928SOL     OW18682   3.420   0.350   0.950
 5928SOL    HW118683   3.426   0.448   0.973
 5928SOL    HW218684   3.458   0.335   0.859
 5929SOL     OW18685   1.003   1.077   6.471
 5929SOL    HW118686   0.921   1.020   6.465
 5929SOL    HW218687   1.044   1.085   6.381
 5930SOL     OW18688   1.365   3.445   2.579
 5930SOL    HW118689   1.399   3.352   2.573
 5930SOL    HW218690   1.309   3.465   2.498
 5931SOL     OW18691   5.005   6.282   3.685
 5931SOL    HW118692   5.023   6.374   3.718
 5931SOL    HW218693   5.040   6.215   3.751
 5932SOL     OW18694   2.285   1.400   0.170
 5932SOL    HW118695   2.264   1.438   0.079
 5932SOL    HW218696   2.358   1.332   0.161
 5933SOL     OW18697   6.428   5.889   3.694
 5933SOL    HW118698   6.496   5.818   3.713
 5933SOL    HW218699   6.337   5.848   3.691
 5934SOL     OW18700   2.810   3.757   5.973
 5934SOL    HW118701   2.882   3.740   6.040
 5934SOL    HW218702   2.851   3.771   5.883
 5935SOL     OW18703   7.008   6.463   5.491
 5935SOL    HW118704   0.081   6.441   5.505
 5935SOL    HW218705   6.973   6.407   5.416
 5936SOL     OW18706   3.118   3.062   1.876
 5936SOL    HW118707   3.212   3.082   1.905
 5936SOL    HW218708   3.054   3.088   1.949
 5937SOL     OW18709   6.776   3.305   1.550
 5937SOL    HW118710   6.718   3.277   1.474
 5937SOL    HW218711   6.757   3.400   1.574
 5938SOL     OW18712   0.065   5.317   5.079
 5938SOL    HW118713   0.102   5.233   5.038
 5938SOL    HW218714   6.989   5.312   5.082
 5939SOL     OW18715   3.851   0.185   5.004
 5939SOL    HW118716   3.837   0.268   5.058
 5939SOL    HW218717   3.937   0.193   4.952
 5940SOL     OW18718   4.744   6.101   2.485
 5940SOL    HW118719   4.751   6.193   2.524
 5940SOL    HW218720   4.827   6.049   2.507
 5941SOL     OW18721   6.797   1.867   1.832
 5941SOL    HW118722   6.699   1.886   1.828
 5941SOL    HW218723   6.815   1.792   1.896
 5942SOL     OW18724   5.747   3.656   5.702
 5942SOL    HW118725   5.796   3.730   5.655
 5942SOL    HW218726   5.655   3.649   5.664
 5943SOL     OW18727   3.081   4.034   1.197
 5943SOL    HW118728   3.101   4.067   1.290
 5943SOL    HW218729   3.098   3.936   1.193
 5944SOL     OW18730   0.752   3.327   6.416
 5944SOL    HW118731   0.787   3.417   6.442
 5944SOL    HW218732   0.825   3.259   6.422
 5945SOL     OW18733   6.950   5.708   5.442
 5945SOL    HW118734   6.976   5.649   5.366
 5945SOL    HW218735   6.993   5.798   5.430
 5946SOL     OW18736   3.445   3.945   1.178
 5946SOL    HW118737   3.459   3.920   1.082
 5946SOL    HW218738   3.349   3.968   1.194
 5947SOL     OW18739   3.109   3.037   4.947
 5947SOL    HW118740   3.071   3.006   5.034
 5947SOL    HW218741   3.209   3.028   4.949
 5948SOL     OW18742   5.148   3.742   1.940
 5948SOL    HW118743   5.163   3.675   2.013
 5948SOL    HW218744   5.236   3.779   1.910
 5949SOL     OW18745   0.384   4.459   2.187
 5949SOL    HW118746   0.436   4.544   2.183
 5949SOL    HW218747   0.434   4.391   2.241
 5950SOL     OW18748   4.841   1.401   5.556
 5950SOL    HW118749   4.785   1.380   5.475
 5950SOL    HW218750   4.780   1.425   5.632
 5951SOL     OW18751   1.263   4.087   6.040
 5951SOL    HW118752   1.194   4.083   5.968
 5951SOL    HW218753   1.290   3.994   6.065
 5952SOL     OW18754   4.020   5.293   0.930
 5952SOL    HW118755   4.119   5.292   0.921
 5952SOL    HW218756   3.978   5.297   0.839
 5953SOL     OW18757   5.764   2.375   4.687
 5953SOL    HW118758   5.863   2.380   4.699
 5953SOL    HW218759   5.742   2.366   4.590
 5954SOL     OW18760   1.046   6.402   4.661
 5954SOL    HW118761   1.001   6.377   4.575
 5954SOL    HW218762   1.123   6.463   4.641
 5955SOL     OW18763   6.103   3.682   0.919
 5955SOL    HW118764   6.087   3.752   0.849
 5955SOL    HW218765   6.150   3.724   0.997
 5956SOL     OW18766   4.777   2.496   4.357
 5956SOL    HW118767   4.770   2.453   4.266
 5956SOL    HW218768   4.697   2.554   4.372
 5957SOL     OW18769   0.862   1.331   2.430
 5957SOL    HW118770   0.905   1.386   2.501
 5957SOL    HW218771   0.860   1.235   2.459
 5958SOL     OW18772   3.832   6.837   2.701
 5958SOL    HW118773   3.759   6.784   2.744
 5958SOL    HW218774   3.816   6.842   2.603
 5959SOL     OW18775   5.099   2.103   4.602
 5959SOL    HW118776   5.188   2.103   4.557
 5959SOL    HW218777   5.061   2.195   4.600
 5960SOL     OW18778   4.424   0.252   6.116
 5960SOL    HW118779   4.402   0.347   6.099
 5960SOL    HW218780   4.431   0.203   6.029
 5961SOL     OW18781   2.903   1.842   3.057
 5961SOL    HW118782   2.982   1.852   3.117
 5961SOL    HW218783   2.934   1.829   2.963
 5962SOL     OW18784   5.706   6.178   0.087
 5962SOL    HW118785   5.782   6.239   0.108
 5962SOL    HW218786   5.739   6.100   0.033
 5963SOL     OW18787   3.916   4.435   6.993
 5963SOL    HW118788   3.912   4.441   0.069
 5963SOL    HW218789   3.838   4.381   6.960
 5964SOL     OW18790   1.976   6.323   2.578
 5964SOL    HW118791   1.906   6.310   2.507
 5964SOL    HW218792   1.981   6.241   2.635
 5965SOL     OW18793   1.716   6.592   0.020
 5965SOL    HW118794   1.756   6.682   0.039
 5965SOL    HW218795   1.790   6.527   0.001
 5966SOL     OW18796   1.985   0.842   5.245
 5966SOL    HW118797   2.065   0.860   5.188
 5966SOL    HW218798   1.953   0.928   5.285
 5967SOL     OW18799   2.313   1.436   4.288
 5967SOL    HW118800   2.390   1.374   4.300
 5967SOL    HW218801   2.341   1.514   4.231
 5968SOL     OW18802   5.518   2.256   0.991
 5968SOL    HW118803   5.578   2.186   0.951
 5968SOL    HW218804   5.424   2.241   0.961
 5969SOL     OW18805   5.282   0.542   6.964
 5969SOL    HW118806   5.215   0.490   7.016
 5969SOL    HW218807   5.267   0.527   6.866
 5970SOL     OW18808   7.004   3.124   0.427
 5970SOL    HW118809   7.017   3.172   0.513
 5970SOL    HW218810   0.045   3.047   0.421
 5971SOL     OW18811   7.021   6.911   3.515
 5971SOL    HW118812   0.061   6.907   3.592
 5971SOL    HW218813   6.936   6.864   3.539
 5972SOL     OW18814   5.117   5.055   1.012
 5972SOL    HW118815   5.045   5.124   1.018
 5972SOL    HW218816   5.158   5.040   1.102
 5973SOL     OW18817   1.844   2.729   3.002
 5973SOL    HW118818   1.770   2.796   3.004
 5973SOL    HW218819   1.870   2.705   3.096
 5974SOL     OW18820   4.870   1.879   5.974
 5974SOL    HW118821   4.787   1.934   5.984
 5974SOL    HW218822   4.902   1.850   6.064
 5975SOL     OW18823   5.653   5.299   0.403
 5975SOL    HW118824   5.711   5.226   0.439
 5975SOL    HW218825   5.617   5.272   0.313
 5976SOL     OW18826   2.904   3.451   5.837
 5976SOL    HW118827   2.985   3.459   5.780
 5976SOL    HW218828   2.930   3.425   5.930
 5977SOL     OW18829   0.158   5.065   0.042
 5977SOL    HW118830   0.227   5.138   0.042
 5977SOL    HW218831   0.108   5.066   0.128
 5978SOL     OW18832   3.228   4.937   0.100
 5978SOL    HW118833   3.178   5.009   0.147
 5978SOL    HW218834   3.247   4.966   0.006
 5979SOL     OW18835   6.103   0.460   1.416
 5979SOL    HW118836   6.181   0.465   1.479
 5979SOL    HW218837   6.128   0.405   1.337
 5980SOL     OW18838   3.665   2.896   1.587
 5980SOL    HW118839   3.633   2.875   1.679
 5980SOL    HW218840   3.745   2.839   1.566
 5981SOL     OW18841   3.014   2.437   0.289
 5981SOL    HW118842   2.989   2.474   0.199
 5981SOL    HW218843   3.033   2.513   0.352
 5982SOL     OW18844   6.244   2.415   1.960
 5982SOL    HW118845   6.292   2.395   2.045
 5982SOL    HW218846   6.154   2.373   1.962
 5983SOL     OW18847   0.020   0.786   3.999
 5983SOL    HW118848   6.988   0.861   4.036
 5983SOL    HW218849   0.070   0.742   4.074
 5984SOL     OW18850   5.991   6.116   3.238
 5984SOL    HW118851   5.916   6.081   3.295
 5984SOL    HW218852   5.976   6.091   3.143
 5985SOL     OW18853   6.035   2.490   2.791
 5985SOL    HW118854   5.981   2.464   2.872
 5985SOL    HW218855   5.974   2.501   2.713
 5986SOL     OW18856   4.045   3.644   5.709
 5986SOL    HW118857   4.134   3.678   5.739
 5986SOL    HW218858   4.044   3.635   5.609
 5987SOL     OW18859   6.566   0.643   5.218
 5987SOL    HW118860   6.608   0.730   5.243
 5987SOL    HW218861   6.475   0.636   5.258
 5988SOL     OW18862   1.996   2.338   0.027
 5988SOL    HW118863   1.928   2.405   7.020
 5988SOL    HW218864   1.951   2.251   0.047
 5989SOL     OW18865   0.397   6.288   6.674
 5989SOL    HW118866   0.464   6.347   6.629
 5989SOL    HW218867   0.398   6.305   6.772
 5990SOL     OW18868   3.876   4.977   1.433
 5990SOL    HW118869   3.807   4.982   1.505
 5990SOL    HW218870   3.847   4.911   1.364
 5991SOL     OW18871   5.054   6.616   0.838
 5991SOL    HW118872   5.127   6.676   0.806
 5991SOL    HW218873   5.053   6.532   0.784
 5992SOL     OW18874   3.378   0.399   1.833
 5992SOL    HW118875   3.397   0.497   1.827
 5992SOL    HW218876   3.455   0.353   1.877
 5993SOL     OW18877   5.957   2.119   0.050
 5993SOL    HW118878   6.055   2.105   0.038
 5993SOL    HW218879   5.932   2.102   0.145
 5994SOL     OW18880   0.339   2.789   0.286
 5994SOL    HW118881   0.335   2.813   0.189
 5994SOL    HW218882   0.428   2.749   0.307
 5995SOL     OW18883   5.142   3.464   1.540
 5995SOL    HW118884   5.071   3.463   1.470
 5995SOL    HW218885   5.156   3.371   1.575
 5996SOL     OW18886   2.856   5.634   0.911
 5996SOL    HW118887   2.846   5.662   1.007
 5996SOL    HW218888   2.802   5.552   0.895
 5997SOL     OW18889   6.945   0.040   3.293
 5997SOL    HW118890   6.854   0.079   3.309
 5997SOL    HW218891   6.975   7.014   3.374
 5998SOL     OW18892   6.658   0.525   1.104
 5998SOL    HW118893   6.650   0.435   1.062
 5998SOL    HW218894   6.698   0.589   1.038
 5999SOL     OW18895   4.612   2.940   1.503
 5999SOL    HW118896   4.537   2.884   1.469
 5999SOL    HW218897   4.582   2.988   1.586
 6000SOL     OW18898   6.578   5.172   0.046
 6000SOL    HW118899   6.641   5.118   7.014
 6000SOL    HW218900   6.627   5.210   0.124
 6001SOL     OW18901   5.690   6.437   5.255
 6001SOL    HW118902   5.755   6.398   5.320
 6001SOL    HW218903   5.697   6.390   5.167
 6002SOL     OW18904   6.031   6.267   4.871
 6002SOL    HW118905   5.997   6.182   4.830
 6002SOL    HW218906   6.004   6.271   4.967
 6003SOL     OW18907   0.044   2.924   3.901
 6003SOL    HW118908   0.011   2.860   3.832
 6003SOL    HW218909   7.009   3.005   3.904
 6004SOL     OW18910   5.641   2.821   3.717
 6004SOL    HW118911   5.627   2.894   3.650
 6004SOL    HW218912   5.660   2.735   3.669
 6005SOL     OW18913   3.791   5.161   5.921
 6005SOL    HW118914   3.731   5.088   5.887
 6005SOL    HW218915   3.749   5.250   5.904
 6006SOL     OW18916   3.617   5.631   5.793
 6006SOL    HW118917   3.531   5.677   5.814
 6006SOL    HW218918   3.638   5.642   5.696
 6007SOL     OW18919   1.538   5.165   5.548
 6007SOL    HW118920   1.476   5.178   5.626
 6007SOL    HW218921   1.632   5.174   5.580
 6008SOL     OW18922   2.728   4.795   5.785
 6008SOL    HW118923   2.717   4.752   5.875
 6008SOL    HW218924   2.817   4.840   5.781
 6009SOL     OW18925   4.173   5.051   3.408
 6009SOL    HW118926   4.267   5.016   3.399
 6009SOL    HW218927   4.157   5.121   3.339
 6010SOL     OW18928   0.323   5.402   4.996
 6010SOL    HW118929   0.227   5.373   4.994
 6010SOL    HW218930   0.381   5.323   4.977
 6011SOL     OW18931   6.482   1.825   2.235
 6011SOL    HW118932   6.449   1.743   2.187
 6011SOL    HW218933   6.579   1.815   2.257
 6012SOL     OW18934   0.328   0.276   5.649
 6012SOL    HW118935   0.384   0.193   5.651
 6012SOL    HW218936   0.239   0.257   5.690
 6013SOL     OW18937   5.632   1.286   2.232
 6013SOL    HW118938   5.587   1.204   2.269
 6013SOL    HW218939   5.707   1.313   2.292
 6014SOL     OW18940   3.838   2.983   3.738
 6014SOL    HW118941   3.936   2.975   3.755
 6014SOL    HW218942   3.797   3.040   3.810
 6015SOL     OW18943   6.464   1.740   4.632
 6015SOL    HW118944   6.487   1.779   4.721
 6015SOL    HW218945   6.389   1.675   4.643
 6016SOL     OW18946   5.449   1.872   4.634
 6016SOL    HW118947   5.453   1.803   4.561
 6016SOL    HW218948   5.365   1.859   4.687
 6017SOL     OW18949   0.262   2.953   5.517
 6017SOL    HW118950   0.357   2.923   5.518
 6017SOL    HW218951   0.208   2.896   5.580
 6018SOL     OW18952   3.644   1.588   6.220
 6018SOL    HW118953   3.627   1.554   6.313
 6018SOL    HW218954   3.719   1.536   6.179
 6019SOL     OW18955   6.777   3.853   6.562
 6019SOL    HW118956   6.702   3.827   6.501
 6019SOL    HW218957   6.779   3.952   6.571
 6020SOL     OW18958   1.050   4.193   0.415
 6020SOL    HW118959   0.969   4.184   0.473
 6020SOL    HW218960   1.022   4.226   0.325
 6021SOL     OW18961   4.028   0.545   3.073
 6021SOL    HW118962   4.090   0.587   3.007
 6021SOL    HW218963   4.081   0.492   3.140
 6022SOL     OW18964   6.853   1.691   2.034
 6022SOL    HW118965   6.885   1.609   2.080
 6022SOL    HW218966   6.811   1.753   2.101
 6023SOL     OW18967   4.589   0.505   1.265
 6023SOL    HW118968   4.636   0.551   1.190
 6023SOL    HW218969   4.497   0.480   1.237
 6024SOL     OW18970   0.818   5.349   0.206
 6024SOL    HW118971   0.819   5.379   0.111
 6024SOL    HW218972   0.726   5.319   0.231
 6025SOL     OW18973   2.431   1.172   4.335
 6025SOL    HW118974   2.341   1.137   4.306
 6025SOL    HW218975   2.437   1.170   4.434
 6026SOL     OW18976   6.602   4.357   4.266
 6026SOL    HW118977   6.551   4.421   4.209
 6026SOL    HW218978   6.577   4.371   4.362
 6027SOL     OW18979   6.158   3.274   6.252
 6027SOL    HW118980   6.116   3.318   6.331
 6027SOL    HW218981   6.107   3.298   6.169
 6028SOL     OW18982   5.461   4.713   6.243
 6028SOL    HW118983   5.524   4.761   6.183
 6028SOL    HW218984   5.408   4.646   6.191
 6029SOL     OW18985   2.394   0.880   3.126
 6029SOL    HW118986   2.469   0.849   3.183
 6029SOL    HW218987   2.426   0.896   3.033
 6030SOL     OW18988   5.212   3.785   5.014
 6030SOL    HW118989   5.185   3.840   5.093
 6030SOL    HW218990   5.139   3.722   4.990
 6031SOL     OW18991   0.399   5.723   5.491
 6031SOL    HW118992   0.457   5.647   5.463
 6031SOL    HW218993   0.312   5.688   5.525
 6032SOL     OW18994   3.254   5.502   3.508
 6032SOL    HW118995   3.181   5.437   3.530
 6032SOL    HW218996   3.214   5.594   3.497
 6033SOL     OW18997   1.840   1.777   2.907
 6033SOL    HW118998   1.921   1.721   2.926
 6033SOL    HW218999   1.829   1.788   2.808
 6034SOL     OW19000   1.352   0.460   0.108
 6034SOL    HW119001   1.265   0.422   0.139
 6034SOL    HW219002   1.417   0.462   0.184
 6035SOL     OW19003   1.805   0.846   3.033
 6035SOL    HW119004   1.835   0.904   3.109
 6035SOL    HW219005   1.881   0.788   3.004
 6036SOL     OW19006   6.100   3.061   0.460
 6036SOL    HW119007   6.182   3.108   0.429
 6036SOL    HW219008   6.125   2.985   0.521
 6037SOL     OW19009   4.293   2.416   1.100
 6037SOL    HW119010   4.207   2.366   1.090
 6037SOL    HW219011   4.366   2.352   1.125
 6038SOL     OW19012   0.513   2.138   5.961
 6038SOL    HW119013   0.457   2.062   5.995
 6038SOL    HW219014   0.608   2.107   5.949
 6039SOL     OW19015   2.938   3.663   3.716
 6039SOL    HW119016   2.990   3.747   3.728
 6039SOL    HW219017   2.879   3.649   3.796
 6040SOL     OW19018   1.029   1.710   6.773
 6040SOL    HW119019   1.054   1.806   6.782
 6040SOL    HW219020   1.111   1.653   6.783
 6041SOL     OW19021   3.098   2.902   6.214
 6041SOL    HW119022   3.045   2.915   6.298
 6041SOL    HW219023   3.194   2.922   6.233
 6042SOL     OW19024   2.882   5.721   3.220
 6042SOL    HW119025   2.880   5.727   3.120
 6042SOL    HW219026   2.943   5.646   3.248
 6043SOL     OW19027   1.699   0.554   3.949
 6043SOL    HW119028   1.794   0.544   3.919
 6043SOL    HW219029   1.640   0.496   3.893
 6044SOL     OW19030   1.328   1.950   1.771
 6044SOL    HW119031   1.360   1.991   1.856
 6044SOL    HW219032   1.269   2.014   1.723
 6045SOL     OW19033   4.890   2.624   3.554
 6045SOL    HW119034   4.969   2.684   3.564
 6045SOL    HW219035   4.808   2.679   3.539
 6046SOL     OW19036   3.395   3.237   2.250
 6046SOL    HW119037   3.380   3.191   2.338
 6046SOL    HW219038   3.316   3.297   2.231
 6047SOL     OW19039   5.958   1.668   0.717
 6047SOL    HW119040   5.944   1.597   0.648
 6047SOL    HW219041   5.925   1.756   0.681
 6048SOL     OW19042   5.471   6.324   4.961
 6048SOL    HW119043   5.571   6.331   4.962
 6048SOL    HW219044   5.443   6.231   4.983
 6049SOL     OW19045   4.470   4.675   5.291
 6049SOL    HW119046   4.545   4.617   5.259
 6049SOL    HW219047   4.421   4.628   5.365
 6050SOL     OW19048   3.643   5.443   1.584
 6050SOL    HW119049   3.549   5.462   1.611
 6050SOL    HW219050   3.705   5.507   1.631
 6051SOL     OW19051   1.411   0.897   3.041
 6051SOL    HW119052   1.401   0.903   2.941
 6051SOL    HW219053   1.419   0.990   3.079
 6052SOL     OW19054   5.561   0.155   0.422
 6052SOL    HW119055   5.514   0.242   0.408
 6052SOL    HW219056   5.573   0.109   0.334
 6053SOL     OW19057   4.490   2.559   5.958
 6053SOL    HW119058   4.479   2.628   6.029
 6053SOL    HW219059   4.529   2.601   5.876
 6054SOL     OW19060   4.034   4.616   0.921
 6054SOL    HW119061   4.103   4.573   0.863
 6054SOL    HW219062   3.973   4.672   0.865
 6055SOL     OW19063   3.303   4.626   0.378
 6055SOL    HW119064   3.380   4.626   0.314
 6055SOL    HW219065   3.338   4.629   0.472
 6056SOL     OW19066   6.010   4.318   5.144
 6056SOL    HW119067   6.047   4.238   5.096
 6056SOL    HW219068   6.004   4.395   5.081
 6057SOL     OW19069   4.950   0.498   3.112
 6057SOL    HW119070   4.963   0.555   3.030
 6057SOL    HW219071   4.979   0.549   3.193
 6058SOL     OW19072   5.889   2.378   6.612
 6058SOL    HW119073   5.790   2.384   6.604
 6058SOL    HW219074   5.921   2.295   6.565
 6059SOL     OW19075   4.919   4.297   6.191
 6059SOL    HW119076   4.944   4.374   6.249
 6059SOL    HW219077   5.002   4.255   6.153
 6060SOL     OW19078   2.877   3.150   0.176
 6060SOL    HW119079   2.972   3.171   0.196
 6060SOL    HW219080   2.847   3.075   0.235
 6061SOL     OW19081   4.046   5.051   0.550
 6061SOL    HW119082   4.052   5.143   0.589
 6061SOL    HW219083   4.023   5.057   0.453
 6062SOL     OW19084   2.290   2.770   0.898
 6062SOL    HW119085   2.198   2.764   0.860
 6062SOL    HW219086   2.342   2.688   0.872
 6063SOL     OW19087   3.677   4.868   5.889
 6063SOL    HW119088   3.752   4.802   5.889
 6063SOL    HW219089   3.654   4.892   5.795
 6064SOL     OW19090   6.908   6.573   0.792
 6064SOL    HW119091   6.946   6.655   0.834
 6064SOL    HW219092   6.887   6.505   0.862
 6065SOL     OW19093   1.323   5.522   2.314
 6065SOL    HW119094   1.303   5.436   2.361
 6065SOL    HW219095   1.266   5.595   2.352
 6066SOL     OW19096   5.183   0.252   3.601
 6066SOL    HW119097   5.178   0.153   3.587
 6066SOL    HW219098   5.140   0.276   3.688
 6067SOL     OW19099   5.800   0.603   5.739
 6067SOL    HW119100   5.803   0.646   5.830
 6067SOL    HW219101   5.830   0.508   5.746
 6068SOL     OW19102   4.677   1.435   5.857
 6068SOL    HW119103   4.642   1.528   5.851
 6068SOL    HW219104   4.602   1.372   5.876
 6069SOL     OW19105   6.953   3.321   6.093
 6069SOL    HW119106   0.019   3.338   6.133
 6069SOL    HW219107   6.938   3.383   6.016
 6070SOL     OW19108   3.226   1.323   0.914
 6070SOL    HW119109   3.288   1.376   0.972
 6070SOL    HW219110   3.171   1.386   0.859
 6071SOL     OW19111   5.405   6.927   5.147
 6071SOL    HW119112   5.353   7.005   5.112
 6071SOL    HW219113   5.487   6.960   5.193
 6072SOL     OW19114   0.131   2.771   0.707
 6072SOL    HW119115   0.119   2.697   0.641
 6072SOL    HW219116   0.110   2.738   0.799
 6073SOL     OW19117   4.678   2.317   0.885
 6073SOL    HW119118   4.689   2.405   0.930
 6073SOL    HW219119   4.606   2.323   0.816
 6074SOL     OW19120   1.116   5.794   2.278
 6074SOL    HW119121   1.206   5.788   2.233
 6074SOL    HW219122   1.130   5.806   2.377
 6075SOL     OW19123   4.939   6.799   6.441
 6075SOL    HW119124   4.882   6.881   6.452
 6075SOL    HW219125   4.889   6.732   6.386
 6076SOL     OW19126   2.333   4.984   4.062
 6076SOL    HW119127   2.284   4.930   4.131
 6076SOL    HW219128   2.346   4.929   3.980
 6077SOL     OW19129   5.861   6.928   1.704
 6077SOL    HW119130   5.906   6.923   1.615
 6077SOL    HW219131   5.770   6.887   1.699
 6078SOL     OW19132   4.436   3.482   0.101
 6078SOL    HW119133   4.393   3.493   0.190
 6078SOL    HW219134   4.528   3.446   0.113
 6079SOL     OW19135   3.699   4.285   6.189
 6079SOL    HW119136   3.726   4.343   6.266
 6079SOL    HW219137   3.640   4.211   6.222
 6080SOL     OW19138   1.026   4.271   0.159
 6080SOL    HW119139   1.049   4.177   0.135
 6080SOL    HW219140   1.019   4.326   0.076
 6081SOL     OW19141   1.258   3.612   4.644
 6081SOL    HW119142   1.342   3.596   4.695
 6081SOL    HW219143   1.263   3.703   4.602
 6082SOL     OW19144   4.053   0.778   1.191
 6082SOL    HW119145   4.072   0.874   1.173
 6082SOL    HW219146   4.021   0.734   1.107
 6083SOL     OW19147   4.923   6.347   6.297
 6083SOL    HW119148   4.946   6.252   6.320
 6083SOL    HW219149   5.006   6.396   6.272
 6084SOL     OW19150   0.407   7.007   2.541
 6084SOL    HW119151   0.460   6.965   2.614
 6084SOL    HW219152   0.338   6.943   2.508
 6085SOL     OW19153   0.005   5.953   0.318
 6085SOL    HW119154   0.052   5.957   0.230
 6085SOL    HW219155   0.072   5.951   0.392
 6086SOL     OW19156   3.930   3.451   6.660
 6086SOL    HW119157   3.845   3.501   6.650
 6086SOL    HW219158   3.950   3.439   6.758
 6087SOL     OW19159   5.230   7.006   0.522
 6087SOL    HW119160   5.227   0.009   0.425
 6087SOL    HW219161   5.284   6.922   0.531
 6088SOL     OW19162   5.314   0.144   3.885
 6088SOL    HW119163   5.241   0.207   3.911
 6088SOL    HW219164   5.279   0.050   3.888
 6089SOL     OW19165   5.969   2.879   3.006
 6089SOL    HW119166   5.911   2.806   3.042
 6089SOL    HW219167   6.001   2.854   2.915
 6090SOL     OW19168   3.581   6.216   4.309
 6090SOL    HW119169   3.484   6.232   4.326
 6090SOL    HW219170   3.618   6.290   4.253
 6091SOL     OW19171   2.237   1.442   1.758
 6091SOL    HW119172   2.328   1.426   1.796
 6091SOL    HW219173   2.185   1.357   1.758
 6092SOL     OW19174   4.311   6.290   1.935
 6092SOL    HW119175   4.286   6.325   1.845
 6092SOL    HW219176   4.314   6.190   1.932
 6093SOL     OW19177   1.947   1.624   2.253
 6093SOL    HW119178   2.014   1.633   2.327
 6093SOL    HW219179   1.979   1.676   2.174
 6094SOL     OW19180   0.353   6.790   4.675
 6094SOL    HW119181   0.312   6.703   4.648
 6094SOL    HW219182   0.363   6.849   4.594
 6095SOL     OW19183   4.261   6.058   0.018
 6095SOL    HW119184   4.247   6.045   6.943
 6095SOL    HW219185   4.194   6.003   0.068
 6096SOL     OW19186   6.083   6.350   2.095
 6096SOL    HW119187   6.143   6.292   2.150
 6096SOL    HW219188   5.991   6.349   2.133
 6097SOL     OW19189   1.911   5.904   2.540
 6097SOL    HW119190   1.843   5.975   2.558
 6097SOL    HW219191   1.976   5.900   2.615
 6098SOL     OW19192   6.900   1.186   4.725
 6098SOL    HW119193   6.984   1.140   4.754
 6098SOL    HW219194   6.821   1.132   4.754
 6099SOL     OW19195   4.841   6.181   5.985
 6099SOL    HW119196   4.906   6.238   6.035
 6099SOL    HW219197   4.853   6.085   6.013
 6100SOL     OW19198   6.934   5.923   3.716
 6100SOL    HW119199   6.915   6.019   3.692
 6100SOL    HW219200   6.849   5.870   3.710
 6101SOL     OW19201   6.277   2.700   1.091
 6101SOL    HW119202   6.260   2.644   1.010
 6101SOL    HW219203   6.194   2.750   1.115
 6102SOL     OW19204   4.327   6.451   2.152
 6102SOL    HW119205   4.352   6.384   2.221
 6102SOL    HW219206   4.298   6.404   2.069
 6103SOL     OW19207   6.975   1.478   1.237
 6103SOL    HW119208   7.006   1.457   1.145
 6103SOL    HW219209   6.940   1.572   1.240
 6104SOL     OW19210   6.241   1.387   4.382
 6104SOL    HW119211   6.185   1.468   4.364
 6104SOL    HW219212   6.182   1.306   4.383
 6105SOL     OW19213   2.750   5.727   5.662
 6105SOL    HW119214   2.797   5.669   5.729
 6105SOL    HW219215   2.710   5.670   5.591
 6106SOL     OW19216   0.221   4.368   6.895
 6106SOL    HW119217   0.134   4.385   6.942
 6106SOL    HW219218   0.270   4.454   6.883
 6107SOL     OW19219   4.583   4.868   4.551
 6107SOL    HW119220   4.649   4.842   4.621
 6107SOL    HW219221   4.500   4.902   4.596
 6108SOL     OW19222   1.561   1.556   1.779
 6108SOL    HW119223   1.591   1.609   1.700
 6108SOL    HW219224   1.602   1.593   1.862
 6109SOL     OW19225   5.663   6.491   3.011
 6109SOL    HW119226   5.653   6.449   2.921
 6109SOL    HW219227   5.674   6.419   3.080
 6110SOL     OW19228   1.375   1.972   5.277
 6110SOL    HW119229   1.469   2.005   5.280
 6110SOL    HW219230   1.371   1.888   5.223
 6111SOL     OW19231   1.548   4.133   1.682
 6111SOL    HW119232   1.503   4.113   1.768
 6111SOL    HW219233   1.491   4.103   1.606
 6112SOL     OW19234   4.313   0.095   2.681
 6112SOL    HW119235   4.325   0.180   2.631
 6112SOL    HW219236   4.376   0.026   2.646
 6113SOL     OW19237   2.614   5.445   7.004
 6113SOL    HW119238   2.629   5.540   0.007
 6113SOL    HW219239   2.659   5.385   0.046
 6114SOL     OW19240   5.174   1.446   0.507
 6114SOL    HW119241   5.111   1.423   0.433
 6114SOL    HW219242   5.229   1.366   0.529
 6115SOL     OW19243   0.977   1.013   5.538
 6115SOL    HW119244   0.885   1.050   5.547
 6115SOL    HW219245   1.025   1.061   5.465
 6116SOL     OW19246   4.156   1.993   4.875
 6116SOL    HW119247   4.181   1.929   4.948
 6116SOL    HW219248   4.089   1.950   4.814
 6117SOL     OW19249   1.313   2.298   2.782
 6117SOL    HW119250   1.241   2.256   2.836
 6117SOL    HW219251   1.354   2.229   2.722
 6118SOL     OW19252   5.960   0.837   0.002
 6118SOL    HW119253   6.019   0.916   7.013
 6118SOL    HW219254   5.979   0.794   0.090
 6119SOL     OW19255   0.123   2.084   0.641
 6119SOL    HW119256   0.205   2.053   0.592
 6119SOL    HW219257   0.043   2.077   0.582
 6120SOL     OW19258   2.127   6.983   5.595
 6120SOL    HW119259   2.091   6.896   5.561
 6120SOL    HW219260   2.057   0.004   5.652
 6121SOL     OW19261   1.401   2.949   4.916
 6121SOL    HW119262   1.461   2.937   4.994
 6121SOL    HW219263   1.365   2.860   4.887
 6122SOL     OW19264   5.141   6.089   5.382
 6122SOL    HW119265   5.122   6.110   5.478
 6122SOL    HW219266   5.074   6.023   5.349
 6123SOL     OW19267   6.164   1.149   5.096
 6123SOL    HW119268   6.151   1.053   5.118
 6123SOL    HW219269   6.206   1.158   5.005
 6124SOL     OW19270   2.310   0.299   4.613
 6124SOL    HW119271   2.352   0.339   4.531
 6124SOL    HW219272   2.221   0.341   4.628
 6125SOL     OW19273   2.387   3.085   6.823
 6125SOL    HW119274   2.336   3.154   6.772
 6125SOL    HW219275   2.325   3.035   6.883
 6126SOL     OW19276   6.946   2.938   4.938
 6126SOL    HW119277   6.902   2.874   5.000
 6126SOL    HW219278   6.901   2.934   4.848
 6127SOL     OW19279   3.983   1.625   1.535
 6127SOL    HW119280   3.953   1.548   1.591
 6127SOL    HW219281   3.969   1.710   1.585
 6128SOL     OW19282   5.861   6.016   0.950
 6128SOL    HW119283   5.835   5.953   1.023
 6128SOL    HW219284   5.961   6.029   0.952
 6129SOL     OW19285   1.753   4.381   2.854
 6129SOL    HW119286   1.762   4.463   2.799
 6129SOL    HW219287   1.658   4.371   2.884
 6130SOL     OW19288   5.145   3.229   1.239
 6130SOL    HW119289   5.080   3.165   1.197
 6130SOL    HW219290   5.130   3.320   1.202
 6131SOL     OW19291   0.112   2.145   2.626
 6131SOL    HW119292   0.167   2.140   2.543
 6131SOL    HW219293   0.153   2.088   2.697
 6132SOL     OW19294   2.954   1.954   6.847
 6132SOL    HW119295   2.861   1.979   6.820
 6132SOL    HW219296   3.006   1.928   6.766
 6133SOL     OW19297   1.656   2.251   3.728
 6133SOL    HW119298   1.731   2.247   3.662
 6133SOL    HW219299   1.691   2.229   3.819
 6134SOL     OW19300   5.262   6.169   6.122
 6134SOL    HW119301   5.341   6.228   6.106
 6134SOL    HW219302   5.266   6.091   6.061
 6135SOL     OW19303   5.768   0.310   6.624
 6135SOL    HW119304   5.725   0.257   6.697
 6135SOL    HW219305   5.855   0.347   6.657
 6136SOL     OW19306   0.694   2.793   2.354
 6136SOL    HW119307   0.665   2.703   2.387
 6136SOL    HW219308   0.775   2.783   2.296
 6137SOL     OW19309   0.253   4.815   3.120
 6137SOL    HW119310   0.295   4.725   3.107
 6137SOL    HW219311   0.325   4.884   3.127
 6138SOL     OW19312   3.010   0.407   1.900
 6138SOL    HW119313   3.084   0.379   1.961
 6138SOL    HW219314   3.041   0.401   1.805
 6139SOL     OW19315   1.520   6.890   5.825
 6139SOL    HW119316   1.575   6.807   5.831
 6139SOL    HW219317   1.489   6.903   5.731
 6140SOL     OW19318   1.866   6.906   3.037
 6140SOL    HW119319   1.866   6.993   2.989
 6140SOL    HW219320   1.960   6.875   3.050
 6141SOL     OW19321   0.198   0.608   5.492
 6141SOL    HW119322   0.112   0.643   5.529
 6141SOL    HW219323   0.191   0.510   5.476
 6142SOL     OW19324   0.476   1.099   0.903
 6142SOL    HW119325   0.499   1.023   0.842
 6142SOL    HW219326   0.534   1.177   0.880
 6143SOL     OW19327   6.039   3.599   6.239
 6143SOL    HW119328   6.066   3.644   6.325
 6143SOL    HW219329   6.108   3.617   6.169
 6144SOL     OW19330   4.896   4.482   2.894
 6144SOL    HW119331   4.797   4.477   2.881
 6144SOL    HW219332   4.919   4.460   2.989
 6145SOL     OW19333   4.880   3.390   4.654
 6145SOL    HW119334   4.838   3.306   4.688
 6145SOL    HW219335   4.980   3.381   4.655
 6146SOL     OW19336   4.165   0.651   4.635
 6146SOL    HW119337   4.142   0.589   4.710
 6146SOL    HW219338   4.248   0.618   4.589
 6147SOL     OW19339   2.276   2.756   4.157
 6147SOL    HW119340   2.347   2.749   4.226
 6147SOL    HW219341   2.192   2.714   4.191
 6148SOL     OW19342   3.680   5.277   0.009
 6148SOL    HW119343   3.644   5.266   6.941
 6148SOL    HW219344   3.748   5.351   0.010
 6149SOL     OW19345   2.718   0.016   1.719
 6149SOL    HW119346   2.753   0.092   1.773
 6149SOL    HW219347   2.784   6.964   1.721
 6150SOL     OW19348   5.603   3.599   6.380
 6150SOL    HW119349   5.665   3.672   6.350
 6150SOL    HW219350   5.657   3.524   6.419
 6151SOL     OW19351   5.045   4.153   4.392
 6151SOL    HW119352   5.122   4.106   4.437
 6151SOL    HW219353   4.963   4.143   4.448
 6152SOL     OW19354   0.589   4.851   3.765
 6152SOL    HW119355   0.615   4.926   3.705
 6152SOL    HW219356   0.658   4.779   3.760
 6153SOL     OW19357   4.827   5.345   0.766
 6153SOL    HW119358   4.868   5.312   0.851
 6153SOL    HW219359   4.737   5.304   0.755
 6154SOL     OW19360   5.513   3.049   2.806
 6154SOL    HW119361   5.416   3.026   2.808
 6154SOL    HW219362   5.559   2.995   2.735
 6155SOL     OW19363   2.289   1.194   3.028
 6155SOL    HW119364   2.334   1.112   2.994
 6155SOL    HW219365   2.330   1.221   3.116
 6156SOL     OW19366   5.498   4.034   1.359
 6156SOL    HW119367   5.532   3.970   1.429
 6156SOL    HW219368   5.523   3.999   1.268
 6157SOL     OW19369   0.756   2.196   2.964
 6157SOL    HW119370   0.852   2.206   2.935
 6157SOL    HW219371   0.753   2.180   3.063
 6158SOL     OW19372   2.396   2.708   5.463
 6158SOL    HW119373   2.484   2.664   5.444
 6158SOL    HW219374   2.411   2.806   5.481
 6159SOL     OW19375   5.959   1.826   0.110
 6159SOL    HW119376   5.902   1.763   0.057
 6159SOL    HW219377   6.049   1.835   0.066
 6160SOL     OW19378   0.349   6.964   6.735
 6160SOL    HW119379   0.287   6.923   6.802
 6160SOL    HW219380   0.296   6.993   6.655
 6161SOL     OW19381   5.283   2.229   6.456
 6161SOL    HW119382   5.218   2.291   6.411
 6161SOL    HW219383   5.365   2.280   6.482
 6162SOL     OW19384   6.638   6.255   2.474
 6162SOL    HW119385   6.606   6.162   2.457
 6162SOL    HW219386   6.563   6.309   2.512
 6163SOL     OW19387   6.345   6.678   2.790
 6163SOL    HW119388   6.300   6.605   2.739
 6163SOL    HW219389   6.330   6.665   2.888
 6164SOL     OW19390   4.058   3.509   4.219
 6164SOL    HW119391   4.072   3.420   4.261
 6164SOL    HW219392   4.019   3.572   4.286
 6165SOL     OW19393   4.236   2.495   0.651
 6165SOL    HW119394   4.260   2.508   0.555
 6165SOL    HW219395   4.146   2.535   0.669
 6166SOL     OW19396   0.564   2.180   6.922
 6166SOL    HW119397   0.556   2.135   6.833
 6166SOL    HW219398   0.495   2.143   6.984
 6167SOL     OW19399   1.492   4.129   3.745
 6167SOL    HW119400   1.585   4.126   3.707
 6167SOL    HW219401   1.497   4.126   3.845
 6168SOL     OW19402   0.144   3.249   4.209
 6168SOL    HW119403   0.050   3.225   4.184
 6168SOL    HW219404   0.151   3.256   4.308
 6169SOL     OW19405   0.619   6.893   6.788
 6169SOL    HW119406   0.652   6.988   6.780
 6169SOL    HW219407   0.520   6.893   6.803
 6170SOL     OW19408   3.790   4.284   0.428
 6170SOL    HW119409   3.859   4.221   0.463
 6170SOL    HW219410   3.834   4.359   0.378
 6171SOL     OW19411   1.259   4.627   2.247
 6171SOL    HW119412   1.315   4.561   2.196
 6171SOL    HW219413   1.269   4.717   2.205
 6172SOL     OW19414   1.080   0.177   2.458
 6172SOL    HW119415   0.991   0.133   2.473
 6172SOL    HW219416   1.067   0.261   2.405
 6173SOL     OW19417   1.069   4.615   3.569
 6173SOL    HW119418   1.072   4.572   3.659
 6173SOL    HW219419   0.987   4.585   3.520
 6174SOL     OW19420   5.556   4.978   2.879
 6174SOL    HW119421   5.494   4.984   2.957
 6174SOL    HW219422   5.618   4.901   2.890
 6175SOL     OW19423   5.313   6.276   2.844
 6175SOL    HW119424   5.230   6.325   2.868
 6175SOL    HW219425   5.294   6.210   2.770
 6176SOL     OW19426   5.571   3.175   6.360
 6176SOL    HW119427   5.532   3.235   6.431
 6176SOL    HW219428   5.652   3.219   6.322
 6177SOL     OW19429   5.156   2.013   2.205
 6177SOL    HW119430   5.136   2.008   2.107
 6177SOL    HW219431   5.075   2.045   2.254
 6178SOL     OW19432   4.699   4.480   0.689
 6178SOL    HW119433   4.627   4.448   0.750
 6178SOL    HW219434   4.757   4.547   0.736
 6179SOL     OW19435   0.575   3.084   4.998
 6179SOL    HW119436   0.618   3.054   4.913
 6179SOL    HW219437   0.645   3.096   5.069
 6180SOL     OW19438   3.699   6.743   0.813
 6180SOL    HW119439   3.724   6.677   0.742
 6180SOL    HW219440   3.780   6.766   0.867
 6181SOL     OW19441   5.212   6.507   6.881
 6181SOL    HW119442   5.191   6.566   6.959
 6181SOL    HW219443   5.259   6.425   6.912
 6182SOL     OW19444   5.405   5.582   5.425
 6182SOL    HW119445   5.357   5.651   5.479
 6182SOL    HW219446   5.483   5.547   5.478
 6183SOL     OW19447   2.641   0.082   2.801
 6183SOL    HW119448   2.679   0.168   2.768
 6183SOL    HW219449   2.600   0.096   2.891
 6184SOL     OW19450   1.453   0.304   6.621
 6184SOL    HW119451   1.547   0.278   6.599
 6184SOL    HW219452   1.453   0.387   6.677
 6185SOL     OW19453   6.954   3.887   6.814
 6185SOL    HW119454   6.896   3.882   6.733
 6185SOL    HW219455   6.956   3.980   6.848
 6186SOL     OW19456   5.764   0.311   3.743
 6186SOL    HW119457   5.714   0.338   3.661
 6186SOL    HW219458   5.834   0.380   3.763
 6187SOL     OW19459   5.067   4.808   4.067
 6187SOL    HW119460   5.103   4.715   4.071
 6187SOL    HW219461   4.975   4.811   4.106
 6188SOL     OW19462   2.917   6.015   1.893
 6188SOL    HW119463   2.839   6.068   1.927
 6188SOL    HW219464   2.905   5.997   1.796
 6189SOL     OW19465   5.028   5.261   3.155
 6189SOL    HW119466   4.997   5.250   3.250
 6189SOL    HW219467   4.970   5.206   3.095
 6190SOL     OW19468   4.874   2.787   6.360
 6190SOL    HW119469   4.788   2.759   6.318
 6190SOL    HW219470   4.888   2.885   6.345
 6191SOL     OW19471   5.360   2.015   0.305
 6191SOL    HW119472   5.264   2.035   0.325
 6191SOL    HW219473   5.386   2.059   0.219
 6192SOL     OW19474   2.822   3.783   0.623
 6192SOL    HW119475   2.864   3.846   0.688
 6192SOL    HW219476   2.860   3.691   0.637
 6193SOL     OW19477   5.606   0.044   2.571
 6193SOL    HW119478   5.632   0.141   2.573
 6193SOL    HW219479   5.630   0.002   2.659
 6194SOL     OW19480   2.241   0.972   1.044
 6194SOL    HW119481   2.218   0.874   1.047
 6194SOL    HW219482   2.159   1.025   1.024
 6195SOL     OW19483   4.155   5.694   6.204
 6195SOL    HW119484   4.060   5.705   6.174
 6195SOL    HW219485   4.171   5.599   6.230
 6196SOL     OW19486   0.908   2.283   5.989
 6196SOL    HW119487   0.897   2.319   5.896
 6196SOL    HW219488   1.005   2.273   6.010
 6197SOL     OW19489   2.656   4.400   0.935
 6197SOL    HW119490   2.666   4.301   0.920
 6197SOL    HW219491   2.726   4.448   0.882
 6198SOL     OW19492   3.483   5.289   3.108
 6198SOL    HW119493   3.432   5.364   3.150
 6198SOL    HW219494   3.581   5.303   3.124
 6199SOL     OW19495   1.155   0.437   0.877
 6199SOL    HW119496   1.140   0.451   0.779
 6199SOL    HW219497   1.149   0.340   0.899
 6200SOL     OW19498   2.781   1.479   6.649
 6200SOL    HW119499   2.725   1.401   6.677
 6200SOL    HW219500   2.734   1.564   6.673
 6201SOL     OW19501   2.076   3.760   5.684
 6201SOL    HW119502   2.113   3.842   5.639
 6201SOL    HW219503   1.996   3.785   5.739
 6202SOL     OW19504   3.713   1.737   1.378
 6202SOL    HW119505   3.686   1.701   1.467
 6202SOL    HW219506   3.787   1.803   1.391
 6203SOL     OW19507   5.038   0.874   4.207
 6203SOL    HW119508   5.135   0.851   4.207
 6203SOL    HW219509   5.020   0.942   4.279
 6204SOL     OW19510   1.117   5.585   5.246
 6204SOL    HW119511   1.192   5.539   5.294
 6204SOL    HW219512   1.066   5.518   5.192
 6205SOL     OW19513   5.432   5.311   6.764
 6205SOL    HW119514   5.493   5.386   6.740
 6205SOL    HW219515   5.340   5.331   6.730
 6206SOL     OW19516   6.790   0.825   1.706
 6206SOL    HW119517   6.871   0.767   1.698
 6206SOL    HW219518   6.716   0.787   1.651
 6207SOL     OW19519   1.278   4.563   5.190
 6207SOL    HW119520   1.288   4.479   5.242
 6207SOL    HW219521   1.230   4.631   5.246
 6208SOL     OW19522   6.693   0.415   5.801
 6208SOL    HW119523   6.614   0.354   5.815
 6208SOL    HW219524   6.710   0.424   5.703
 6209SOL     OW19525   4.892   6.227   0.160
 6209SOL    HW119526   4.825   6.193   0.226
 6209SOL    HW219527   4.982   6.189   0.181
 6210SOL     OW19528   5.246   3.520   2.852
 6210SOL    HW119529   5.282   3.610   2.876
 6210SOL    HW219530   5.317   3.466   2.806
 6211SOL     OW19531   2.430   0.417   6.200
 6211SOL    HW119532   2.480   0.330   6.198
 6211SOL    HW219533   2.417   0.450   6.107
 6212SOL     OW19534   6.661   6.274   3.503
 6212SOL    HW119535   6.698   6.226   3.423
 6212SOL    HW219536   6.578   6.228   3.535
 6213SOL     OW19537   5.973   0.502   6.668
 6213SOL    HW119538   5.981   0.587   6.616
 6213SOL    HW219539   6.001   0.519   6.763
 6214SOL     OW19540   6.138   5.230   2.553
 6214SOL    HW119541   6.042   5.206   2.559
 6214SOL    HW219542   6.152   5.323   2.589
 6215SOL     OW19543   2.933   2.769   0.667
 6215SOL    HW119544   2.834   2.774   0.655
 6215SOL    HW219545   2.956   2.781   0.764
 6216SOL     OW19546   6.010   1.769   1.752
 6216SOL    HW119547   6.051   1.768   1.661
 6216SOL    HW219548   5.984   1.676   1.778
 6217SOL     OW19549   4.849   2.759   1.590
 6217SOL    HW119550   4.873   2.812   1.671
 6217SOL    HW219551   4.913   2.779   1.516
 6218SOL     OW19552   2.568   4.706   4.444
 6218SOL    HW119553   2.584   4.794   4.488
 6218SOL    HW219554   2.571   4.633   4.513
 6219SOL     OW19555   1.428   2.128   4.955
 6219SOL    HW119556   1.442   2.201   5.022
 6219SOL    HW219557   1.498   2.133   4.885
 6220SOL     OW19558   1.751   4.588   6.166
 6220SOL    HW119559   1.653   4.579   6.150
 6220SOL    HW219560   1.796   4.619   6.082
 6221SOL     OW19561   4.485   5.310   4.578
 6221SOL    HW119562   4.388   5.313   4.599
 6221SOL    HW219563   4.499   5.275   4.485
 6222SOL     OW19564   6.953   0.014   1.585
 6222SOL    HW119565   6.935   7.002   1.493
 6222SOL    HW219566   6.869   0.010   1.639
 6223SOL     OW19567   6.049   4.308   4.507
 6223SOL    HW119568   6.038   4.230   4.445
 6223SOL    HW219569   5.959   4.344   4.532
 6224SOL     OW19570   1.670   1.212   5.720
 6224SOL    HW119571   1.588   1.241   5.672
 6224SOL    HW219572   1.710   1.292   5.766
 6225SOL     OW19573   3.673   3.613   1.218
 6225SOL    HW119574   3.627   3.559   1.148
 6225SOL    HW219575   3.699   3.552   1.294
 6226SOL     OW19576   5.504   1.476   3.838
 6226SOL    HW119577   5.598   1.445   3.853
 6226SOL    HW219578   5.459   1.415   3.774
 6227SOL     OW19579   3.141   4.289   5.923
 6227SOL    HW119580   3.160   4.279   6.021
 6227SOL    HW219581   3.106   4.202   5.887
 6228SOL     OW19582   6.587   1.453   2.688
 6228SOL    HW119583   6.528   1.517   2.638
 6228SOL    HW219584   6.532   1.377   2.723
 6229SOL     OW19585   2.422   1.716   2.836
 6229SOL    HW119586   2.503   1.667   2.802
 6229SOL    HW219587   2.348   1.650   2.850
 6230SOL     OW19588   2.621   1.045   4.194
 6230SOL    HW119589   2.593   1.056   4.098
 6230SOL    HW219590   2.566   1.106   4.251
 6231SOL     OW19591   0.110   4.949   1.291
 6231SOL    HW119592   0.027   4.896   1.278
 6231SOL    HW219593   0.169   4.903   1.358
 6232SOL     OW19594   0.319   1.405   0.054
 6232SOL    HW119595   0.317   1.305   0.055
 6232SOL    HW219596   0.389   1.436   7.014
 6233SOL     OW19597   5.587   2.083   6.718
 6233SOL    HW119598   5.650   2.064   6.794
 6233SOL    HW219599   5.555   2.177   6.724
 6234SOL     OW19600   1.450   1.702   4.243
 6234SOL    HW119601   1.431   1.760   4.164
 6234SOL    HW219602   1.488   1.758   4.317
 6235SOL     OW19603   2.126   6.799   3.119
 6235SOL    HW119604   2.125   6.765   3.213
 6235SOL    HW219605   2.217   6.786   3.080
 6236SOL     OW19606   0.184   5.220   1.260
 6236SOL    HW119607   0.137   5.308   1.270
 6236SOL    HW219608   0.128   5.149   1.303
 6237SOL     OW19609   4.445   6.384   0.270
 6237SOL    HW119610   4.400   6.391   0.359
 6237SOL    HW219611   4.417   6.461   0.212
 6238SOL     OW19612   5.034   5.529   2.361
 6238SOL    HW119613   5.111   5.496   2.306
 6238SOL    HW219614   4.949   5.492   2.324
 6239SOL     OW19615   3.204   6.878   2.633
 6239SOL    HW119616   3.274   6.837   2.574
 6239SOL    HW219617   3.202   6.830   2.720
 6240SOL     OW19618   2.340   3.276   0.357
 6240SOL    HW119619   2.305   3.190   0.394
 6240SOL    HW219620   2.271   3.347   0.367
 6241SOL     OW19621   2.980   1.043   1.725
 6241SOL    HW119622   2.998   0.983   1.803
 6241SOL    HW219623   2.882   1.046   1.706
 6242SOL     OW19624   5.264   1.421   3.497
 6242SOL    HW119625   5.165   1.424   3.482
 6242SOL    HW219626   5.301   1.514   3.496
 6243SOL     OW19627   6.028   6.852   3.658
 6243SOL    HW119628   6.052   6.917   3.587
 6243SOL    HW219629   5.932   6.826   3.648
 6244SOL     OW19630   2.465   2.595   2.304
 6244SOL    HW119631   2.489   2.520   2.365
 6244SOL    HW219632   2.533   2.668   2.312
 6245SOL     OW19633   2.721   4.361   1.432
 6245SOL    HW119634   2.735   4.444   1.378
 6245SOL    HW219635   2.632   4.366   1.477
 6246SOL     OW19636   3.005   2.440   6.613
 6246SOL    HW119637   3.015   2.468   6.709
 6246SOL    HW219638   3.019   2.519   6.554
 6247SOL     OW19639   0.489   6.190   3.970
 6247SOL    HW119640   0.588   6.191   3.983
 6247SOL    HW219641   0.460   6.101   3.936
 6248SOL     OW19642   0.881   4.319   1.495
 6248SOL    HW119643   0.810   4.367   1.547
 6248SOL    HW219644   0.876   4.221   1.515
 6249SOL     OW19645   0.179   4.613   0.114
 6249SOL    HW119646   0.081   4.634   0.110
 6249SOL    HW219647   0.197   4.550   0.189
 6250SOL     OW19648   6.844   6.254   0.549
 6250SOL    HW119649   6.922   6.228   0.607
 6250SOL    HW219650   6.788   6.173   0.532
 6251SOL     OW19651   4.540   0.303   1.538
 6251SOL    HW119652   4.570   0.333   1.447
 6251SOL    HW219653   4.506   0.210   1.533
 6252SOL     OW19654   2.442   5.524   4.717
 6252SOL    HW119655   2.381   5.444   4.713
 6252SOL    HW219656   2.521   5.507   4.659
 6253SOL     OW19657   2.309   3.980   1.723
 6253SOL    HW119658   2.290   3.886   1.752
 6253SOL    HW219659   2.359   4.028   1.795
 6254SOL     OW19660   5.968   6.668   6.948
 6254SOL    HW119661   5.883   6.657   6.897
 6254SOL    HW219662   6.029   6.591   6.929
 6255SOL     OW19663   1.044   1.672   1.682
 6255SOL    HW119664   1.117   1.634   1.739
 6255SOL    HW219665   0.975   1.602   1.665
 6256SOL     OW19666   4.181   5.083   2.633
 6256SOL    HW119667   4.246   5.032   2.576
 6256SOL    HW219668   4.139   5.155   2.579
 6257SOL     OW19669   5.506   2.526   0.818
 6257SOL    HW119670   5.596   2.534   0.776
 6257SOL    HW219671   5.514   2.480   0.906
 6258SOL     OW19672   4.000   1.030   2.478
 6258SOL    HW119673   4.021   0.992   2.568
 6258SOL    HW219674   3.904   1.011   2.456
 6259SOL     OW19675   3.144   1.535   0.737
 6259SOL    HW119676   3.240   1.530   0.709
 6259SOL    HW219677   3.090   1.571   0.661
 6260SOL     OW19678   4.207   3.657   0.822
 6260SOL    HW119679   4.255   3.613   0.746
 6260SOL    HW219680   4.116   3.617   0.832
 6261SOL     OW19681   3.792   0.206   0.216
 6261SOL    HW119682   3.753   0.169   0.132
 6261SOL    HW219683   3.875   0.259   0.194
 6262SOL     OW19684   1.568   4.178   0.604
 6262SOL    HW119685   1.577   4.247   0.676
 6262SOL    HW219686   1.545   4.223   0.518
 6263SOL     OW19687   0.111   6.347   6.660
 6263SOL    HW119688   0.054   6.298   6.594
 6263SOL    HW219689   0.207   6.341   6.631
 6264SOL     OW19690   2.424   1.915   1.025
 6264SOL    HW119691   2.333   1.896   0.987
 6264SOL    HW219692   2.441   1.855   1.103
 6265SOL     OW19693   3.689   4.790   1.016
 6265SOL    HW119694   3.616   4.723   1.033
 6265SOL    HW219695   3.707   4.796   0.918
 6266SOL     OW19696   3.426   0.825   3.573
 6266SOL    HW119697   3.329   0.833   3.596
 6266SOL    HW219698   3.472   0.913   3.591
 6267SOL     OW19699   2.996   0.218   0.557
 6267SOL    HW119700   2.976   0.284   0.630
 6267SOL    HW219701   2.931   0.231   0.483
 6268SOL     OW19702   3.254   5.160   2.820
 6268SOL    HW119703   3.216   5.249   2.843
 6268SOL    HW219704   3.353   5.161   2.835
 6269SOL     OW19705   6.223   5.561   1.895
 6269SOL    HW119706   6.223   5.506   1.978
 6269SOL    HW219707   6.134   5.605   1.884
 6270SOL     OW19708   1.727   0.553   5.195
 6270SOL    HW119709   1.658   0.606   5.145
 6270SOL    HW219710   1.811   0.607   5.203
 6271SOL     OW19711   0.169   2.865   6.356
 6271SOL    HW119712   0.077   2.826   6.358
 6271SOL    HW219713   0.234   2.796   6.326
 6272SOL     OW19714   1.877   3.410   4.388
 6272SOL    HW119715   1.858   3.469   4.467
 6272SOL    HW219716   1.975   3.413   4.367
 6273SOL     OW19717   1.668   1.226   1.712
 6273SOL    HW119718   1.654   1.269   1.801
 6273SOL    HW219719   1.587   1.241   1.654
 6274SOL     OW19720   3.550   6.168   6.765
 6274SOL    HW119721   3.503   6.083   6.741
 6274SOL    HW219722   3.643   6.147   6.796
 6275SOL     OW19723   2.832   0.254   5.413
 6275SOL    HW119724   2.843   0.163   5.452
 6275SOL    HW219725   2.735   0.279   5.415
 6276SOL     OW19726   1.032   5.240   3.381
 6276SOL    HW119727   1.059   5.240   3.285
 6276SOL    HW219728   0.936   5.215   3.389
 6277SOL     OW19729   5.185   2.444   2.959
 6277SOL    HW119730   5.093   2.404   2.966
 6277SOL    HW219731   5.178   2.537   2.924
 6278SOL     OW19732   4.720   0.361   4.004
 6278SOL    HW119733   4.705   0.323   3.913
 6278SOL    HW219734   4.658   0.319   4.069
 6279SOL     OW19735   4.044   1.432   0.747
 6279SOL    HW119736   4.122   1.489   0.722
 6279SOL    HW219737   3.960   1.473   0.711
 6280SOL     OW19738   0.425   3.150   5.823
 6280SOL    HW119739   0.406   3.234   5.874
 6280SOL    HW219740   0.464   3.173   5.734
 6281SOL     OW19741   2.249   0.175   4.993
 6281SOL    HW119742   2.219   0.104   5.058
 6281SOL    HW219743   2.196   0.258   5.007
 6282SOL     OW19744   1.785   6.768   5.141
 6282SOL    HW119745   1.748   6.861   5.134
 6282SOL    HW219746   1.878   6.767   5.105
 6283SOL     OW19747   0.139   2.409   5.176
 6283SOL    HW119748   0.153   2.450   5.267
 6283SOL    HW219749   0.156   2.477   5.106
 6284SOL     OW19750   1.362   5.196   5.756
 6284SOL    HW119751   1.267   5.163   5.759
 6284SOL    HW219752   1.409   5.172   5.841
 6285SOL     OW19753   1.455   3.068   3.812
 6285SOL    HW119754   1.434   2.970   3.801
 6285SOL    HW219755   1.493   3.084   3.903
 6286SOL     OW19756   5.621   1.592   2.873
 6286SOL    HW119757   5.623   1.492   2.859
 6286SOL    HW219758   5.586   1.612   2.964
 6287SOL     OW19759   4.979   4.152   1.813
 6287SOL    HW119760   5.009   4.061   1.786
 6287SOL    HW219761   4.887   4.169   1.779
 6288SOL     OW19762   5.331   4.268   0.785
 6288SOL    HW119763   5.274   4.266   0.703
 6288SOL    HW219764   5.290   4.328   0.853
 6289SOL     OW19765   2.366   2.216   3.773
 6289SOL    HW119766   2.391   2.144   3.708
 6289SOL    HW219767   2.271   2.241   3.760
 6290SOL     OW19768   5.460   4.384   4.320
 6290SOL    HW119769   5.528   4.457   4.320
 6290SOL    HW219770   5.482   4.318   4.248
 6291SOL     OW19771   3.610   3.411   3.675
 6291SOL    HW119772   3.562   3.336   3.629
 6291SOL    HW219773   3.704   3.384   3.693
 6292SOL     OW19774   0.883   1.944   3.523
 6292SOL    HW119775   0.832   1.877   3.469
 6292SOL    HW219776   0.981   1.935   3.505
 6293SOL     OW19777   5.374   0.253   6.697
 6293SOL    HW119778   5.333   0.182   6.754
 6293SOL    HW219779   5.430   0.211   6.626
 6294SOL     OW19780   3.306   5.490   2.572
 6294SOL    HW119781   3.367   5.478   2.650
 6294SOL    HW219782   3.270   5.401   2.544
 6295SOL     OW19783   5.747   5.648   5.784
 6295SOL    HW119784   5.825   5.661   5.845
 6295SOL    HW219785   5.692   5.572   5.818
 6296SOL     OW19786   6.517   0.644   3.345
 6296SOL    HW119787   6.541   0.637   3.248
 6296SOL    HW219788   6.485   0.737   3.364
 6297SOL     OW19789   5.087   6.469   5.758
 6297SOL    HW119790   5.171   6.520   5.777
 6297SOL    HW219791   5.025   6.526   5.704
 6298SOL     OW19792   0.785   3.135   5.638
 6298SOL    HW119793   0.800   3.158   5.542
 6298SOL    HW219794   0.874   3.125   5.684
 6299SOL     OW19795   6.335   2.651   6.593
 6299SOL    HW119796   6.248   2.687   6.562
 6299SOL    HW219797   6.374   2.592   6.522
 6300SOL     OW19798   5.668   1.027   4.341
 6300SOL    HW119799   5.733   1.017   4.416
 6300SOL    HW219800   5.658   0.940   4.293
 6301SOL     OW19801   2.550   6.447   1.030
 6301SOL    HW119802   2.636   6.417   0.991
 6301SOL    HW219803   2.566   6.489   1.119
 6302SOL     OW19804   1.816   0.913   3.820
 6302SOL    HW119805   1.726   0.908   3.862
 6302SOL    HW219806   1.814   0.976   3.743
 6303SOL     OW19807   2.372   7.003   5.365
 6303SOL    HW119808   2.305   7.004   5.291
 6303SOL    HW219809   2.367   6.915   5.413
 6304SOL     OW19810   3.073   0.918   0.439
 6304SOL    HW119811   3.074   0.976   0.358
 6304SOL    HW219812   3.103   0.826   0.416
 6305SOL     OW19813   6.637   6.832   1.533
 6305SOL    HW119814   6.680   6.765   1.595
 6305SOL    HW219815   6.546   6.801   1.509
 6306SOL     OW19816   6.660   3.078   3.876
 6306SOL    HW119817   6.611   3.107   3.794
 6306SOL    HW219818   6.645   2.981   3.892
 6307SOL     OW19819   2.768   5.198   5.698
 6307SOL    HW119820   2.764   5.122   5.633
 6307SOL    HW219821   2.799   5.281   5.651
 6308SOL     OW19822   2.317   1.655   5.156
 6308SOL    HW119823   2.286   1.653   5.251
 6308SOL    HW219824   2.301   1.565   5.114
 6309SOL     OW19825   4.705   2.197   4.025
 6309SOL    HW119826   4.717   2.181   4.123
 6309SOL    HW219827   4.735   2.117   3.974
 6310SOL     OW19828   1.360   4.801   4.742
 6310SOL    HW119829   1.437   4.754   4.697
 6310SOL    HW219830   1.291   4.823   4.674
 6311SOL     OW19831   0.003   0.399   4.227
 6311SOL    HW119832   0.050   0.487   4.237
 6311SOL    HW219833   0.007   0.349   4.313
 6312SOL     OW19834   4.523   4.768   6.609
 6312SOL    HW119835   4.445   4.822   6.638
 6312SOL    HW219836   4.585   4.824   6.554
 6313SOL     OW19837   2.073   5.453   3.594
 6313SOL    HW119838   2.156   5.417   3.550
 6313SOL    HW219839   2.033   5.524   3.537
 6314SOL     OW19840   2.662   5.610   2.191
 6314SOL    HW119841   2.721   5.534   2.162
 6314SOL    HW219842   2.614   5.647   2.111
 6315SOL     OW19843   3.980   3.498   6.945
 6315SOL    HW119844   4.075   3.467   6.940
 6315SOL    HW219845   3.922   3.422   6.973
 6316SOL     OW19846   4.622   1.891   6.345
 6316SOL    HW119847   4.550   1.935   6.291
 6316SOL    HW219848   4.695   1.956   6.362
 6317SOL     OW19849   4.962   6.490   2.665
 6317SOL    HW119850   4.919   6.551   2.732
 6317SOL    HW219851   5.022   6.425   2.712
 6318SOL     OW19852   2.479   2.421   5.610
 6318SOL    HW119853   2.530   2.414   5.524
 6318SOL    HW219854   2.542   2.437   5.685
 6319SOL     OW19855   0.878   3.269   3.675
 6319SOL    HW119856   0.946   3.329   3.632
 6319SOL    HW219857   0.917   3.230   3.758
 6320SOL     OW19858   6.024   3.851   3.300
 6320SOL    HW119859   6.109   3.807   3.273
 6320SOL    HW219860   5.961   3.782   3.335
 6321SOL     OW19861   2.999   5.712   0.432
 6321SOL    HW119862   3.085   5.722   0.481
 6321SOL    HW219863   2.923   5.737   0.491
 6322SOL     OW19864   1.109   1.293   6.915
 6322SOL    HW119865   1.057   1.291   6.829
 6322SOL    HW219866   1.166   1.375   6.918
 6323SOL     OW19867   3.278   2.186   1.534
 6323SOL    HW119868   3.318   2.232   1.614
 6323SOL    HW219869   3.342   2.116   1.502
 6324SOL     OW19870   4.281   0.773   5.629
 6324SOL    HW119871   4.312   0.848   5.570
 6324SOL    HW219872   4.267   0.808   5.722
 6325SOL     OW19873   0.547   2.865   2.561
 6325SOL    HW119874   0.609   2.806   2.509
 6325SOL    HW219875   0.453   2.852   2.529
 6326SOL     OW19876   5.652   5.773   1.489
 6326SOL    HW119877   5.691   5.717   1.563
 6326SOL    HW219878   5.709   5.854   1.476
 6327SOL     OW19879   5.435   6.205   5.399
 6327SOL    HW119880   5.358   6.143   5.391
 6327SOL    HW219881   5.435   6.270   5.323
 6328SOL     OW19882   1.768   4.276   7.017
 6328SOL    HW119883   1.831   4.206   0.028
 6328SOL    HW219884   1.718   4.239   6.939
 6329SOL     OW19885   1.894   1.239   3.837
 6329SOL    HW119886   1.911   1.309   3.767
 6329SOL    HW219887   1.979   1.188   3.854
 6330SOL     OW19888   4.237   1.070   0.399
 6330SOL    HW119889   4.217   1.117   0.484
 6330SOL    HW219890   4.301   1.124   0.344
 6331SOL     OW19891   6.451   2.228   0.871
 6331SOL    HW119892   6.456   2.296   0.943
 6331SOL    HW219893   6.360   2.229   0.830
 6332SOL     OW19894   6.418   5.669   1.409
 6332SOL    HW119895   6.380   5.612   1.336
 6332SOL    HW219896   6.379   5.642   1.497
 6333SOL     OW19897   3.262   5.145   3.977
 6333SOL    HW119898   3.337   5.085   4.005
 6333SOL    HW219899   3.247   5.214   4.048
 6334SOL     OW19900   2.485   6.846   2.439
 6334SOL    HW119901   2.439   6.765   2.403
 6334SOL    HW219902   2.578   6.850   2.403
 6335SOL     OW19903   6.655   1.303   6.660
 6335SOL    HW119904   6.697   1.392   6.672
 6335SOL    HW219905   6.568   1.313   6.611
 6336SOL     OW19906   0.025   2.610   4.943
 6336SOL    HW119907   7.004   2.628   4.855
 6336SOL    HW219908   0.067   2.694   4.977
 6337SOL     OW19909   4.982   3.333   6.004
 6337SOL    HW119910   5.039   3.256   5.977
 6337SOL    HW219911   4.981   3.341   6.104
 6338SOL     OW19912   2.637   1.822   2.117
 6338SOL    HW119913   2.648   1.879   2.036
 6338SOL    HW219914   2.634   1.726   2.091
 6339SOL     OW19915   0.378   2.589   3.599
 6339SOL    HW119916   0.401   2.671   3.651
 6339SOL    HW219917   0.350   2.516   3.661
 6340SOL     OW19918   2.808   5.556   4.067
 6340SOL    HW119919   2.765   5.502   4.139
 6340SOL    HW219920   2.819   5.499   3.985
 6341SOL     OW19921   6.858   4.976   3.658
 6341SOL    HW119922   6.943   4.925   3.671
 6341SOL    HW219923   6.832   5.020   3.744
 6342SOL     OW19924   2.203   2.575   2.392
 6342SOL    HW119925   2.200   2.669   2.426
 6342SOL    HW219926   2.298   2.548   2.377
 6343SOL     OW19927   4.186   2.383   6.880
 6343SOL    HW119928   4.107   2.402   6.820
 6343SOL    HW219929   4.176   2.292   6.920
 6344SOL     OW19930   0.052   3.752   5.206
 6344SOL    HW119931   0.034   3.696   5.125
 6344SOL    HW219932   0.081   3.843   5.178
 6345SOL     OW19933   3.924   1.691   2.362
 6345SOL    HW119934   3.864   1.665   2.438
 6345SOL    HW219935   3.986   1.615   2.342
 6346SOL     OW19936   0.190   3.234   3.403
 6346SOL    HW119937   0.201   3.253   3.501
 6346SOL    HW219938   0.280   3.238   3.359
 6347SOL     OW19939   3.144   0.212   0.959
 6347SOL    HW119940   3.069   0.278   0.965
 6347SOL    HW219941   3.200   0.233   0.880
 6348SOL     OW19942   0.683   3.323   4.760
 6348SOL    HW119943   0.701   3.402   4.703
 6348SOL    HW219944   0.768   3.274   4.779
 6349SOL     OW19945   2.785   0.734   1.555
 6349SOL    HW119946   2.747   0.733   1.463
 6349SOL    HW219947   2.883   0.713   1.551
 6350SOL     OW19948   1.475   5.757   2.584
 6350SOL    HW119949   1.504   5.665   2.555
 6350SOL    HW219950   1.484   5.765   2.683
 6351SOL     OW19951   0.020   2.599   2.446
 6351SOL    HW119952   0.032   2.592   2.545
 6351SOL    HW219953   0.066   2.681   2.412
 6352SOL     OW19954   1.310   5.060   3.576
 6352SOL    HW119955   1.248   4.994   3.532
 6352SOL    HW219956   1.322   5.037   3.672
 6353SOL     OW19957   0.449   0.210   6.798
 6353SOL    HW119958   0.513   0.237   6.726
 6353SOL    HW219959   0.407   0.123   6.774
 6354SOL     OW19960   0.988   6.652   2.206
 6354SOL    HW119961   0.997   6.751   2.194
 6354SOL    HW219962   1.079   6.611   2.209
 6355SOL     OW19963   1.538   3.148   3.573
 6355SOL    HW119964   1.568   3.068   3.521
 6355SOL    HW219965   1.516   3.120   3.666
 6356SOL     OW19966   4.795   4.651   0.903
 6356SOL    HW119967   4.855   4.729   0.915
 6356SOL    HW219968   4.700   4.680   0.906
 6357SOL     OW19969   4.387   2.659   0.843
 6357SOL    HW119970   4.370   2.596   0.767
 6357SOL    HW219971   4.300   2.697   0.875
 6358SOL     OW19972   0.245   2.498   4.043
 6358SOL    HW119973   0.212   2.470   4.133
 6358SOL    HW219974   0.338   2.462   4.030
 6359SOL     OW19975   6.708   0.452   5.522
 6359SOL    HW119976   6.785   0.392   5.500
 6359SOL    HW219977   6.675   0.497   5.439
 6360SOL     OW19978   2.537   4.648   4.055
 6360SOL    HW119979   2.488   4.693   4.129
 6360SOL    HW219980   2.515   4.693   3.968
 6361SOL     OW19981   4.418   5.393   6.455
 6361SOL    HW119982   4.424   5.294   6.470
 6361SOL    HW219983   4.342   5.413   6.393
 6362SOL     OW19984   5.881   4.750   6.850
 6362SOL    HW119985   5.951   4.687   6.884
 6362SOL    HW219986   5.926   4.831   6.811
 6363SOL     OW19987   2.029   6.105   4.446
 6363SOL    HW119988   1.957   6.171   4.425
 6363SOL    HW219989   2.100   6.150   4.500
 6364SOL     OW19990   2.730   2.174   5.523
 6364SOL    HW119991   2.793   2.232   5.576
 6364SOL    HW219992   2.681   2.231   5.457
 6365SOL     OW19993   4.791   6.835   3.571
 6365SOL    HW119994   4.751   6.828   3.479
 6365SOL    HW219995   4.886   6.803   3.568
 6366SOL     OW19996   0.912   5.033   5.462
 6366SOL    HW119997   0.941   4.968   5.392
 6366SOL    HW219998   0.976   5.030   5.539
 6367SOL     OW19999   5.307   0.504   3.569
 6367SOL    HW120000   5.295   0.415   3.613
 6367SOL    HW220001   5.294   0.577   3.637
 6368SOL     OW20002   3.242   0.024   4.292
 6368SOL    HW120003   3.289   0.033   4.380
 6368SOL    HW220004   3.250   6.953   4.260
 6369SOL     OW20005   2.907   5.260   4.596
 6369SOL    HW120006   2.875   5.336   4.652
 6369SOL    HW220007   3.006   5.251   4.605
 6370SOL     OW20008   0.168   2.149   1.876
 6370SOL    HW120009   0.102   2.223   1.862
 6370SOL    HW220010   0.260   2.183   1.860
 6371SOL     OW20011   4.936   2.611   2.809
 6371SOL    HW120012   4.873   2.666   2.865
 6371SOL    HW220013   4.939   2.518   2.845
 6372SOL     OW20014   3.503   6.434   2.183
 6372SOL    HW120015   3.492   6.345   2.138
 6372SOL    HW220016   3.413   6.471   2.206
 6373SOL     OW20017   5.122   4.364   5.648
 6373SOL    HW120018   5.023   4.375   5.634
 6373SOL    HW220019   5.148   4.404   5.736
 6374SOL     OW20020   3.227   3.120   3.386
 6374SOL    HW120021   3.284   3.097   3.307
 6374SOL    HW220022   3.276   3.096   3.470
 6375SOL     OW20023   1.392   0.170   2.775
 6375SOL    HW120024   1.314   0.221   2.812
 6375SOL    HW220025   1.450   0.231   2.722
 6376SOL     OW20026   6.758   2.090   4.391
 6376SOL    HW120027   6.735   2.172   4.444
 6376SOL    HW220028   6.781   2.015   4.453
 6377SOL     OW20029   0.382   1.328   4.927
 6377SOL    HW120030   0.425   1.398   4.984
 6377SOL    HW220031   0.287   1.317   4.954
 6378SOL     OW20032   5.001   3.997   4.151
 6378SOL    HW120033   5.024   4.051   4.232
 6378SOL    HW220034   5.083   3.980   4.098
 6379SOL     OW20035   2.633   4.617   3.765
 6379SOL    HW120036   2.579   4.549   3.715
 6379SOL    HW220037   2.663   4.577   3.852
 6380SOL     OW20038   0.594   1.044   5.837
 6380SOL    HW120039   0.642   1.123   5.799
 6380SOL    HW220040   0.610   1.039   5.936
 6381SOL     OW20041   3.199   3.668   2.842
 6381SOL    HW120042   3.212   3.582   2.890
 6381SOL    HW220043   3.106   3.702   2.861
 6382SOL     OW20044   1.052   2.669   6.069
 6382SOL    HW120045   1.141   2.639   6.035
 6382SOL    HW220046   0.996   2.701   5.993
 6383SOL     OW20047   2.367   1.637   4.053
 6383SOL    HW120048   2.452   1.689   4.068
 6383SOL    HW220049   2.288   1.694   4.076
 6384SOL     OW20050   5.626   5.046   2.634
 6384SOL    HW120051   5.551   5.101   2.597
 6384SOL    HW220052   5.601   5.011   2.724
 6385SOL     OW20053   6.691   5.308   4.010
 6385SOL    HW120054   6.754   5.245   4.055
 6385SOL    HW220055   6.670   5.275   3.918
 6386SOL     OW20056   2.707   5.393   0.876
 6386SOL    HW120057   2.676   5.326   0.945
 6386SOL    HW220058   2.628   5.440   0.838
 6387SOL     OW20059   0.391   2.263   5.669
 6387SOL    HW120060   0.481   2.260   5.714
 6387SOL    HW220061   0.392   2.332   5.597
 6388SOL     OW20062   3.346   4.745   1.683
 6388SOL    HW120063   3.418   4.683   1.713
 6388SOL    HW220064   3.288   4.769   1.761
 6389SOL     OW20065   1.366   5.685   3.544
 6389SOL    HW120066   1.439   5.744   3.509
 6389SOL    HW220067   1.369   5.597   3.495
 6390SOL     OW20068   0.155   2.575   3.409
 6390SOL    HW120069   0.081   2.513   3.437
 6390SOL    HW220070   0.217   2.590   3.486
 6391SOL     OW20071   3.217   1.748   0.232
 6391SOL    HW120072   3.249   1.791   0.317
 6391SOL    HW220073   3.179   1.818   0.172
 6392SOL     OW20074   2.215   6.731   3.642
 6392SOL    HW120075   2.264   6.660   3.591
 6392SOL    HW220076   2.161   6.688   3.715
 6393SOL     OW20077   5.826   6.836   0.854
 6393SOL    HW120078   5.886   6.782   0.794
 6393SOL    HW220079   5.745   6.864   0.802
 6394SOL     OW20080   2.640   5.135   1.032
 6394SOL    HW120081   2.541   5.148   1.038
 6394SOL    HW220082   2.660   5.039   1.012
 6395SOL     OW20083   5.954   1.505   0.943
 6395SOL    HW120084   6.038   1.490   0.995
 6395SOL    HW220085   5.975   1.548   0.856
 6396SOL     OW20086   4.791   2.741   5.916
 6396SOL    HW120087   4.766   2.817   5.975
 6396SOL    HW220088   4.848   2.676   5.967
 6397SOL     OW20089   0.280   2.210   6.896
 6397SOL    HW120090   0.349   2.274   6.929
 6397SOL    HW220091   0.305   2.179   6.804
 6398SOL     OW20092   2.645   1.161   2.041
 6398SOL    HW120093   2.731   1.116   2.064
 6398SOL    HW220094   2.612   1.212   2.121
 6399SOL     OW20095   1.693   5.714   0.280
 6399SOL    HW120096   1.785   5.747   0.299
 6399SOL    HW220097   1.682   5.701   0.181
 6400SOL     OW20098   2.571   5.540   3.744
 6400SOL    HW120099   2.631   5.473   3.787
 6400SOL    HW220100   2.479   5.530   3.780
 6401SOL     OW20101   0.030   4.891   3.325
 6401SOL    HW120102   0.117   4.936   3.304
 6401SOL    HW220103   0.047   4.796   3.353
 6402SOL     OW20104   2.848   0.836   3.012
 6402SOL    HW120105   2.781   0.909   3.027
 6402SOL    HW220106   2.923   0.871   2.956
 6403SOL     OW20107   1.382   4.127   6.934
 6403SOL    HW120108   1.479   4.121   6.911
 6403SOL    HW220109   1.339   4.198   6.878
 6404SOL     OW20110   4.096   1.934   3.455
 6404SOL    HW120111   4.137   1.909   3.368
 6404SOL    HW220112   3.996   1.937   3.445
 6405SOL     OW20113   2.188   1.829   2.734
 6405SOL    HW120114   2.286   1.809   2.725
 6405SOL    HW220115   2.169   1.920   2.699
 6406SOL     OW20116   2.427   1.130   3.976
 6406SOL    HW120117   2.466   1.217   4.006
 6406SOL    HW220118   2.327   1.137   3.971
 6407SOL     OW20119   3.315   6.433   4.969
 6407SOL    HW120120   3.348   6.508   4.913
 6407SOL    HW220121   3.215   6.435   4.973
 6408SOL     OW20122   5.915   1.789   6.677
 6408SOL    HW120123   5.827   1.818   6.716
 6408SOL    HW220124   5.925   1.690   6.686
 6409SOL     OW20125   6.409   3.478   3.054
 6409SOL    HW120126   6.437   3.543   2.982
 6409SOL    HW220127   6.309   3.474   3.057
 6410SOL     OW20128   1.468   1.598   0.427
 6410SOL    HW120129   1.484   1.509   0.384
 6410SOL    HW220130   1.554   1.647   0.435
 6411SOL     OW20131   0.963   1.047   3.544
 6411SOL    HW120132   1.057   1.014   3.549
 6411SOL    HW220133   0.919   1.007   3.463
 6412SOL     OW20134   0.022   2.688   5.454
 6412SOL    HW120135   0.044   2.757   5.522
 6412SOL    HW220136   0.088   2.613   5.460
 6413SOL     OW20137   6.207   5.298   2.093
 6413SOL    HW120138   6.200   5.230   2.020
 6413SOL    HW220139   6.117   5.336   2.113
 6414SOL     OW20140   6.257   0.387   1.141
 6414SOL    HW120141   6.332   0.347   1.194
 6414SOL    HW220142   6.294   0.439   1.064
 6415SOL     OW20143   1.827   2.277   2.034
 6415SOL    HW120144   1.758   2.248   2.101
 6415SOL    HW220145   1.793   2.356   1.983
 6416SOL     OW20146   1.138   6.922   6.653
 6416SOL    HW120147   1.226   6.962   6.681
 6416SOL    HW220148   1.155   6.843   6.594
 6417SOL     OW20149   0.697   7.009   3.399
 6417SOL    HW120150   0.657   0.063   3.350
 6417SOL    HW220151   0.767   0.018   3.462
 6418SOL     OW20152   6.660   5.241   2.392
 6418SOL    HW120153   6.743   5.266   2.442
 6418SOL    HW220154   6.643   5.310   2.321
 6419SOL     OW20155   3.779   4.963   1.846
 6419SOL    HW120156   3.738   4.883   1.888
 6419SOL    HW220157   3.728   4.987   1.763
 6420SOL     OW20158   3.064   3.219   6.432
 6420SOL    HW120159   3.145   3.208   6.374
 6420SOL    HW220160   3.092   3.251   6.522
 6421SOL     OW20161   5.677   0.750   1.354
 6421SOL    HW120162   5.746   0.692   1.397
 6421SOL    HW220163   5.600   0.763   1.418
 6422SOL     OW20164   6.581   0.657   3.072
 6422SOL    HW120165   6.681   0.655   3.075
 6422SOL    HW220166   6.551   0.726   3.006
 6423SOL     OW20167   4.797   3.074   1.359
 6423SOL    HW120168   4.728   3.037   1.421
 6423SOL    HW220169   4.753   3.135   1.293
 6424SOL     OW20170   6.189   3.686   6.454
 6424SOL    HW120171   6.232   3.603   6.490
 6424SOL    HW220172   6.134   3.729   6.525
 6425SOL     OW20173   0.367   4.793   2.670
 6425SOL    HW120174   0.359   4.721   2.740
 6425SOL    HW220175   0.356   4.882   2.713
 6426SOL     OW20176   1.205   2.771   3.653
 6426SOL    HW120177   1.194   2.714   3.571
 6426SOL    HW220178   1.115   2.784   3.696
 6427SOL     OW20179   1.225   3.567   5.798
 6427SOL    HW120180   1.241   3.612   5.710
 6427SOL    HW220181   1.128   3.569   5.819
 6428SOL     OW20182   6.788   3.742   2.209
 6428SOL    HW120183   6.830   3.700   2.129
 6428SOL    HW220184   6.859   3.785   2.265
 6429SOL     OW20185   1.756   0.949   4.664
 6429SOL    HW120186   1.662   0.917   4.671
 6429SOL    HW220187   1.809   0.911   4.740
 6430SOL     OW20188   5.311   1.176   1.437
 6430SOL    HW120189   5.378   1.249   1.441
 6430SOL    HW220190   5.296   1.140   1.530
 6431SOL     OW20191   4.771   6.403   3.330
 6431SOL    HW120192   4.701   6.440   3.391
 6431SOL    HW220193   4.759   6.442   3.239
 6432SOL     OW20194   4.655   3.539   0.926
 6432SOL    HW120195   4.608   3.454   0.904
 6432SOL    HW220196   4.700   3.530   1.015
 6433SOL     OW20197   3.064   4.441   0.994
 6433SOL    HW120198   3.068   4.395   1.082
 6433SOL    HW220199   3.010   4.386   0.930
 6434SOL     OW20200   0.973   3.995   1.079
 6434SOL    HW120201   0.976   3.918   1.016
 6434SOL    HW220202   0.988   3.962   1.172
 6435SOL     OW20203   3.976   4.899   0.052
 6435SOL    HW120204   3.899   4.952   0.088
 6435SOL    HW220205   3.941   4.815   0.010
 6436SOL     OW20206   2.138   3.139   3.441
 6436SOL    HW120207   2.178   3.114   3.529
 6436SOL    HW220208   2.049   3.094   3.431
 6437SOL     OW20209   0.938   0.357   6.899
 6437SOL    HW120210   0.849   0.371   6.944
 6437SOL    HW220211   0.924   0.311   6.812
 6438SOL     OW20212   0.888   3.822   4.562
 6438SOL    HW120213   0.921   3.882   4.635
 6438SOL    HW220214   0.876   3.729   4.599
 6439SOL     OW20215   1.102   6.557   0.827
 6439SOL    HW120216   1.131   6.634   0.771
 6439SOL    HW220217   1.119   6.472   0.778
 6440SOL     OW20218   1.236   2.033   2.330
 6440SOL    HW120219   1.327   1.992   2.328
 6440SOL    HW220220   1.244   2.133   2.325
 6441SOL     OW20221   2.000   1.210   3.490
 6441SOL    HW120222   2.088   1.207   3.537
 6441SOL    HW220223   2.014   1.236   3.394
 6442SOL     OW20224   2.180   2.003   4.500
 6442SOL    HW120225   2.218   2.032   4.412
 6442SOL    HW220226   2.237   1.930   4.538
 6443SOL     OW20227   2.880   3.094   0.726
 6443SOL    HW120228   2.866   3.009   0.777
 6443SOL    HW220229   2.960   3.141   0.762
 6444SOL     OW20230   0.644   1.714   2.970
 6444SOL    HW120231   0.593   1.671   2.896
 6444SOL    HW220232   0.634   1.813   2.964
 6445SOL     OW20233   4.221   2.713   5.414
 6445SOL    HW120234   4.190   2.691   5.322
 6445SOL    HW220235   4.224   2.629   5.469
 6446SOL     OW20236   6.637   1.205   6.092
 6446SOL    HW120237   6.571   1.211   6.017
 6446SOL    HW220238   6.724   1.244   6.062
 6447SOL     OW20239   2.124   6.144   2.756
 6447SOL    HW120240   2.092   6.063   2.804
 6447SOL    HW220241   2.222   6.135   2.737
 6448SOL     OW20242   6.377   2.993   2.907
 6448SOL    HW120243   6.335   2.931   2.973
 6448SOL    HW220244   6.470   2.962   2.886
 6449SOL     OW20245   3.696   3.982   1.662
 6449SOL    HW120246   3.681   3.883   1.664
 6449SOL    HW220247   3.682   4.016   1.569
 6450SOL     OW20248   6.442   3.365   1.394
 6450SOL    HW120249   6.541   3.354   1.382
 6450SOL    HW220250   6.397   3.277   1.377
 6451SOL     OW20251   2.992   6.154   5.162
 6451SOL    HW120252   2.898   6.118   5.165
 6451SOL    HW220253   3.005   6.207   5.079
 6452SOL     OW20254   3.419   7.017   4.780
 6452SOL    HW120255   3.477   0.039   4.713
 6452SOL    HW220256   3.468   6.939   4.820
 6453SOL     OW20257   1.578   6.538   0.522
 6453SOL    HW120258   1.545   6.494   0.438
 6453SOL    HW220259   1.661   6.491   0.554
 6454SOL     OW20260   2.906   2.144   4.221
 6454SOL    HW120261   2.877   2.057   4.260
 6454SOL    HW220262   3.005   2.148   4.218
 6455SOL     OW20263   0.047   3.187   4.952
 6455SOL    HW120264   7.018   3.102   4.959
 6455SOL    HW220265   0.100   3.200   5.036
 6456SOL     OW20266   1.147   0.698   3.331
 6456SOL    HW120267   1.056   0.733   3.307
 6456SOL    HW220268   1.211   0.716   3.256
 6457SOL     OW20269   6.336   2.477   1.698
 6457SOL    HW120270   6.297   2.420   1.626
 6457SOL    HW220271   6.278   2.471   1.780
 6458SOL     OW20272   1.376   5.521   3.006
 6458SOL    HW120273   1.340   5.614   3.002
 6458SOL    HW220274   1.476   5.524   3.011
 6459SOL     OW20275   6.465   4.875   6.959
 6459SOL    HW120276   6.432   4.836   6.873
 6459SOL    HW220277   6.432   4.969   6.969
 6460SOL     OW20278   4.367   4.384   6.854
 6460SOL    HW120279   4.385   4.287   6.867
 6460SOL    HW220280   4.268   4.399   6.844
 6461SOL     OW20281   2.680   5.458   5.534
 6461SOL    HW120282   2.663   5.389   5.464
 6461SOL    HW220283   2.677   5.415   5.624
 6462SOL     OW20284   2.199   3.139   5.251
 6462SOL    HW120285   2.267   3.112   5.182
 6462SOL    HW220286   2.127   3.192   5.208
 6463SOL     OW20287   2.694   5.153   6.344
 6463SOL    HW120288   2.639   5.228   6.380
 6463SOL    HW220289   2.757   5.120   6.415
 6464SOL     OW20290   0.270   5.089   3.458
 6464SOL    HW120291   0.310   5.013   3.509
 6464SOL    HW220292   0.178   5.108   3.492
 6465SOL     OW20293   5.671   2.040   4.058
 6465SOL    HW120294   5.714   1.950   4.064
 6465SOL    HW220295   5.733   2.105   4.015
 6466SOL     OW20296   0.389   2.609   5.249
 6466SOL    HW120297   0.340   2.687   5.211
 6466SOL    HW220298   0.418   2.549   5.175
 6467SOL     OW20299   2.308   1.228   6.928
 6467SOL    HW120300   2.368   1.211   7.006
 6467SOL    HW220301   2.308   1.326   6.907
 6468SOL     OW20302   4.733   6.382   1.715
 6468SOL    HW120303   4.671   6.381   1.636
 6468SOL    HW220304   4.690   6.332   1.790
 6469SOL     OW20305   6.681   1.088   4.838
 6469SOL    HW120306   6.699   1.109   4.934
 6469SOL    HW220307   6.649   0.993   4.830
 6470SOL     OW20308   6.367   6.495   5.709
 6470SOL    HW120309   6.461   6.492   5.676
 6470SOL    HW220310   6.362   6.456   5.801
 6471SOL     OW20311   6.879   5.040   6.276
 6471SOL    HW120312   6.782   5.060   6.263
 6471SOL    HW220313   6.916   5.001   6.192
 6472SOL     OW20314   0.549   5.931   1.775
 6472SOL    HW120315   0.525   5.897   1.684
 6472SOL    HW220316   0.499   6.016   1.792
 6473SOL     OW20317   2.117   1.395   6.074
 6473SOL    HW120318   2.026   1.365   6.103
 6473SOL    HW220319   2.186   1.332   6.111
 6474SOL     OW20320   1.111   3.440   6.311
 6474SOL    HW120321   1.166   3.519   6.283
 6474SOL    HW220322   1.094   3.383   6.231
 6475SOL     OW20323   5.595   6.393   3.310
 6475SOL    HW120324   5.575   6.306   3.355
 6475SOL    HW220325   5.519   6.457   3.324
 6476SOL     OW20326   4.312   4.620   3.496
 6476SOL    HW120327   4.299   4.670   3.411
 6476SOL    HW220328   4.275   4.673   3.573
 6477SOL     OW20329   6.544   5.567   6.747
 6477SOL    HW120330   6.583   5.497   6.807
 6477SOL    HW220331   6.522   5.648   6.801
 6478SOL     OW20332   4.303   5.732   2.229
 6478SOL    HW120333   4.271   5.638   2.225
 6478SOL    HW220334   4.230   5.794   2.200
 6479SOL     OW20335   4.592   4.877   1.882
 6479SOL    HW120336   4.642   4.819   1.818
 6479SOL    HW220337   4.498   4.890   1.848
 6480SOL     OW20338   3.229   2.649   6.146
 6480SOL    HW120339   3.291   2.658   6.068
 6480SOL    HW220340   3.183   2.737   6.162
 6481SOL     OW20341   3.701   1.566   1.598
 6481SOL    HW120342   3.665   1.650   1.640
 6481SOL    HW220343   3.625   1.509   1.569
 6482SOL     OW20344   6.462   6.969   6.973
 6482SOL    HW120345   6.438   6.888   0.003
 6482SOL    HW220346   6.378   7.012   6.939
 6483SOL     OW20347   2.004   6.555   2.717
 6483SOL    HW120348   2.069   6.598   2.654
 6483SOL    HW220349   1.965   6.473   2.674
 6484SOL     OW20350   5.019   7.001   2.665
 6484SOL    HW120351   4.996   0.053   2.726
 6484SOL    HW220352   5.049   6.922   2.719
 6485SOL     OW20353   1.998   2.950   4.191
 6485SOL    HW120354   1.995   2.857   4.229
 6485SOL    HW220355   1.951   2.951   4.102
 6486SOL     OW20356   0.974   3.701   4.176
 6486SOL    HW120357   0.914   3.776   4.146
 6486SOL    HW220358   0.992   3.710   4.274
 6487SOL     OW20359   6.244   6.760   4.050
 6487SOL    HW120360   6.202   6.675   4.081
 6487SOL    HW220361   6.237   6.768   3.951
 6488SOL     OW20362   2.988   5.787   5.943
 6488SOL    HW120363   2.908   5.835   5.977
 6488SOL    HW220364   2.965   5.737   5.859
 6489SOL     OW20365   1.881   2.001   6.501
 6489SOL    HW120366   1.792   2.020   6.542
 6489SOL    HW220367   1.951   2.057   6.547
 6490SOL     OW20368   3.865   2.816   0.504
 6490SOL    HW120369   3.944   2.875   0.487
 6490SOL    HW220370   3.891   2.720   0.491
 6491SOL     OW20371   4.802   1.173   6.543
 6491SOL    HW120372   4.749   1.257   6.549
 6491SOL    HW220373   4.898   1.195   6.527
 6492SOL     OW20374   6.362   6.448   0.270
 6492SOL    HW120375   6.364   6.548   0.274
 6492SOL    HW220376   6.455   6.413   0.268
 6493SOL     OW20377   2.099   6.336   6.296
 6493SOL    HW120378   2.139   6.427   6.305
 6493SOL    HW220379   2.043   6.332   6.213
 6494SOL     OW20380   1.140   0.022   3.801
 6494SOL    HW120381   1.045   0.028   3.832
 6494SOL    HW220382   1.153   0.083   3.722
 6495SOL     OW20383   5.070   5.514   3.092
 6495SOL    HW120384   5.058   5.421   3.129
 6495SOL    HW220385   5.083   5.509   2.993
 6496SOL     OW20386   0.300   6.309   1.602
 6496SOL    HW120387   0.316   6.387   1.664
 6496SOL    HW220388   0.386   6.285   1.557
 6497SOL     OW20389   2.046   3.617   1.288
 6497SOL    HW120390   2.074   3.522   1.273
 6497SOL    HW220391   2.119   3.666   1.337
 6498SOL     OW20392   1.725   4.175   4.420
 6498SOL    HW120393   1.768   4.262   4.442
 6498SOL    HW220394   1.775   4.100   4.463
 6499SOL     OW20395   4.779   1.081   4.805
 6499SOL    HW120396   4.839   1.002   4.817
 6499SOL    HW220397   4.762   1.096   4.708
 6500SOL     OW20398   6.195   4.435   3.330
 6500SOL    HW120399   6.172   4.531   3.347
 6500SOL    HW220400   6.119   4.377   3.361
 6501SOL     OW20401   6.230   3.805   1.158
 6501SOL    HW120402   6.281   3.781   1.241
 6501SOL    HW220403   6.217   3.904   1.155
 6502SOL     OW20404   0.755   4.443   3.864
 6502SOL    HW120405   0.825   4.430   3.934
 6502SOL    HW220406   0.726   4.355   3.828
 6503SOL     OW20407   5.877   6.347   3.367
 6503SOL    HW120408   5.905   6.279   3.299
 6503SOL    HW220409   5.804   6.404   3.330
 6504SOL     OW20410   4.163   0.907   0.034
 6504SOL    HW120411   4.125   0.870   0.119
 6504SOL    HW220412   4.166   0.835   6.988
 6505SOL     OW20413   5.922   4.817   0.376
 6505SOL    HW120414   5.876   4.757   0.441
 6505SOL    HW220415   6.021   4.801   0.379
 6506SOL     OW20416   1.044   3.102   0.994
 6506SOL    HW120417   1.013   3.192   1.024
 6506SOL    HW220418   1.055   3.103   0.894
 6507SOL     OW20419   2.106   5.943   1.859
 6507SOL    HW120420   2.164   5.872   1.898
 6507SOL    HW220421   2.160   6.004   1.802
 6508SOL     OW20422   2.316   2.047   3.529
 6508SOL    HW120423   2.222   2.015   3.523
 6508SOL    HW220424   2.340   2.097   3.446
 6509SOL     OW20425   1.473   2.300   4.627
 6509SOL    HW120426   1.466   2.317   4.725
 6509SOL    HW220427   1.538   2.364   4.587
 6510SOL     OW20428   6.739   5.005   6.645
 6510SOL    HW120429   6.682   5.068   6.593
 6510SOL    HW220430   6.833   5.008   6.610
 6511SOL     OW20431   6.488   6.868   5.680
 6511SOL    HW120432   6.545   6.831   5.753
 6511SOL    HW220433   6.524   6.957   5.651
 6512SOL     OW20434   4.777   6.650   2.845
 6512SOL    HW120435   4.818   6.737   2.874
 6512SOL    HW220436   4.685   6.668   2.808
 6513SOL     OW20437   3.779   6.862   3.927
 6513SOL    HW120438   3.861   6.898   3.882
 6513SOL    HW220439   3.752   6.777   3.882
 6514SOL     OW20440   4.821   0.674   4.383
 6514SOL    HW120441   4.895   0.739   4.398
 6514SOL    HW220442   4.743   0.722   4.343
 6515SOL     OW20443   6.924   6.023   4.105
 6515SOL    HW120444   6.828   6.048   4.089
 6515SOL    HW220445   6.963   6.084   4.173
 6516SOL     OW20446   1.097   1.991   6.191
 6516SOL    HW120447   1.156   2.024   6.118
 6516SOL    HW220448   1.151   1.937   6.256
 6517SOL     OW20449   0.627   1.729   0.303
 6517SOL    HW120450   0.529   1.738   0.318
 6517SOL    HW220451   0.646   1.641   0.261
 6518SOL     OW20452   0.890   6.647   1.356
 6518SOL    HW120453   0.905   6.588   1.276
 6518SOL    HW220454   0.795   6.636   1.388
 6519SOL     OW20455   2.084   1.302   4.219
 6519SOL    HW120456   2.173   1.346   4.232
 6519SOL    HW220457   2.030   1.312   4.303
 6520SOL     OW20458   6.374   5.814   2.275
 6520SOL    HW120459   6.335   5.732   2.317
 6520SOL    HW220460   6.454   5.789   2.221
 6521SOL     OW20461   0.795   1.665   4.806
 6521SOL    HW120462   0.770   1.720   4.886
 6521SOL    HW220463   0.866   1.711   4.754
 6522SOL     OW20464   2.491   5.783   6.611
 6522SOL    HW120465   2.472   5.706   6.672
 6522SOL    HW220466   2.500   5.750   6.517
 6523SOL     OW20467   2.008   1.516   6.811
 6523SOL    HW120468   2.083   1.512   6.745
 6523SOL    HW220469   2.026   1.452   6.885
 6524SOL     OW20470   3.977   3.843   4.094
 6524SOL    HW120471   3.878   3.828   4.088
 6524SOL    HW220472   4.021   3.800   4.015
 6525SOL     OW20473   0.702   2.803   2.773
 6525SOL    HW120474   0.731   2.710   2.748
 6525SOL    HW220475   0.652   2.844   2.696
 6526SOL     OW20476   1.163   5.988   4.960
 6526SOL    HW120477   1.191   6.036   5.043
 6526SOL    HW220478   1.114   6.052   4.899
 6527SOL     OW20479   1.205   6.713   4.917
 6527SOL    HW120480   1.221   6.708   4.818
 6527SOL    HW220481   1.107   6.721   4.934
 6528SOL     OW20482   0.890   0.805   4.267
 6528SOL    HW120483   0.939   0.753   4.337
 6528SOL    HW220484   0.830   0.872   4.311
 6529SOL     OW20485   5.940   1.933   2.059
 6529SOL    HW120486   5.916   1.953   1.963
 6529SOL    HW220487   6.026   1.882   2.061
 6530SOL     OW20488   6.712   2.485   0.115
 6530SOL    HW120489   6.702   2.534   0.202
 6530SOL    HW220490   6.661   2.399   0.118
 6531SOL     OW20491   5.622   2.523   3.988
 6531SOL    HW120492   5.591   2.616   3.968
 6531SOL    HW220493   5.591   2.461   3.916
 6532SOL     OW20494   6.300   1.591   6.495
 6532SOL    HW120495   6.260   1.603   6.404
 6532SOL    HW220496   6.262   1.508   6.537
 6533SOL     OW20497   5.215   6.571   0.436
 6533SOL    HW120498   5.131   6.519   0.423
 6533SOL    HW220499   5.291   6.523   0.393
 6534SOL     OW20500   2.272   3.615   1.504
 6534SOL    HW120501   2.287   3.516   1.503
 6534SOL    HW220502   2.295   3.652   1.594
 6535SOL     OW20503   0.417   3.299   4.787
 6535SOL    HW120504   0.383   3.318   4.879
 6535SOL    HW220505   0.517   3.301   4.787
 6536SOL     OW20506   5.747   1.511   0.232
 6536SOL    HW120507   5.708   1.467   0.151
 6536SOL    HW220508   5.841   1.479   0.245
 6537SOL     OW20509   0.092   0.145   6.954
 6537SOL    HW120510   0.177   0.105   6.991
 6537SOL    HW220511   0.088   0.129   6.856
 6538SOL     OW20512   3.443   4.080   0.271
 6538SOL    HW120513   3.400   4.116   0.353
 6538SOL    HW220514   3.378   4.021   0.222
 6539SOL     OW20515   2.080   1.478   6.537
 6539SOL    HW120516   2.138   1.398   6.520
 6539SOL    HW220517   1.991   1.447   6.571
 6540SOL     OW20518   3.733   0.562   4.364
 6540SOL    HW120519   3.683   0.618   4.430
 6540SOL    HW220520   3.741   0.611   4.277
 6541SOL     OW20521   3.379   2.363   5.780
 6541SOL    HW120522   3.405   2.287   5.720
 6541SOL    HW220523   3.292   2.342   5.825
 6542SOL     OW20524   6.486   4.799   3.584
 6542SOL    HW120525   6.494   4.807   3.485
 6542SOL    HW220526   6.557   4.738   3.619
 6543SOL     OW20527   6.158   5.849   6.792
 6543SOL    HW120528   6.169   5.947   6.777
 6543SOL    HW220529   6.119   5.807   6.710
 6544SOL     OW20530   7.009   6.204   3.898
 6544SOL    HW120531   6.990   6.124   3.955
 6544SOL    HW220532   6.959   6.197   3.812
 6545SOL     OW20533   5.096   1.624   5.850
 6545SOL    HW120534   5.175   1.661   5.801
 6545SOL    HW220535   5.016   1.624   5.789
 6546SOL     OW20536   3.466   5.099   6.147
 6546SOL    HW120537   3.510   5.164   6.085
 6546SOL    HW220538   3.498   5.115   6.240
 6547SOL     OW20539   5.413   2.475   6.491
 6547SOL    HW120540   5.426   2.510   6.398
 6547SOL    HW220541   5.333   2.518   6.532
 6548SOL     OW20542   6.250   4.572   6.031
 6548SOL    HW120543   6.271   4.625   6.113
 6548SOL    HW220544   6.153   4.585   6.007
 6549SOL     OW20545   3.932   2.190   0.786
 6549SOL    HW120546   3.946   2.103   0.833
 6549SOL    HW220547   3.989   2.194   0.704
 6550SOL     OW20548   0.959   5.847   3.738
 6550SOL    HW120549   0.995   5.940   3.742
 6550SOL    HW220550   1.030   5.784   3.707
 6551SOL     OW20551   1.706   4.923   1.666
 6551SOL    HW120552   1.617   4.968   1.659
 6551SOL    HW220553   1.694   4.831   1.704
 6552SOL     OW20554   2.501   4.916   5.866
 6552SOL    HW120555   2.479   5.012   5.884
 6552SOL    HW220556   2.594   4.910   5.830
 6553SOL     OW20557   0.386   3.203   1.785
 6553SOL    HW120558   0.359   3.120   1.834
 6553SOL    HW220559   0.421   3.271   1.849
 6554SOL     OW20560   6.356   2.059   6.130
 6554SOL    HW120561   6.364   2.133   6.197
 6554SOL    HW220562   6.302   1.984   6.168
 6555SOL     OW20563   1.980   1.316   2.395
 6555SOL    HW120564   2.045   1.317   2.319
 6555SOL    HW220565   1.902   1.375   2.374
 6556SOL     OW20566   4.467   4.943   4.993
 6556SOL    HW120567   4.566   4.925   4.991
 6556SOL    HW220568   4.443   5.001   4.916
 6557SOL     OW20569   6.162   5.304   0.385
 6557SOL    HW120570   6.181   5.207   0.367
 6557SOL    HW220571   6.085   5.334   0.329
 6558SOL     OW20572   6.145   6.028   0.025
 6558SOL    HW120573   6.181   5.952   6.995
 6558SOL    HW220574   6.198   6.111   0.005
 6559SOL     OW20575   5.394   3.698   1.500
 6559SOL    HW120576   5.479   3.751   1.491
 6559SOL    HW220577   5.402   3.613   1.447
 6560SOL     OW20578   3.536   3.161   0.936
 6560SOL    HW120579   3.575   3.095   1.000
 6560SOL    HW220580   3.436   3.152   0.936
 6561SOL     OW20581   3.854   3.967   2.674
 6561SOL    HW120582   3.914   3.963   2.755
 6561SOL    HW220583   3.910   3.967   2.592
 6562SOL     OW20584   6.357   4.940   5.973
 6562SOL    HW120585   6.328   4.883   5.896
 6562SOL    HW220586   6.420   4.889   6.031
 6563SOL     OW20587   0.357   6.207   0.446
 6563SOL    HW120588   0.309   6.199   0.533
 6563SOL    HW220589   0.454   6.227   0.462
 6564SOL     OW20590   0.917   3.994   2.203
 6564SOL    HW120591   1.015   3.991   2.219
 6564SOL    HW220592   0.896   4.064   2.135
 6565SOL     OW20593   6.501   2.948   4.711
 6565SOL    HW120594   6.473   2.975   4.803
 6565SOL    HW220595   6.420   2.922   4.659
 6566SOL     OW20596   3.247   6.628   1.000
 6566SOL    HW120597   3.346   6.624   1.014
 6566SOL    HW220598   3.221   6.719   0.969
 6567SOL     OW20599   4.915   2.842   0.721
 6567SOL    HW120600   4.879   2.768   0.778
 6567SOL    HW220601   4.986   2.891   0.771
 6568SOL     OW20602   4.102   4.556   1.565
 6568SOL    HW120603   4.147   4.488   1.622
 6568SOL    HW220604   4.076   4.516   1.477
 6569SOL     OW20605   2.017   5.150   0.567
 6569SOL    HW120606   2.018   5.057   0.603
 6569SOL    HW220607   1.922   5.178   0.552
 6570SOL     OW20608   5.574   1.030   1.627
 6570SOL    HW120609   5.562   1.117   1.579
 6570SOL    HW220610   5.574   1.046   1.725
 6571SOL     OW20611   2.027   5.937   3.472
 6571SOL    HW120612   2.020   5.905   3.566
 6571SOL    HW220613   2.102   6.003   3.465
 6572SOL     OW20614   6.716   3.891   5.376
 6572SOL    HW120615   6.773   3.812   5.399
 6572SOL    HW220616   6.625   3.880   5.418
 6573SOL     OW20617   3.225   0.894   2.151
 6573SOL    HW120618   3.185   0.947   2.225
 6573SOL    HW220619   3.305   0.942   2.114
 6574SOL     OW20620   2.614   5.324   2.459
 6574SOL    HW120621   2.552   5.372   2.521
 6574SOL    HW220622   2.578   5.232   2.442
 6575SOL     OW20623   0.924   1.456   1.808
 6575SOL    HW120624   0.929   1.356   1.811
 6575SOL    HW220625   0.981   1.494   1.881
 6576SOL     OW20626   1.258   5.856   6.821
 6576SOL    HW120627   1.193   5.900   6.759
 6576SOL    HW220628   1.210   5.789   6.877
 6577SOL     OW20629   1.268   1.714   3.742
 6577SOL    HW120630   1.332   1.669   3.804
 6577SOL    HW220631   1.314   1.790   3.696
 6578SOL     OW20632   6.092   5.438   3.669
 6578SOL    HW120633   6.003   5.483   3.674
 6578SOL    HW220634   6.155   5.481   3.734
 6579SOL     OW20635   6.690   4.448   3.538
 6579SOL    HW120636   6.769   4.387   3.536
 6579SOL    HW220637   6.720   4.540   3.565
 6580SOL     OW20638   5.493   0.461   1.266
 6580SOL    HW120639   5.400   0.496   1.275
 6580SOL    HW220640   5.557   0.537   1.266
 6581SOL     OW20641   4.312   2.186   6.516
 6581SOL    HW120642   4.353   2.271   6.484
 6581SOL    HW220643   4.383   2.130   6.559
 6582SOL     OW20644   0.310   6.877   2.929
 6582SOL    HW120645   0.247   6.873   3.006
 6582SOL    HW220646   0.277   6.943   2.862
 6583SOL     OW20647   5.527   1.257   5.993
 6583SOL    HW120648   5.481   1.342   6.019
 6583SOL    HW220649   5.459   1.186   5.974
 6584SOL     OW20650   6.142   1.657   6.795
 6584SOL    HW120651   6.191   1.719   6.856
 6584SOL    HW220652   6.122   1.704   6.709
 6585SOL     OW20653   0.299   1.728   6.695
 6585SOL    HW120654   0.346   1.798   6.641
 6585SOL    HW220655   0.363   1.686   6.759
 6586SOL     OW20656   6.872   1.751   5.820
 6586SOL    HW120657   6.792   1.739   5.878
 6586SOL    HW220658   6.848   1.730   5.725
 6587SOL     OW20659   1.780   5.843   4.002
 6587SOL    HW120660   1.737   5.909   4.063
 6587SOL    HW220661   1.846   5.890   3.944
 6588SOL     OW20662   1.315   2.954   0.208
 6588SOL    HW120663   1.237   3.017   0.203
 6588SOL    HW220664   1.381   2.976   0.136
 6589SOL     OW20665   4.845   1.246   5.967
 6589SOL    HW120666   4.798   1.180   6.026
 6589SOL    HW220667   4.782   1.318   5.940
 6590SOL     OW20668   6.905   1.678   4.779
 6590SOL    HW120669   6.928   1.760   4.726
 6590SOL    HW220670   6.863   1.610   4.718
 6591SOL     OW20671   5.816   6.696   2.797
 6591SOL    HW120672   5.731   6.661   2.759
 6591SOL    HW220673   5.831   6.656   2.888
 6592SOL     OW20674   4.682   0.374   4.511
 6592SOL    HW120675   4.709   0.458   4.557
 6592SOL    HW220676   4.651   0.307   4.578
 6593SOL     OW20677   3.327   2.074   3.785
 6593SOL    HW120678   3.255   2.130   3.826
 6593SOL    HW220679   3.416   2.108   3.816
 6594SOL     OW20680   4.952   0.806   6.402
 6594SOL    HW120681   4.990   0.766   6.486
 6594SOL    HW220682   4.853   0.791   6.400
 6595SOL     OW20683   1.551   3.390   0.765
 6595SOL    HW120684   1.565   3.459   0.836
 6595SOL    HW220685   1.502   3.431   0.688
 6596SOL     OW20686   4.622   7.000   5.634
 6596SOL    HW120687   4.650   0.063   5.593
 6596SOL    HW220688   4.630   6.927   5.567
 6597SOL     OW20689   6.711   6.531   4.439
 6597SOL    HW120690   6.764   6.548   4.522
 6597SOL    HW220691   6.717   6.435   4.415
 6598SOL     OW20692   1.499   5.711   4.978
 6598SOL    HW120693   1.439   5.632   4.980
 6598SOL    HW220694   1.529   5.729   4.885
 6599SOL     OW20695   4.017   5.257   6.160
 6599SOL    HW120696   3.956   5.333   6.137
 6599SOL    HW220697   4.046   5.212   6.075
 6600SOL     OW20698   4.520   5.782   4.390
 6600SOL    HW120699   4.547   5.811   4.299
 6600SOL    HW220700   4.599   5.742   4.437
 6601SOL     OW20701   0.616   1.078   0.617
 6601SOL    HW120702   0.679   1.024   0.562
 6601SOL    HW220703   0.553   1.018   0.666
 6602SOL     OW20704   0.446   2.034   1.404
 6602SOL    HW120705   0.492   1.958   1.358
 6602SOL    HW220706   0.515   2.098   1.440
 6603SOL     OW20707   1.565   3.808   3.278
 6603SOL    HW120708   1.656   3.795   3.318
 6603SOL    HW220709   1.540   3.725   3.227
 6604SOL     OW20710   2.921   5.673   2.376
 6604SOL    HW120711   2.884   5.694   2.285
 6604SOL    HW220712   2.934   5.574   2.384
 6605SOL     OW20713   5.414   5.660   0.146
 6605SOL    HW120714   5.497   5.608   0.166
 6605SOL    HW220715   5.359   5.669   0.229
 6606SOL     OW20716   5.208   0.715   2.499
 6606SOL    HW120717   5.297   0.724   2.543
 6606SOL    HW220718   5.148   0.790   2.529
 6607SOL     OW20719   1.716   1.472   2.397
 6607SOL    HW120720   1.699   1.461   2.495
 6607SOL    HW220721   1.740   1.567   2.377
 6608SOL     OW20722   5.355   3.600   3.768
 6608SOL    HW120723   5.397   3.661   3.835
 6608SOL    HW220724   5.420   3.528   3.744
 6609SOL     OW20725   5.643   1.350   0.023
 6609SOL    HW120726   5.566   1.327   0.083
 6609SOL    HW220727   5.619   1.327   6.952
 6610SOL     OW20728   1.833   0.469   0.639
 6610SOL    HW120729   1.877   0.393   0.591
 6610SOL    HW220730   1.743   0.485   0.601
 6611SOL     OW20731   6.308   2.310   3.340
 6611SOL    HW120732   6.242   2.378   3.309
 6611SOL    HW220733   6.328   2.246   3.266
 6612SOL     OW20734   1.659   6.324   6.992
 6612SOL    HW120735   1.638   6.353   6.899
 6612SOL    HW220736   1.674   6.404   0.026
 6613SOL     OW20737   5.223   5.703   3.225
 6613SOL    HW120738   5.160   5.638   3.182
 6613SOL    HW220739   5.267   5.759   3.154
 6614SOL     OW20740   5.469   5.337   6.146
 6614SOL    HW120741   5.520   5.254   6.124
 6614SOL    HW220742   5.391   5.346   6.085
 6615SOL     OW20743   0.463   3.301   5.579
 6615SOL    HW120744   0.477   3.386   5.628
 6615SOL    HW220745   0.533   3.291   5.508
 6616SOL     OW20746   4.774   1.641   5.317
 6616SOL    HW120747   4.789   1.678   5.409
 6616SOL    HW220748   4.718   1.559   5.323
 6617SOL     OW20749   2.598   6.848   4.383
 6617SOL    HW120750   2.634   6.755   4.373
 6617SOL    HW220751   2.619   6.883   4.474
 6618SOL     OW20752   0.771   4.344   1.815
 6618SOL    HW120753   0.709   4.342   1.736
 6618SOL    HW220754   0.719   4.331   1.899
 6619SOL     OW20755   4.461   6.793   3.431
 6619SOL    HW120756   4.501   6.704   3.450
 6619SOL    HW220757   4.533   6.862   3.425
 6620SOL     OW20758   1.490   2.904   5.930
 6620SOL    HW120759   1.549   2.948   5.998
 6620SOL    HW220760   1.502   2.804   5.936
 6621SOL     OW20761   2.470   4.001   0.453
 6621SOL    HW120762   2.386   4.055   0.445
 6621SOL    HW220763   2.542   4.043   0.398
 6622SOL     OW20764   6.265   6.556   0.642
 6622SOL    HW120765   6.284   6.580   0.546
 6622SOL    HW220766   6.197   6.620   0.678
 6623SOL     OW20767   4.055   3.184   2.890
 6623SOL    HW120768   4.059   3.280   2.862
 6623SOL    HW220769   4.038   3.127   2.810
 6624SOL     OW20770   3.902   5.545   4.947
 6624SOL    HW120771   3.985   5.599   4.963
 6624SOL    HW220772   3.828   5.604   4.916
 6625SOL     OW20773   6.357   0.857   6.408
 6625SOL    HW120774   6.313   0.879   6.321
 6625SOL    HW220775   6.450   0.894   6.409
 6626SOL     OW20776   3.396   5.509   3.266
 6626SOL    HW120777   3.445   5.596   3.266
 6626SOL    HW220778   3.353   5.495   3.356
 6627SOL     OW20779   1.828   0.946   6.268
 6627SOL    HW120780   1.834   0.853   6.303
 6627SOL    HW220781   1.878   0.952   6.181
 6628SOL     OW20782   4.398   4.924   2.546
 6628SOL    HW120783   4.338   4.868   2.489
 6628SOL    HW220784   4.470   4.866   2.584
 6629SOL     OW20785   3.084   5.716   1.246
 6629SOL    HW120786   3.094   5.623   1.210
 6629SOL    HW220787   3.120   5.719   1.339
 6630SOL     OW20788   3.109   1.926   0.053
 6630SOL    HW120789   3.050   1.910   6.998
 6630SOL    HW220790   3.058   1.977   0.123
 6631SOL     OW20791   5.608   0.759   2.417
 6631SOL    HW120792   5.567   0.732   2.330
 6631SOL    HW220793   5.688   0.702   2.435
 6632SOL     OW20794   6.919   1.290   0.321
 6632SOL    HW120795   6.997   1.344   0.290
 6632SOL    HW220796   6.879   1.333   0.403
 6633SOL     OW20797   1.566   6.176   0.256
 6633SOL    HW120798   1.550   6.153   0.161
 6633SOL    HW220799   1.650   6.230   0.264
 6634SOL     OW20800   6.531   3.102   5.855
 6634SOL    HW120801   6.508   3.010   5.886
 6634SOL    HW220802   6.451   3.162   5.866
 6635SOL     OW20803   4.841   5.557   3.357
 6635SOL    HW120804   4.766   5.591   3.413
 6635SOL    HW220805   4.920   5.619   3.364
 6636SOL     OW20806   1.484   2.747   4.636
 6636SOL    HW120807   1.500   2.846   4.636
 6636SOL    HW220808   1.426   2.723   4.715
 6637SOL     OW20809   0.841   0.423   0.693
 6637SOL    HW120810   0.845   0.444   0.791
 6637SOL    HW220811   0.809   0.504   0.643
 6638SOL     OW20812   1.679   5.638   5.928
 6638SOL    HW120813   1.588   5.627   5.969
 6638SOL    HW220814   1.674   5.621   5.830
 6639SOL     OW20815   5.985   4.524   6.537
 6639SOL    HW120816   6.009   4.447   6.478
 6639SOL    HW220817   5.895   4.508   6.579
 6640SOL     OW20818   0.148   2.129   3.364
 6640SOL    HW120819   0.140   2.102   3.460
 6640SOL    HW220820   0.210   2.207   3.356
 6641SOL     OW20821   3.084   3.945   6.474
 6641SOL    HW120822   2.993   3.967   6.440
 6641SOL    HW220823   3.101   3.995   6.559
 6642SOL     OW20824   1.695   5.032   6.474
 6642SOL    HW120825   1.733   4.952   6.427
 6642SOL    HW220826   1.741   5.044   6.562
 6643SOL     OW20827   5.979   4.025   6.125
 6643SOL    HW120828   5.985   3.937   6.077
 6643SOL    HW220829   6.027   4.095   6.071
 6644SOL     OW20830   2.832   4.834   1.845
 6644SOL    HW120831   2.881   4.896   1.905
 6644SOL    HW220832   2.828   4.743   1.886
 6645SOL     OW20833   6.679   4.503   6.274
 6645SOL    HW120834   6.723   4.592   6.275
 6645SOL    HW220835   6.710   4.451   6.195
 6646SOL     OW20836   3.246   5.677   4.738
 6646SOL    HW120837   3.195   5.748   4.785
 6646SOL    HW220838   3.203   5.658   4.650
 6647SOL     OW20839   3.776   0.545   2.046
 6647SOL    HW120840   3.812   0.493   1.969
 6647SOL    HW220841   3.676   0.552   2.038
 6648SOL     OW20842   4.553   5.970   2.650
 6648SOL    HW120843   4.523   5.894   2.592
 6648SOL    HW220844   4.625   6.021   2.602
 6649SOL     OW20845   4.805   2.041   6.529
 6649SOL    HW120846   4.853   2.125   6.555
 6649SOL    HW220847   4.855   1.962   6.565
 6650SOL     OW20848   3.887   1.052   3.924
 6650SOL    HW120849   3.954   1.121   3.954
 6650SOL    HW220850   3.796   1.079   3.956
 6651SOL     OW20851   0.734   2.369   0.010
 6651SOL    HW120852   0.824   2.348   6.995
 6651SOL    HW220853   0.667   2.301   7.003
 6652SOL     OW20854   6.980   5.428   1.575
 6652SOL    HW120855   6.973   5.332   1.601
 6652SOL    HW220856   0.044   5.444   1.529
 6653SOL     OW20857   3.086   3.975   2.993
 6653SOL    HW120858   3.122   3.962   2.901
 6653SOL    HW220859   3.109   4.067   3.026
 6654SOL     OW20860   2.327   3.349   1.520
 6654SOL    HW120861   2.335   3.307   1.429
 6654SOL    HW220862   2.418   3.362   1.559
 6655SOL     OW20863   3.159   6.728   2.022
 6655SOL    HW120864   3.090   6.664   1.988
 6655SOL    HW220865   3.178   6.797   1.952
 6656SOL     OW20866   6.746   1.230   1.273
 6656SOL    HW120867   6.795   1.264   1.192
 6656SOL    HW220868   6.722   1.134   1.260
 6657SOL     OW20869   3.889   6.906   6.056
 6657SOL    HW120870   3.924   6.871   6.143
 6657SOL    HW220871   3.903   7.005   6.052
 6658SOL     OW20872   5.821   1.171   5.111
 6658SOL    HW120873   5.910   1.203   5.144
 6658SOL    HW220874   5.771   1.247   5.070
 6659SOL     OW20875   2.931   3.482   0.317
 6659SOL    HW120876   3.010   3.440   0.272
 6659SOL    HW220877   2.857   3.416   0.322
 6660SOL     OW20878   6.761   6.764   2.139
 6660SOL    HW120879   6.724   6.679   2.178
 6660SOL    HW220880   6.737   6.840   2.199
 6661SOL     OW20881   6.478   5.508   3.662
 6661SOL    HW120882   6.489   5.439   3.590
 6661SOL    HW220883   6.414   5.473   3.731
 6662SOL     OW20884   2.118   0.757   0.553
 6662SOL    HW120885   2.148   0.832   0.613
 6662SOL    HW220886   2.145   0.776   0.459
 6663SOL     OW20887   0.162   5.612   1.878
 6663SOL    HW120888   0.230   5.637   1.809
 6663SOL    HW220889   0.205   5.611   1.969
 6664SOL     OW20890   1.072   0.423   2.332
 6664SOL    HW120891   1.000   0.399   2.267
 6664SOL    HW220892   1.143   0.477   2.286
 6665SOL     OW20893   1.941   6.066   3.032
 6665SOL    HW120894   2.019   6.124   3.010
 6665SOL    HW220895   1.972   5.986   3.083
 6666SOL     OW20896   6.455   1.688   5.334
 6666SOL    HW120897   6.527   1.718   5.272
 6666SOL    HW220898   6.371   1.739   5.316
 6667SOL     OW20899   6.320   5.715   4.841
 6667SOL    HW120900   6.402   5.726   4.786
 6667SOL    HW220901   6.342   5.660   4.922
 6668SOL     OW20902   0.625   4.836   1.973
 6668SOL    HW120903   0.557   4.900   1.935
 6668SOL    HW220904   0.649   4.768   1.903
 6669SOL     OW20905   2.573   5.125   4.016
 6669SOL    HW120906   2.655   5.090   4.061
 6669SOL    HW220907   2.498   5.060   4.028
 6670SOL     OW20908   3.500   4.938   6.897
 6670SOL    HW120909   3.498   4.950   6.996
 6670SOL    HW220910   3.560   5.007   6.856
 6671SOL     OW20911   6.683   4.265   6.036
 6671SOL    HW120912   6.588   4.283   6.059
 6671SOL    HW220913   6.693   4.169   6.009
 6672SOL     OW20914   1.123   0.859   5.720
 6672SOL    HW120915   1.053   0.811   5.774
 6672SOL    HW220916   1.079   0.917   5.652
 6673SOL     OW20917   4.933   4.954   2.380
 6673SOL    HW120918   4.990   4.872   2.373
 6673SOL    HW220919   4.991   5.033   2.400
 6674SOL     OW20920   0.903   6.140   5.422
 6674SOL    HW120921   0.898   6.040   5.421
 6674SOL    HW220922   0.945   6.173   5.338
 6675SOL     OW20923   5.643   4.330   0.194
 6675SOL    HW120924   5.604   4.308   0.284
 6675SOL    HW220925   5.603   4.415   0.161
 6676SOL     OW20926   0.963   3.246   5.458
 6676SOL    HW120927   1.045   3.190   5.473
 6676SOL    HW220928   0.973   3.332   5.507
 6677SOL     OW20929   0.697   3.632   0.667
 6677SOL    HW120930   0.616   3.662   0.616
 6677SOL    HW220931   0.711   3.692   0.746
 6678SOL     OW20932   1.072   2.403   6.312
 6678SOL    HW120933   1.019   2.482   6.282
 6678SOL    HW220934   1.155   2.396   6.258
 6679SOL     OW20935   1.377   2.709   5.466
 6679SOL    HW120936   1.370   2.609   5.469
 6679SOL    HW220937   1.374   2.740   5.371
 6680SOL     OW20938   4.257   6.542   6.184
 6680SOL    HW120939   4.263   6.461   6.125
 6680SOL    HW220940   4.284   6.518   6.277
 6681SOL     OW20941   5.111   4.983   0.260
 6681SOL    HW120942   5.130   4.896   0.216
 6681SOL    HW220943   5.137   4.978   0.357
 6682SOL     OW20944   0.204   5.566   2.534
 6682SOL    HW120945   0.130   5.613   2.582
 6682SOL    HW220946   0.222   5.612   2.447
 6683SOL     OW20947   4.650   1.908   5.200
 6683SOL    HW120948   4.702   1.947   5.125
 6683SOL    HW220949   4.689   1.819   5.225
 6684SOL     OW20950   1.486   6.515   2.669
 6684SOL    HW120951   1.582   6.539   2.686
 6684SOL    HW220952   1.426   6.584   2.710
 6685SOL     OW20953   5.368   2.972   6.463
 6685SOL    HW120954   5.440   3.038   6.442
 6685SOL    HW220955   5.397   2.916   6.542
 6686SOL     OW20956   6.223   3.774   4.024
 6686SOL    HW120957   6.234   3.716   4.104
 6686SOL    HW220958   6.197   3.866   4.052
 6687SOL     OW20959   1.065   1.805   0.828
 6687SOL    HW120960   0.986   1.817   0.889
 6687SOL    HW220961   1.042   1.840   0.737
 6688SOL     OW20962   0.524   4.838   2.460
 6688SOL    HW120963   0.461   4.795   2.525
 6688SOL    HW220964   0.616   4.837   2.498
 6689SOL     OW20965   5.050   3.979   0.723
 6689SOL    HW120966   5.142   4.016   0.713
 6689SOL    HW220967   4.995   4.002   0.643
 6690SOL     OW20968   1.900   3.060   1.530
 6690SOL    HW120969   1.843   3.142   1.539
 6690SOL    HW220970   1.968   3.074   1.459
 6691SOL     OW20971   2.370   6.378   1.353
 6691SOL    HW120972   2.452   6.332   1.389
 6691SOL    HW220973   2.313   6.311   1.306
 6692SOL     OW20974   3.111   4.292   5.327
 6692SOL    HW120975   3.038   4.235   5.365
 6692SOL    HW220976   3.071   4.362   5.268
 6693SOL     OW20977   4.419   3.843   5.283
 6693SOL    HW120978   4.352   3.915   5.302
 6693SOL    HW220979   4.375   3.770   5.230
 6694SOL     OW20980   4.885   6.463   0.620
 6694SOL    HW120981   4.921   6.463   0.527
 6694SOL    HW220982   4.814   6.533   0.629
 6695SOL     OW20983   0.778   1.467   6.792
 6695SOL    HW120984   0.774   1.563   6.762
 6695SOL    HW220985   0.857   1.423   6.750
 6696SOL     OW20986   2.147   3.377   1.745
 6696SOL    HW120987   2.166   3.427   1.829
 6696SOL    HW220988   2.232   3.369   1.692
 6697SOL     OW20989   4.273   1.197   2.654
 6697SOL    HW120990   4.370   1.221   2.650
 6697SOL    HW220991   4.264   1.098   2.666
 6698SOL     OW20992   4.079   2.710   6.928
 6698SOL    HW120993   4.162   2.722   6.873
 6698SOL    HW220994   4.052   2.614   6.927
 6699SOL     OW20995   3.437   4.699   6.745
 6699SOL    HW120996   3.478   4.762   6.812
 6699SOL    HW220997   3.415   4.748   6.661
 6700SOL     OW20998   0.372   5.340   1.095
 6700SOL    HW120999   0.307   5.293   1.155
 6700SOL    HW221000   0.393   5.281   1.017
 6701SOL     OW21001   0.343   1.714   0.370
 6701SOL    HW121002   0.364   1.621   0.399
 6701SOL    HW221003   0.245   1.723   0.353
 6702SOL     OW21004   2.115   1.317   0.978
 6702SOL    HW121005   2.072   1.407   0.987
 6702SOL    HW221006   2.204   1.326   0.934
 6703SOL     OW21007   6.882   1.331   6.033
 6703SOL    HW121008   6.915   1.424   6.049
 6703SOL    HW221009   6.958   1.266   6.044
 6704SOL     OW21010   4.579   2.596   3.010
 6704SOL    HW121011   4.510   2.543   3.058
 6704SOL    HW221012   4.602   2.549   2.924
 6705SOL     OW21013   6.496   2.173   1.375
 6705SOL    HW121014   6.397   2.189   1.376
 6705SOL    HW221015   6.541   2.243   1.320
 6706SOL     OW21016   0.787   3.829   6.810
 6706SOL    HW121017   0.788   3.887   6.891
 6706SOL    HW221018   0.778   3.733   6.837
 6707SOL     OW21019   6.991   5.342   3.800
 6707SOL    HW121020   6.982   5.438   3.824
 6707SOL    HW221021   0.052   5.305   3.838
 6708SOL     OW21022   2.419   5.415   2.042
 6708SOL    HW121023   2.410   5.482   1.968
 6708SOL    HW221024   2.411   5.461   2.130
 6709SOL     OW21025   3.814   0.275   1.780
 6709SOL    HW121026   3.842   0.334   1.704
 6709SOL    HW221027   3.895   0.238   1.824
 6710SOL     OW21028   3.264   2.823   6.497
 6710SOL    HW121029   3.215   2.871   6.570
 6710SOL    HW221030   3.213   2.741   6.472
 6711SOL     OW21031   4.857   3.777   6.839
 6711SOL    HW121032   4.934   3.841   6.840
 6711SOL    HW221033   4.876   3.702   6.902
 6712SOL     OW21034   3.976   5.743   0.371
 6712SOL    HW121035   3.996   5.646   0.381
 6712SOL    HW221036   3.896   5.755   0.312
 6713SOL     OW21037   2.076   2.529   1.673
 6713SOL    HW121038   2.084   2.528   1.773
 6713SOL    HW221039   2.164   2.505   1.632
 6714SOL     OW21040   5.529   0.713   4.427
 6714SOL    HW121041   5.612   0.668   4.459
 6714SOL    HW221042   5.449   0.661   4.458
 6715SOL     OW21043   0.414   2.140   0.674
 6715SOL    HW121044   0.413   2.064   0.739
 6715SOL    HW221045   0.412   2.105   0.581
 6716SOL     OW21046   2.236   5.819   1.433
 6716SOL    HW121047   2.298   5.773   1.368
 6716SOL    HW221048   2.246   5.778   1.523
 6717SOL     OW21049   4.171   2.538   0.367
 6717SOL    HW121050   4.216   2.476   0.302
 6717SOL    HW221051   4.185   2.632   0.337
 6718SOL     OW21052   3.449   0.222   0.146
 6718SOL    HW121053   3.431   0.287   0.219
 6718SOL    HW221054   3.367   0.212   0.090
 6719SOL     OW21055   0.256   5.987   5.485
 6719SOL    HW121056   0.205   5.942   5.411
 6719SOL    HW221057   0.328   5.926   5.518
 6720SOL     OW21058   2.717   5.319   1.553
 6720SOL    HW121059   2.628   5.308   1.597
 6720SOL    HW221060   2.711   5.288   1.457
 6721SOL     OW21061   5.173   6.891   3.885
 6721SOL    HW121062   5.231   6.810   3.879
 6721SOL    HW221063   5.121   6.888   3.971
 6722SOL     OW21064   4.323   3.339   6.688
 6722SOL    HW121065   4.300   3.353   6.785
 6722SOL    HW221066   4.289   3.250   6.659
 6723SOL     OW21067   3.010   6.623   3.852
 6723SOL    HW121068   2.995   6.616   3.950
 6723SOL    HW221069   2.939   6.680   3.811
 6724SOL     OW21070   2.999   4.866   5.055
 6724SOL    HW121071   2.949   4.893   4.973
 6724SOL    HW221072   2.993   4.767   5.068
 6725SOL     OW21073   0.766   5.289   2.464
 6725SOL    HW121074   0.806   5.377   2.490
 6725SOL    HW221075   0.710   5.255   2.539
 6726SOL     OW21076   2.446   2.734   4.355
 6726SOL    HW121077   2.505   2.653   4.356
 6726SOL    HW221078   2.406   2.748   4.445
 6727SOL     OW21079   4.338   3.620   5.962
 6727SOL    HW121080   4.264   3.673   6.005
 6727SOL    HW221081   4.392   3.574   6.033
 6728SOL     OW21082   4.064   1.548   3.995
 6728SOL    HW121083   3.969   1.537   3.968
 6728SOL    HW221084   4.122   1.548   3.914
 6729SOL     OW21085   6.239   0.686   2.682
 6729SOL    HW121086   6.231   0.626   2.761
 6729SOL    HW221087   6.311   0.652   2.621
 6730SOL     OW21088   2.451   1.207   0.172
 6730SOL    HW121089   2.533   1.215   0.116
 6730SOL    HW221090   2.461   1.132   0.237
 6731SOL     OW21091   2.518   4.713   1.571
 6731SOL    HW121092   2.464   4.661   1.505
 6731SOL    HW221093   2.607   4.668   1.584
 6732SOL     OW21094   2.634   6.282   0.741
 6732SOL    HW121095   2.703   6.354   0.745
 6732SOL    HW221096   2.562   6.309   0.676
 6733SOL     OW21097   5.383   6.066   5.006
 6733SOL    HW121098   5.388   6.007   5.086
 6733SOL    HW221099   5.426   6.021   4.928
 6734SOL     OW21100   2.143   3.059   5.512
 6734SOL    HW121101   2.148   3.079   5.415
 6734SOL    HW221102   2.228   3.086   5.557
 6735SOL     OW21103   6.867   5.163   5.509
 6735SOL    HW121104   6.962   5.159   5.539
 6735SOL    HW221105   6.856   5.106   5.427
 6736SOL     OW21106   2.128   2.884   1.662
 6736SOL    HW121107   2.066   2.962   1.667
 6736SOL    HW221108   2.082   2.808   1.616
 6737SOL     OW21109   2.063   1.753   2.038
 6737SOL    HW121110   2.096   1.841   2.072
 6737SOL    HW221111   2.095   1.740   1.943
 6738SOL     OW21112   2.571   0.996   2.611
 6738SOL    HW121113   2.519   0.929   2.558
 6738SOL    HW221114   2.668   0.974   2.608
 6739SOL     OW21115   3.602   6.439   5.257
 6739SOL    HW121116   3.689   6.408   5.295
 6739SOL    HW221117   3.617   6.473   5.164
 6740SOL     OW21118   1.519   1.641   3.417
 6740SOL    HW121119   1.497   1.576   3.490
 6740SOL    HW221120   1.618   1.654   3.414
 6741SOL     OW21121   7.008   0.280   6.040
 6741SOL    HW121122   6.930   0.233   6.083
 6741SOL    HW221123   0.068   0.256   6.088
 6742SOL     OW21124   6.196   6.070   5.076
 6742SOL    HW121125   6.237   6.119   5.153
 6742SOL    HW221126   6.144   5.992   5.109
 6743SOL     OW21127   3.924   3.406   1.503
 6743SOL    HW121128   4.010   3.450   1.528
 6743SOL    HW221129   3.903   3.334   1.568
 6744SOL     OW21130   5.025   4.811   5.668
 6744SOL    HW121131   4.963   4.847   5.598
 6744SOL    HW221132   5.050   4.885   5.731
 6745SOL     OW21133   1.812   5.018   4.140
 6745SOL    HW121134   1.850   5.059   4.057
 6745SOL    HW221135   1.724   4.975   4.119
 6746SOL     OW21136   0.062   2.377   1.213
 6746SOL    HW121137   0.126   2.306   1.243
 6746SOL    HW221138   7.019   2.337   1.149
 6747SOL     OW21139   5.295   6.525   4.940
 6747SOL    HW121140   5.345   6.439   4.953
 6747SOL    HW221141   5.355   6.602   4.963
 6748SOL     OW21142   1.595   0.484   2.348
 6748SOL    HW121143   1.555   0.412   2.292
 6748SOL    HW221144   1.527   0.555   2.365
 6749SOL     OW21145   4.389   0.629   0.234
 6749SOL    HW121146   4.482   0.601   0.257
 6749SOL    HW221147   4.390   0.691   0.156
 6750SOL     OW21148   2.458   2.359   5.001
 6750SOL    HW121149   2.450   2.441   5.058
 6750SOL    HW221150   2.541   2.364   4.945
 6751SOL     OW21151   2.888   2.071   5.297
 6751SOL    HW121152   2.836   2.080   5.381
 6751SOL    HW221153   2.905   1.974   5.278
 6752SOL     OW21154   5.835   2.677   0.905
 6752SOL    HW121155   5.815   2.631   0.818
 6752SOL    HW221156   5.839   2.609   0.979
 6753SOL     OW21157   4.550   2.436   6.492
 6753SOL    HW121158   4.647   2.461   6.495
 6753SOL    HW221159   4.506   2.485   6.416
 6754SOL     OW21160   6.258   0.786   6.139
 6754SOL    HW121161   6.220   0.853   6.076
 6754SOL    HW221162   6.196   0.707   6.145
 6755SOL     OW21163   4.752   1.886   4.262
 6755SOL    HW121164   4.670   1.927   4.223
 6755SOL    HW221165   4.822   1.956   4.275
 6756SOL     OW21166   5.137   5.427   4.341
 6756SOL    HW121167   5.210   5.364   4.364
 6756SOL    HW221168   5.174   5.519   4.330
 6757SOL     OW21169   6.083   5.724   1.688
 6757SOL    HW121170   6.173   5.704   1.651
 6757SOL    HW221171   6.073   5.822   1.702
 6758SOL     OW21172   4.977   2.381   2.047
 6758SOL    HW121173   5.044   2.360   1.975
 6758SOL    HW221174   4.914   2.451   2.013
 6759SOL     OW21175   0.532   5.451   3.308
 6759SOL    HW121176   0.444   5.403   3.298
 6759SOL    HW221177   0.549   5.506   3.226
 6760SOL     OW21178   6.562   3.964   3.905
 6760SOL    HW121179   6.646   4.003   3.865
 6760SOL    HW221180   6.551   3.999   3.998
 6761SOL     OW21181   4.753   2.603   5.686
 6761SOL    HW121182   4.657   2.628   5.675
 6761SOL    HW221183   4.786   2.633   5.775
 6762SOL     OW21184   6.416   4.515   4.067
 6762SOL    HW121185   6.335   4.559   4.105
 6762SOL    HW221186   6.388   4.443   4.003
 6763SOL     OW21187   6.392   6.632   6.093
 6763SOL    HW121188   6.371   6.539   6.060
 6763SOL    HW221189   6.337   6.651   6.174
 6764SOL     OW21190   2.742   4.288   6.800
 6764SOL    HW121191   2.649   4.313   6.831
 6764SOL    HW221192   2.792   4.372   6.777
 6765SOL     OW21193   5.645   4.112   2.182
 6765SOL    HW121194   5.653   4.126   2.084
 6765SOL    HW221195   5.735   4.123   2.225
 6766SOL     OW21196   1.635   0.752   5.911
 6766SOL    HW121197   1.618   0.772   5.814
 6766SOL    HW221198   1.733   0.764   5.931
 6767SOL     OW21199   6.495   3.071   6.787
 6767SOL    HW121200   6.523   3.099   6.695
 6767SOL    HW221201   6.411   3.017   6.781
 6768SOL     OW21202   6.668   0.182   4.055
 6768SOL    HW121203   6.704   0.183   4.148
 6768SOL    HW221204   6.736   0.143   3.993
 6769SOL     OW21205   2.024   2.831   5.614
 6769SOL    HW121206   2.070   2.903   5.561
 6769SOL    HW221207   1.944   2.799   5.564
 6770SOL     OW21208   0.433   1.271   3.407
 6770SOL    HW121209   0.369   1.281   3.483
 6770SOL    HW221210   0.499   1.199   3.429
 6771SOL     OW21211   3.608   2.132   3.173
 6771SOL    HW121212   3.666   2.084   3.108
 6771SOL    HW221213   3.662   2.197   3.225
 6772SOL     OW21214   6.890   1.238   1.774
 6772SOL    HW121215   6.959   1.239   1.701
 6772SOL    HW221216   6.801   1.261   1.736
 6773SOL     OW21217   1.274   6.530   1.389
 6773SOL    HW121218   1.323   6.617   1.394
 6773SOL    HW221219   1.184   6.540   1.430
 6774SOL     OW21220   2.250   2.289   4.844
 6774SOL    HW121221   2.187   2.216   4.870
 6774SOL    HW221222   2.328   2.289   4.906
 6775SOL     OW21223   0.897   1.808   4.285
 6775SOL    HW121224   0.907   1.890   4.228
 6775SOL    HW221225   0.980   1.794   4.339
 6776SOL     OW21226   3.426   4.110   2.687
 6776SOL    HW121227   3.471   4.046   2.624
 6776SOL    HW221228   3.351   4.063   2.733
 6777SOL     OW21229   6.327   5.467   0.030
 6777SOL    HW121230   6.330   5.438   0.126
 6777SOL    HW221231   6.419   5.459   7.014
 6778SOL     OW21232   6.137   4.732   2.792
 6778SOL    HW121233   6.224   4.698   2.829
 6778SOL    HW221234   6.155   4.786   2.710
 6779SOL     OW21235   5.197   3.505   5.831
 6779SOL    HW121236   5.215   3.409   5.852
 6779SOL    HW221237   5.255   3.563   5.888
 6780SOL     OW21238   3.147   2.060   3.112
 6780SOL    HW121239   3.232   2.077   3.062
 6780SOL    HW221240   3.069   2.081   3.054
 6781SOL     OW21241   7.004   1.608   3.518
 6781SOL    HW121242   6.969   1.632   3.427
 6781SOL    HW221243   0.069   1.653   3.532
 6782SOL     OW21244   6.676   1.239   2.236
 6782SOL    HW121245   6.625   1.324   2.250
 6782SOL    HW221246   6.621   1.161   2.267
 6783SOL     OW21247   1.329   4.745   5.566
 6783SOL    HW121248   1.389   4.715   5.492
 6783SOL    HW221249   1.368   4.716   5.654
 6784SOL     OW21250   2.233   3.714   1.763
 6784SOL    HW121251   2.263   3.654   1.837
 6784SOL    HW221252   2.138   3.741   1.778
 6785SOL     OW21253   5.739   6.334   4.974
 6785SOL    HW121254   5.817   6.273   4.989
 6785SOL    HW221255   5.760   6.396   4.899
 6786SOL     OW21256   5.861   1.652   6.107
 6786SOL    HW121257   5.906   1.730   6.150
 6786SOL    HW221258   5.835   1.675   6.013
 6787SOL     OW21259   3.921   1.570   0.040
 6787SOL    HW121260   3.883   1.525   6.982
 6787SOL    HW221261   3.847   1.603   0.098
 6788SOL     OW21262   6.851   4.451   2.747
 6788SOL    HW121263   6.874   4.354   2.753
 6788SOL    HW221264   6.903   4.502   2.815
 6789SOL     OW21265   5.453   4.359   3.615
 6789SOL    HW121266   5.402   4.403   3.689
 6789SOL    HW221267   5.407   4.274   3.589
 6790SOL     OW21268   0.550   4.908   6.015
 6790SOL    HW121269   0.634   4.955   5.991
 6790SOL    HW221270   0.548   4.890   6.113
 6791SOL     OW21271   3.107   0.880   2.906
 6791SOL    HW121272   3.163   0.962   2.893
 6791SOL    HW221273   3.126   0.815   2.833
 6792SOL     OW21274   3.620   0.116   5.453
 6792SOL    HW121275   3.538   0.092   5.400
 6792SOL    HW221276   3.696   0.131   5.390
 6793SOL     OW21277   1.973   3.305   6.346
 6793SOL    HW121278   1.948   3.302   6.249
 6793SOL    HW221279   1.890   3.310   6.402
 6794SOL     OW21280   5.035   1.722   5.520
 6794SOL    HW121281   4.989   1.726   5.609
 6794SOL    HW221282   5.028   1.630   5.483
 6795SOL     OW21283   1.034   0.338   1.178
 6795SOL    HW121284   0.983   0.397   1.240
 6795SOL    HW221285   1.018   0.242   1.203
 6796SOL     OW21286   6.248   1.248   2.535
 6796SOL    HW121287   6.228   1.161   2.490
 6796SOL    HW221288   6.219   1.323   2.476
 6797SOL     OW21289   0.893   2.534   1.437
 6797SOL    HW121290   0.906   2.614   1.495
 6797SOL    HW221291   0.799   2.501   1.446
 6798SOL     OW21292   5.631   6.823   1.664
 6798SOL    HW121293   5.600   6.842   1.570
 6798SOL    HW221294   5.595   6.894   1.725
 6799SOL     OW21295   6.388   0.965   3.381
 6799SOL    HW121296   6.486   0.979   3.397
 6799SOL    HW221297   6.338   0.978   3.466
 6800SOL     OW21298   6.879   2.182   1.433
 6800SOL    HW121299   6.789   2.163   1.474
 6800SOL    HW221300   6.868   2.248   1.359
 6801SOL     OW21301   1.091   6.146   6.419
 6801SOL    HW121302   1.087   6.232   6.470
 6801SOL    HW221303   1.148   6.159   6.338
 6802SOL     OW21304   3.280   4.841   2.126
 6802SOL    HW121305   3.331   4.858   2.041
 6802SOL    HW221306   3.232   4.754   2.120
 6803SOL     OW21307   5.607   5.107   6.059
 6803SOL    HW121308   5.544   5.114   5.982
 6803SOL    HW221309   5.595   5.018   6.104
 6804SOL     OW21310   3.761   5.045   3.059
 6804SOL    HW121311   3.780   5.125   3.002
 6804SOL    HW221312   3.717   4.974   3.004
 6805SOL     OW21313   0.031   4.653   4.740
 6805SOL    HW121314   7.014   4.669   4.830
 6805SOL    HW221315   7.017   4.718   4.674
 6806SOL     OW21316   6.577   2.002   2.036
 6806SOL    HW121317   6.534   1.941   2.102
 6806SOL    HW221318   6.644   2.060   2.083
 6807SOL     OW21319   3.265   3.807   2.135
 6807SOL    HW121320   3.219   3.871   2.196
 6807SOL    HW221321   3.350   3.848   2.101
 6808SOL     OW21322   3.356   1.302   4.301
 6808SOL    HW121323   3.259   1.296   4.278
 6808SOL    HW221324   3.407   1.232   4.251
 6809SOL     OW21325   5.428   3.200   0.337
 6809SOL    HW121326   5.398   3.267   0.406
 6809SOL    HW221327   5.528   3.196   0.336
 6810SOL     OW21328   2.860   0.415   4.573
 6810SOL    HW121329   2.800   0.380   4.501
 6810SOL    HW221330   2.806   0.447   4.650
 6811SOL     OW21331   6.545   1.347   0.686
 6811SOL    HW121332   6.548   1.250   0.714
 6811SOL    HW221333   6.450   1.378   0.688
 6812SOL     OW21334   3.741   4.251   5.166
 6812SOL    HW121335   3.697   4.311   5.099
 6812SOL    HW221336   3.741   4.157   5.132
 6813SOL     OW21337   6.611   3.606   2.063
 6813SOL    HW121338   6.551   3.678   2.028
 6813SOL    HW221339   6.684   3.647   2.117
 6814SOL     OW21340   5.453   0.966   6.484
 6814SOL    HW121341   5.418   0.882   6.525
 6814SOL    HW221342   5.512   1.014   6.549
 6815SOL     OW21343   1.127   4.615   6.265
 6815SOL    HW121344   1.096   4.558   6.188
 6815SOL    HW221345   1.225   4.630   6.257
 6816SOL     OW21346   6.801   0.870   3.520
 6816SOL    HW121347   6.879   0.819   3.485
 6816SOL    HW221348   6.765   0.931   3.450
 6817SOL     OW21349   4.376   2.087   1.497
 6817SOL    HW121350   4.322   2.028   1.557
 6817SOL    HW221351   4.466   2.103   1.537
 6818SOL     OW21352   1.442   0.194   5.293
 6818SOL    HW121353   1.481   0.212   5.383
 6818SOL    HW221354   1.486   0.254   5.226
 6819SOL     OW21355   4.688   4.461   1.834
 6819SOL    HW121356   4.752   4.407   1.779
 6819SOL    HW221357   4.631   4.399   1.888
 6820SOL     OW21358   2.999   5.009   2.047
 6820SOL    HW121359   2.985   4.962   2.134
 6820SOL    HW221360   3.018   5.105   2.063
 6821SOL     OW21361   3.876   2.610   5.314
 6821SOL    HW121362   3.847   2.517   5.295
 6821SOL    HW221363   3.973   2.621   5.292
 6822SOL     OW21364   6.197   2.740   6.122
 6822SOL    HW121365   6.269   2.809   6.133
 6822SOL    HW221366   6.195   2.708   6.028
 6823SOL     OW21367   6.163   2.550   4.898
 6823SOL    HW121368   6.151   2.526   4.801
 6823SOL    HW221369   6.254   2.588   4.911
 6824SOL     OW21370   1.024   7.007   6.069
 6824SOL    HW121371   0.955   6.967   6.009
 6824SOL    HW221372   1.114   6.972   6.043
 6825SOL     OW21373   5.346   4.687   0.935
 6825SOL    HW121374   5.440   4.674   0.904
 6825SOL    HW221375   5.338   4.655   1.030
 6826SOL     OW21376   6.477   5.631   4.412
 6826SOL    HW121377   6.470   5.568   4.334
 6826SOL    HW221378   6.385   5.648   4.449
 6827SOL     OW21379   4.851   6.204   4.746
 6827SOL    HW121380   4.795   6.195   4.828
 6827SOL    HW221381   4.930   6.144   4.752
 6828SOL     OW21382   2.567   2.382   2.436
 6828SOL    HW121383   2.643   2.358   2.375
 6828SOL    HW221384   2.595   2.367   2.531
 6829SOL     OW21385   3.949   6.930   3.678
 6829SOL    HW121386   4.025   6.968   3.730
 6829SOL    HW221387   3.956   6.957   3.582
 6830SOL     OW21388   4.846   6.119   3.274
 6830SOL    HW121389   4.769   6.079   3.224
 6830SOL    HW221390   4.832   6.218   3.282
 6831SOL     OW21391   1.539   2.350   5.954
 6831SOL    HW121392   1.528   2.290   6.033
 6831SOL    HW221393   1.617   2.411   5.969
 6832SOL     OW21394   3.315   2.901   6.984
 6832SOL    HW121395   3.308   2.838   6.907
 6832SOL    HW221396   3.289   2.854   0.045
 6833SOL     OW21397   3.394   5.265   5.897
 6833SOL    HW121398   3.307   5.282   5.942
 6833SOL    HW221399   3.379   5.220   5.809
 6834SOL     OW21400   5.882   6.513   0.546
 6834SOL    HW121401   5.852   6.423   0.513
 6834SOL    HW221402   5.832   6.585   0.497
 6835SOL     OW21403   2.942   1.662   5.379
 6835SOL    HW121404   2.856   1.714   5.387
 6835SOL    HW221405   3.019   1.725   5.376
 6836SOL     OW21406   2.545   4.398   6.385
 6836SOL    HW121407   2.506   4.438   6.303
 6836SOL    HW221408   2.544   4.465   6.459
 6837SOL     OW21409   0.822   1.090   2.108
 6837SOL    HW121410   0.805   1.144   2.191
 6837SOL    HW221411   0.787   0.997   2.121
 6838SOL     OW21412   3.139   3.830   5.203
 6838SOL    HW121413   3.070   3.849   5.133
 6838SOL    HW221414   3.205   3.764   5.168
 6839SOL     OW21415   6.334   3.423   4.711
 6839SOL    HW121416   6.409   3.482   4.680
 6839SOL    HW221417   6.256   3.434   4.649
 6840SOL     OW21418   2.393   6.832   4.697
 6840SOL    HW121419   2.332   6.911   4.702
 6840SOL    HW221420   2.344   6.754   4.657
 6841SOL     OW21421   4.779   6.230   0.717
 6841SOL    HW121422   4.747   6.165   0.648
 6841SOL    HW221423   4.792   6.320   0.675
 6842SOL     OW21424   0.589   3.756   5.177
 6842SOL    HW121425   0.523   3.757   5.252
 6842SOL    HW221426   0.597   3.848   5.139
 6843SOL     OW21427   3.987   2.149   2.019
 6843SOL    HW121428   3.991   2.054   1.988
 6843SOL    HW221429   3.895   2.185   2.007
 6844SOL     OW21430   4.381   5.244   4.010
 6844SOL    HW121431   4.448   5.285   3.948
 6844SOL    HW221432   4.398   5.278   4.103
 6845SOL     OW21433   4.339   4.541   1.178
 6845SOL    HW121434   4.395   4.523   1.259
 6845SOL    HW221435   4.307   4.454   1.141
 6846SOL     OW21436   3.456   3.036   3.257
 6846SOL    HW121437   3.456   2.987   3.345
 6846SOL    HW221438   3.547   3.073   3.239
 6847SOL     OW21439   5.761   3.761   2.312
 6847SOL    HW121440   5.847   3.717   2.284
 6847SOL    HW221441   5.716   3.801   2.233
 6848SOL     OW21442   0.663   6.362   3.392
 6848SOL    HW121443   0.732   6.347   3.321
 6848SOL    HW221444   0.620   6.274   3.415
 6849SOL     OW21445   3.249   6.722   3.740
 6849SOL    HW121446   3.153   6.726   3.770
 6849SOL    HW221447   3.253   6.693   3.644
 6850SOL     OW21448   5.395   2.639   2.602
 6850SOL    HW121449   5.460   2.564   2.595
 6850SOL    HW221450   5.333   2.636   2.523
 6851SOL     OW21451   0.994   5.581   5.550
 6851SOL    HW121452   1.045   5.539   5.625
 6851SOL    HW221453   0.897   5.561   5.559
 6852SOL     OW21454   0.020   4.512   1.873
 6852SOL    HW121455   0.065   4.594   1.839
 6852SOL    HW221456   6.957   4.498   1.825
 6853SOL     OW21457   0.737   3.390   5.775
 6853SOL    HW121458   0.720   3.376   5.873
 6853SOL    HW221459   0.756   3.302   5.732
 6854SOL     OW21460   6.446   1.511   6.185
 6854SOL    HW121461   6.440   1.412   6.199
 6854SOL    HW221462   6.519   1.549   6.241
 6855SOL     OW21463   2.894   5.990   1.621
 6855SOL    HW121464   2.848   6.067   1.577
 6855SOL    HW221465   2.976   5.965   1.568
 6856SOL     OW21466   0.020   3.528   5.009
 6856SOL    HW121467   0.077   3.513   4.928
 6856SOL    HW221468   6.971   3.459   5.013
 6857SOL     OW21469   4.368   1.812   5.400
 6857SOL    HW121470   4.403   1.729   5.357
 6857SOL    HW221471   4.421   1.833   5.482
 6858SOL     OW21472   4.132   3.286   4.340
 6858SOL    HW121473   4.072   3.213   4.373
 6858SOL    HW221474   4.162   3.342   4.418
 6859SOL     OW21475   4.058   6.920   0.945
 6859SOL    HW121476   4.155   6.907   0.961
 6859SOL    HW221477   4.042   6.945   0.850
 6860SOL     OW21478   5.128   3.553   6.835
 6860SOL    HW121479   5.134   3.454   6.826
 6860SOL    HW221480   5.078   3.576   6.918
 6861SOL     OW21481   6.319   4.699   0.121
 6861SOL    HW121482   6.385   4.764   0.083
 6861SOL    HW221483   6.367   4.632   0.177
 6862SOL     OW21484   3.896   5.792   4.043
 6862SOL    HW121485   3.955   5.773   4.121
 6862SOL    HW221486   3.898   5.890   4.023
 6863SOL     OW21487   6.017   2.702   4.186
 6863SOL    HW121488   5.942   2.687   4.250
 6863SOL    HW221489   6.005   2.643   4.106
 6864SOL     OW21490   4.372   6.218   5.141
 6864SOL    HW121491   4.425   6.147   5.096
 6864SOL    HW221492   4.429   6.300   5.152
 6865SOL     OW21493   6.659   4.956   4.107
 6865SOL    HW121494   6.632   4.956   4.203
 6865SOL    HW221495   6.671   4.861   4.076
 6866SOL     OW21496   6.901   3.049   2.230
 6866SOL    HW121497   6.830   3.076   2.166
 6866SOL    HW221498   6.873   2.967   2.280
 6867SOL     OW21499   1.811   4.125   3.013
 6867SOL    HW121500   1.844   4.038   3.050
 6867SOL    HW221501   1.888   4.188   3.003
 6868SOL     OW21502   1.538   5.214   5.254
 6868SOL    HW121503   1.565   5.233   5.348
 6868SOL    HW221504   1.441   5.193   5.251
 6869SOL     OW21505   6.128   3.621   5.786
 6869SOL    HW121506   6.051   3.560   5.771
 6869SOL    HW221507   6.120   3.700   5.726
 6870SOL     OW21508   5.620   3.731   2.922
 6870SOL    HW121509   5.690   3.783   2.972
 6870SOL    HW221510   5.664   3.673   2.855
 6871SOL     OW21511   5.368   5.697   1.582
 6871SOL    HW121512   5.458   5.731   1.554
 6871SOL    HW221513   5.350   5.610   1.537
 6872SOL     OW21514   2.408   3.377   6.339
 6872SOL    HW121515   2.482   3.329   6.386
 6872SOL    HW221516   2.420   3.367   6.240
 6873SOL     OW21517   5.633   3.297   5.537
 6873SOL    HW121518   5.619   3.346   5.451
 6873SOL    HW221519   5.580   3.340   5.609
 6874SOL     OW21520   0.627   2.432   5.727
 6874SOL    HW121521   0.616   2.519   5.679
 6874SOL    HW221522   0.717   2.394   5.706
 6875SOL     OW21523   2.882   1.814   3.462
 6875SOL    HW121524   2.850   1.909   3.463
 6875SOL    HW221525   2.971   1.809   3.418
 6876SOL     OW21526   4.190   6.242   6.778
 6876SOL    HW121527   4.272   6.187   6.764
 6876SOL    HW221528   4.209   6.337   6.755
 6877SOL     OW21529   2.414   4.292   0.069
 6877SOL    HW121530   2.359   4.337   0.140
 6877SOL    HW221531   2.509   4.285   0.100
 6878SOL     OW21532   1.971   1.529   5.392
 6878SOL    HW121533   2.047   1.579   5.350
 6878SOL    HW221534   1.886   1.582   5.381
 6879SOL     OW21535   1.434   2.381   6.511
 6879SOL    HW121536   1.453   2.446   6.436
 6879SOL    HW221537   1.338   2.389   6.538
 6880SOL     OW21538   2.039   4.229   5.208
 6880SOL    HW121539   2.093   4.298   5.255
 6880SOL    HW221540   2.089   4.142   5.207
 6881SOL     OW21541   6.862   4.107   1.943
 6881SOL    HW121542   6.937   4.068   1.889
 6881SOL    HW221543   6.876   4.205   1.952
 6882SOL     OW21544   1.518   0.313   5.565
 6882SOL    HW121545   1.560   0.395   5.526
 6882SOL    HW221546   1.533   0.311   5.664
 6883SOL     OW21547   3.643   6.357   1.487
 6883SOL    HW121548   3.626   6.455   1.485
 6883SOL    HW221549   3.712   6.333   1.419
 6884SOL     OW21550   2.400   4.780   3.846
 6884SOL    HW121551   2.368   4.686   3.837
 6884SOL    HW221552   2.478   4.794   3.785
 6885SOL     OW21553   2.849   5.481   4.738
 6885SOL    HW121554   2.784   5.535   4.791
 6885SOL    HW221555   2.939   5.525   4.740
 6886SOL     OW21556   5.963   1.574   2.786
 6886SOL    HW121557   5.913   1.593   2.871
 6886SOL    HW221558   5.938   1.641   2.717
 6887SOL     OW21559   6.173   0.857   4.585
 6887SOL    HW121560   6.218   0.946   4.596
 6887SOL    HW221561   6.213   0.791   4.648
 6888SOL     OW21562   5.351   6.999   4.494
 6888SOL    HW121563   5.361   6.902   4.476
 6888SOL    HW221564   5.392   0.028   4.420
 6889SOL     OW21565   1.510   4.594   5.785
 6889SOL    HW121566   1.522   4.560   5.879
 6889SOL    HW221567   1.530   4.521   5.720
 6890SOL     OW21568   2.154   0.447   1.300
 6890SOL    HW121569   2.119   0.535   1.266
 6890SOL    HW221570   2.158   0.382   1.224
 6891SOL     OW21571   1.895   4.648   4.706
 6891SOL    HW121572   1.987   4.684   4.720
 6891SOL    HW221573   1.856   4.623   4.795
 6892SOL     OW21574   3.590   0.876   3.986
 6892SOL    HW121575   3.523   0.802   3.986
 6892SOL    HW221576   3.570   0.939   4.060
 6893SOL     OW21577   4.823   5.268   2.516
 6893SOL    HW121578   4.906   5.249   2.463
 6893SOL    HW221579   4.752   5.202   2.491
 6894SOL     OW21580   6.535   4.803   6.127
 6894SOL    HW121581   6.584   4.733   6.075
 6894SOL    HW221582   6.451   4.764   6.164
 6895SOL     OW21583   3.665   5.522   6.852
 6895SOL    HW121584   3.697   5.608   6.811
 6895SOL    HW221585   3.565   5.523   6.856
 6896SOL     OW21586   3.622   0.359   2.890
 6896SOL    HW121587   3.609   0.345   2.988
 6896SOL    HW221588   3.706   0.410   2.874
 6897SOL     OW21589   3.180   3.323   0.463
 6897SOL    HW121590   3.271   3.362   0.472
 6897SOL    HW221591   3.165   3.296   0.368
 6898SOL     OW21592   4.117   2.216   2.341
 6898SOL    HW121593   4.074   2.227   2.251
 6898SOL    HW221594   4.147   2.306   2.374
 6899SOL     OW21595   4.916   6.117   6.547
 6899SOL    HW121596   4.922   6.113   6.646
 6899SOL    HW221597   5.008   6.110   6.507
 6900SOL     OW21598   4.502   0.598   6.280
 6900SOL    HW121599   4.530   0.520   6.224
 6900SOL    HW221600   4.408   0.623   6.257
 6901SOL     OW21601   1.560   0.821   6.298
 6901SOL    HW121602   1.642   0.871   6.270
 6901SOL    HW221603   1.484   0.885   6.310
 6902SOL     OW21604   6.680   5.495   0.779
 6902SOL    HW121605   6.677   5.474   0.682
 6902SOL    HW221606   6.596   5.543   0.805
 6903SOL     OW21607   4.470   4.205   0.793
 6903SOL    HW121608   4.448   4.253   0.708
 6903SOL    HW221609   4.513   4.268   0.857
 6904SOL     OW21610   6.855   1.290   3.204
 6904SOL    HW121611   6.911   1.235   3.266
 6904SOL    HW221612   6.771   1.318   3.250
 6905SOL     OW21613   5.473   6.316   1.082
 6905SOL    HW121614   5.559   6.291   1.036
 6905SOL    HW221615   5.403   6.248   1.059
 6906SOL     OW21616   4.141   0.831   3.337
 6906SOL    HW121617   4.159   0.917   3.385
 6906SOL    HW221618   4.059   0.840   3.281
 6907SOL     OW21619   3.989   1.852   1.689
 6907SOL    HW121620   3.944   1.936   1.661
 6907SOL    HW221621   3.972   1.835   1.786
 6908SOL     OW21622   1.205   6.687   6.069
 6908SOL    HW121623   1.239   6.775   6.100
 6908SOL    HW221624   1.128   6.659   6.126
 6909SOL     OW21625   3.986   3.658   6.433
 6909SOL    HW121626   4.043   3.740   6.435
 6909SOL    HW221627   3.947   3.642   6.524
 6910SOL     OW21628   6.229   1.514   1.720
 6910SOL    HW121629   6.263   1.591   1.774
 6910SOL    HW221630   6.235   1.430   1.774
 6911SOL     OW21631   4.123   1.328   4.737
 6911SOL    HW121632   4.053   1.335   4.666
 6911SOL    HW221633   4.202   1.279   4.701
 6912SOL     OW21634   4.876   4.868   0.132
 6912SOL    HW121635   4.958   4.913   0.167
 6912SOL    HW221636   4.800   4.933   0.132
 6913SOL     OW21637   5.193   5.147   5.007
 6913SOL    HW121638   5.140   5.194   5.078
 6913SOL    HW221639   5.132   5.090   4.953
 6914SOL     OW21640   6.427   4.972   0.656
 6914SOL    HW121641   6.432   4.997   0.559
 6914SOL    HW221642   6.333   4.983   0.688
 6915SOL     OW21643   0.591   5.218   2.700
 6915SOL    HW121644   0.631   5.269   2.776
 6915SOL    HW221645   0.509   5.264   2.668
 6916SOL     OW21646   6.248   2.071   0.098
 6916SOL    HW121647   6.298   2.035   0.177
 6916SOL    HW221648   6.298   2.149   0.060
 6917SOL     OW21649   4.571   5.872   6.573
 6917SOL    HW121650   4.482   5.838   6.541
 6917SOL    HW221651   4.643   5.836   6.514
 6918SOL     OW21652   0.973   3.428   4.130
 6918SOL    HW121653   0.984   3.410   4.032
 6918SOL    HW221654   0.961   3.526   4.144
 6919SOL     OW21655   2.283   6.034   3.183
 6919SOL    HW121656   2.250   6.122   3.148
 6919SOL    HW221657   2.327   6.048   3.272
 6920SOL     OW21658   4.858   6.784   4.360
 6920SOL    HW121659   4.796   6.708   4.341
 6920SOL    HW221660   4.952   6.750   4.358
 6921SOL     OW21661   0.743   0.856   3.582
 6921SOL    HW121662   0.695   0.801   3.650
 6921SOL    HW221663   0.842   0.851   3.598
 6922SOL     OW21664   2.422   6.324   0.569
 6922SOL    HW121665   2.426   6.229   0.537
 6922SOL    HW221666   2.332   6.363   0.546
 6923SOL     OW21667   4.896   0.778   3.982
 6923SOL    HW121668   4.943   0.811   4.063
 6923SOL    HW221669   4.814   0.727   4.009
 6924SOL     OW21670   0.160   5.521   1.047
 6924SOL    HW121671   0.148   5.479   0.957
 6924SOL    HW221672   0.246   5.489   1.087
 6925SOL     OW21673   4.683   5.367   2.957
 6925SOL    HW121674   4.659   5.450   2.907
 6925SOL    HW221675   4.740   5.309   2.899
 6926SOL     OW21676   3.279   3.388   4.647
 6926SOL    HW121677   3.232   3.390   4.735
 6926SOL    HW221678   3.320   3.478   4.629
 6927SOL     OW21679   4.482   4.309   5.707
 6927SOL    HW121680   4.500   4.269   5.796
 6927SOL    HW221681   4.386   4.336   5.701
 6928SOL     OW21682   5.620   0.525   6.487
 6928SOL    HW121683   5.535   0.489   6.449
 6928SOL    HW221684   5.675   0.449   6.522
 6929SOL     OW21685   3.999   5.348   0.059
 6929SOL    HW121686   4.055   5.381   7.007
 6929SOL    HW221687   4.029   5.391   0.144
 6930SOL     OW21688   0.859   0.147   3.581
 6930SOL    HW121689   0.865   0.065   3.639
 6930SOL    HW221690   0.844   0.227   3.639
 6931SOL     OW21691   1.577   1.608   1.013
 6931SOL    HW121692   1.515   1.533   1.036
 6931SOL    HW221693   1.619   1.643   1.097
 6932SOL     OW21694   2.600   2.287   1.047
 6932SOL    HW121695   2.636   2.322   0.961
 6932SOL    HW221696   2.673   2.284   1.115
 6933SOL     OW21697   4.367   5.828   6.043
 6933SOL    HW121698   4.324   5.839   5.953
 6933SOL    HW221699   4.297   5.811   6.112
 6934SOL     OW21700   5.221   3.520   0.189
 6934SOL    HW121701   5.188   3.551   0.279
 6934SOL    HW221702   5.312   3.557   0.172
 6935SOL     OW21703   4.256   5.687   3.564
 6935SOL    HW121704   4.204   5.603   3.582
 6935SOL    HW221705   4.327   5.697   3.634
 6936SOL     OW21706   1.142   4.036   1.712
 6936SOL    HW121707   1.149   4.100   1.788
 6936SOL    HW221708   1.053   4.048   1.667
 6937SOL     OW21709   4.500   6.644   5.335
 6937SOL    HW121710   4.545   6.607   5.417
 6937SOL    HW221711   4.402   6.651   5.352
 6938SOL     OW21712   4.620   2.407   5.166
 6938SOL    HW121713   4.562   2.439   5.241
 6938SOL    HW221714   4.583   2.442   5.079
 6939SOL     OW21715   0.503   4.402   2.927
 6939SOL    HW121716   0.527   4.376   2.833
 6939SOL    HW221717   0.566   4.359   2.991
 6940SOL     OW21718   5.227   0.585   5.404
 6940SOL    HW121719   5.142   0.579   5.456
 6940SOL    HW221720   5.210   0.560   5.309
 6941SOL     OW21721   4.039   3.872   3.593
 6941SOL    HW121722   4.039   3.778   3.630
 6941SOL    HW221723   4.123   3.919   3.621
 6942SOL     OW21724   6.838   2.412   6.895
 6942SOL    HW121725   6.815   2.454   6.983
 6942SOL    HW221726   6.908   2.342   6.909
 6943SOL     OW21727   5.198   5.340   6.619
 6943SOL    HW121728   5.118   5.399   6.625
 6943SOL    HW221729   5.184   5.272   6.547
 6944SOL     OW21730   1.299   5.338   6.200
 6944SOL    HW121731   1.227   5.283   6.160
 6944SOL    HW221732   1.308   5.316   6.297
 6945SOL     OW21733   6.262   2.719   5.822
 6945SOL    HW121734   6.293   2.627   5.845
 6945SOL    HW221735   6.329   2.763   5.763
 6946SOL     OW21736   5.498   3.924   2.709
 6946SOL    HW121737   5.575   3.975   2.670
 6946SOL    HW221738   5.533   3.857   2.774
 6947SOL     OW21739   3.698   6.545   3.202
 6947SOL    HW121740   3.657   6.567   3.291
 6947SOL    HW221741   3.629   6.554   3.130
 6948SOL     OW21742   4.597   0.619   5.278
 6948SOL    HW121743   4.602   0.706   5.326
 6948SOL    HW221744   4.529   0.561   5.321
 6949SOL     OW21745   5.608   0.207   2.986
 6949SOL    HW121746   5.563   0.239   3.070
 6949SOL    HW221747   5.538   0.184   2.918
 6950SOL     OW21748   2.233   0.648   3.194
 6950SOL    HW121749   2.288   0.716   3.145
 6950SOL    HW221750   2.293   0.590   3.249
 6951SOL     OW21751   6.549   5.410   5.884
 6951SOL    HW121752   6.609   5.434   5.807
 6951SOL    HW221753   6.503   5.323   5.864
 6952SOL     OW21754   0.498   4.808   5.215
 6952SOL    HW121755   0.493   4.776   5.310
 6952SOL    HW221756   0.479   4.732   5.153
 6953SOL     OW21757   4.657   1.383   5.350
 6953SOL    HW121758   4.583   1.414   5.410
 6953SOL    HW221759   4.628   1.303   5.298
 6954SOL     OW21760   6.675   3.666   3.653
 6954SOL    HW121761   6.744   3.703   3.715
 6954SOL    HW221762   6.586   3.706   3.675
 6955SOL     OW21763   6.616   5.819   1.800
 6955SOL    HW121764   6.590   5.817   1.703
 6955SOL    HW221765   6.676   5.742   1.820
 6956SOL     OW21766   4.259   5.209   1.110
 6956SOL    HW121767   4.343   5.235   1.157
 6956SOL    HW221768   4.187   5.191   1.177
 6957SOL     OW21769   0.266   4.570   1.074
 6957SOL    HW121770   0.195   4.512   1.113
 6957SOL    HW221771   0.223   4.652   1.034
 6958SOL     OW21772   3.010   3.200   6.801
 6958SOL    HW121773   2.982   3.280   6.853
 6958SOL    HW221774   3.080   3.227   6.734
 6959SOL     OW21775   3.251   1.266   4.551
 6959SOL    HW121776   3.290   1.297   4.464
 6959SOL    HW221777   3.151   1.268   4.545
 6960SOL     OW21778   0.627   4.598   6.703
 6960SOL    HW121779   0.565   4.527   6.669
 6960SOL    HW221780   0.720   4.561   6.707
 6961SOL     OW21781   0.959   0.703   2.672
 6961SOL    HW121782   1.043   0.679   2.721
 6961SOL    HW221783   0.922   0.788   2.710
 6962SOL     OW21784   4.982   4.232   1.034
 6962SOL    HW121785   4.916   4.171   0.989
 6962SOL    HW221786   4.933   4.309   1.075
 6963SOL     OW21787   6.906   4.851   1.610
 6963SOL    HW121788   6.817   4.850   1.657
 6963SOL    HW221789   6.892   4.834   1.512
 6964SOL     OW21790   4.512   5.621   5.263
 6964SOL    HW121791   4.523   5.704   5.209
 6964SOL    HW221792   4.573   5.550   5.228
 6965SOL     OW21793   7.000   3.055   5.782
 6965SOL    HW121794   7.004   3.132   5.718
 6965SOL    HW221795   6.925   3.070   5.847
 6966SOL     OW21796   4.636   2.443   3.658
 6966SOL    HW121797   4.726   2.405   3.682
 6966SOL    HW221798   4.613   2.517   3.722
 6967SOL     OW21799   1.400   1.127   5.856
 6967SOL    HW121800   1.404   1.054   5.924
 6967SOL    HW221801   1.430   1.213   5.899
 6968SOL     OW21802   4.950   6.063   2.245
 6968SOL    HW121803   4.932   6.074   2.342
 6968SOL    HW221804   5.006   6.139   2.212
 6969SOL     OW21805   3.196   2.279   0.682
 6969SOL    HW121806   3.277   2.323   0.720
 6969SOL    HW221807   3.213   2.257   0.586
 6970SOL     OW21808   5.271   4.289   0.081
 6970SOL    HW121809   5.253   4.211   0.140
 6970SOL    HW221810   5.344   4.267   0.016
 6971SOL     OW21811   5.577   1.105   1.233
 6971SOL    HW121812   5.636   1.120   1.312
 6971SOL    HW221813   5.488   1.071   1.263
 6972SOL     OW21814   5.370   4.952   4.325
 6972SOL    HW121815   5.376   4.933   4.227
 6972SOL    HW221816   5.455   4.924   4.369
 6973SOL     OW21817   1.827   4.559   3.590
 6973SOL    HW121818   1.799   4.617   3.667
 6973SOL    HW221819   1.927   4.547   3.592
 6974SOL     OW21820   3.261   3.793   4.519
 6974SOL    HW121821   3.337   3.856   4.538
 6974SOL    HW221822   3.217   3.767   4.605
 6975SOL     OW21823   4.304   0.800   5.903
 6975SOL    HW121824   4.335   0.839   5.990
 6975SOL    HW221825   4.349   0.711   5.889
 6976SOL     OW21826   2.166   4.760   6.724
 6976SOL    HW121827   2.079   4.750   6.774
 6976SOL    HW221828   2.221   4.832   6.767
 6977SOL     OW21829   3.201   1.872   2.593
 6977SOL    HW121830   3.154   1.808   2.532
 6977SOL    HW221831   3.183   1.846   2.688
 6978SOL     OW21832   0.210   0.569   1.964
 6978SOL    HW121833   0.236   0.576   2.060
 6978SOL    HW221834   0.146   0.642   1.941
 6979SOL     OW21835   0.468   5.023   2.262
 6979SOL    HW121836   0.510   4.972   2.336
 6979SOL    HW221837   0.539   5.066   2.206
 6980SOL     OW21838   2.906   0.747   4.285
 6980SOL    HW121839   2.898   0.836   4.240
 6980SOL    HW221840   2.999   0.712   4.275
 6981SOL     OW21841   1.749   5.321   0.543
 6981SOL    HW121842   1.751   5.370   0.456
 6981SOL    HW221843   1.739   5.386   0.618
 6982SOL     OW21844   0.435   6.983   4.867
 6982SOL    HW121845   0.534   6.973   4.864
 6982SOL    HW221846   0.392   6.916   4.806
 6983SOL     OW21847   6.414   0.108   4.228
 6983SOL    HW121848   6.497   0.138   4.275
 6983SOL    HW221849   6.415   0.142   4.134
 6984SOL     OW21850   1.890   1.262   6.164
 6984SOL    HW121851   1.941   1.223   6.241
 6984SOL    HW221852   1.814   1.202   6.140
 6985SOL     OW21853   4.893   5.778   2.195
 6985SOL    HW121854   4.818   5.751   2.256
 6985SOL    HW221855   4.978   5.787   2.248
 6986SOL     OW21856   2.186   6.395   5.909
 6986SOL    HW121857   2.114   6.327   5.892
 6986SOL    HW221858   2.200   6.405   6.007
 6987SOL     OW21859   0.650   3.465   6.777
 6987SOL    HW121860   0.564   3.501   6.812
 6987SOL    HW221861   0.655   3.480   6.679
 6988SOL     OW21862   5.228   1.285   3.882
 6988SOL    HW121863   5.239   1.382   3.902
 6988SOL    HW221864   5.299   1.256   3.817
 6989SOL     OW21865   1.528   2.000   3.732
 6989SOL    HW121866   1.530   1.978   3.830
 6989SOL    HW221867   1.588   2.078   3.715
 6990SOL     OW21868   3.616   3.195   0.081
 6990SOL    HW121869   3.602   3.104   0.118
 6990SOL    HW221870   3.568   3.262   0.138
 6991SOL     OW21871   2.617   4.316   6.030
 6991SOL    HW121872   2.628   4.313   5.931
 6991SOL    HW221873   2.693   4.267   6.074
 6992SOL     OW21874   5.760   6.924   3.842
 6992SOL    HW121875   5.777   6.953   3.936
 6992SOL    HW221876   5.826   6.967   3.781
 6993SOL     OW21877   0.514   0.191   2.821
 6993SOL    HW121878   0.417   0.167   2.818
 6993SOL    HW221879   0.570   0.109   2.805
 6994SOL     OW21880   1.815   2.961   6.675
 6994SOL    HW121881   1.910   2.957   6.644
 6994SOL    HW221882   1.796   3.051   6.713
 6995SOL     OW21883   5.885   5.580   3.353
 6995SOL    HW121884   5.872   5.528   3.269
 6995SOL    HW221885   5.841   5.533   3.429
 6996SOL     OW21886   2.625   0.507   5.674
 6996SOL    HW121887   2.643   0.569   5.597
 6996SOL    HW221888   2.533   0.470   5.666
 6997SOL     OW21889   4.773   6.899   5.022
 6997SOL    HW121890   4.772   6.951   5.107
 6997SOL    HW221891   4.684   6.855   5.009
 6998SOL     OW21892   1.034   3.687   2.910
 6998SOL    HW121893   1.099   3.645   2.847
 6998SOL    HW221894   1.029   3.633   2.994
 6999SOL     OW21895   3.447   1.600   5.612
 6999SOL    HW121896   3.475   1.600   5.516
 6999SOL    HW221897   3.352   1.630   5.619
 7000SOL     OW21898   0.601   6.303   2.389
 7000SOL    HW121899   0.604   6.211   2.350
 7000SOL    HW221900   0.569   6.367   2.320
 7001SOL     OW21901   2.587   2.942   5.695
 7001SOL    HW121902   2.558   2.907   5.606
 7001SOL    HW221903   2.550   3.033   5.709
 7002SOL     OW21904   1.256   4.877   3.158
 7002SOL    HW121905   1.270   4.974   3.177
 7002SOL    HW221906   1.337   4.826   3.186
 7003SOL     OW21907   2.964   6.503   1.022
 7003SOL    HW121908   3.061   6.504   0.996
 7003SOL    HW221909   2.930   6.410   1.017
 7004SOL     OW21910   1.546   3.814   1.194
 7004SOL    HW121911   1.616   3.743   1.181
 7004SOL    HW221912   1.586   3.904   1.179
 7005SOL     OW21913   5.141   6.132   6.407
 7005SOL    HW121914   5.228   6.170   6.438
 7005SOL    HW221915   5.128   6.152   6.310
 7006SOL     OW21916   4.535   4.592   4.827
 7006SOL    HW121917   4.538   4.548   4.737
 7006SOL    HW221918   4.472   4.543   4.886
 7007SOL     OW21919   4.380   6.013   3.329
 7007SOL    HW121920   4.328   5.930   3.308
 7007SOL    HW221921   4.349   6.088   3.270
 7008SOL     OW21922   1.369   4.958   3.854
 7008SOL    HW121923   1.313   5.029   3.895
 7008SOL    HW221924   1.453   4.999   3.816
 7009SOL     OW21925   0.524   4.684   2.198
 7009SOL    HW121926   0.543   4.755   2.130
 7009SOL    HW221927   0.501   4.727   2.285
 7010SOL     OW21928   3.781   5.085   6.322
 7010SOL    HW121929   3.745   5.005   6.274
 7010SOL    HW221930   3.873   5.105   6.290
 7011SOL     OW21931   2.749   0.234   6.049
 7011SOL    HW121932   2.778   0.292   5.972
 7011SOL    HW221933   2.828   0.212   6.106
 7012SOL     OW21934   1.456   0.527   1.567
 7012SOL    HW121935   1.419   0.554   1.478
 7012SOL    HW221936   1.556   0.528   1.563
 7013SOL     OW21937   1.211   0.168   1.683
 7013SOL    HW121938   1.181   0.216   1.601
 7013SOL    HW221939   1.168   0.078   1.687
 7014SOL     OW21940   2.697   4.616   1.291
 7014SOL    HW121941   2.617   4.576   1.247
 7014SOL    HW221942   2.673   4.705   1.330
 7015SOL     OW21943   4.916   2.338   2.892
 7015SOL    HW121944   4.949   2.283   2.815
 7015SOL    HW221945   4.820   2.314   2.910
 7016SOL     OW21946   4.554   5.127   0.997
 7016SOL    HW121947   4.489   5.052   1.012
 7016SOL    HW221948   4.575   5.133   0.899
 7017SOL     OW21949   3.097   1.834   3.256
 7017SOL    HW121950   3.112   1.916   3.200
 7017SOL    HW221951   3.172   1.823   3.321
 7018SOL     OW21952   0.709   4.825   5.052
 7018SOL    HW121953   0.790   4.793   5.101
 7018SOL    HW221954   0.643   4.860   5.118
 7019SOL     OW21955   2.421   5.731   7.001
 7019SOL    HW121956   2.382   5.813   0.017
 7019SOL    HW221957   2.513   5.715   0.015
 7020SOL     OW21958   6.289   6.483   6.591
 7020SOL    HW121959   6.225   6.436   6.530
 7020SOL    HW221960   6.371   6.428   6.603
 7021SOL     OW21961   2.281   1.162   6.096
 7021SOL    HW121962   2.268   1.076   6.144
 7021SOL    HW221963   2.372   1.163   6.054
 7022SOL     OW21964   5.475   4.211   6.936
 7022SOL    HW121965   5.500   4.118   6.964
 7022SOL    HW221966   5.558   4.264   6.918
 7023SOL     OW21967   6.579   3.674   2.347
 7023SOL    HW121968   6.658   3.717   2.304
 7023SOL    HW221969   6.497   3.727   2.326
 7024SOL     OW21970   1.554   5.788   0.503
 7024SOL    HW121971   1.510   5.877   0.514
 7024SOL    HW221972   1.589   5.779   0.410
 7025SOL     OW21973   3.002   2.168   6.501
 7025SOL    HW121974   2.925   2.145   6.441
 7025SOL    HW221975   2.988   2.258   6.541
 7026SOL     OW21976   3.716   1.644   1.131
 7026SOL    HW121977   3.723   1.682   1.223
 7026SOL    HW221978   3.701   1.545   1.137
 7027SOL     OW21979   3.988   6.293   4.552
 7027SOL    HW121980   4.030   6.216   4.600
 7027SOL    HW221981   4.059   6.352   4.515
 7028SOL     OW21982   3.985   6.538   4.191
 7028SOL    HW121983   3.941   6.628   4.194
 7028SOL    HW221984   4.072   6.544   4.143
 7029SOL     OW21985   3.443   0.415   6.921
 7029SOL    HW121986   3.369   0.370   6.971
 7029SOL    HW221987   3.405   0.462   6.842
 7030SOL     OW21988   0.852   3.632   4.813
 7030SOL    HW121989   0.809   3.612   4.901
 7030SOL    HW221990   0.787   3.616   4.739
 7031SOL     OW21991   1.491   5.846   4.471
 7031SOL    HW121992   1.541   5.831   4.385
 7031SOL    HW221993   1.404   5.798   4.467
 7032SOL     OW21994   5.945   0.854   2.196
 7032SOL    HW121995   5.987   0.766   2.219
 7032SOL    HW221996   5.846   0.846   2.200
 7033SOL     OW21997   6.921   0.978   3.743
 7033SOL    HW121998   6.882   0.950   3.655
 7033SOL    HW221999   6.949   1.074   3.738
 7034SOL     OW22000   6.692   6.855   2.662
 7034SOL    HW122001   6.714   6.790   2.736
 7034SOL    HW222002   6.776   6.886   2.618
 7035SOL     OW22003   6.616   5.604   2.625
 7035SOL    HW122004   6.618   5.700   2.597
 7035SOL    HW222005   6.542   5.557   2.576
 7036SOL     OW22006   0.026   5.025   2.128
 7036SOL    HW122007   7.022   5.031   2.224
 7036SOL    HW222008   0.108   5.081   2.113
 7037SOL     OW22009   1.015   6.060   5.913
 7037SOL    HW122010   1.097   6.060   5.857
 7037SOL    HW222011   0.956   6.136   5.887
 7038SOL     OW22012   0.735   4.207   4.583
 7038SOL    HW122013   0.647   4.249   4.558
 7038SOL    HW222014   0.718   4.119   4.627
 7039SOL     OW22015   3.691   1.010   5.983
 7039SOL    HW122016   3.662   1.100   6.015
 7039SOL    HW222017   3.617   0.944   5.996
 7040SOL     OW22018   5.436   2.127   6.252
 7040SOL    HW122019   5.393   2.151   6.339
 7040SOL    HW222020   5.367   2.125   6.180
 7041SOL     OW22021   1.731   2.012   2.741
 7041SOL    HW122022   1.670   2.048   2.811
 7041SOL    HW222023   1.795   2.083   2.712
 7042SOL     OW22024   3.670   6.311   6.379
 7042SOL    HW122025   3.659   6.221   6.336
 7042SOL    HW222026   3.717   6.301   6.466
 7043SOL     OW22027   2.424   2.011   2.892
 7043SOL    HW122028   2.464   1.921   2.873
 7043SOL    HW222029   2.340   1.998   2.944
 7044SOL     OW22030   4.888   4.746   2.739
 7044SOL    HW122031   4.917   4.654   2.765
 7044SOL    HW222032   4.965   4.809   2.749
 7045SOL     OW22033   5.584   5.499   1.177
 7045SOL    HW122034   5.654   5.542   1.120
 7045SOL    HW222035   5.572   5.404   1.148
 7046SOL     OW22036   3.607   0.706   4.564
 7046SOL    HW122037   3.618   0.756   4.650
 7046SOL    HW222038   3.616   0.608   4.580
 7047SOL     OW22039   1.317   0.853   4.322
 7047SOL    HW122040   1.308   0.771   4.379
 7047SOL    HW222041   1.240   0.858   4.259
 7048SOL     OW22042   6.770   5.824   0.299
 7048SOL    HW122043   6.703   5.893   0.273
 7048SOL    HW222044   6.861   5.866   0.305
 7049SOL     OW22045   2.394   1.363   0.880
 7049SOL    HW122046   2.458   1.437   0.905
 7049SOL    HW222047   2.419   1.280   0.929
 7050SOL     OW22048   3.793   4.122   4.498
 7050SOL    HW122049   3.779   4.160   4.589
 7050SOL    HW222050   3.760   4.028   4.496
 7051SOL     OW22051   0.121   0.143   1.766
 7051SOL    HW122052   0.093   0.098   1.851
 7051SOL    HW222053   0.096   0.085   1.689
 7052SOL     OW22054   0.173   2.077   3.957
 7052SOL    HW122055   0.147   1.986   3.989
 7052SOL    HW222056   0.121   2.146   4.008
 7053SOL     OW22057   0.654   4.133   6.782
 7053SOL    HW122058   0.594   4.199   6.827
 7053SOL    HW222059   0.700   4.078   6.852
 7054SOL     OW22060   6.627   6.429   1.670
 7054SOL    HW122061   6.600   6.372   1.747
 7054SOL    HW222062   6.727   6.429   1.661
 7055SOL     OW22063   4.656   0.660   4.014
 7055SOL    HW122064   4.649   0.560   4.021
 7055SOL    HW222065   4.589   0.693   3.948
 7056SOL     OW22066   5.335   4.886   4.067
 7056SOL    HW122067   5.236   4.878   4.063
 7056SOL    HW222068   5.368   4.941   3.990
 7057SOL     OW22069   0.049   5.905   3.474
 7057SOL    HW122070   0.015   5.927   3.566
 7057SOL    HW222071   0.136   5.856   3.482
 7058SOL     OW22072   0.903   5.186   5.821
 7058SOL    HW122073   0.881   5.259   5.757
 7058SOL    HW222074   0.953   5.113   5.774
 7059SOL     OW22075   0.864   0.321   2.163
 7059SOL    HW122076   0.776   0.324   2.115
 7059SOL    HW222077   0.938   0.331   2.096
 7060SOL     OW22078   3.637   6.129   1.848
 7060SOL    HW122079   3.679   6.101   1.934
 7060SOL    HW222080   3.709   6.143   1.780
 7061SOL     OW22081   0.729   0.607   2.911
 7061SOL    HW122082   0.802   0.588   2.976
 7061SOL    HW222083   0.708   0.705   2.912
 7062SOL     OW22084   5.267   1.953   5.204
 7062SOL    HW122085   5.233   1.872   5.156
 7062SOL    HW222086   5.367   1.949   5.209
 7063SOL     OW22087   2.539   6.593   1.270
 7063SOL    HW122088   2.480   6.515   1.289
 7063SOL    HW222089   2.492   6.678   1.295
 7064SOL     OW22090   3.665   2.366   1.479
 7064SOL    HW122091   3.758   2.371   1.514
 7064SOL    HW222092   3.601   2.351   1.555
 7065SOL     OW22093   4.722   3.686   1.695
 7065SOL    HW122094   4.791   3.681   1.767
 7065SOL    HW222095   4.757   3.742   1.620
 7066SOL     OW22096   3.947   6.850   0.193
 7066SOL    HW122097   3.914   6.942   0.218
 7066SOL    HW222098   4.009   6.857   0.115
 7067SOL     OW22099   0.490   3.779   5.798
 7067SOL    HW122100   0.579   3.820   5.820
 7067SOL    HW222101   0.441   3.759   5.883
 7068SOL     OW22102   1.424   1.119   3.772
 7068SOL    HW122103   1.450   1.108   3.676
 7068SOL    HW222104   1.334   1.163   3.777
 7069SOL     OW22105   0.361   4.269   5.396
 7069SOL    HW122106   0.338   4.366   5.404
 7069SOL    HW222107   0.319   4.231   5.314
 7070SOL     OW22108   6.177   4.732   4.898
 7070SOL    HW122109   6.104   4.695   4.956
 7070SOL    HW222110   6.218   4.658   4.845
 7071SOL     OW22111   1.436   5.617   5.524
 7071SOL    HW122112   1.431   5.543   5.457
 7071SOL    HW222113   1.350   5.668   5.525
 7072SOL     OW22114   7.010   6.584   6.585
 7072SOL    HW122115   0.048   6.628   6.650
 7072SOL    HW222116   0.023   6.494   6.559
 7073SOL     OW22117   0.506   0.879   5.384
 7073SOL    HW122118   0.465   0.892   5.294
 7073SOL    HW222119   0.535   0.784   5.395
 7074SOL     OW22120   3.319   1.884   1.708
 7074SOL    HW122121   3.233   1.835   1.720
 7074SOL    HW222122   3.323   1.962   1.770
 7075SOL     OW22123   1.695   5.748   4.305
 7075SOL    HW122124   1.760   5.818   4.334
 7075SOL    HW222125   1.745   5.667   4.273
 7076SOL     OW22126   3.367   1.940   6.314
 7076SOL    HW122127   3.328   2.023   6.354
 7076SOL    HW222128   3.463   1.933   6.339
 7077SOL     OW22129   2.233   5.375   5.614
 7077SOL    HW122130   2.245   5.407   5.708
 7077SOL    HW222131   2.306   5.310   5.592
 7078SOL     OW22132   5.468   0.925   3.420
 7078SOL    HW122133   5.566   0.940   3.404
 7078SOL    HW222134   5.417   1.009   3.399
 7079SOL     OW22135   6.346   6.349   5.966
 7079SOL    HW122136   6.255   6.310   5.954
 7079SOL    HW222137   6.410   6.277   5.992
 7080SOL     OW22138   4.453   2.067   3.925
 7080SOL    HW122139   4.489   2.087   3.834
 7080SOL    HW222140   4.503   2.119   3.994
 7081SOL     OW22141   3.328   1.289   5.707
 7081SOL    HW122142   3.290   1.217   5.764
 7081SOL    HW222143   3.327   1.376   5.758
 7082SOL     OW22144   6.070   1.206   6.395
 7082SOL    HW122145   5.995   1.231   6.457
 7082SOL    HW222146   6.151   1.184   6.448
 7083SOL     OW22147   3.229   0.335   6.016
 7083SOL    HW122148   3.142   0.382   6.003
 7083SOL    HW222149   3.301   0.383   5.966
 7084SOL     OW22150   6.946   6.484   6.197
 7084SOL    HW122151   6.991   6.571   6.220
 7084SOL    HW222152   7.009   6.408   6.212
 7085SOL     OW22153   1.958   2.465   2.356
 7085SOL    HW122154   2.053   2.491   2.371
 7085SOL    HW222155   1.947   2.432   2.262
 7086SOL     OW22156   5.659   0.768   6.390
 7086SOL    HW122157   5.599   0.845   6.413
 7086SOL    HW222158   5.628   0.687   6.439
 7087SOL     OW22159   0.974   3.234   4.749
 7087SOL    HW122160   1.019   3.189   4.826
 7087SOL    HW222161   1.010   3.327   4.740
 7088SOL     OW22162   5.557   3.491   4.242
 7088SOL    HW122163   5.585   3.409   4.192
 7088SOL    HW222164   5.475   3.529   4.199
 7089SOL     OW22165   3.778   1.483   6.828
 7089SOL    HW122166   3.806   1.563   6.775
 7089SOL    HW222167   3.678   1.478   6.829
 7090SOL     OW22168   2.128   2.041   4.932
 7090SOL    HW122169   2.099   1.973   4.865
 7090SOL    HW222170   2.185   1.996   5.002
 7091SOL     OW22171   6.896   0.751   0.757
 7091SOL    HW122172   6.914   0.662   0.799
 7091SOL    HW222173   6.848   0.738   0.671
 7092SOL     OW22174   3.527   4.208   1.261
 7092SOL    HW122175   3.452   4.272   1.280
 7092SOL    HW222176   3.489   4.126   1.217
 7093SOL     OW22177   3.525   3.762   4.721
 7093SOL    HW122178   3.576   3.791   4.802
 7093SOL    HW222179   3.428   3.753   4.743
 7094SOL     OW22180   1.054   6.498   5.639
 7094SOL    HW122181   1.139   6.550   5.646
 7094SOL    HW222182   0.979   6.560   5.614
 7095SOL     OW22183   0.928   3.122   6.440
 7095SOL    HW122184   0.986   3.099   6.518
 7095SOL    HW222185   0.984   3.127   6.357
 7096SOL     OW22186   4.180   2.298   3.982
 7096SOL    HW122187   4.146   2.333   4.069
 7096SOL    HW222188   4.274   2.328   3.968
 7097SOL     OW22189   0.225   1.094   1.647
 7097SOL    HW122190   0.154   1.056   1.587
 7097SOL    HW222191   0.233   1.037   1.729
 7098SOL     OW22192   1.897   5.918   6.535
 7098SOL    HW122193   1.925   5.973   6.456
 7098SOL    HW222194   1.874   5.825   6.504
 7099SOL     OW22195   1.189   1.188   5.413
 7099SOL    HW122196   1.223   1.205   5.505
 7099SOL    HW222197   1.145   1.271   5.378
 7100SOL     OW22198   4.818   3.799   1.182
 7100SOL    HW122199   4.720   3.787   1.167
 7100SOL    HW222200   4.835   3.890   1.220
 7101SOL     OW22201   2.794   0.469   5.004
 7101SOL    HW122202   2.853   0.389   4.996
 7101SOL    HW222203   2.711   0.444   5.055
 7102SOL     OW22204   3.817   1.103   0.787
 7102SOL    HW122205   3.753   1.179   0.788
 7102SOL    HW222206   3.844   1.083   0.693
 7103SOL     OW22207   3.516   6.549   0.326
 7103SOL    HW122208   3.484   6.482   0.393
 7103SOL    HW222209   3.616   6.552   0.326
 7104SOL     OW22210   1.518   2.165   3.267
 7104SOL    HW122211   1.500   2.067   3.276
 7104SOL    HW222212   1.448   2.217   3.316
 7105SOL     OW22213   3.495   3.189   4.431
 7105SOL    HW122214   3.493   3.249   4.351
 7105SOL    HW222215   3.433   3.111   4.416
 7106SOL     OW22216   3.739   2.974   4.459
 7106SOL    HW122217   3.694   3.062   4.444
 7106SOL    HW222218   3.704   2.933   4.543
 7107SOL     OW22219   2.717   1.166   0.448
 7107SOL    HW122220   2.621   1.138   0.443
 7107SOL    HW222221   2.745   1.172   0.545
 7108SOL     OW22222   5.055   6.242   1.188
 7108SOL    HW122223   5.060   6.336   1.152
 7108SOL    HW222224   4.987   6.191   1.136
 7109SOL     OW22225   3.374   0.099   6.026
 7109SOL    HW122226   3.415   0.087   6.117
 7109SOL    HW222227   3.313   0.178   6.027
 7110SOL     OW22228   4.505   5.335   4.229
 7110SOL    HW122229   4.528   5.424   4.191
 7110SOL    HW222230   4.571   5.267   4.197
 7111SOL     OW22231   2.164   3.315   4.319
 7111SOL    HW122232   2.154   3.288   4.224
 7111SOL    HW222233   2.219   3.246   4.367
 7112SOL     OW22234   1.090   6.304   4.053
 7112SOL    HW122235   1.101   6.384   4.112
 7112SOL    HW222236   1.045   6.231   4.103
 7113SOL     OW22237   3.560   3.757   4.248
 7113SOL    HW122238   3.630   3.769   4.177
 7113SOL    HW222239   3.475   3.799   4.218
 7114SOL     OW22240   4.482   1.576   1.566
 7114SOL    HW122241   4.561   1.632   1.542
 7114SOL    HW222242   4.400   1.612   1.521
 7115SOL     OW22243   4.914   1.430   1.429
 7115SOL    HW122244   4.866   1.474   1.354
 7115SOL    HW222245   4.974   1.358   1.394
 7116SOL     OW22246   5.297   3.839   3.625
 7116SOL    HW122247   5.301   3.784   3.709
 7116SOL    HW222248   5.291   3.778   3.546
 7117SOL     OW22249   6.262   6.202   2.551
 7117SOL    HW122250   6.321   6.131   2.590
 7117SOL    HW222251   6.300   6.292   2.574
 7118SOL     OW22252   5.557   3.845   0.753
 7118SOL    HW122253   5.513   3.775   0.697
 7118SOL    HW222254   5.604   3.911   0.694
 7119SOL     OW22255   6.605   1.092   3.032
 7119SOL    HW122256   6.671   1.110   2.959
 7119SOL    HW222257   6.568   1.179   3.066
 7120SOL     OW22258   4.707   1.561   4.067
 7120SOL    HW122259   4.803   1.557   4.040
 7120SOL    HW222260   4.669   1.650   4.041
 7121SOL     OW22261   2.537   6.599   3.820
 7121SOL    HW122262   2.503   6.560   3.734
 7121SOL    HW222263   2.464   6.596   3.889
 7122SOL     OW22264   6.363   1.009   6.702
 7122SOL    HW122265   6.411   0.955   6.770
 7122SOL    HW222266   6.318   0.949   6.636
 7123SOL     OW22267   3.315   5.514   1.341
 7123SOL    HW122268   3.385   5.582   1.364
 7123SOL    HW222269   3.245   5.513   1.413
 7124SOL     OW22270   0.374   5.280   6.850
 7124SOL    HW122271   0.447   5.216   6.828
 7124SOL    HW222272   0.409   5.374   6.847
 7125SOL     OW22273   6.561   6.604   2.521
 7125SOL    HW122274   6.478   6.624   2.469
 7125SOL    HW222275   6.570   6.670   2.596
 7126SOL     OW22276   1.925   4.438   0.148
 7126SOL    HW122277   1.847   4.478   0.197
 7126SOL    HW222278   1.894   4.365   0.088
 7127SOL     OW22279   3.320   6.037   4.383
 7127SOL    HW122280   3.374   6.073   4.459
 7127SOL    HW222281   3.382   6.009   4.309
 7128SOL     OW22282   3.351   4.390   1.018
 7128SOL    HW122283   3.260   4.389   0.977
 7128SOL    HW222284   3.342   4.389   1.118
 7129SOL     OW22285   3.026   0.352   1.645
 7129SOL    HW122286   2.975   0.276   1.605
 7129SOL    HW222287   3.028   0.429   1.582
 7130SOL     OW22288   2.465   5.158   3.474
 7130SOL    HW122289   2.514   5.106   3.544
 7130SOL    HW222290   2.400   5.220   3.518
 7131SOL     OW22291   2.388   1.494   2.553
 7131SOL    HW122292   2.470   1.547   2.575
 7131SOL    HW222293   2.412   1.397   2.549
 7132SOL     OW22294   3.653   4.095   2.834
 7132SOL    HW122295   3.575   4.126   2.779
 7132SOL    HW222296   3.722   4.053   2.774
 7133SOL     OW22297   4.887   5.268   3.407
 7133SOL    HW122298   4.819   5.197   3.423
 7133SOL    HW222299   4.842   5.351   3.376
 7134SOL     OW22300   6.043   5.440   3.974
 7134SOL    HW122301   6.029   5.347   4.008
 7134SOL    HW222302   6.028   5.506   4.048
 7135SOL     OW22303   1.529   1.088   4.192
 7135SOL    HW122304   1.443   1.136   4.177
 7135SOL    HW222305   1.553   1.034   4.111
 7136SOL     OW22306   1.674   1.374   0.497
 7136SOL    HW122307   1.658   1.376   0.595
 7136SOL    HW222308   1.726   1.292   0.473
 7137SOL     OW22309   4.593   0.786   4.265
 7137SOL    HW122310   4.599   0.731   4.181
 7137SOL    HW222311   4.649   0.868   4.255
 7138SOL     OW22312   2.592   4.046   1.206
 7138SOL    HW122313   2.496   4.065   1.228
 7138SOL    HW222314   2.602   3.950   1.181
 7139SOL     OW22315   4.506   3.094   1.686
 7139SOL    HW122316   4.409   3.092   1.712
 7139SOL    HW222317   4.562   3.074   1.767
 7140SOL     OW22318   6.476   4.571   5.090
 7140SOL    HW122319   6.431   4.537   5.007
 7140SOL    HW222320   6.414   4.634   5.137
 7141SOL     OW22321   2.879   0.320   0.976
 7141SOL    HW122322   2.849   0.362   0.891
 7141SOL    HW222323   2.821   0.241   0.997
 7142SOL     OW22324   4.085   6.615   3.721
 7142SOL    HW122325   3.986   6.625   3.733
 7142SOL    HW222326   4.110   6.640   3.628
 7143SOL     OW22327   1.634   3.833   6.302
 7143SOL    HW122328   1.680   3.767   6.242
 7143SOL    HW222329   1.652   3.926   6.269
 7144SOL     OW22330   0.969   1.649   3.377
 7144SOL    HW122331   1.051   1.697   3.406
 7144SOL    HW222332   0.974   1.554   3.407
 7145SOL     OW22333   4.574   0.064   6.690
 7145SOL    HW122334   4.545   0.153   6.723
 7145SOL    HW222335   4.493   0.005   6.677
 7146SOL     OW22336   2.533   6.262   0.086
 7146SOL    HW122337   2.541   6.314   0.171
 7146SOL    HW222338   2.516   6.166   0.106
 7147SOL     OW22339   6.856   0.677   3.082
 7147SOL    HW122340   6.921   0.637   3.017
 7147SOL    HW222341   6.878   0.774   3.096
 7148SOL     OW22342   1.401   0.068   1.848
 7148SOL    HW122343   1.388   0.094   1.943
 7148SOL    HW222344   1.321   0.096   1.794
 7149SOL     OW22345   6.361   1.631   3.322
 7149SOL    HW122346   6.279   1.689   3.327
 7149SOL    HW222347   6.385   1.601   3.414
 7150SOL     OW22348   5.419   2.396   0.429
 7150SOL    HW122349   5.345   2.360   0.371
 7150SOL    HW222350   5.459   2.321   0.481
 7151SOL     OW22351   2.173   5.603   1.825
 7151SOL    HW122352   2.117   5.538   1.773
 7151SOL    HW222353   2.269   5.592   1.800
 7152SOL     OW22354   1.001   2.863   4.248
 7152SOL    HW122355   1.022   2.931   4.318
 7152SOL    HW222356   0.907   2.876   4.216
 7153SOL     OW22357   4.599   1.075   4.495
 7153SOL    HW122358   4.581   1.044   4.402
 7153SOL    HW222359   4.536   1.029   4.558
 7154SOL     OW22360   4.242   5.861   4.040
 7154SOL    HW122361   4.206   5.943   3.996
 7154SOL    HW222362   4.202   5.851   4.131
 7155SOL     OW22363   1.253   6.751   1.885
 7155SOL    HW122364   1.286   6.794   1.969
 7155SOL    HW222365   1.329   6.705   1.839
 7156SOL     OW22366   6.709   5.506   5.247
 7156SOL    HW122367   6.809   5.505   5.242
 7156SOL    HW222368   6.672   5.559   5.171
 7157SOL     OW22369   5.323   5.483   0.816
 7157SOL    HW122370   5.320   5.414   0.889
 7157SOL    HW222371   5.393   5.457   0.750
 7158SOL     OW22372   0.482   6.832   3.240
 7158SOL    HW122373   0.553   6.762   3.237
 7158SOL    HW222374   0.420   6.814   3.317
 7159SOL     OW22375   0.509   4.941   0.223
 7159SOL    HW122376   0.522   5.040   0.231
 7159SOL    HW222377   0.495   4.917   0.127
 7160SOL     OW22378   6.507   0.395   1.954
 7160SOL    HW122379   6.501   0.315   1.895
 7160SOL    HW222380   6.434   0.460   1.929
 7161SOL     OW22381   3.487   2.897   4.103
 7161SOL    HW122382   3.479   2.964   4.029
 7161SOL    HW222383   3.583   2.876   4.119
 7162SOL     OW22384   3.882   4.962   4.312
 7162SOL    HW122385   3.817   4.937   4.240
 7162SOL    HW222386   3.945   5.031   4.277
 7163SOL     OW22387   3.220   0.326   3.356
 7163SOL    HW122388   3.268   0.383   3.423
 7163SOL    HW222389   3.184   0.245   3.403
 7164SOL     OW22390   2.295   1.181   3.476
 7164SOL    HW122391   2.271   1.107   3.414
 7164SOL    HW222392   2.319   1.143   3.565
 7165SOL     OW22393   5.178   0.764   0.535
 7165SOL    HW122394   5.199   0.716   0.620
 7165SOL    HW222395   5.256   0.760   0.474
 7166SOL     OW22396   4.915   4.893   0.920
 7166SOL    HW122397   4.924   4.921   0.824
 7166SOL    HW222398   4.989   4.934   0.973
 7167SOL     OW22399   4.878   3.333   5.242
 7167SOL    HW122400   4.819   3.404   5.206
 7167SOL    HW222401   4.842   3.300   5.329
 7168SOL     OW22402   1.146   0.426   3.938
 7168SOL    HW122403   1.188   0.513   3.964
 7168SOL    HW222404   1.195   0.388   3.859
 7169SOL     OW22405   1.712   3.007   6.088
 7169SOL    HW122406   1.761   3.003   6.174
 7169SOL    HW222407   1.731   3.094   6.042
 7170SOL     OW22408   5.607   4.809   3.544
 7170SOL    HW122409   5.512   4.780   3.541
 7170SOL    HW222410   5.637   4.837   3.452
 7171SOL     OW22411   4.401   2.937   5.363
 7171SOL    HW122412   4.323   2.875   5.355
 7171SOL    HW222413   4.447   2.922   5.451
 7172SOL     OW22414   1.829   6.764   0.646
 7172SOL    HW122415   1.785   6.729   0.728
 7172SOL    HW222416   1.811   6.862   0.637
 7173SOL     OW22417   6.927   6.315   5.233
 7173SOL    HW122418   6.989   6.388   5.203
 7173SOL    HW222419   6.977   6.252   5.292
 7174SOL     OW22420   2.101   5.503   0.261
 7174SOL    HW122421   2.067   5.409   0.259
 7174SOL    HW222422   2.200   5.502   0.277
 7175SOL     OW22423   4.845   4.079   0.239
 7175SOL    HW122424   4.856   4.040   0.331
 7175SOL    HW222425   4.808   4.171   0.246
 7176SOL     OW22426   6.369   4.439   1.567
 7176SOL    HW122427   6.438   4.390   1.514
 7176SOL    HW222428   6.285   4.448   1.512
 7177SOL     OW22429   1.078   5.854   3.219
 7177SOL    HW122430   1.058   5.763   3.255
 7177SOL    HW222431   1.177   5.871   3.222
 7178SOL     OW22432   1.100   2.791   4.670
 7178SOL    HW122433   1.008   2.753   4.658
 7178SOL    HW222434   1.124   2.845   4.590
 7179SOL     OW22435   2.859   3.835   5.375
 7179SOL    HW122436   2.918   3.762   5.339
 7179SOL    HW222437   2.764   3.813   5.355
 7180SOL     OW22438   0.478   6.500   1.352
 7180SOL    HW122439   0.563   6.501   1.406
 7180SOL    HW222440   0.473   6.414   1.301
 7181SOL     OW22441   4.778   0.293   1.323
 7181SOL    HW122442   4.705   0.357   1.302
 7181SOL    HW222443   4.866   0.340   1.321
 7182SOL     OW22444   2.598   4.447   5.526
 7182SOL    HW122445   2.689   4.428   5.488
 7182SOL    HW222446   2.528   4.412   5.464
 7183SOL     OW22447   1.750   4.994   3.659
 7183SOL    HW122448   1.792   5.032   3.576
 7183SOL    HW222449   1.788   4.903   3.677
 7184SOL     OW22450   2.106   6.497   3.782
 7184SOL    HW122451   2.053   6.420   3.747
 7184SOL    HW222452   2.046   6.561   3.830
 7185SOL     OW22453   4.498   2.587   6.717
 7185SOL    HW122454   4.560   2.664   6.703
 7185SOL    HW222455   4.517   2.517   6.648
 7186SOL     OW22456   6.701   5.974   5.152
 7186SOL    HW122457   6.637   6.037   5.195
 7186SOL    HW222458   6.662   5.882   5.152
 7187SOL     OW22459   1.786   4.237   2.170
 7187SOL    HW122460   1.825   4.326   2.194
 7187SOL    HW222461   1.773   4.232   2.071
 7188SOL     OW22462   5.044   0.712   2.115
 7188SOL    HW122463   5.002   0.656   2.044
 7188SOL    HW222464   5.015   0.807   2.104
 7189SOL     OW22465   0.351   1.170   5.349
 7189SOL    HW122466   0.304   1.086   5.376
 7189SOL    HW222467   0.291   1.248   5.365
 7190SOL     OW22468   6.000   4.235   3.106
 7190SOL    HW122469   5.999   4.208   3.202
 7190SOL    HW222470   5.908   4.265   3.079
 7191SOL     OW22471   1.168   3.815   2.606
 7191SOL    HW122472   1.099   3.756   2.564
 7191SOL    HW222473   1.253   3.811   2.554
 7192SOL     OW22474   2.738   4.757   6.472
 7192SOL    HW122475   2.833   4.729   6.467
 7192SOL    HW222476   2.697   4.752   6.380
 7193SOL     OW22477   3.798   1.849   4.415
 7193SOL    HW122478   3.768   1.894   4.331
 7193SOL    HW222479   3.719   1.823   4.469
 7194SOL     OW22480   2.411   2.291   1.780
 7194SOL    HW122481   2.334   2.347   1.748
 7194SOL    HW222482   2.490   2.349   1.799
 7195SOL     OW22483   0.729   5.284   0.913
 7195SOL    HW122484   0.821   5.292   0.952
 7195SOL    HW222485   0.694   5.375   0.891
 7196SOL     OW22486   2.957   3.383   2.647
 7196SOL    HW122487   2.952   3.321   2.726
 7196SOL    HW222488   2.948   3.330   2.563
 7197SOL     OW22489   0.024   1.840   5.250
 7197SOL    HW122490   0.040   1.932   5.284
 7197SOL    HW222491   0.086   1.821   5.173
 7198SOL     OW22492   1.298   6.887   6.251
 7198SOL    HW122493   1.386   6.931   6.231
 7198SOL    HW222494   1.253   6.936   6.326
 7199SOL     OW22495   6.973   0.072   2.706
 7199SOL    HW122496   6.961   0.060   2.805
 7199SOL    HW222497   6.923   0.153   2.675
 7200SOL     OW22498   2.221   1.072   1.654
 7200SOL    HW122499   2.299   1.107   1.602
 7200SOL    HW222500   2.168   1.149   1.689
 7201SOL     OW22501   1.572   4.488   3.963
 7201SOL    HW122502   1.594   4.395   3.934
 7201SOL    HW222503   1.523   4.485   4.051
 7202SOL     OW22504   3.772   0.876   6.376
 7202SOL    HW122505   3.821   0.930   6.307
 7202SOL    HW222506   3.682   0.915   6.392
 7203SOL     OW22507   5.856   0.775   6.750
 7203SOL    HW122508   5.863   0.728   6.838
 7203SOL    HW222509   5.773   0.743   6.702
 7204SOL     OW22510   6.001   1.101   3.068
 7204SOL    HW122511   5.966   1.194   3.072
 7204SOL    HW222512   6.082   1.093   3.127
 7205SOL     OW22513   1.595   5.068   3.288
 7205SOL    HW122514   1.660   5.109   3.353
 7205SOL    HW222515   1.596   4.969   3.297
 7206SOL     OW22516   6.571   1.514   0.956
 7206SOL    HW122517   6.605   1.586   1.016
 7206SOL    HW222518   6.622   1.515   0.870
 7207SOL     OW22519   3.014   6.466   1.303
 7207SOL    HW122520   3.114   6.469   1.311
 7207SOL    HW222521   2.988   6.489   1.209
 7208SOL     OW22522   3.329   0.230   5.390
 7208SOL    HW122523   3.398   0.244   5.320
 7208SOL    HW222524   3.242   0.269   5.360
 7209SOL     OW22525   4.060   3.159   3.888
 7209SOL    HW122526   4.106   3.129   3.805
 7209SOL    HW222527   4.080   3.256   3.905
 7210SOL     OW22528   4.793   1.093   3.731
 7210SOL    HW122529   4.786   0.995   3.711
 7210SOL    HW222530   4.879   1.111   3.779
 7211SOL     OW22531   1.527   5.703   4.066
 7211SOL    HW122532   1.573   5.711   4.154
 7211SOL    HW222533   1.566   5.770   4.002
 7212SOL     OW22534   6.083   6.209   4.216
 7212SOL    HW122535   6.096   6.272   4.293
 7212SOL    HW222536   6.152   6.227   4.146
 7213SOL     OW22537   5.864   0.816   5.548
 7213SOL    HW122538   5.803   0.894   5.562
 7213SOL    HW222539   5.830   0.738   5.600
 7214SOL     OW22540   1.724   4.991   5.415
 7214SOL    HW122541   1.780   5.053   5.471
 7214SOL    HW222542   1.628   5.001   5.440
 7215SOL     OW22543   0.550   3.924   4.243
 7215SOL    HW122544   0.470   3.917   4.302
 7215SOL    HW222545   0.557   4.016   4.206
 7216SOL     OW22546   2.462   0.413   0.165
 7216SOL    HW122547   2.455   0.323   0.123
 7216SOL    HW222548   2.514   0.474   0.105
 7217SOL     OW22549   0.924   3.098   2.803
 7217SOL    HW122550   0.949   3.067   2.711
 7217SOL    HW222551   0.853   3.168   2.796
 7218SOL     OW22552   4.573   2.163   5.783
 7218SOL    HW122553   4.653   2.180   5.726
 7218SOL    HW222554   4.510   2.241   5.774
 7219SOL     OW22555   4.301   6.732   2.863
 7219SOL    HW122556   4.302   6.639   2.900
 7219SOL    HW222557   4.209   6.770   2.870
 7220SOL     OW22558   6.575   1.029   2.398
 7220SOL    HW122559   6.636   1.049   2.474
 7220SOL    HW222560   6.507   0.961   2.426
 7221SOL     OW22561   5.338   3.666   6.035
 7221SOL    HW122562   5.279   3.698   6.109
 7221SOL    HW222563   5.361   3.744   5.976
 7222SOL     OW22564   0.417   5.768   1.002
 7222SOL    HW122565   0.340   5.734   1.056
 7222SOL    HW222566   0.503   5.735   1.043
 7223SOL     OW22567   3.291   1.727   6.009
 7223SOL    HW122568   3.356   1.804   6.011
 7223SOL    HW222569   3.198   1.762   6.007
 7224SOL     OW22570   5.510   0.059   4.745
 7224SOL    HW122571   5.534   6.993   4.782
 7224SOL    HW222572   5.479   0.049   4.651
 7225SOL     OW22573   2.260   6.169   6.943
 7225SOL    HW122574   2.236   6.232   7.017
 7225SOL    HW222575   2.187   6.168   6.875
 7226SOL     OW22576   0.329   6.625   0.309
 7226SOL    HW122577   0.423   6.641   0.340
 7226SOL    HW222578   0.326   6.545   0.249
 7227SOL     OW22579   0.053   2.748   6.892
 7227SOL    HW122580   0.137   2.788   6.855
 7227SOL    HW222581   0.073   2.659   6.933
 7228SOL     OW22582   0.434   0.484   1.860
 7228SOL    HW122583   0.348   0.533   1.871
 7228SOL    HW222584   0.415   0.389   1.835
 7229SOL     OW22585   0.972   0.116   4.177
 7229SOL    HW122586   0.960   0.142   4.081
 7229SOL    HW222587   0.950   0.020   4.189
 7230SOL     OW22588   4.856   4.972   3.905
 7230SOL    HW122589   4.942   4.988   3.857
 7230SOL    HW222590   4.849   4.876   3.931
 7231SOL     OW22591   5.927   1.298   5.742
 7231SOL    HW122592   5.934   1.272   5.645
 7231SOL    HW222593   5.938   1.216   5.799
 7232SOL     OW22594   4.036   4.863   2.453
 7232SOL    HW122595   3.979   4.934   2.494
 7232SOL    HW222596   4.026   4.867   2.353
 7233SOL     OW22597   0.179   2.749   5.969
 7233SOL    HW122598   0.259   2.703   6.009
 7233SOL    HW222599   0.187   2.848   5.983
 7234SOL     OW22600   6.214   1.914   1.890
 7234SOL    HW122601   6.139   1.861   1.849
 7234SOL    HW222602   6.295   1.908   1.833
 7235SOL     OW22603   5.356   3.833   5.361
 7235SOL    HW122604   5.310   3.892   5.295
 7235SOL    HW222605   5.308   3.745   5.366
 7236SOL     OW22606   3.579   0.859   2.942
 7236SOL    HW122607   3.585   0.826   3.036
 7236SOL    HW222608   3.613   0.788   2.879
 7237SOL     OW22609   5.845   5.965   5.934
 7237SOL    HW122610   5.865   5.873   5.900
 7237SOL    HW222611   5.924   6.001   5.983
 7238SOL     OW22612   2.446   2.220   2.183
 7238SOL    HW122613   2.447   2.266   2.272
 7238SOL    HW222614   2.512   2.263   2.122
 7239SOL     OW22615   2.887   1.527   1.904
 7239SOL    HW122616   2.900   1.429   1.889
 7239SOL    HW222617   2.929   1.578   1.829
 7240SOL     OW22618   2.574   4.529   0.436
 7240SOL    HW122619   2.528   4.534   0.524
 7240SOL    HW222620   2.671   4.551   0.447
 7241SOL     OW22621   3.069   6.746   4.968
 7241SOL    HW122622   3.159   6.742   5.011
 7241SOL    HW222623   3.065   6.825   4.907
 7242SOL     OW22624   5.975   4.165   6.560
 7242SOL    HW122625   5.909   4.221   6.609
 7242SOL    HW222626   5.958   4.172   6.461
 7243SOL     OW22627   0.671   5.629   0.440
 7243SOL    HW122628   0.638   5.623   0.345
 7243SOL    HW222629   0.755   5.575   0.449
 7244SOL     OW22630   5.844   1.814   1.198
 7244SOL    HW122631   5.860   1.716   1.204
 7244SOL    HW222632   5.849   1.855   1.289
 7245SOL     OW22633   0.399   1.934   4.274
 7245SOL    HW122634   0.411   1.937   4.175
 7245SOL    HW222635   0.480   1.893   4.316
 7246SOL     OW22636   7.011   6.697   5.660
 7246SOL    HW122637   0.016   6.605   5.632
 7246SOL    HW222638   6.914   6.709   5.641
 7247SOL     OW22639   3.102   5.865   2.481
 7247SOL    HW122640   3.193   5.842   2.516
 7247SOL    HW222641   3.069   5.791   2.423
 7248SOL     OW22642   4.235   0.948   4.248
 7248SOL    HW122643   4.148   0.973   4.289
 7248SOL    HW222644   4.220   0.912   4.156
 7249SOL     OW22645   6.089   5.149   6.966
 7249SOL    HW122646   6.007   5.141   7.022
 7249SOL    HW222647   6.114   5.246   6.957
 7250SOL     OW22648   3.223   4.494   6.320
 7250SOL    HW122649   3.223   4.594   6.317
 7250SOL    HW222650   3.211   4.464   6.414
 7251SOL     OW22651   5.780   0.399   5.224
 7251SOL    HW122652   5.815   0.306   5.214
 7251SOL    HW222653   5.680   0.398   5.222
 7252SOL     OW22654   3.749   3.030   4.841
 7252SOL    HW122655   3.669   3.087   4.820
 7252SOL    HW222656   3.828   3.063   4.789
 7253SOL     OW22657   4.329   5.900   1.102
 7253SOL    HW122658   4.301   5.855   1.187
 7253SOL    HW222659   4.369   5.832   1.041
 7254SOL     OW22660   4.315   6.697   4.484
 7254SOL    HW122661   4.334   6.791   4.513
 7254SOL    HW222662   4.401   6.648   4.471
 7255SOL     OW22663   3.036   3.823   2.592
 7255SOL    HW122664   3.119   3.767   2.590
 7255SOL    HW222665   2.961   3.770   2.633
 7256SOL     OW22666   4.254   5.130   3.784
 7256SOL    HW122667   4.298   5.140   3.873
 7256SOL    HW222668   4.155   5.129   3.795
 7257SOL     OW22669   6.202   3.154   3.334
 7257SOL    HW122670   6.208   3.254   3.328
 7257SOL    HW222671   6.286   3.113   3.299
 7258SOL     OW22672   3.596   6.933   4.419
 7258SOL    HW122673   3.518   6.996   4.418
 7258SOL    HW222674   3.668   6.967   4.358
 7259SOL     OW22675   2.288   4.558   6.589
 7259SOL    HW122676   2.387   4.559   6.606
 7259SOL    HW222677   2.243   4.624   6.649
 7260SOL     OW22678   3.312   2.116   2.517
 7260SOL    HW122679   3.409   2.099   2.501
 7260SOL    HW222680   3.271   2.036   2.561
 7261SOL     OW22681   1.979   3.770   1.805
 7261SOL    HW122682   1.918   3.845   1.779
 7261SOL    HW222683   1.956   3.741   1.898
 7262SOL     OW22684   5.884   1.685   4.707
 7262SOL    HW122685   5.844   1.627   4.636
 7262SOL    HW222686   5.914   1.771   4.666
 7263SOL     OW22687   2.919   5.794   2.062
 7263SOL    HW122688   2.932   5.870   1.999
 7263SOL    HW222689   2.998   5.732   2.056
 7264SOL     OW22690   0.748   0.040   5.638
 7264SOL    HW122691   0.793   0.118   5.682
 7264SOL    HW222692   0.809   6.984   5.643
 7265SOL     OW22693   4.251   5.106   5.882
 7265SOL    HW122694   4.182   5.176   5.862
 7265SOL    HW222695   4.212   5.016   5.867
 7266SOL     OW22696   4.864   0.937   2.012
 7266SOL    HW122697   4.809   0.950   2.095
 7266SOL    HW222698   4.877   1.025   1.967
 7267SOL     OW22699   6.925   4.312   3.971
 7267SOL    HW122700   6.991   4.259   3.918
 7267SOL    HW222701   6.955   4.408   3.976
 7268SOL     OW22702   3.195   6.989   1.464
 7268SOL    HW122703   3.108   6.965   1.420
 7268SOL    HW222704   3.262   7.015   1.394
 7269SOL     OW22705   1.630   5.970   2.123
 7269SOL    HW122706   1.638   5.952   2.221
 7269SOL    HW222707   1.603   6.065   2.109
 7270SOL     OW22708   3.008   1.441   2.608
 7270SOL    HW122709   2.948   1.369   2.642
 7270SOL    HW222710   3.094   1.400   2.577
 7271SOL     OW22711   6.844   3.451   3.544
 7271SOL    HW122712   6.937   3.484   3.562
 7271SOL    HW222713   6.778   3.524   3.561
 7272SOL     OW22714   5.952   2.491   2.180
 7272SOL    HW122715   5.899   2.571   2.211
 7272SOL    HW222716   6.001   2.452   2.258
 7273SOL     OW22717   5.382   4.847   7.005
 7273SOL    HW122718   5.326   4.799   6.937
 7273SOL    HW222719   5.326   4.866   0.062
 7274SOL     OW22720   6.311   4.944   5.311
 7274SOL    HW122721   6.363   4.978   5.390
 7274SOL    HW222722   6.224   4.907   5.342
 7275SOL     OW22723   6.646   6.819   0.408
 7275SOL    HW122724   6.619   6.778   0.495
 7275SOL    HW222725   6.650   6.749   0.337
 7276SOL     OW22726   2.433   2.200   4.037
 7276SOL    HW122727   2.425   2.177   3.940
 7276SOL    HW222728   2.386   2.286   4.055
 7277SOL     OW22729   5.216   1.951   4.810
 7277SOL    HW122730   5.196   2.001   4.725
 7277SOL    HW222731   5.179   2.003   4.888
 7278SOL     OW22732   2.625   1.589   2.698
 7278SOL    HW122733   2.655   1.524   2.768
 7278SOL    HW222734   2.692   1.593   2.624
 7279SOL     OW22735   5.667   5.050   1.256
 7279SOL    HW122736   5.742   5.076   1.315
 7279SOL    HW222737   5.589   5.022   1.312
 7280SOL     OW22738   6.337   2.348   5.569
 7280SOL    HW122739   6.421   2.361   5.518
 7280SOL    HW222740   6.286   2.434   5.572
 7281SOL     OW22741   4.073   5.947   2.511
 7281SOL    HW122742   4.018   6.029   2.495
 7281SOL    HW222743   4.164   5.959   2.471
 7282SOL     OW22744   6.804   4.648   2.566
 7282SOL    HW122745   6.822   4.567   2.620
 7282SOL    HW222746   6.891   4.688   2.535
 7283SOL     OW22747   4.300   4.813   3.284
 7283SOL    HW122748   4.260   4.837   3.195
 7283SOL    HW222749   4.372   4.878   3.307
 7284SOL     OW22750   6.620   1.504   3.373
 7284SOL    HW122751   6.572   1.544   3.451
 7284SOL    HW222752   6.648   1.576   3.311
 7285SOL     OW22753   4.904   2.918   1.808
 7285SOL    HW122754   4.814   2.938   1.846
 7285SOL    HW222755   4.938   2.997   1.757
 7286SOL     OW22756   0.352   1.832   1.942
 7286SOL    HW122757   0.257   1.863   1.942
 7286SOL    HW222758   0.361   1.750   1.885
 7287SOL     OW22759   1.478   2.486   3.726
 7287SOL    HW122760   1.538   2.407   3.737
 7287SOL    HW222761   1.490   2.523   3.634
 7288SOL     OW22762   2.682   2.276   2.671
 7288SOL    HW122763   2.756   2.341   2.686
 7288SOL    HW222764   2.680   2.210   2.747
 7289SOL     OW22765   6.149   1.747   1.524
 7289SOL    HW122766   6.206   1.796   1.458
 7289SOL    HW222767   6.199   1.667   1.557
 7290SOL     OW22768   3.572   1.553   5.323
 7290SOL    HW122769   3.653   1.609   5.306
 7290SOL    HW222770   3.495   1.588   5.269
 7291SOL     OW22771   4.160   1.175   0.682
 7291SOL    HW122772   4.133   1.084   0.715
 7291SOL    HW222773   4.090   1.241   0.708
 7292SOL     OW22774   2.722   0.458   2.663
 7292SOL    HW122775   2.795   0.501   2.608
 7292SOL    HW222776   2.642   0.444   2.606
 7293SOL     OW22777   1.099   0.704   4.808
 7293SOL    HW122778   1.018   0.676   4.858
 7293SOL    HW222779   1.087   0.798   4.775
 7294SOL     OW22780   2.674   6.523   2.672
 7294SOL    HW122781   2.654   6.527   2.574
 7294SOL    HW222782   2.765   6.560   2.690
 7295SOL     OW22783   5.943   5.712   2.159
 7295SOL    HW122784   6.017   5.778   2.149
 7295SOL    HW222785   5.881   5.720   2.081
 7296SOL     OW22786   4.899   4.727   2.165
 7296SOL    HW122787   4.881   4.746   2.069
 7296SOL    HW222788   4.822   4.758   2.220
 7297SOL     OW22789   4.338   6.233   1.302
 7297SOL    HW122790   4.315   6.214   1.207
 7297SOL    HW222791   4.289   6.315   1.332
 7298SOL     OW22792   4.439   5.460   0.069
 7298SOL    HW122793   4.520   5.454   0.011
 7298SOL    HW222794   4.461   5.512   0.152
 7299SOL     OW22795   1.129   2.417   6.583
 7299SOL    HW122796   1.117   2.388   6.488
 7299SOL    HW222797   1.055   2.480   6.607
 7300SOL     OW22798   0.383   5.226   2.005
 7300SOL    HW122799   0.397   5.294   1.933
 7300SOL    HW222800   0.464   5.224   2.064
 7301SOL     OW22801   4.594   0.879   5.348
 7301SOL    HW122802   4.662   0.862   5.420
 7301SOL    HW222803   4.579   0.977   5.339
 7302SOL     OW22804   5.362   1.453   6.022
 7302SOL    HW122805   5.397   1.501   5.942
 7302SOL    HW222806   5.275   1.409   6.000
 7303SOL     OW22807   1.915   1.482   1.598
 7303SOL    HW122808   1.844   1.455   1.662
 7303SOL    HW222809   1.902   1.578   1.572
 7304SOL     OW22810   2.991   5.711   1.732
 7304SOL    HW122811   2.925   5.784   1.713
 7304SOL    HW222812   2.946   5.622   1.726
 7305SOL     OW22813   6.595   1.538   0.234
 7305SOL    HW122814   6.645   1.607   0.286
 7305SOL    HW222815   6.607   1.449   0.278
 7306SOL     OW22816   1.402   2.369   1.889
 7306SOL    HW122817   1.372   2.451   1.937
 7306SOL    HW222818   1.361   2.367   1.798
 7307SOL     OW22819   2.224   0.212   1.675
 7307SOL    HW122820   2.312   0.172   1.649
 7307SOL    HW222821   2.161   0.138   1.699
 7308SOL     OW22822   5.199   0.967   3.247
 7308SOL    HW122823   5.214   0.974   3.345
 7308SOL    HW222824   5.180   1.058   3.209
 7309SOL     OW22825   1.861   5.088   3.426
 7309SOL    HW122826   1.955   5.055   3.421
 7309SOL    HW222827   1.860   5.182   3.461
 7310SOL     OW22828   3.093   2.254   6.140
 7310SOL    HW122829   3.032   2.175   6.146
 7310SOL    HW222830   3.161   2.249   6.212
 7311SOL     OW22831   6.819   6.358   0.048
 7311SOL    HW122832   6.819   6.456   0.064
 7311SOL    HW222833   6.869   6.338   6.987
 7312SOL     OW22834   6.728   2.077   4.117
 7312SOL    HW122835   6.657   2.146   4.101
 7312SOL    HW222836   6.739   2.063   4.216
 7313SOL     OW22837   2.728   0.385   2.255
 7313SOL    HW122838   2.820   0.347   2.266
 7313SOL    HW222839   2.663   0.330   2.306
 7314SOL     OW22840   0.763   4.172   6.517
 7314SOL    HW122841   0.735   4.176   6.613
 7314SOL    HW222842   0.707   4.104   6.469
 7315SOL     OW22843   1.351   4.320   2.341
 7315SOL    HW122844   1.333   4.396   2.404
 7315SOL    HW222845   1.399   4.354   2.260
 7316SOL     OW22846   3.128   2.092   0.892
 7316SOL    HW122847   3.114   2.000   0.854
 7316SOL    HW222848   3.149   2.156   0.819
 7317SOL     OW22849   3.900   1.159   1.048
 7317SOL    HW122850   3.875   1.113   0.963
 7317SOL    HW222851   3.966   1.232   1.028
 7318SOL     OW22852   4.115   6.744   0.385
 7318SOL    HW122853   4.085   6.819   0.326
 7318SOL    HW222854   4.211   6.758   0.411
 7319SOL     OW22855   5.457   4.796   6.699
 7319SOL    HW122856   5.414   4.886   6.695
 7319SOL    HW222857   5.396   4.728   6.656
 7320SOL     OW22858   0.354   2.781   1.798
 7320SOL    HW122859   0.296   2.855   1.833
 7320SOL    HW222860   0.448   2.795   1.828
 7321SOL     OW22861   1.864   0.371   6.537
 7321SOL    HW122862   1.959   0.344   6.552
 7321SOL    HW222863   1.850   0.464   6.571
 7322SOL     OW22864   0.814   2.497   2.904
 7322SOL    HW122865   0.723   2.475   2.937
 7322SOL    HW222866   0.820   2.477   2.806
 7323SOL     OW22867   1.399   2.836   1.428
 7323SOL    HW122868   1.328   2.777   1.387
 7323SOL    HW222869   1.356   2.918   1.466
 7324SOL     OW22870   5.679   4.907   3.273
 7324SOL    HW122871   5.604   4.862   3.224
 7324SOL    HW222872   5.706   4.989   3.223
 7325SOL     OW22873   4.483   1.318   6.056
 7325SOL    HW122874   4.514   1.413   6.067
 7325SOL    HW222875   4.392   1.308   6.095
 7326SOL     OW22876   3.461   0.036   0.549
 7326SOL    HW122877   3.390   0.029   0.479
 7326SOL    HW222878   3.533   0.097   0.517
 7327SOL     OW22879   0.710   4.207   3.696
 7327SOL    HW122880   0.675   4.130   3.643
 7327SOL    HW222881   0.711   4.290   3.639
 7328SOL     OW22882   4.065   4.851   4.703
 7328SOL    HW122883   3.968   4.870   4.692
 7328SOL    HW222884   4.112   4.860   4.615
 7329SOL     OW22885   3.468   3.375   1.615
 7329SOL    HW122886   3.472   3.275   1.612
 7329SOL    HW222887   3.372   3.404   1.614
 7330SOL     OW22888   3.056   2.908   1.669
 7330SOL    HW122889   3.086   2.983   1.728
 7330SOL    HW222890   3.057   2.939   1.574
 7331SOL     OW22891   5.265   0.836   2.830
 7331SOL    HW122892   5.321   0.799   2.756
 7331SOL    HW222893   5.320   0.844   2.913
 7332SOL     OW22894   3.425   5.497   6.084
 7332SOL    HW122895   3.346   5.526   6.029
 7332SOL    HW222896   3.497   5.462   6.024
 7333SOL     OW22897   0.168   2.036   0.905
 7333SOL    HW122898   0.262   2.004   0.916
 7333SOL    HW222899   0.156   2.073   0.813
 7334SOL     OW22900   2.556   0.077   4.199
 7334SOL    HW122901   2.654   0.099   4.199
 7334SOL    HW222902   2.541   7.014   4.247
 7335SOL     OW22903   6.359   3.159   2.146
 7335SOL    HW122904   6.346   3.092   2.074
 7335SOL    HW222905   6.370   3.250   2.106
 7336SOL     OW22906   1.747   6.674   2.400
 7336SOL    HW122907   1.759   6.649   2.496
 7336SOL    HW222908   1.717   6.770   2.395
 7337SOL     OW22909   2.060   1.968   3.469
 7337SOL    HW122910   1.964   1.971   3.442
 7337SOL    HW222911   2.079   1.881   3.514
 7338SOL     OW22912   5.970   2.823   1.530
 7338SOL    HW122913   5.950   2.822   1.628
 7338SOL    HW222914   6.020   2.907   1.507
 7339SOL     OW22915   6.382   5.341   4.445
 7339SOL    HW122916   6.315   5.271   4.470
 7339SOL    HW222917   6.362   5.376   4.354
 7340SOL     OW22918   2.511   0.144   0.994
 7340SOL    HW122919   2.606   0.112   1.000
 7340SOL    HW222920   2.450   0.065   0.988
 7341SOL     OW22921   5.883   5.077   4.449
 7341SOL    HW122922   5.903   5.116   4.360
 7341SOL    HW222923   5.900   4.978   4.447
 7342SOL     OW22924   0.656   5.822   0.644
 7342SOL    HW122925   0.658   5.745   0.581
 7342SOL    HW222926   0.562   5.838   0.674
 7343SOL     OW22927   5.634   3.664   2.537
 7343SOL    HW122928   5.684   3.685   2.453
 7343SOL    HW222929   5.553   3.724   2.543
 7344SOL     OW22930   1.653   0.086   0.145
 7344SOL    HW122931   1.712   0.161   0.116
 7344SOL    HW222932   1.557   0.117   0.144
 7345SOL     OW22933   4.144   5.915   6.813
 7345SOL    HW122934   4.125   5.830   6.863
 7345SOL    HW222935   4.072   5.982   6.832
 7346SOL     OW22936   3.920   4.740   1.626
 7346SOL    HW122937   3.986   4.672   1.593
 7346SOL    HW222938   3.970   4.817   1.667
 7347SOL     OW22939   6.180   1.751   3.533
 7347SOL    HW122940   6.111   1.768   3.462
 7347SOL    HW222941   6.174   1.656   3.564
 7348SOL     OW22942   1.232   1.717   3.380
 7348SOL    HW122943   1.257   1.794   3.440
 7348SOL    HW222944   1.309   1.654   3.373
 7349SOL     OW22945   3.161   1.245   0.529
 7349SOL    HW122946   3.115   1.189   0.598
 7349SOL    HW222947   3.195   1.187   0.455
 7350SOL     OW22948   2.463   1.512   3.082
 7350SOL    HW122949   2.456   1.420   3.044
 7350SOL    HW222950   2.517   1.510   3.166
 7351SOL     OW22951   3.974   4.421   6.405
 7351SOL    HW122952   3.994   4.330   6.443
 7351SOL    HW222953   3.912   4.470   6.467
 7352SOL     OW22954   0.275   1.569   2.128
 7352SOL    HW122955   0.287   1.668   2.127
 7352SOL    HW222956   0.234   1.540   2.042
 7353SOL     OW22957   4.995   2.363   5.318
 7353SOL    HW122958   5.090   2.345   5.343
 7353SOL    HW222959   4.947   2.276   5.304
 7354SOL     OW22960   5.622   4.340   6.027
 7354SOL    HW122961   5.710   4.355   5.982
 7354SOL    HW222962   5.634   4.347   6.126
 7355SOL     OW22963   1.540   5.164   2.007
 7355SOL    HW122964   1.497   5.075   2.022
 7355SOL    HW222965   1.628   5.151   1.961
 7356SOL     OW22966   6.074   1.685   5.588
 7356SOL    HW122967   6.056   1.763   5.647
 7356SOL    HW222968   6.045   1.707   5.494
 7357SOL     OW22969   6.745   1.745   6.985
 7357SOL    HW122970   6.802   1.669   6.955
 7357SOL    HW222971   6.787   1.832   6.957
 7358SOL     OW22972   3.401   1.138   3.650
 7358SOL    HW122973   3.363   1.209   3.592
 7358SOL    HW222974   3.350   1.134   3.736
 7359SOL     OW22975   4.075   3.200   3.598
 7359SOL    HW122976   4.115   3.277   3.548
 7359SOL    HW222977   4.045   3.130   3.534
 7360SOL     OW22978   0.564   2.895   5.329
 7360SOL    HW122979   0.617   2.830   5.274
 7360SOL    HW222980   0.508   2.952   5.269
 7361SOL     OW22981   5.269   6.351   2.287
 7361SOL    HW122982   5.223   6.415   2.348
 7361SOL    HW222983   5.229   6.357   2.195
 7362SOL     OW22984   2.016   5.920   6.034
 7362SOL    HW122985   2.092   5.976   6.002
 7362SOL    HW222986   2.029   5.825   6.006
 7363SOL     OW22987   4.905   3.066   6.364
 7363SOL    HW122988   4.814   3.056   6.404
 7363SOL    HW222989   4.908   3.151   6.310
 7364SOL     OW22990   4.226   6.475   1.733
 7364SOL    HW122991   4.164   6.526   1.673
 7364SOL    HW222992   4.254   6.534   1.809
 7365SOL     OW22993   3.461   0.356   2.504
 7365SOL    HW122994   3.408   0.404   2.575
 7365SOL    HW222995   3.557   0.381   2.512
 7366SOL     OW22996   1.134   5.421   6.736
 7366SOL    HW122997   1.214   5.375   6.773
 7366SOL    HW222998   1.068   5.354   6.703
 7367SOL     OW22999   4.697   3.762   0.761
 7367SOL    HW123000   4.686   3.695   0.835
 7367SOL    HW223001   4.623   3.829   0.766
 7368SOL     OW23002   3.288   4.141   4.760
 7368SOL    HW123003   3.291   4.223   4.817
 7368SOL    HW223004   3.336   4.157   4.674
 7369SOL     OW23005   4.036   3.468   0.460
 7369SOL    HW123006   4.113   3.524   0.488
 7369SOL    HW223007   4.048   3.439   0.365
 7370SOL     OW23008   2.050   6.491   1.206
 7370SOL    HW123009   2.149   6.489   1.209
 7370SOL    HW223010   2.015   6.402   1.176
 7371SOL     OW23011   2.244   5.084   4.872
 7371SOL    HW123012   2.147   5.069   4.892
 7371SOL    HW223013   2.289   4.996   4.857
 7372SOL     OW23014   3.425   0.424   5.873
 7372SOL    HW123015   3.510   0.447   5.922
 7372SOL    HW223016   3.448   0.391   5.781
 7373SOL     OW23017   3.809   0.975   1.757
 7373SOL    HW123018   3.891   0.938   1.801
 7373SOL    HW223019   3.813   0.955   1.659
 7374SOL     OW23020   1.832   2.978   6.327
 7374SOL    HW123021   1.930   2.961   6.319
 7374SOL    HW223022   1.795   2.923   6.401
 7375SOL     OW23023   1.339   0.351   3.745
 7375SOL    HW123024   1.388   0.416   3.687
 7375SOL    HW223025   1.296   0.281   3.688
 7376SOL     OW23026   2.176   3.826   6.596
 7376SOL    HW123027   2.222   3.813   6.509
 7376SOL    HW223028   2.197   3.749   6.656
 7377SOL     OW23029   4.174   4.348   1.054
 7377SOL    HW123030   4.137   4.263   1.093
 7377SOL    HW223031   4.121   4.373   0.973
 7378SOL     OW23032   6.515   0.984   5.091
 7378SOL    HW123033   6.432   0.929   5.085
 7378SOL    HW223034   6.574   0.947   5.162
 7379SOL     OW23035   3.586   1.310   1.796
 7379SOL    HW123036   3.498   1.313   1.844
 7379SOL    HW223037   3.570   1.311   1.697
 7380SOL     OW23038   0.199   3.651   6.511
 7380SOL    HW123039   0.265   3.699   6.454
 7380SOL    HW223040   0.110   3.650   6.465
 7381SOL     OW23041   5.213   1.739   1.181
 7381SOL    HW123042   5.310   1.718   1.195
 7381SOL    HW223043   5.204   1.836   1.159
 7382SOL     OW23044   0.303   5.742   4.283
 7382SOL    HW123045   0.371   5.813   4.301
 7382SOL    HW223046   0.221   5.783   4.243
 7383SOL     OW23047   6.938   6.165   3.139
 7383SOL    HW123048   6.855   6.217   3.121
 7383SOL    HW223049   7.018   6.220   3.116
 7384SOL     OW23050   5.454   0.146   2.369
 7384SOL    HW123051   5.504   0.088   2.434
 7384SOL    HW223052   5.359   0.154   2.398
 7385SOL     OW23053   4.936   5.979   1.755
 7385SOL    HW123054   5.025   5.940   1.731
 7385SOL    HW223055   4.943   6.079   1.754
 7386SOL     OW23056   0.820   2.185   5.332
 7386SOL    HW123057   0.868   2.175   5.244
 7386SOL    HW223058   0.800   2.281   5.348
 7387SOL     OW23059   4.017   6.127   3.131
 7387SOL    HW123060   3.950   6.200   3.118
 7387SOL    HW223061   4.021   6.102   3.228
 7388SOL     OW23062   6.474   5.307   3.481
 7388SOL    HW123063   6.388   5.338   3.440
 7388SOL    HW223064   6.500   5.220   3.440
 7389SOL     OW23065   1.562   3.967   5.923
 7389SOL    HW123066   1.532   3.873   5.935
 7389SOL    HW223067   1.594   4.003   6.011
 7390SOL     OW23068   1.527   6.534   5.165
 7390SOL    HW123069   1.567   6.615   5.209
 7390SOL    HW223070   1.427   6.542   5.167
 7391SOL     OW23071   5.755   3.383   6.462
 7391SOL    HW123072   5.851   3.385   6.492
 7391SOL    HW223073   5.699   3.343   6.534
 7392SOL     OW23074   1.396   4.448   4.216
 7392SOL    HW123075   1.319   4.452   4.280
 7392SOL    HW223076   1.474   4.498   4.254
 7393SOL     OW23077   0.429   3.888   2.678
 7393SOL    HW123078   0.334   3.871   2.704
 7393SOL    HW223079   0.469   3.955   2.740
 7394SOL     OW23080   3.859   3.783   6.663
 7394SOL    HW123081   3.868   3.779   6.763
 7394SOL    HW223082   3.790   3.718   6.633
 7395SOL     OW23083   0.871   7.018   0.720
 7395SOL    HW123084   0.938   6.976   0.781
 7395SOL    HW223085   0.804   6.950   0.691
 7396SOL     OW23086   0.794   0.105   6.770
 7396SOL    HW123087   0.848   0.122   6.688
 7396SOL    HW223088   0.750   0.189   6.800
 7397SOL     OW23089   5.650   4.974   5.119
 7397SOL    HW123090   5.580   5.039   5.148
 7397SOL    HW223091   5.738   4.999   5.160
 7398SOL     OW23092   4.432   4.507   3.856
 7398SOL    HW123093   4.471   4.439   3.918
 7398SOL    HW223094   4.459   4.486   3.762
 7399SOL     OW23095   5.039   3.978   5.720
 7399SOL    HW123096   4.975   4.012   5.651
 7399SOL    HW223097   4.989   3.933   5.793
 7400SOL     OW23098   2.472   5.467   6.489
 7400SOL    HW123099   2.471   5.410   6.407
 7400SOL    HW223100   2.378   5.486   6.517
 7401SOL     OW23101   6.940   1.937   3.809
 7401SOL    HW123102   6.956   2.026   3.851
 7401SOL    HW223103   6.849   1.905   3.834
 7402SOL     OW23104   3.170   0.637   3.631
 7402SOL    HW123105   3.232   0.564   3.602
 7402SOL    HW223106   3.087   0.636   3.576
 7403SOL     OW23107   1.838   3.820   3.036
 7403SOL    HW123108   1.925   3.775   3.015
 7403SOL    HW223109   1.763   3.764   3.003
 7404SOL     OW23110   1.700   0.074   1.849
 7404SOL    HW123111   1.694   0.169   1.882
 7404SOL    HW223112   1.630   0.059   1.779
 7405SOL     OW23113   2.960   4.935   5.828
 7405SOL    HW123114   2.960   4.898   5.921
 7405SOL    HW223115   3.023   5.012   5.823
 7406SOL     OW23116   0.508   4.923   1.434
 7406SOL    HW123117   0.425   4.881   1.396
 7406SOL    HW223118   0.570   4.947   1.360
 7407SOL     OW23119   1.465   6.358   6.411
 7407SOL    HW123120   1.469   6.262   6.381
 7407SOL    HW223121   1.494   6.364   6.506
 7408SOL     OW23122   1.868   4.336   5.915
 7408SOL    HW123123   1.890   4.433   5.912
 7408SOL    HW223124   1.769   4.324   5.914
 7409SOL     OW23125   2.260   5.381   5.175
 7409SOL    HW123126   2.258   5.450   5.247
 7409SOL    HW223127   2.353   5.374   5.138
 7410SOL     OW23128   6.794   4.840   0.901
 7410SOL    HW123129   6.702   4.872   0.921
 7410SOL    HW223130   6.861   4.908   0.932
 7411SOL     OW23131   3.938   5.938   5.064
 7411SOL    HW123132   3.913   5.922   4.969
 7411SOL    HW223133   3.981   6.028   5.074
 7412SOL     OW23134   1.028   1.723   0.249
 7412SOL    HW123135   0.966   1.714   0.326
 7412SOL    HW223136   0.975   1.732   0.164
 7413SOL     OW23137   6.381   3.866   4.843
 7413SOL    HW123138   6.298   3.865   4.787
 7413SOL    HW223139   6.434   3.783   4.825
 7414SOL     OW23140   6.853   7.005   2.313
 7414SOL    HW123141   6.764   0.017   2.342
 7414SOL    HW223142   6.918   0.056   2.307
 7415SOL     OW23143   2.124   2.517   3.459
 7415SOL    HW123144   2.031   2.482   3.466
 7415SOL    HW223145   2.122   2.617   3.461
 7416SOL     OW23146   3.763   0.697   4.131
 7416SOL    HW123147   3.818   0.636   4.075
 7416SOL    HW223148   3.699   0.747   4.072
 7417SOL     OW23149   1.265   6.441   0.164
 7417SOL    HW123150   1.352   6.481   0.137
 7417SOL    HW223151   1.279   6.380   0.242
 7418SOL     OW23152   1.881   3.480   0.942
 7418SOL    HW123153   1.966   3.488   0.891
 7418SOL    HW223154   1.812   3.542   0.904
 7419SOL     OW23155   6.559   0.839   4.802
 7419SOL    HW123156   6.482   0.886   4.845
 7419SOL    HW223157   6.548   0.841   4.702
 7420SOL     OW23158   6.933   6.178   1.703
 7420SOL    HW123159   6.939   6.278   1.700
 7420SOL    HW223160   6.843   6.149   1.671
 7421SOL     OW23161   4.198   3.731   1.250
 7421SOL    HW123162   4.273   3.690   1.199
 7421SOL    HW223163   4.113   3.720   1.199
 7422SOL     OW23164   0.063   3.307   0.264
 7422SOL    HW123165   0.031   3.245   0.336
 7422SOL    HW223166   0.150   3.348   0.292
 7423SOL     OW23167   1.666   5.207   6.806
 7423SOL    HW123168   1.642   5.259   6.888
 7423SOL    HW223169   1.720   5.266   6.744
 7424SOL     OW23170   5.716   0.887   4.654
 7424SOL    HW123171   5.691   0.799   4.692
 7424SOL    HW223172   5.792   0.876   4.590
 7425SOL     OW23173   3.378   5.742   5.876
 7425SOL    HW123174   3.329   5.787   5.801
 7425SOL    HW223175   3.315   5.725   5.951
 7426SOL     OW23176   0.981   1.311   6.670
 7426SOL    HW123177   0.994   1.382   6.600
 7426SOL    HW223178   0.946   1.228   6.626
 7427SOL     OW23179   4.223   5.262   4.528
 7427SOL    HW123180   4.125   5.263   4.547
 7427SOL    HW223181   4.248   5.178   4.480
 7428SOL     OW23182   3.530   1.990   5.869
 7428SOL    HW123183   3.597   2.056   5.833
 7428SOL    HW223184   3.483   2.030   5.947
 7429SOL     OW23185   0.052   0.315   2.894
 7429SOL    HW123186   0.076   0.220   2.873
 7429SOL    HW223187   0.040   0.325   2.993
 7430SOL     OW23188   6.450   4.188   5.150
 7430SOL    HW123189   6.429   4.215   5.056
 7430SOL    HW223190   6.390   4.114   5.178
 7431SOL     OW23191   0.786   4.502   2.067
 7431SOL    HW123192   0.847   4.492   2.145
 7431SOL    HW223193   0.826   4.567   2.002
 7432SOL     OW23194   0.626   6.528   5.245
 7432SOL    HW123195   0.687   6.487   5.177
 7432SOL    HW223196   0.597   6.618   5.214
 7433SOL     OW23197   6.254   5.493   0.595
 7433SOL    HW123198   6.208   5.429   0.533
 7433SOL    HW223199   6.311   5.442   0.659
 7434SOL     OW23200   4.236   1.346   6.162
 7434SOL    HW123201   4.153   1.300   6.194
 7434SOL    HW223202   4.211   1.421   6.102
 7435SOL     OW23203   2.393   6.696   0.004
 7435SOL    HW123204   2.370   6.650   0.090
 7435SOL    HW223205   2.354   6.789   0.005
 7436SOL     OW23206   4.950   3.079   0.341
 7436SOL    HW123207   5.037   3.100   0.387
 7436SOL    HW223208   4.878   3.068   0.410
 7437SOL     OW23209   0.913   5.796   5.763
 7437SOL    HW123210   0.994   5.739   5.755
 7437SOL    HW223211   0.936   5.882   5.807
 7438SOL     OW23212   6.566   4.683   1.882
 7438SOL    HW123213   6.558   4.713   1.977
 7438SOL    HW223214   6.637   4.613   1.874
 7439SOL     OW23215   2.371   0.178   3.615
 7439SOL    HW123216   2.367   0.152   3.519
 7439SOL    HW223217   2.380   0.096   3.671
 7440SOL     OW23218   1.605   2.533   4.183
 7440SOL    HW123219   1.640   2.448   4.146
 7440SOL    HW223220   1.673   2.605   4.172
 7441SOL     OW23221   5.400   1.093   3.994
 7441SOL    HW123222   5.491   1.130   3.978
 7441SOL    HW223223   5.334   1.168   3.998
 7442SOL     OW23224   1.186   0.982   6.659
 7442SOL    HW123225   1.126   1.025   6.592
 7442SOL    HW223226   1.133   0.953   6.739
 7443SOL     OW23227   0.474   1.471   6.878
 7443SOL    HW123228   0.572   1.491   6.891
 7443SOL    HW223229   0.463   1.403   6.806
 7444SOL     OW23230   0.693   3.033   6.582
 7444SOL    HW123231   0.662   2.942   6.554
 7444SOL    HW223232   0.761   3.066   6.517
 7445SOL     OW23233   5.319   2.106   1.722
 7445SOL    HW123234   5.404   2.061   1.750
 7445SOL    HW223235   5.325   2.132   1.626
 7446SOL     OW23236   6.472   4.041   0.815
 7446SOL    HW123237   6.542   3.991   0.866
 7446SOL    HW223238   6.485   4.140   0.828
 7447SOL     OW23239   1.031   3.819   6.071
 7447SOL    HW123240   0.997   3.893   6.129
 7447SOL    HW223241   1.034   3.849   5.976
 7448SOL     OW23242   6.721   0.001   5.913
 7448SOL    HW123243   6.669   6.948   5.952
 7448SOL    HW223244   6.658   0.075   5.890
 7449SOL     OW23245   5.555   2.123   2.113
 7449SOL    HW123246   5.523   2.040   2.067
 7449SOL    HW223247   5.629   2.100   2.176
 7450SOL     OW23248   4.727   1.746   3.085
 7450SOL    HW123249   4.770   1.806   3.152
 7450SOL    HW223250   4.649   1.794   3.043
 7451SOL     OW23251   2.216   0.533   3.983
 7451SOL    HW123252   2.203   0.437   3.957
 7451SOL    HW223253   2.300   0.541   4.037
 7452SOL     OW23254   2.079   6.438   5.045
 7452SOL    HW123255   2.087   6.361   4.982
 7452SOL    HW223256   2.111   6.411   5.135
 7453SOL     OW23257   5.385   6.359   4.396
 7453SOL    HW123258   5.420   6.426   4.463
 7453SOL    HW223259   5.286   6.350   4.407
 7454SOL     OW23260   0.966   3.899   1.331
 7454SOL    HW123261   0.874   3.866   1.309
 7454SOL    HW223262   1.022   3.822   1.363
 7455SOL     OW23263   4.714   2.681   0.308
 7455SOL    HW123264   4.722   2.607   0.375
 7455SOL    HW223265   4.644   2.746   0.338
 7456SOL     OW23266   1.749   3.605   4.917
 7456SOL    HW123267   1.780   3.655   4.998
 7456SOL    HW223268   1.699   3.523   4.946
 7457SOL     OW23269   6.262   0.867   5.399
 7457SOL    HW123270   6.299   0.775   5.384
 7457SOL    HW223271   6.193   0.864   5.471
 7458SOL     OW23272   2.621   1.063   0.910
 7458SOL    HW123273   2.686   1.062   0.986
 7458SOL    HW223274   2.528   1.071   0.946
 7459SOL     OW23275   4.488   0.665   4.802
 7459SOL    HW123276   4.582   0.646   4.771
 7459SOL    HW223277   4.488   0.672   4.902
 7460SOL     OW23278   0.797   4.366   0.302
 7460SOL    HW123279   0.854   4.355   0.220
 7460SOL    HW223280   0.830   4.304   0.373
 7461SOL     OW23281   5.455   0.945   4.694
 7461SOL    HW123282   5.446   1.021   4.631
 7461SOL    HW223283   5.550   0.913   4.694
 7462SOL     OW23284   2.122   1.948   2.390
 7462SOL    HW123285   2.104   2.033   2.440
 7462SOL    HW223286   2.189   1.965   2.317
 7463SOL     OW23287   3.904   3.883   2.170
 7463SOL    HW123288   3.939   3.947   2.101
 7463SOL    HW223289   3.963   3.802   2.173
 7464SOL     OW23290   5.002   6.107   0.772
 7464SOL    HW123291   4.934   6.179   0.754
 7464SOL    HW223292   4.981   6.027   0.715
 7465SOL     OW23293   2.823   0.169   1.531
 7465SOL    HW123294   2.763   0.234   1.484
 7465SOL    HW223295   2.771   0.122   1.603
 7466SOL     OW23296   0.667   0.604   0.237
 7466SOL    HW123297   0.687   0.655   0.154
 7466SOL    HW223298   0.727   0.523   0.242
 7467SOL     OW23299   0.256   1.571   1.179
 7467SOL    HW123300   0.301   1.618   1.104
 7467SOL    HW223301   0.184   1.511   1.143
 7468SOL     OW23302   6.140   1.476   2.979
 7468SOL    HW123303   6.067   1.510   2.920
 7468SOL    HW223304   6.100   1.421   3.053
 7469SOL     OW23305   1.289   0.879   0.869
 7469SOL    HW123306   1.333   0.792   0.893
 7469SOL    HW223307   1.200   0.885   0.914
 7470SOL     OW23308   6.918   2.302   2.557
 7470SOL    HW123309   6.946   2.389   2.600
 7470SOL    HW223310   6.997   2.240   2.555
 7471SOL     OW23311   6.203   6.710   5.619
 7471SOL    HW123312   6.281   6.654   5.648
 7471SOL    HW223313   6.118   6.661   5.641
 7472SOL     OW23314   3.344   0.440   3.567
 7472SOL    HW123315   3.321   0.358   3.619
 7472SOL    HW223316   3.408   0.496   3.620
 7473SOL     OW23317   6.775   3.620   4.009
 7473SOL    HW123318   6.860   3.567   4.008
 7473SOL    HW223319   6.763   3.663   4.098
 7474SOL     OW23320   3.925   0.836   3.154
 7474SOL    HW123321   3.881   0.925   3.150
 7474SOL    HW223322   3.857   0.766   3.179
 7475SOL     OW23323   3.640   1.017   1.023
 7475SOL    HW123324   3.609   1.086   1.088
 7475SOL    HW223325   3.581   1.017   0.942
 7476SOL     OW23326   3.439   6.537   4.263
 7476SOL    HW123327   3.487   6.565   4.180
 7476SOL    HW223328   3.424   6.438   4.261
 7477SOL     OW23329   3.779   1.499   3.904
 7477SOL    HW123330   3.777   1.420   3.965
 7477SOL    HW223331   3.725   1.573   3.943
 7478SOL     OW23332   1.710   4.430   0.380
 7478SOL    HW123333   1.694   4.527   0.399
 7478SOL    HW223334   1.623   4.383   0.368
 7479SOL     OW23335   4.604   0.787   6.694
 7479SOL    HW123336   4.685   0.756   6.743
 7479SOL    HW223337   4.571   0.872   6.735
 7480SOL     OW23338   6.515   5.270   1.194
 7480SOL    HW123339   6.556   5.309   1.277
 7480SOL    HW223340   6.587   5.238   1.133
 7481SOL     OW23341   5.475   5.363   0.632
 7481SOL    HW123342   5.410   5.387   0.560
 7481SOL    HW223343   5.548   5.306   0.593
 7482SOL     OW23344   5.022   0.703   2.943
 7482SOL    HW123345   4.964   0.785   2.943
 7482SOL    HW223346   5.118   0.731   2.941
 7483SOL     OW23347   3.697   1.045   4.971
 7483SOL    HW123348   3.705   1.094   4.884
 7483SOL    HW223349   3.603   1.050   5.004
 7484SOL     OW23350   1.886   6.552   2.213
 7484SOL    HW123351   1.957   6.607   2.170
 7484SOL    HW223352   1.834   6.609   2.278
 7485SOL     OW23353   2.938   5.822   6.291
 7485SOL    HW123354   2.941   5.825   6.391
 7485SOL    HW223355   2.882   5.744   6.262
 7486SOL     OW23356   2.930   6.436   5.727
 7486SOL    HW123357   2.881   6.506   5.675
 7486SOL    HW223358   2.872   6.355   5.737
 7487SOL     OW23359   3.323   6.313   4.271
 7487SOL    HW123360   3.254   6.291   4.203
 7487SOL    HW223361   3.290   6.289   4.362
 7488SOL     OW23362   4.034   0.319   6.001
 7488SOL    HW123363   3.996   0.385   6.066
 7488SOL    HW223364   4.074   0.242   6.051
 7489SOL     OW23365   5.174   3.212   3.833
 7489SOL    HW123366   5.229   3.267   3.895
 7489SOL    HW223367   5.078   3.218   3.860
 7490SOL     OW23368   5.255   0.632   1.270
 7490SOL    HW123369   5.216   0.670   1.186
 7490SOL    HW223370   5.223   0.684   1.349
 7491SOL     OW23371   6.362   5.998   6.483
 7491SOL    HW123372   6.444   5.965   6.435
 7491SOL    HW223373   6.389   6.070   6.547
 7492SOL     OW23374   1.731   2.565   4.925
 7492SOL    HW123375   1.720   2.665   4.917
 7492SOL    HW223376   1.803   2.534   4.863
 7493SOL     OW23377   5.447   3.751   6.533
 7493SOL    HW123378   5.514   3.697   6.482
 7493SOL    HW223379   5.355   3.716   6.514
 7494SOL     OW23380   5.460   0.024   2.111
 7494SOL    HW123381   5.369   0.062   2.093
 7494SOL    HW223382   5.496   0.063   2.196
 7495SOL     OW23383   1.660   2.136   0.883
 7495SOL    HW123384   1.713   2.054   0.905
 7495SOL    HW223385   1.661   2.150   0.784
 7496SOL     OW23386   1.006   4.493   6.035
 7496SOL    HW123387   0.981   4.400   6.009
 7496SOL    HW223388   0.923   4.550   6.038
 7497SOL     OW23389   1.829   4.189   2.456
 7497SOL    HW123390   1.866   4.102   2.488
 7497SOL    HW223391   1.808   4.183   2.359
 7498SOL     OW23392   3.671   1.732   4.707
 7498SOL    HW123393   3.768   1.740   4.726
 7498SOL    HW223394   3.620   1.723   4.792
 7499SOL     OW23395   5.449   6.806   4.269
 7499SOL    HW123396   5.504   6.869   4.214
 7499SOL    HW223397   5.394   6.749   4.208
 7500SOL     OW23398   4.686   5.928   1.662
 7500SOL    HW123399   4.775   5.963   1.690
 7500SOL    HW223400   4.626   5.924   1.742
 7501SOL     OW23401   0.078   4.111   3.876
 7501SOL    HW123402   7.009   4.091   3.909
 7501SOL    HW223403   0.130   4.026   3.869
 7502SOL     OW23404   2.796   1.154   5.311
 7502SOL    HW123405   2.781   1.252   5.302
 7502SOL    HW223406   2.880   1.137   5.364
 7503SOL     OW23407   2.986   1.343   0.152
 7503SOL    HW123408   3.069   1.396   0.171
 7503SOL    HW223409   2.924   1.398   0.096
 7504SOL     OW23410   3.862   6.717   3.082
 7504SOL    HW123411   3.829   6.649   3.147
 7504SOL    HW223412   3.820   6.805   3.101
 7505SOL     OW23413   1.662   1.394   4.805
 7505SOL    HW123414   1.690   1.485   4.776
 7505SOL    HW223415   1.673   1.329   4.730
 7506SOL     OW23416   3.395   0.714   2.448
 7506SOL    HW123417   3.410   0.794   2.507
 7506SOL    HW223418   3.297   0.693   2.446
 7507SOL     OW23419   0.633   6.017   6.215
 7507SOL    HW123420   0.610   5.997   6.310
 7507SOL    HW223421   0.729   5.993   6.198
 7508SOL     OW23422   6.016   0.067   2.611
 7508SOL    HW123423   5.934   0.033   2.657
 7508SOL    HW223424   6.070   7.013   2.578
 7509SOL     OW23425   5.013   3.672   5.959
 7509SOL    HW123426   4.934   3.660   5.899
 7509SOL    HW223427   5.085   3.607   5.932
 7510SOL     OW23428   3.894   3.999   4.827
 7510SOL    HW123429   3.945   4.085   4.825
 7510SOL    HW223430   3.797   4.017   4.810
 7511SOL     OW23431   1.621   0.329   1.911
 7511SOL    HW123432   1.693   0.394   1.891
 7511SOL    HW223433   1.539   0.353   1.859
 7512SOL     OW23434   2.385   2.838   1.695
 7512SOL    HW123435   2.294   2.875   1.676
 7512SOL    HW223436   2.444   2.852   1.615
 7513SOL     OW23437   1.406   2.064   6.766
 7513SOL    HW123438   1.422   2.036   6.861
 7513SOL    HW223439   1.332   2.131   6.763
 7514SOL     OW23440   2.897   5.383   2.478
 7514SOL    HW123441   2.803   5.350   2.468
 7514SOL    HW223442   2.945   5.329   2.547
 7515SOL     OW23443   0.019   6.607   2.465
 7515SOL    HW123444   6.975   6.672   2.497
 7515SOL    HW223445   7.009   6.562   2.382
 7516SOL     OW23446   0.611   0.603   3.459
 7516SOL    HW123447   0.517   0.610   3.426
 7516SOL    HW223448   0.633   0.683   3.514
 7517SOL     OW23449   0.080   3.699   0.801
 7517SOL    HW123450   7.014   3.656   0.793
 7517SOL    HW223451   0.072   3.780   0.861
 7518SOL     OW23452   4.879   5.385   4.292
 7518SOL    HW123453   4.976   5.375   4.313
 7518SOL    HW223454   4.865   5.467   4.237
 7519SOL     OW23455   1.704   6.246   3.928
 7519SOL    HW123456   1.634   6.193   3.975
 7519SOL    HW223457   1.771   6.184   3.887
 7520SOL     OW23458   1.571   6.473   3.758
 7520SOL    HW123459   1.607   6.488   3.666
 7520SOL    HW223460   1.623   6.399   3.802
 7521SOL     OW23461   4.542   4.369   5.107
 7521SOL    HW123462   4.479   4.440   5.075
 7521SOL    HW223463   4.625   4.412   5.143
 7522SOL     OW23464   2.236   1.262   1.371
 7522SOL    HW123465   2.191   1.343   1.407
 7522SOL    HW223466   2.332   1.283   1.352
 7523SOL     OW23467   6.061   0.194   6.172
 7523SOL    HW123468   5.969   0.225   6.197
 7523SOL    HW223469   6.113   0.271   6.134
 7524SOL     OW23470   0.828   1.713   5.244
 7524SOL    HW123471   0.805   1.617   5.231
 7524SOL    HW223472   0.826   1.734   5.342
 7525SOL     OW23473   1.315   0.947   0.504
 7525SOL    HW123474   1.276   0.961   0.412
 7525SOL    HW223475   1.297   1.027   0.560
 7526SOL     OW23476   3.387   3.008   4.635
 7526SOL    HW123477   3.290   3.014   4.657
 7526SOL    HW223478   3.399   2.955   4.551
 7527SOL     OW23479   5.388   4.498   3.384
 7527SOL    HW123480   5.455   4.569   3.361
 7527SOL    HW223481   5.405   4.465   3.477
 7528SOL     OW23482   5.020   2.538   0.116
 7528SOL    HW123483   5.113   2.547   0.152
 7528SOL    HW223484   4.974   2.626   0.122
 7529SOL     OW23485   3.606   0.984   5.294
 7529SOL    HW123486   3.698   0.957   5.323
 7529SOL    HW223487   3.608   1.077   5.259
 7530SOL     OW23488   0.522   4.050   2.168
 7530SOL    HW123489   0.442   4.016   2.120
 7530SOL    HW223490   0.587   4.088   2.102
 7531SOL     OW23491   4.336   1.870   3.560
 7531SOL    HW123492   4.336   1.858   3.659
 7531SOL    HW223493   4.252   1.916   3.531
 7532SOL     OW23494   5.098   5.572   2.627
 7532SOL    HW123495   5.080   5.556   2.530
 7532SOL    HW223496   5.197   5.576   2.643
 7533SOL     OW23497   3.349   1.494   4.669
 7533SOL    HW123498   3.435   1.518   4.625
 7533SOL    HW223499   3.320   1.403   4.639
 7534SOL     OW23500   4.358   6.681   4.820
 7534SOL    HW123501   4.263   6.689   4.790
 7534SOL    HW223502   4.418   6.669   4.741
 7535SOL     OW23503   2.852   2.457   6.054
 7535SOL    HW123504   2.831   2.523   6.126
 7535SOL    HW223505   2.913   2.387   6.090
 7536SOL     OW23506   4.436   5.569   4.670
 7536SOL    HW123507   4.437   5.521   4.758
 7536SOL    HW223508   4.489   5.516   4.603
 7537SOL     OW23509   2.422   4.536   5.750
 7537SOL    HW123510   2.499   4.478   5.721
 7537SOL    HW223511   2.362   4.483   5.811
 7538SOL     OW23512   2.973   3.195   2.870
 7538SOL    HW123513   3.002   3.099   2.873
 7538SOL    HW223514   2.990   3.237   2.959
 7539SOL     OW23515   1.974   2.936   5.136
 7539SOL    HW123516   2.065   2.914   5.171
 7539SOL    HW223517   1.982   2.993   5.055
 7540SOL     OW23518   2.983   1.166   6.976
 7540SOL    HW123519   2.968   1.187   0.048
 7540SOL    HW223520   3.072   1.201   6.947
 7541SOL     OW23521   6.461   2.143   5.366
 7541SOL    HW123522   6.402   2.084   5.422
 7541SOL    HW223523   6.552   2.146   5.406
 7542SOL     OW23524   1.270   6.675   5.635
 7542SOL    HW123525   1.331   6.608   5.678
 7542SOL    HW223526   1.285   6.676   5.537
 7543SOL     OW23527   3.985   3.242   0.656
 7543SOL    HW123528   3.980   3.325   0.601
 7543SOL    HW223529   3.914   3.245   0.726
 7544SOL     OW23530   2.111   2.366   3.063
 7544SOL    HW123531   2.059   2.309   2.999
 7544SOL    HW223532   2.100   2.462   3.039
 7545SOL     OW23533   5.504   0.161   3.489
 7545SOL    HW123534   5.455   0.229   3.544
 7545SOL    HW223535   5.446   0.081   3.473
 7546SOL     OW23536   5.056   0.786   6.674
 7546SOL    HW123537   5.155   0.768   6.669
 7546SOL    HW223538   5.041   0.882   6.697
 7547SOL     OW23539   3.576   0.281   0.411
 7547SOL    HW123540   3.653   0.237   0.365
 7547SOL    HW223541   3.582   0.380   0.399
 7548SOL     OW23542   2.425   2.494   1.180
 7548SOL    HW123543   2.370   2.445   1.113
 7548SOL    HW223544   2.396   2.590   1.185
 7549SOL     OW23545   5.334   2.244   3.123
 7549SOL    HW123546   5.274   2.261   3.201
 7549SOL    HW223547   5.331   2.321   3.060
 7550SOL     OW23548   2.455   5.940   2.716
 7550SOL    HW123549   2.391   5.877   2.671
 7550SOL    HW223550   2.546   5.898   2.718
 7551SOL     OW23551   5.122   2.895   6.520
 7551SOL    HW123552   5.049   2.913   6.454
 7551SOL    HW223553   5.209   2.928   6.483
 7552SOL     OW23554   3.035   5.227   4.275
 7552SOL    HW123555   3.118   5.262   4.317
 7552SOL    HW223556   3.006   5.145   4.323
 7553SOL     OW23557   4.093   6.014   6.094
 7553SOL    HW123558   4.112   6.004   6.191
 7553SOL    HW223559   4.083   6.111   6.072
 7554SOL     OW23560   6.046   1.109   0.244
 7554SOL    HW123561   6.007   1.131   0.154
 7554SOL    HW223562   6.073   1.013   0.245
 7555SOL     OW23563   0.391   6.219   5.501
 7555SOL    HW123564   0.333   6.138   5.490
 7555SOL    HW223565   0.450   6.206   5.581
 7556SOL     OW23566   0.128   2.791   4.405
 7556SOL    HW123567   0.068   2.866   4.432
 7556SOL    HW223568   0.176   2.755   4.485
 7557SOL     OW23569   5.125   4.175   6.049
 7557SOL    HW123570   5.212   4.186   6.098
 7557SOL    HW223571   5.105   4.078   6.037
 7558SOL     OW23572   1.795   3.484   3.325
 7558SOL    HW123573   1.731   3.516   3.255
 7558SOL    HW223574   1.746   3.462   3.408
 7559SOL     OW23575   0.100   4.432   0.806
 7559SOL    HW123576   0.120   4.505   0.872
 7559SOL    HW223577   0.007   4.399   0.820
 7560SOL     OW23578   5.345   6.753   0.581
 7560SOL    HW123579   5.296   6.685   0.526
 7560SOL    HW223580   5.441   6.728   0.586
 7561SOL     OW23581   5.973   3.335   0.698
 7561SOL    HW123582   6.065   3.308   0.727
 7561SOL    HW223583   5.906   3.273   0.739
 7562SOL     OW23584   4.998   6.855   5.395
 7562SOL    HW123585   4.909   6.894   5.421
 7562SOL    HW223586   4.983   6.783   5.328
 7563SOL     OW23587   2.861   0.869   2.407
 7563SOL    HW123588   2.844   0.826   2.318
 7563SOL    HW223589   2.780   0.859   2.465
 7564SOL     OW23590   5.130   0.028   2.952
 7564SOL    HW123591   5.146   0.032   3.051
 7564SOL    HW223592   5.138   6.957   2.921
 7565SOL     OW23593   4.464   4.908   0.207
 7565SOL    HW123594   4.491   4.813   0.190
 7565SOL    HW223595   4.384   4.930   0.151
 7566SOL     OW23596   1.073   5.970   4.453
 7566SOL    HW123597   1.009   5.911   4.404
 7566SOL    HW223598   1.036   5.992   4.543
 7567SOL     OW23599   3.055   5.236   6.885
 7567SOL    HW123600   2.984   5.209   6.820
 7567SOL    HW223601   3.136   5.268   6.836
 7568SOL     OW23602   4.988   5.647   3.791
 7568SOL    HW123603   4.956   5.607   3.877
 7568SOL    HW223604   5.068   5.596   3.758
 7569SOL     OW23605   4.095   5.883   0.138
 7569SOL    HW123606   4.047   5.824   0.073
 7569SOL    HW223607   4.047   5.881   0.226
 7570SOL     OW23608   5.749   5.753   4.114
 7570SOL    HW123609   5.819   5.689   4.143
 7570SOL    HW223610   5.722   5.810   4.192
 7571SOL     OW23611   5.663   4.285   1.468
 7571SOL    HW123612   5.666   4.188   1.493
 7571SOL    HW223613   5.724   4.301   1.390
 7572SOL     OW23614   3.225   0.657   4.708
 7572SOL    HW123615   3.200   0.753   4.699
 7572SOL    HW223616   3.146   0.599   4.687
 7573SOL     OW23617   0.637   6.154   4.288
 7573SOL    HW123618   0.670   6.102   4.209
 7573SOL    HW223619   0.595   6.092   4.354
 7574SOL     OW23620   5.337   6.365   3.563
 7574SOL    HW123621   5.403   6.432   3.598
 7574SOL    HW223622   5.257   6.364   3.623
 7575SOL     OW23623   3.807   1.179   5.442
 7575SOL    HW123624   3.849   1.270   5.448
 7575SOL    HW223625   3.712   1.184   5.471
 7576SOL     OW23626   5.832   3.010   0.340
 7576SOL    HW123627   5.929   3.030   0.331
 7576SOL    HW223628   5.782   3.096   0.354
 7577SOL     OW23629   6.317   1.106   4.857
 7577SOL    HW123630   6.391   1.172   4.868
 7577SOL    HW223631   6.341   1.022   4.906
 7578SOL     OW23632   2.295   5.325   4.714
 7578SOL    HW123633   2.245   5.274   4.644
 7578SOL    HW223634   2.328   5.262   4.784
 7579SOL     OW23635   3.522   1.523   2.446
 7579SOL    HW123636   3.479   1.613   2.440
 7579SOL    HW223637   3.543   1.490   2.354
 7580SOL     OW23638   2.010   4.546   2.546
 7580SOL    HW123639   1.979   4.597   2.466
 7580SOL    HW223640   1.997   4.448   2.530
 7581SOL     OW23641   5.094   1.001   0.940
 7581SOL    HW123642   5.016   0.939   0.939
 7581SOL    HW223643   5.174   0.954   0.976
 7582SOL     OW23644   3.200   1.042   0.848
 7582SOL    HW123645   3.204   1.133   0.889
 7582SOL    HW223646   3.119   1.036   0.789
 7583SOL     OW23647   5.692   3.324   2.268
 7583SOL    HW123648   5.759   3.313   2.342
 7583SOL    HW223649   5.639   3.239   2.259
 7584SOL     OW23650   2.713   6.800   1.443
 7584SOL    HW123651   2.667   6.801   1.532
 7584SOL    HW223652   2.759   6.712   1.430
 7585SOL     OW23653   1.231   4.555   6.674
 7585SOL    HW123654   1.306   4.600   6.722
 7585SOL    HW223655   1.190   4.619   6.609
 7586SOL     OW23656   3.162   0.542   2.790
 7586SOL    HW123657   3.192   0.629   2.752
 7586SOL    HW223658   3.241   0.480   2.797
 7587SOL     OW23659   1.057   1.725   6.342
 7587SOL    HW123660   0.991   1.761   6.407
 7587SOL    HW223661   1.143   1.775   6.351
 7588SOL     OW23662   0.667   4.737   2.927
 7588SOL    HW123663   0.630   4.760   3.017
 7588SOL    HW223664   0.689   4.820   2.878
 7589SOL     OW23665   5.819   5.924   0.702
 7589SOL    HW123666   5.841   5.972   0.787
 7589SOL    HW223667   5.862   5.971   0.626
 7590SOL     OW23668   2.576   1.424   6.015
 7590SOL    HW123669   2.674   1.443   6.015
 7590SOL    HW223670   2.525   1.510   6.023
 7591SOL     OW23671   6.663   4.777   6.512
 7591SOL    HW123672   6.706   4.854   6.559
 7591SOL    HW223673   6.697   4.771   6.418
 7592SOL     OW23674   6.411   5.228   6.663
 7592SOL    HW123675   6.374   5.136   6.677
 7592SOL    HW223676   6.498   5.222   6.615
 7593SOL     OW23677   5.007   2.076   0.261
 7593SOL    HW123678   4.972   2.003   0.202
 7593SOL    HW223679   4.998   2.049   0.357
 7594SOL     OW23680   0.954   6.105   4.194
 7594SOL    HW123681   0.930   6.025   4.139
 7594SOL    HW223682   0.927   6.090   4.289
 7595SOL     OW23683   6.950   3.121   6.644
 7595SOL    HW123684   0.013   3.075   6.627
 7595SOL    HW223685   6.909   3.147   6.557
 7596SOL     OW23686   5.082   4.420   1.843
 7596SOL    HW123687   5.044   4.447   1.932
 7596SOL    HW223688   5.084   4.320   1.836
 7597SOL     OW23689   4.148   5.237   1.706
 7597SOL    HW123690   4.234   5.190   1.686
 7597SOL    HW223691   4.108   5.272   1.622
 7598SOL     OW23692   0.017   0.544   3.287
 7598SOL    HW123693   7.001   0.591   3.209
 7598SOL    HW223694   0.006   0.446   3.277
 7599SOL     OW23695   6.524   1.896   3.254
 7599SOL    HW123696   6.551   1.822   3.193
 7599SOL    HW223697   6.600   1.920   3.314
 7600SOL     OW23698   1.704   1.250   1.999
 7600SOL    HW123699   1.637   1.263   2.072
 7600SOL    HW223700   1.770   1.325   2.001
 7601SOL     OW23701   1.471   6.100   4.363
 7601SOL    HW123702   1.488   6.026   4.428
 7601SOL    HW223703   1.498   6.187   4.404
 7602SOL     OW23704   1.608   4.330   4.705
 7602SOL    HW123705   1.573   4.236   4.699
 7602SOL    HW223706   1.707   4.328   4.716
 7603SOL     OW23707   1.148   6.107   1.261
 7603SOL    HW123708   1.198   6.190   1.236
 7603SOL    HW223709   1.199   6.055   1.329
 7604SOL     OW23710   4.233   5.723   4.821
 7604SOL    HW123711   4.308   5.660   4.835
 7604SOL    HW223712   4.202   5.718   4.726
 7605SOL     OW23713   0.054   4.282   0.177
 7605SOL    HW123714   0.089   4.189   0.165
 7605SOL    HW223715   0.116   4.333   0.237
 7606SOL     OW23716   6.424   2.785   2.308
 7606SOL    HW123717   6.448   2.807   2.402
 7606SOL    HW223718   6.352   2.716   2.307
 7607SOL     OW23719   4.976   0.137   6.458
 7607SOL    HW123720   4.888   0.089   6.456
 7607SOL    HW223721   4.999   0.169   6.366
 7608SOL     OW23722   2.864   3.379   4.325
 7608SOL    HW123723   2.800   3.303   4.323
 7608SOL    HW223724   2.889   3.399   4.420
 7609SOL     OW23725   0.720   3.826   3.748
 7609SOL    HW123726   0.781   3.748   3.765
 7609SOL    HW223727   0.764   3.888   3.682
 7610SOL     OW23728   5.744   0.643   0.779
 7610SOL    HW123729   5.771   0.612   0.871
 7610SOL    HW223730   5.715   0.564   0.725
 7611SOL     OW23731   1.235   1.554   0.164
 7611SOL    HW123732   1.286   1.485   0.215
 7611SOL    HW223733   1.172   1.601   0.226
 7612SOL     OW23734   4.050   1.949   3.741
 7612SOL    HW123735   4.127   1.908   3.790
 7612SOL    HW223736   4.064   1.939   3.643
 7613SOL     OW23737   5.050   0.770   1.465
 7613SOL    HW123738   5.002   0.856   1.448
 7613SOL    HW223739   5.000   0.717   1.533
 7614SOL     OW23740   3.955   1.948   0.905
 7614SOL    HW123741   4.037   1.897   0.933
 7614SOL    HW223742   3.901   1.971   0.986
 7615SOL     OW23743   3.808   5.427   6.108
 7615SOL    HW123744   3.747   5.412   6.029
 7615SOL    HW223745   3.755   5.422   6.192
 7616SOL     OW23746   6.388   3.910   3.399
 7616SOL    HW123747   6.327   3.848   3.350
 7616SOL    HW223748   6.390   3.885   3.496
 7617SOL     OW23749   3.277   4.971   3.330
 7617SOL    HW123750   3.183   4.981   3.299
 7617SOL    HW223751   3.303   5.052   3.384
 7618SOL     OW23752   1.859   2.313   6.473
 7618SOL    HW123753   1.823   2.344   6.561
 7618SOL    HW223754   1.804   2.350   6.399
 7619SOL     OW23755   6.411   3.554   5.365
 7619SOL    HW123756   6.317   3.525   5.350
 7619SOL    HW223757   6.445   3.514   5.451
 7620SOL     OW23758   4.040   0.188   0.432
 7620SOL    HW123759   4.047   0.287   0.429
 7620SOL    HW223760   3.944   0.161   0.444
 7621SOL     OW23761   1.895   0.969   1.157
 7621SOL    HW123762   1.967   1.008   1.099
 7621SOL    HW223763   1.852   1.042   1.210
 7622SOL     OW23764   3.893   3.364   1.183
 7622SOL    HW123765   3.979   3.324   1.152
 7622SOL    HW223766   3.898   3.379   1.282
 7623SOL     OW23767   4.674   6.539   5.986
 7623SOL    HW123768   4.697   6.463   5.926
 7623SOL    HW223769   4.595   6.587   5.951
 7624SOL     OW23770   1.038   1.117   2.861
 7624SOL    HW123771   1.042   1.179   2.939
 7624SOL    HW223772   1.041   1.169   2.776
 7625SOL     OW23773   5.000   0.439   1.371
 7625SOL    HW123774   5.065   0.474   1.303
 7625SOL    HW223775   5.007   0.493   1.455
 7626SOL     OW23776   1.518   6.574   4.224
 7626SOL    HW123777   1.596   6.548   4.168
 7626SOL    HW223778   1.538   6.659   4.272
 7627SOL     OW23779   6.843   3.027   1.128
 7627SOL    HW123780   6.852   2.938   1.173
 7627SOL    HW223781   6.746   3.044   1.107
 7628SOL     OW23782   2.853   1.402   0.651
 7628SOL    HW123783   2.906   1.460   0.713
 7628SOL    HW223784   2.870   1.429   0.557
 7629SOL     OW23785   6.991   5.497   2.825
 7629SOL    HW123786   6.899   5.478   2.859
 7629SOL    HW223787   7.007   5.596   2.827
 7630SOL     OW23788   6.634   0.317   2.187
 7630SOL    HW123789   6.671   0.232   2.151
 7630SOL    HW223790   6.585   0.365   2.115
 7631SOL     OW23791   0.802   1.431   4.256
 7631SOL    HW123792   0.738   1.373   4.306
 7631SOL    HW223793   0.870   1.374   4.209
 7632SOL     OW23794   4.491   2.253   1.135
 7632SOL    HW123795   4.524   2.209   1.052
 7632SOL    HW223796   4.569   2.292   1.185
 7633SOL     OW23797   5.450   3.399   6.484
 7633SOL    HW123798   5.421   3.411   6.579
 7633SOL    HW223799   5.444   3.486   6.435
 7634SOL     OW23800   2.190   0.698   2.327
 7634SOL    HW123801   2.265   0.685   2.262
 7634SOL    HW223802   2.127   0.767   2.292
 7635SOL     OW23803   2.642   5.340   5.905
 7635SOL    HW123804   2.675   5.275   5.837
 7635SOL    HW223805   2.580   5.293   5.968
 7636SOL     OW23806   0.730   0.733   4.037
 7636SOL    HW123807   0.644   0.695   4.068
 7636SOL    HW223808   0.776   0.778   4.114
 7637SOL     OW23809   1.266   6.452   4.241
 7637SOL    HW123810   1.356   6.492   4.251
 7637SOL    HW223811   1.268   6.357   4.273
 7638SOL     OW23812   5.156   5.516   1.955
 7638SOL    HW123813   5.118   5.516   1.863
 7638SOL    HW223814   5.253   5.492   1.951
 7639SOL     OW23815   1.050   1.463   5.148
 7639SOL    HW123816   1.064   1.364   5.153
 7639SOL    HW223817   0.984   1.484   5.076
 7640SOL     OW23818   2.455   1.789   0.199
 7640SOL    HW123819   2.545   1.800   0.158
 7640SOL    HW223820   2.451   1.838   0.286
 7641SOL     OW23821   6.171   3.864   2.508
 7641SOL    HW123822   6.078   3.868   2.472
 7641SOL    HW223823   6.179   3.787   2.571
 7642SOL     OW23824   2.245   2.034   2.164
 7642SOL    HW123825   2.334   2.079   2.165
 7642SOL    HW223826   2.178   2.095   2.122
 7643SOL     OW23827   4.736   2.820   2.890
 7643SOL    HW123828   4.656   2.763   2.910
 7643SOL    HW223829   4.734   2.847   2.793
 7644SOL     OW23830   0.085   2.847   3.099
 7644SOL    HW123831   0.173   2.833   3.145
 7644SOL    HW223832   0.032   2.915   3.150
 7645SOL     OW23833   4.331   4.591   0.071
 7645SOL    HW123834   4.322   4.499   0.032
 7645SOL    HW223835   4.254   4.607   0.134
 7646SOL     OW23836   2.124   2.224   2.008
 7646SOL    HW123837   2.145   2.158   1.936
 7646SOL    HW223838   2.025   2.223   2.025
 7647SOL     OW23839   1.772   3.938   1.716
 7647SOL    HW123840   1.797   3.926   1.620
 7647SOL    HW223841   1.684   3.985   1.722
 7648SOL     OW23842   4.372   1.409   3.761
 7648SOL    HW123843   4.309   1.485   3.748
 7648SOL    HW223844   4.320   1.323   3.761
 7649SOL     OW23845   2.800   0.677   2.188
 7649SOL    HW123846   2.760   0.597   2.232
 7649SOL    HW223847   2.810   0.659   2.090
 7650SOL     OW23848   6.610   3.864   1.836
 7650SOL    HW123849   6.512   3.846   1.826
 7650SOL    HW223850   6.625   3.919   1.918
 7651SOL     OW23851   3.024   0.498   6.618
 7651SOL    HW123852   3.044   0.452   6.705
 7651SOL    HW223853   2.926   0.509   6.608
 7652SOL     OW23854   0.194   3.684   3.343
 7652SOL    HW123855   0.285   3.660   3.309
 7652SOL    HW223856   0.172   3.625   3.421
 7653SOL     OW23857   2.566   1.989   1.581
 7653SOL    HW123858   2.651   2.032   1.612
 7653SOL    HW223859   2.505   1.976   1.659
 7654SOL     OW23860   5.305   3.349   4.038
 7654SOL    HW123861   5.308   3.294   4.122
 7654SOL    HW223862   5.397   3.360   4.003
 7655SOL     OW23863   2.687   6.692   4.830
 7655SOL    HW123864   2.671   6.706   4.928
 7655SOL    HW223865   2.760   6.754   4.800
 7656SOL     OW23866   0.009   6.128   5.397
 7656SOL    HW123867   6.954   6.072   5.423
 7656SOL    HW223868   0.091   6.094   5.444
 7657SOL     OW23869   3.202   1.636   3.707
 7657SOL    HW123870   3.163   1.545   3.720
 7657SOL    HW223871   3.130   1.705   3.715
 7658SOL     OW23872   4.031   1.129   5.632
 7658SOL    HW123873   3.974   1.181   5.568
 7658SOL    HW223874   3.982   1.047   5.662
 7659SOL     OW23875   6.015   6.710   0.690
 7659SOL    HW123876   6.005   6.791   0.632
 7659SOL    HW223877   5.966   6.633   0.649
 7660SOL     OW23878   5.390   5.788   2.895
 7660SOL    HW123879   5.406   5.751   2.987
 7660SOL    HW223880   5.474   5.830   2.861
 7661SOL     OW23881   6.285   3.048   3.594
 7661SOL    HW123882   6.265   3.085   3.503
 7661SOL    HW223883   6.235   3.101   3.663
 7662SOL     OW23884   0.574   4.316   2.024
 7662SOL    HW123885   0.645   4.358   2.081
 7662SOL    HW223886   0.496   4.378   2.018
 7663SOL     OW23887   0.709   4.377   6.324
 7663SOL    HW123888   0.730   4.475   6.320
 7663SOL    HW223889   0.749   4.338   6.407
 7664SOL     OW23890   3.186   5.772   3.480
 7664SOL    HW123891   3.216   5.812   3.567
 7664SOL    HW223892   3.131   5.839   3.430
 7665SOL     OW23893   2.839   0.738   4.574
 7665SOL    HW123894   2.863   0.712   4.480
 7665SOL    HW223895   2.747   0.779   4.574
 7666SOL     OW23896   1.326   0.447   1.114
 7666SOL    HW123897   1.242   0.407   1.149
 7666SOL    HW223898   1.404   0.393   1.147
 7667SOL     OW23899   4.851   0.062   6.779
 7667SOL    HW123900   4.881   0.043   6.685
 7667SOL    HW223901   4.756   0.093   6.778
 7668SOL     OW23902   3.796   4.235   1.218
 7668SOL    HW123903   3.825   4.265   1.127
 7668SOL    HW223904   3.696   4.233   1.222
 7669SOL     OW23905   4.489   0.389   3.759
 7669SOL    HW123906   4.531   0.304   3.790
 7669SOL    HW223907   4.560   0.453   3.729
 7670SOL     OW23908   1.522   5.497   0.380
 7670SOL    HW123909   1.555   5.565   0.315
 7670SOL    HW223910   1.554   5.520   0.472
 7671SOL     OW23911   6.130   1.565   4.088
 7671SOL    HW123912   6.128   1.636   4.159
 7671SOL    HW223913   6.187   1.596   4.011
 7672SOL     OW23914   5.304   0.842   3.950
 7672SOL    HW123915   5.335   0.936   3.941
 7672SOL    HW223916   5.283   0.824   4.046
 7673SOL     OW23917   0.452   4.490   0.863
 7673SOL    HW123918   0.460   4.505   0.765
 7673SOL    HW223919   0.357   4.500   0.891
 7674SOL     OW23920   6.614   1.950   5.173
 7674SOL    HW123921   6.542   2.011   5.206
 7674SOL    HW223922   6.700   2.001   5.168
 7675SOL     OW23923   4.438   0.043   2.429
 7675SOL    HW123924   4.464   6.973   2.406
 7675SOL    HW223925   4.346   0.061   2.392
 7676SOL     OW23926   1.400   0.828   6.786
 7676SOL    HW123927   1.350   0.769   6.849
 7676SOL    HW223928   1.336   0.872   6.723
 7677SOL     OW23929   1.586   3.660   2.946
 7677SOL    HW123930   1.494   3.684   2.979
 7677SOL    HW223931   1.582   3.642   2.848
 7678SOL     OW23932   0.181   0.631   1.028
 7678SOL    HW123933   0.096   0.683   1.039
 7678SOL    HW223934   0.210   0.634   0.933
 7679SOL     OW23935   0.949   5.369   5.105
 7679SOL    HW123936   0.864   5.339   5.062
 7679SOL    HW223937   1.026   5.346   5.046
 7680SOL     OW23938   3.017   3.677   0.143
 7680SOL    HW123939   2.981   3.609   0.206
 7680SOL    HW223940   3.114   3.659   0.126
 7681SOL     OW23941   2.696   1.874   0.110
 7681SOL    HW123942   2.737   1.966   0.110
 7681SOL    HW223943   2.765   1.807   0.138
 7682SOL     OW23944   3.164   6.878   1.793
 7682SOL    HW123945   3.106   6.821   1.735
 7682SOL    HW223946   3.175   6.968   1.751
 7683SOL     OW23947   6.149   2.007   3.036
 7683SOL    HW123948   6.159   1.909   3.050
 7683SOL    HW223949   6.239   2.051   3.043
 7684SOL     OW23950   4.242   1.908   6.632
 7684SOL    HW123951   4.329   1.956   6.646
 7684SOL    HW223952   4.190   1.953   6.560
 7685SOL     OW23953   3.568   3.050   0.666
 7685SOL    HW123954   3.632   3.110   0.619
 7685SOL    HW223955   3.524   3.100   0.741
 7686SOL     OW23956   4.410   0.045   3.857
 7686SOL    HW123957   4.372   0.071   3.946
 7686SOL    HW223958   4.336   0.032   3.791
 7687SOL     OW23959   5.117   5.775   5.651
 7687SOL    HW123960   5.051   5.708   5.616
 7687SOL    HW223961   5.070   5.842   5.708
 7688SOL     OW23962   6.953   6.653   4.883
 7688SOL    HW123963   6.883   6.616   4.944
 7688SOL    HW223964   7.007   6.722   4.931
 7689SOL     OW23965   4.536   7.012   4.820
 7689SOL    HW123966   4.511   6.954   4.898
 7689SOL    HW223967   4.634   7.003   4.803
 7690SOL     OW23968   5.926   4.529   3.141
 7690SOL    HW123969   5.848   4.530   3.204
 7690SOL    HW223970   5.967   4.438   3.140
 7691SOL     OW23971   5.245   2.923   3.917
 7691SOL    HW123972   5.193   2.914   4.002
 7691SOL    HW223973   5.255   3.019   3.894
 7692SOL     OW23974   1.676   6.456   2.044
 7692SOL    HW123975   1.613   6.426   2.116
 7692SOL    HW223976   1.769   6.458   2.080
 7693SOL     OW23977   4.455   1.463   6.347
 7693SOL    HW123978   4.386   1.468   6.275
 7693SOL    HW223979   4.546   1.468   6.306
 7694SOL     OW23980   6.880   4.746   4.296
 7694SOL    HW123981   6.927   4.831   4.271
 7694SOL    HW223982   6.948   4.676   4.317
 7695SOL     OW23983   4.373   6.761   0.932
 7695SOL    HW123984   4.360   6.669   0.967
 7695SOL    HW223985   4.301   6.782   0.865
 7696SOL     OW23986   0.174   2.845   4.808
 7696SOL    HW123987   0.202   2.929   4.761
 7696SOL    HW223988   0.111   2.868   4.882
 7697SOL     OW23989   2.343   1.741   3.168
 7697SOL    HW123990   2.393   1.672   3.115
 7697SOL    HW223991   2.295   1.802   3.104
 7698SOL     OW23992   6.758   2.935   5.272
 7698SOL    HW123993   6.732   3.028   5.248
 7698SOL    HW223994   6.807   2.893   5.195
 7699SOL     OW23995   2.775   6.041   0.613
 7699SOL    HW123996   2.764   6.094   0.697
 7699SOL    HW223997   2.717   6.079   0.541
 7700SOL     OW23998   4.768   6.422   5.112
 7700SOL    HW123999   4.829   6.413   5.033
 7700SOL    HW224000   4.673   6.429   5.080
 7701SOL     OW24001   0.445   1.821   4.844
 7701SOL    HW124002   0.421   1.912   4.809
 7701SOL    HW224003   0.460   1.759   4.767
 7702SOL     OW24004   3.198   5.687   6.077
 7702SOL    HW124005   3.127   5.729   6.021
 7702SOL    HW224006   3.172   5.691   6.173
 7703SOL     OW24007   0.446   1.415   5.638
 7703SOL    HW124008   0.480   1.457   5.554
 7703SOL    HW224009   0.518   1.359   5.679
 7704SOL     OW24010   4.248   4.059   6.692
 7704SOL    HW124011   4.207   3.997   6.759
 7704SOL    HW224012   4.347   4.059   6.703
 7705SOL     OW24013   3.480   5.476   5.059
 7705SOL    HW124014   3.565   5.423   5.059
 7705SOL    HW224015   3.437   5.469   5.149
 7706SOL     OW24016   6.139   0.863   5.145
 7706SOL    HW124017   6.052   0.815   5.139
 7706SOL    HW224018   6.175   0.856   5.238
 7707SOL     OW24019   6.952   5.382   6.497
 7707SOL    HW124020   6.908   5.293   6.504
 7707SOL    HW224021   6.922   5.441   6.572
 7708SOL     OW24022   4.521   6.351   4.301
 7708SOL    HW124023   4.487   6.266   4.261
 7708SOL    HW224024   4.452   6.388   4.364
 7709SOL     OW24025   4.522   2.280   1.790
 7709SOL    HW124026   4.572   2.233   1.863
 7709SOL    HW224027   4.458   2.216   1.747
 7710SOL     OW24028   2.816   0.406   0.733
 7710SOL    HW124029   2.724   0.369   0.751
 7710SOL    HW224030   2.821   0.500   0.767
 7711SOL     OW24031   5.729   6.533   5.570
 7711SOL    HW124032   5.694   6.585   5.492
 7711SOL    HW224033   5.710   6.435   5.557
 7712SOL     OW24034   5.926   5.045   1.030
 7712SOL    HW124035   5.955   5.103   0.953
 7712SOL    HW224036   5.968   4.955   1.021
 7713SOL     OW24037   1.453   4.087   6.623
 7713SOL    HW124038   1.395   4.164   6.596
 7713SOL    HW224039   1.433   4.008   6.565
 7714SOL     OW24040   6.132   4.311   4.081
 7714SOL    HW124041   6.181   4.390   4.045
 7714SOL    HW224042   6.045   4.341   4.121
 7715SOL     OW24043   4.906   0.257   1.613
 7715SOL    HW124044   4.808   0.246   1.602
 7715SOL    HW224045   4.954   0.201   1.544
 7716SOL     OW24046   4.656   2.245   2.964
 7716SOL    HW124047   4.560   2.271   2.960
 7716SOL    HW224048   4.663   2.145   2.968
 7717SOL     OW24049   3.196   1.700   5.592
 7717SOL    HW124050   3.210   1.771   5.523
 7717SOL    HW224051   3.112   1.717   5.642
 7718SOL     OW24052   3.010   0.963   3.468
 7718SOL    HW124053   3.018   0.878   3.416
 7718SOL    HW224054   3.030   1.041   3.408
 7719SOL     OW24055   0.305   2.195   4.297
 7719SOL    HW124056   0.206   2.200   4.280
 7719SOL    HW224057   0.330   2.101   4.315
 7720SOL     OW24058   5.975   6.428   1.045
 7720SOL    HW124059   5.976   6.402   0.948
 7720SOL    HW224060   5.897   6.487   1.063
 7721SOL     OW24061   2.277   4.298   3.734
 7721SOL    HW124062   2.278   4.217   3.793
 7721SOL    HW224063   2.282   4.269   3.638
 7722SOL     OW24064   6.343   4.363   3.870
 7722SOL    HW124065   6.263   4.409   3.831
 7722SOL    HW224066   6.401   4.330   3.796
 7723SOL     OW24067   6.712   3.382   0.634
 7723SOL    HW124068   6.728   3.318   0.709
 7723SOL    HW224069   6.725   3.336   0.547
 7724SOL     OW24070   1.365   4.661   1.146
 7724SOL    HW124071   1.446   4.683   1.091
 7724SOL    HW224072   1.355   4.562   1.151
 7725SOL     OW24073   5.927   3.133   3.383
 7725SOL    HW124074   5.910   3.045   3.339
 7725SOL    HW224075   6.024   3.154   3.379
 7726SOL     OW24076   0.653   4.235   3.131
 7726SOL    HW124077   0.597   4.191   3.201
 7726SOL    HW224078   0.745   4.250   3.166
 7727SOL     OW24079   6.630   2.977   3.114
 7727SOL    HW124080   6.666   3.048   3.053
 7727SOL    HW224081   6.686   2.894   3.105
 7728SOL     OW24082   1.835   3.118   3.370
 7728SOL    HW124083   1.823   3.118   3.270
 7728SOL    HW224084   1.819   3.210   3.405
 7729SOL     OW24085   4.935   2.428   1.094
 7729SOL    HW124086   4.989   2.490   1.150
 7729SOL    HW224087   4.940   2.457   0.998
 7730SOL     OW24088   5.135   6.811   2.859
 7730SOL    HW124089   5.072   6.740   2.890
 7730SOL    HW224090   5.227   6.772   2.851
 7731SOL     OW24091   6.128   1.399   6.884
 7731SOL    HW124092   6.117   1.497   6.864
 7731SOL    HW224093   6.207   1.386   6.943
 7732SOL     OW24094   4.652   6.154   0.288
 7732SOL    HW124095   4.593   6.232   0.307
 7732SOL    HW224096   4.618   6.104   0.208
 7733SOL     OW24097   3.614   0.630   1.300
 7733SOL    HW124098   3.584   0.536   1.314
 7733SOL    HW224099   3.576   0.689   1.371
 7734SOL     OW24100   1.369   2.671   4.065
 7734SOL    HW124101   1.434   2.610   4.111
 7734SOL    HW224102   1.408   2.702   3.978
 7735SOL     OW24103   5.167   4.330   6.337
 7735SOL    HW124104   5.095   4.398   6.349
 7735SOL    HW224105   5.148   4.251   6.396
 7736SOL     OW24106   5.588   4.582   0.098
 7736SOL    HW124107   5.596   4.596   7.023
 7736SOL    HW224108   5.637   4.655   0.146
 7737SOL     OW24109   4.785   1.811   0.673
 7737SOL    HW124110   4.718   1.773   0.737
 7737SOL    HW224111   4.839   1.881   0.719
 7738SOL     OW24112   2.686   5.684   0.079
 7738SOL    HW124113   2.715   5.771   0.038
 7738SOL    HW224114   2.763   5.644   0.129
 7739SOL     OW24115   0.396   2.384   1.368
 7739SOL    HW124116   0.354   2.314   1.310
 7739SOL    HW224117   0.325   2.440   1.410
 7740SOL     OW24118   0.222   0.057   2.744
 7740SOL    HW124119   0.128   0.077   2.717
 7740SOL    HW224120   0.275   0.029   2.664
 7741SOL     OW24121   1.225   6.194   4.353
 7741SOL    HW124122   1.184   6.117   4.403
 7741SOL    HW224123   1.320   6.174   4.332
 7742SOL     OW24124   6.116   2.080   3.552
 7742SOL    HW124125   6.197   2.040   3.509
 7742SOL    HW224126   6.136   2.175   3.577
 7743SOL     OW24127   4.641   2.621   4.738
 7743SOL    HW124128   4.729   2.582   4.767
 7743SOL    HW224129   4.572   2.549   4.733
 7744SOL     OW24130   6.419   0.241   3.259
 7744SOL    HW124131   6.418   0.248   3.159
 7744SOL    HW224132   6.383   0.152   3.286
 7745SOL     OW24133   3.869   2.948   6.062
 7745SOL    HW124134   3.833   3.037   6.090
 7745SOL    HW224135   3.863   2.883   6.137
 7746SOL     OW24136   1.587   0.422   0.258
 7746SOL    HW124137   1.674   0.417   0.307
 7746SOL    HW224138   1.530   0.345   0.284
 7747SOL     OW24139   5.059   6.519   1.126
 7747SOL    HW124140   4.975   6.517   1.180
 7747SOL    HW224141   5.041   6.562   1.037
 7748SOL     OW24142   2.477   4.526   6.146
 7748SOL    HW124143   2.385   4.538   6.108
 7748SOL    HW224144   2.512   4.437   6.120
 7749SOL     OW24145   5.359   2.590   5.553
 7749SOL    HW124146   5.446   2.567   5.509
 7749SOL    HW224147   5.292   2.616   5.483
 7750SOL     OW24148   0.140   5.807   1.494
 7750SOL    HW124149   0.134   5.905   1.510
 7750SOL    HW224150   0.205   5.766   1.559
 7751SOL     OW24151   0.923   2.737   2.180
 7751SOL    HW124152   0.976   2.672   2.234
 7751SOL    HW224153   0.971   2.754   2.093
 7752SOL     OW24154   4.521   1.323   4.287
 7752SOL    HW124155   4.544   1.317   4.190
 7752SOL    HW224156   4.509   1.231   4.324
 7753SOL     OW24157   2.784   1.425   5.257
 7753SOL    HW124158   2.833   1.486   5.319
 7753SOL    HW224159   2.695   1.466   5.234
 7754SOL     OW24160   4.659   6.762   1.932
 7754SOL    HW124161   4.681   6.676   1.977
 7754SOL    HW224162   4.706   6.767   1.844
 7755SOL     OW24163   1.344   4.094   5.726
 7755SOL    HW124164   1.272   4.137   5.781
 7755SOL    HW224165   1.393   4.027   5.781
 7756SOL     OW24166   3.405   5.812   1.608
 7756SOL    HW124167   3.429   5.883   1.542
 7756SOL    HW224168   3.458   5.826   1.692
 7757SOL     OW24169   0.462   4.396   2.625
 7757SOL    HW124170   0.362   4.403   2.625
 7757SOL    HW224171   0.492   4.339   2.548
 7758SOL     OW24172   1.636   0.540   5.452
 7758SOL    HW124173   1.665   0.521   5.358
 7758SOL    HW224174   1.618   0.638   5.462
 7759SOL     OW24175   2.723   1.967   6.468
 7759SOL    HW124176   2.692   2.040   6.407
 7759SOL    HW224177   2.791   1.910   6.420
 7760SOL     OW24178   4.452   3.313   1.238
 7760SOL    HW124179   4.435   3.339   1.333
 7760SOL    HW224180   4.465   3.214   1.232
 7761SOL     OW24181   5.052   5.959   4.465
 7761SOL    HW124182   4.976   5.895   4.477
 7761SOL    HW224183   5.061   5.984   4.369
 7762SOL     OW24184   6.815   0.725   2.697
 7762SOL    HW124185   6.831   0.743   2.794
 7762SOL    HW224186   6.721   0.752   2.674
 7763SOL     OW24187   2.555   0.127   4.537
 7763SOL    HW124188   2.579   0.046   4.590
 7763SOL    HW224189   2.518   0.197   4.598
 7764SOL     OW24190   3.187   3.892   5.479
 7764SOL    HW124191   3.137   3.821   5.529
 7764SOL    HW224192   3.184   3.873   5.381
 7765SOL     OW24193   6.758   3.133   4.503
 7765SOL    HW124194   6.677   3.151   4.447
 7765SOL    HW224195   6.796   3.219   4.536
 7766SOL     OW24196   6.410   3.987   6.609
 7766SOL    HW124197   6.479   3.919   6.633
 7766SOL    HW224198   6.448   4.079   6.620
 7767SOL     OW24199   2.607   0.725   2.763
 7767SOL    HW124200   2.560   0.685   2.684
 7767SOL    HW224201   2.657   0.652   2.811
 7768SOL     OW24202   4.638   5.368   3.222
 7768SOL    HW124203   4.685   5.448   3.259
 7768SOL    HW224204   4.664   5.355   3.126
 7769SOL     OW24205   3.445   2.460   5.328
 7769SOL    HW124206   3.365   2.468   5.267
 7769SOL    HW224207   3.419   2.486   5.421
 7770SOL     OW24208   2.164   3.404   4.721
 7770SOL    HW124209   2.090   3.377   4.782
 7770SOL    HW224210   2.194   3.326   4.667
 7771SOL     OW24211   2.472   2.185   6.095
 7771SOL    HW124212   2.470   2.086   6.082
 7771SOL    HW224213   2.555   2.209   6.145
 7772SOL     OW24214   4.827   0.079   1.866
 7772SOL    HW124215   4.895   0.011   1.839
 7772SOL    HW224216   4.869   0.169   1.867
 7773SOL     OW24217   3.266   6.643   6.957
 7773SOL    HW124218   3.198   6.680   7.020
 7773SOL    HW224219   3.221   6.580   6.893
 7774SOL     OW24220   4.344   1.958   2.743
 7774SOL    HW124221   4.265   1.944   2.684
 7774SOL    HW224222   4.424   1.979   2.686
 7775SOL     OW24223   3.157   0.635   6.940
 7775SOL    HW124224   3.119   0.725   6.919
 7775SOL    HW224225   3.245   0.647   6.988
 7776SOL     OW24226   1.623   0.990   4.962
 7776SOL    HW124227   1.525   1.006   4.968
 7776SOL    HW224228   1.672   1.077   4.967
 7777SOL     OW24229   5.764   5.141   3.550
 7777SOL    HW124230   5.841   5.137   3.485
 7777SOL    HW224231   5.689   5.085   3.516
 7778SOL     OW24232   6.479   5.182   2.666
 7778SOL    HW124233   6.475   5.115   2.740
 7778SOL    HW224234   6.550   5.250   2.685
 7779SOL     OW24235   3.876   5.827   2.270
 7779SOL    HW124236   3.909   5.864   2.183
 7779SOL    HW224237   3.820   5.895   2.316
 7780SOL     OW24238   6.373   5.978   4.496
 7780SOL    HW124239   6.327   5.951   4.411
 7780SOL    HW224240   6.461   5.931   4.501
 7781SOL     OW24241   1.666   2.451   0.493
 7781SOL    HW124242   1.630   2.447   0.400
 7781SOL    HW224243   1.708   2.363   0.516
 7782SOL     OW24244   5.777   4.104   4.214
 7782SOL    HW124245   5.761   4.008   4.234
 7782SOL    HW224246   5.839   4.112   4.136
 7783SOL     OW24247   1.159   0.319   5.085
 7783SOL    HW124248   1.114   0.409   5.086
 7783SOL    HW224249   1.119   0.261   5.156
 7784SOL     OW24250   2.199   2.676   2.670
 7784SOL    HW124251   2.235   2.769   2.683
 7784SOL    HW224252   2.100   2.677   2.683
 7785SOL     OW24253   0.599   6.763   2.422
 7785SOL    HW124254   0.613   6.859   2.448
 7785SOL    HW224255   0.682   6.711   2.439
 7786SOL     OW24256   4.009   0.726   6.426
 7786SOL    HW124257   3.987   0.635   6.460
 7786SOL    HW224258   3.927   0.769   6.390
 7787SOL     OW24259   2.209   2.440   0.874
 7787SOL    HW124260   2.113   2.439   0.899
 7787SOL    HW224261   2.231   2.356   0.824
 7788SOL     OW24262   6.853   4.320   1.573
 7788SOL    HW124263   6.944   4.284   1.591
 7788SOL    HW224264   6.860   4.412   1.534
 7789SOL     OW24265   3.344   1.652   6.345
 7789SOL    HW124266   3.384   1.654   6.437
 7789SOL    HW224267   3.322   1.745   6.316
 7790SOL     OW24268   4.656   4.646   1.647
 7790SOL    HW124269   4.669   4.581   1.722
 7790SOL    HW224270   4.741   4.696   1.632
 7791SOL     OW24271   2.622   4.957   2.218
 7791SOL    HW124272   2.608   5.018   2.140
 7791SOL    HW224273   2.719   4.958   2.244
 7792SOL     OW24274   1.047   1.632   2.312
 7792SOL    HW124275   1.051   1.723   2.271
 7792SOL    HW224276   0.981   1.576   2.261
 7793SOL     OW24277   4.576   1.109   6.385
 7793SOL    HW124278   4.503   1.059   6.432
 7793SOL    HW224279   4.654   1.120   6.446
 7794SOL     OW24280   0.695   6.479   3.622
 7794SOL    HW124281   0.732   6.571   3.604
 7794SOL    HW224282   0.665   6.438   3.536
 7795SOL     OW24283   3.084   5.972   6.701
 7795SOL    HW124284   3.028   5.906   6.651
 7795SOL    HW224285   3.024   6.031   6.755
 7796SOL     OW24286   4.147   3.502   6.241
 7796SOL    HW124287   4.158   3.585   6.187
 7796SOL    HW224288   4.084   3.519   6.317
 7797SOL     OW24289   0.789   6.371   2.567
 7797SOL    HW124290   0.722   6.343   2.498
 7797SOL    HW224291   0.790   6.470   2.575
 7798SOL     OW24292   1.069   3.320   0.743
 7798SOL    HW124293   1.053   3.343   0.839
 7798SOL    HW224294   1.133   3.243   0.737
 7799SOL     OW24295   2.603   5.556   3.479
 7799SOL    HW124296   2.597   5.641   3.426
 7799SOL    HW224297   2.595   5.577   3.576
 7800SOL     OW24298   0.441   6.726   1.655
 7800SOL    HW124299   0.354   6.679   1.670
 7800SOL    HW224300   0.506   6.699   1.726
 7801SOL     OW24301   1.629   2.531   2.582
 7801SOL    HW124302   1.704   2.465   2.581
 7801SOL    HW224303   1.662   2.619   2.549
 7802SOL     OW24304   0.286   3.850   4.471
 7802SOL    HW124305   0.260   3.756   4.450
 7802SOL    HW224306   0.341   3.851   4.555
 7803SOL     OW24307   4.180   2.546   5.665
 7803SOL    HW124308   4.119   2.473   5.635
 7803SOL    HW224309   4.136   2.601   5.735
 7804SOL     OW24310   3.124   1.899   5.372
 7804SOL    HW124311   3.086   1.968   5.433
 7804SOL    HW224312   3.164   1.943   5.292
 7805SOL     OW24313   5.780   2.730   0.487
 7805SOL    HW124314   5.795   2.640   0.446
 7805SOL    HW224315   5.842   2.796   0.445
 7806SOL     OW24316   6.787   2.617   5.328
 7806SOL    HW124317   6.869   2.635   5.382
 7806SOL    HW224318   6.806   2.633   5.231
 7807SOL     OW24319   2.637   4.758   6.221
 7807SOL    HW124320   2.591   4.686   6.170
 7807SOL    HW224321   2.569   4.823   6.255
 7808SOL     OW24322   4.907   3.796   2.999
 7808SOL    HW124323   4.882   3.844   2.915
 7808SOL    HW224324   4.869   3.844   3.078
 7809SOL     OW24325   4.717   5.072   3.537
 7809SOL    HW124326   4.671   5.144   3.589
 7809SOL    HW224327   4.718   4.987   3.591
 7810SOL     OW24328   3.598   6.804   5.465
 7810SOL    HW124329   3.648   6.867   5.525
 7810SOL    HW224330   3.657   6.774   5.390
 7811SOL     OW24331   1.263   5.779   2.981
 7811SOL    HW124332   1.172   5.751   3.012
 7811SOL    HW224333   1.254   5.840   2.902
 7812SOL     OW24334   2.760   1.716   5.994
 7812SOL    HW124335   2.705   1.705   5.911
 7812SOL    HW224336   2.779   1.626   6.033
 7813SOL     OW24337   5.720   0.909   0.701
 7813SOL    HW124338   5.804   0.930   0.651
 7813SOL    HW224339   5.715   0.811   0.719
 7814SOL     OW24340   6.718   3.393   1.897
 7814SOL    HW124341   6.672   3.438   1.974
 7814SOL    HW224342   6.685   3.299   1.889
 7815SOL     OW24343   5.856   3.776   5.165
 7815SOL    HW124344   5.930   3.778   5.099
 7815SOL    HW224345   5.877   3.711   5.238
 7816SOL     OW24346   0.792   1.046   5.110
 7816SOL    HW124347   0.810   0.977   5.179
 7816SOL    HW224348   0.728   1.114   5.147
 7817SOL     OW24349   2.932   2.972   6.429
 7817SOL    HW124350   2.966   3.065   6.440
 7817SOL    HW224351   2.950   2.920   6.513
 7818SOL     OW24352   5.477   1.081   2.317
 7818SOL    HW124353   5.440   1.005   2.265
 7818SOL    HW224354   5.522   1.047   2.400
 7819SOL     OW24355   1.542   3.568   3.958
 7819SOL    HW124356   1.570   3.635   4.027
 7819SOL    HW224357   1.476   3.610   3.895
 7820SOL     OW24358   1.873   6.818   6.190
 7820SOL    HW124359   1.916   6.753   6.127
 7820SOL    HW224360   1.940   6.849   6.257
 7821SOL     OW24361   5.394   5.599   6.499
 7821SOL    HW124362   5.418   5.539   6.576
 7821SOL    HW224363   5.349   5.681   6.534
 7822SOL     OW24364   1.135   0.949   5.279
 7822SOL    HW124365   1.173   1.038   5.305
 7822SOL    HW224366   1.189   0.876   5.319
 7823SOL     OW24367   1.789   3.265   5.614
 7823SOL    HW124368   1.850   3.328   5.566
 7823SOL    HW224369   1.729   3.317   5.676
 7824SOL     OW24370   5.018   2.565   3.288
 7824SOL    HW124371   4.983   2.616   3.367
 7824SOL    HW224372   4.945   2.507   3.251
 7825SOL     OW24373   3.412   3.617   2.322
 7825SOL    HW124374   3.356   3.665   2.388
 7825SOL    HW224375   3.354   3.564   2.260
 7826SOL     OW24376   6.906   0.223   0.637
 7826SOL    HW124377   6.807   0.211   0.643
 7826SOL    HW224378   6.926   0.314   0.601
 7827SOL     OW24379   5.426   4.352   1.343
 7827SOL    HW124380   5.402   4.425   1.408
 7827SOL    HW224381   5.492   4.290   1.385
 7828SOL     OW24382   0.338   6.159   0.761
 7828SOL    HW124383   0.269   6.205   0.817
 7828SOL    HW224384   0.429   6.195   0.783
 7829SOL     OW24385   4.020   2.889   1.694
 7829SOL    HW124386   3.968   2.904   1.779
 7829SOL    HW224387   3.986   2.807   1.649
 7830SOL     OW24388   5.985   2.758   6.776
 7830SOL    HW124389   6.038   2.808   6.707
 7830SOL    HW224390   5.913   2.705   6.731
 7831SOL     OW24391   1.869   2.821   6.938
 7831SOL    HW124392   1.826   2.893   6.994
 7831SOL    HW224393   1.845   2.836   6.842
 7832SOL     OW24394   2.651   2.407   5.412
 7832SOL    HW124395   2.726   2.472   5.422
 7832SOL    HW224396   2.642   2.383   5.315
 7833SOL     OW24397   0.560   6.859   0.129
 7833SOL    HW124398   0.505   6.881   0.210
 7833SOL    HW224399   0.623   6.934   0.111
 7834SOL     OW24400   0.856   0.528   1.342
 7834SOL    HW124401   0.806   0.446   1.314
 7834SOL    HW224402   0.795   0.607   1.339
 7835SOL     OW24403   2.149   2.587   5.142
 7835SOL    HW124404   2.193   2.674   5.163
 7835SOL    HW224405   2.208   2.512   5.172
 7836SOL     OW24406   2.055   6.560   0.215
 7836SOL    HW124407   1.984   6.566   0.285
 7836SOL    HW224408   2.106   6.646   0.213
 7837SOL     OW24409   6.227   0.193   2.714
 7837SOL    HW124410   6.288   0.155   2.644
 7837SOL    HW224411   6.135   0.158   2.699
 7838SOL     OW24412   3.697   0.094   4.114
 7838SOL    HW124413   3.676   0.173   4.173
 7838SOL    HW224414   3.795   0.075   4.118
 7839SOL     OW24415   6.504   4.440   4.548
 7839SOL    HW124416   6.461   4.523   4.512
 7839SOL    HW224417   6.591   4.464   4.592
 7840SOL     OW24418   5.883   3.069   5.226
 7840SOL    HW124419   5.899   3.021   5.140
 7840SOL    HW224420   5.810   3.135   5.215
 7841SOL     OW24421   0.884   1.791   6.548
 7841SOL    HW124422   0.786   1.770   6.550
 7841SOL    HW224423   0.928   1.754   6.630
 7842SOL     OW24424   2.826   0.889   2.713
 7842SOL    HW124425   2.898   0.829   2.748
 7842SOL    HW224426   2.737   0.846   2.726
 7843SOL     OW24427   5.188   3.287   0.886
 7843SOL    HW124428   5.163   3.191   0.889
 7843SOL    HW224429   5.286   3.296   0.865
 7844SOL     OW24430   4.416   1.070   3.462
 7844SOL    HW124431   4.463   1.158   3.466
 7844SOL    HW224432   4.484   0.996   3.464
 7845SOL     OW24433   6.831   1.232   4.187
 7845SOL    HW124434   6.892   1.153   4.181
 7845SOL    HW224435   6.882   1.312   4.219
 7846SOL     OW24436   3.027   6.821   2.269
 7846SOL    HW124437   3.074   6.783   2.189
 7846SOL    HW224438   3.075   6.792   2.352
 7847SOL     OW24439   6.628   0.604   0.323
 7847SOL    HW124440   6.686   0.522   0.324
 7847SOL    HW224441   6.595   0.620   0.230
 7848SOL     OW24442   4.855   4.338   1.590
 7848SOL    HW124443   4.831   4.241   1.591
 7848SOL    HW224444   4.943   4.352   1.635
 7849SOL     OW24445   6.327   3.899   5.129
 7849SOL    HW124446   6.390   3.866   5.199
 7849SOL    HW224447   6.367   3.884   5.039
 7850SOL     OW24448   1.313   0.571   4.757
 7850SOL    HW124449   1.363   0.510   4.819
 7850SOL    HW224450   1.230   0.604   4.802
 7851SOL     OW24451   5.596   6.577   0.077
 7851SOL    HW124452   5.634   6.518   0.149
 7851SOL    HW224453   5.637   6.554   7.013
 7852SOL     OW24454   2.603   5.993   0.196
 7852SOL    HW124455   2.537   5.919   0.213
 7852SOL    HW224456   2.656   5.972   0.114
 7853SOL     OW24457   2.735   3.306   0.685
 7853SOL    HW124458   2.639   3.283   0.696
 7853SOL    HW224459   2.791   3.223   0.695
 7854SOL     OW24460   3.117   3.989   2.288
 7854SOL    HW124461   3.049   3.993   2.361
 7854SOL    HW224462   3.187   4.059   2.304
 7855SOL     OW24463   4.613   6.259   5.718
 7855SOL    HW124464   4.689   6.323   5.723
 7855SOL    HW224465   4.582   6.236   5.810
 7856SOL     OW24466   4.940   3.339   6.299
 7856SOL    HW124467   4.948   3.355   6.397
 7856SOL    HW224468   4.846   3.356   6.269
 7857SOL     OW24469   6.908   1.360   5.577
 7857SOL    HW124470   6.977   1.347   5.506
 7857SOL    HW224471   6.819   1.378   5.534
 7858SOL     OW24472   6.207   4.007   2.919
 7858SOL    HW124473   6.256   4.073   2.976
 7858SOL    HW224474   6.117   3.989   2.959
 7859SOL     OW24475   1.174   5.620   6.942
 7859SOL    HW124476   1.165   5.545   6.876
 7859SOL    HW224477   1.139   5.590   0.007
 7860SOL     OW24478   4.202   6.858   1.846
 7860SOL    HW124479   4.158   6.848   1.935
 7860SOL    HW224480   4.261   6.779   1.830
 7861SOL     OW24481   4.782   4.590   0.236
 7861SOL    HW124482   4.829   4.504   0.216
 7861SOL    HW224483   4.802   4.656   0.163
 7862SOL     OW24484   3.144   4.934   1.817
 7862SOL    HW124485   3.107   4.940   1.910
 7862SOL    HW224486   3.070   4.910   1.754
 7863SOL     OW24487   6.618   5.752   2.136
 7863SOL    HW124488   6.622   5.801   2.048
 7863SOL    HW224489   6.708   5.755   2.179
 7864SOL     OW24490   0.662   5.593   4.728
 7864SOL    HW124491   0.636   5.497   4.740
 7864SOL    HW224492   0.588   5.652   4.761
 7865SOL     OW24493   3.372   0.052   3.126
 7865SOL    HW124494   3.330   0.129   3.077
 7865SOL    HW224495   3.398   0.080   3.218
 7866SOL     OW24496   2.586   2.496   4.334
 7866SOL    HW124497   2.641   2.456   4.261
 7866SOL    HW224498   2.626   2.474   4.422
 7867SOL     OW24499   5.753   4.178   1.940
 7867SOL    HW124500   5.754   4.235   1.858
 7867SOL    HW224501   5.846   4.169   1.976
 7868SOL     OW24502   5.677   6.746   0.499
 7868SOL    HW124503   5.618   6.801   0.439
 7868SOL    HW224504   5.751   6.803   0.535
 7869SOL     OW24505   0.503   3.345   2.006
 7869SOL    HW124506   0.541   3.430   2.041
 7869SOL    HW224507   0.425   3.317   2.062
 7870SOL     OW24508   0.133   5.811   3.833
 7870SOL    HW124509   0.041   5.843   3.813
 7870SOL    HW224510   0.169   5.760   3.755
 7871SOL     OW24511   5.262   2.958   3.229
 7871SOL    HW124512   5.217   2.987   3.145
 7871SOL    HW224513   5.261   2.858   3.235
 7872SOL     OW24514   6.803   3.387   3.037
 7872SOL    HW124515   6.781   3.482   3.015
 7872SOL    HW224516   6.825   3.379   3.134
 7873SOL     OW24517   0.269   4.963   5.203
 7873SOL    HW124518   0.209   4.933   5.277
 7873SOL    HW224519   0.353   4.909   5.205
 7874SOL     OW24520   5.865   1.435   0.563
 7874SOL    HW124521   5.801   1.417   0.637
 7874SOL    HW224522   5.819   1.489   0.492
 7875SOL     OW24523   4.199   3.129   0.061
 7875SOL    HW124524   4.125   3.064   0.079
 7875SOL    HW224525   4.287   3.084   0.075
 7876SOL     OW24526   5.920   0.553   3.583
 7876SOL    HW124527   5.918   0.494   3.502
 7876SOL    HW224528   5.999   0.613   3.579
 7877SOL     OW24529   6.756   2.150   2.720
 7877SOL    HW124530   6.818   2.073   2.737
 7877SOL    HW224531   6.808   2.226   2.682
 7878SOL     OW24532   5.024   3.902   1.731
 7878SOL    HW124533   5.032   3.843   1.651
 7878SOL    HW224534   5.050   3.851   1.813
 7879SOL     OW24535   5.164   0.348   4.261
 7879SOL    HW124536   5.229   0.413   4.222
 7879SOL    HW224537   5.076   0.393   4.276
 7880SOL     OW24538   0.321   0.113   6.531
 7880SOL    HW124539   0.243   0.164   6.568
 7880SOL    HW224540   0.305   0.093   6.434
 7881SOL     OW24541   0.099   4.926   4.171
 7881SOL    HW124542   0.074   4.986   4.096
 7881SOL    HW224543   0.179   4.962   4.219
 7882SOL     OW24544   6.927   4.006   2.642
 7882SOL    HW124545   6.921   4.064   2.723
 7882SOL    HW224546   6.835   3.978   2.614
 7883SOL     OW24547   3.329   1.578   4.349
 7883SOL    HW124548   3.346   1.482   4.329
 7883SOL    HW224549   3.296   1.587   4.443
 7884SOL     OW24550   0.431   4.081   4.496
 7884SOL    HW124551   0.508   4.038   4.542
 7884SOL    HW224552   0.359   4.013   4.480
 7885SOL     OW24553   6.057   5.308   3.199
 7885SOL    HW124554   5.973   5.355   3.174
 7885SOL    HW224555   6.052   5.212   3.172
 7886SOL     OW24556   4.781   2.856   2.615
 7886SOL    HW124557   4.858   2.816   2.566
 7886SOL    HW224558   4.725   2.910   2.552
 7887SOL     OW24559   2.716   3.438   0.903
 7887SOL    HW124560   2.754   3.409   0.815
 7887SOL    HW224561   2.666   3.362   0.944
 7888SOL     OW24562   5.360   2.517   4.320
 7888SOL    HW124563   5.261   2.505   4.309
 7888SOL    HW224564   5.408   2.447   4.268
 7889SOL     OW24565   5.856   4.956   0.739
 7889SOL    HW124566   5.873   5.054   0.754
 7889SOL    HW224567   5.868   4.907   0.825
 7890SOL     OW24568   1.512   3.482   4.687
 7890SOL    HW124569   1.580   3.477   4.614
 7890SOL    HW224570   1.545   3.544   4.758
 7891SOL     OW24571   0.626   1.785   4.343
 7891SOL    HW124572   0.719   1.806   4.314
 7891SOL    HW224573   0.584   1.721   4.279
 7892SOL     OW24574   1.008   2.767   5.639
 7892SOL    HW124575   0.986   2.691   5.577
 7892SOL    HW224576   1.106   2.766   5.659
 7893SOL     OW24577   6.294   0.873   0.587
 7893SOL    HW124578   6.263   0.964   0.560
 7893SOL    HW224579   6.220   0.824   0.632
 7894SOL     OW24580   3.182   1.241   6.426
 7894SOL    HW124581   3.150   1.162   6.375
 7894SOL    HW224582   3.229   1.304   6.365
 7895SOL     OW24583   4.182   6.795   3.943
 7895SOL    HW124584   4.177   6.716   3.882
 7895SOL    HW224585   4.186   6.764   4.038
 7896SOL     OW24586   3.341   1.932   1.082
 7896SOL    HW124587   3.408   1.979   1.139
 7896SOL    HW224588   3.324   1.986   0.999
 7897SOL     OW24589   3.920   3.774   6.949
 7897SOL    HW124590   3.939   3.679   6.924
 7897SOL    HW224591   3.862   3.776   0.006
 7898SOL     OW24592   5.321   0.569   4.140
 7898SOL    HW124593   5.419   0.557   4.124
 7898SOL    HW224594   5.299   0.667   4.143
 7899SOL     OW24595   5.030   4.259   2.111
 7899SOL    HW124596   4.957   4.310   2.155
 7899SOL    HW224597   4.991   4.196   2.044
 7900SOL     OW24598   0.354   4.047   0.851
 7900SOL    HW124599   0.316   4.021   0.940
 7900SOL    HW224600   0.451   4.071   0.862
 7901SOL     OW24601   6.268   1.406   5.850
 7901SOL    HW124602   6.248   1.428   5.754
 7901SOL    HW224603   6.259   1.308   5.864
 7902SOL     OW24604   0.407   6.442   3.141
 7902SOL    HW124605   0.387   6.512   3.073
 7902SOL    HW224606   0.506   6.439   3.157
 7903SOL     OW24607   2.498   2.582   5.157
 7903SOL    HW124608   2.513   2.674   5.193
 7903SOL    HW224609   2.585   2.534   5.151
 7904SOL     OW24610   5.056   0.518   2.299
 7904SOL    HW124611   5.117   0.564   2.364
 7904SOL    HW224612   5.028   0.581   2.228
 7905SOL     OW24613   5.470   0.416   0.432
 7905SOL    HW124614   5.432   0.473   0.505
 7905SOL    HW224615   5.560   0.451   0.406
 7906SOL     OW24616   1.940   5.465   0.809
 7906SOL    HW124617   1.937   5.497   0.904
 7906SOL    HW224618   1.854   5.418   0.787
 7907SOL     OW24619   6.598   0.226   2.829
 7907SOL    HW124620   6.576   0.323   2.838
 7907SOL    HW224621   6.546   0.174   2.897
 7908SOL     OW24622   0.217   0.426   6.684
 7908SOL    HW124623   0.133   0.440   6.735
 7908SOL    HW224624   0.282   0.375   6.741
 7909SOL     OW24625   5.413   4.262   2.105
 7909SOL    HW124626   5.348   4.194   2.073
 7909SOL    HW224627   5.485   4.218   2.159
 7910SOL     OW24628   2.075   3.724   0.638
 7910SOL    HW124629   2.134   3.804   0.651
 7910SOL    HW224630   2.030   3.730   0.549
 7911SOL     OW24631   0.560   3.944   1.213
 7911SOL    HW124632   0.607   4.018   1.165
 7911SOL    HW224633   0.464   3.940   1.183
 7912SOL     OW24634   5.619   5.593   0.738
 7912SOL    HW124635   5.553   5.536   0.689
 7912SOL    HW224636   5.610   5.688   0.710
 7913SOL     OW24637   0.636   3.773   0.969
 7913SOL    HW124638   0.695   3.818   1.036
 7913SOL    HW224639   0.559   3.729   1.016
 7914SOL     OW24640   6.431   5.497   5.032
 7914SOL    HW124641   6.506   5.507   4.967
 7914SOL    HW224642   6.373   5.421   5.004
 7915SOL     OW24643   3.579   6.728   2.702
 7915SOL    HW124644   3.500   6.760   2.651
 7915SOL    HW224645   3.595   6.631   2.682
 7916SOL     OW24646   1.846   0.678   4.180
 7916SOL    HW124647   1.796   0.627   4.110
 7916SOL    HW224648   1.783   0.705   4.253
 7917SOL     OW24649   4.254   3.319   0.828
 7917SOL    HW124650   4.321   3.301   0.756
 7917SOL    HW224651   4.163   3.329   0.787
 7918SOL     OW24652   2.419   1.258   4.650
 7918SOL    HW124653   2.337   1.276   4.596
 7918SOL    HW224654   2.436   1.335   4.711
 7919SOL     OW24655   1.694   6.018   2.614
 7919SOL    HW124656   1.645   5.945   2.660
 7919SOL    HW224657   1.664   6.107   2.650
 7920SOL     OW24658   4.837   6.780   0.914
 7920SOL    HW124659   4.901   6.857   0.914
 7920SOL    HW224660   4.880   6.702   0.868
 7921SOL     OW24661   4.929   1.600   1.947
 7921SOL    HW124662   4.907   1.503   1.937
 7921SOL    HW224663   4.863   1.655   1.895
 7922SOL     OW24664   0.793   5.950   1.047
 7922SOL    HW124665   0.844   5.951   1.133
 7922SOL    HW224666   0.807   5.863   1.001
 7923SOL     OW24667   3.965   1.793   0.515
 7923SOL    HW124668   3.961   1.706   0.465
 7923SOL    HW224669   3.873   1.832   0.520
 7924SOL     OW24670   6.136   7.019   0.492
 7924SOL    HW124671   6.160   7.018   0.395
 7924SOL    HW224672   6.219   0.004   0.547
 7925SOL     OW24673   2.216   6.447   0.465
 7925SOL    HW124674   2.231   6.465   0.367
 7925SOL    HW224675   2.170   6.526   0.506
 7926SOL     OW24676   4.536   5.699   6.837
 7926SOL    HW124677   4.517   5.623   6.775
 7926SOL    HW224678   4.596   5.765   6.792
 7927SOL     OW24679   4.472   6.939   1.783
 7927SOL    HW124680   4.379   6.920   1.816
 7927SOL    HW224681   4.538   6.918   1.855
 7928SOL     OW24682   6.510   1.296   3.194
 7928SOL    HW124683   6.485   1.346   3.111
 7928SOL    HW224684   6.539   1.360   3.265
 7929SOL     OW24685   3.606   4.585   5.756
 7929SOL    HW124686   3.556   4.529   5.823
 7929SOL    HW224687   3.565   4.573   5.666
 7930SOL     OW24688   4.347   6.032   5.555
 7930SOL    HW124689   4.398   6.114   5.531
 7930SOL    HW224690   4.297   5.998   5.475
 7931SOL     OW24691   3.513   2.417   0.374
 7931SOL    HW124692   3.605   2.396   0.341
 7931SOL    HW224693   3.447   2.362   0.325
 7932SOL     OW24694   0.987   5.551   2.283
 7932SOL    HW124695   1.037   5.467   2.302
 7932SOL    HW224696   1.043   5.630   2.311
 7933SOL     OW24697   0.570   0.744   6.269
 7933SOL    HW124698   0.521   0.781   6.191
 7933SOL    HW224699   0.505   0.712   6.338
 7934SOL     OW24700   0.934   4.555   0.626
 7934SOL    HW124701   0.918   4.495   0.704
 7934SOL    HW224702   1.016   4.525   0.577
 7935SOL     OW24703   5.427   3.305   2.959
 7935SOL    HW124704   5.346   3.289   3.017
 7935SOL    HW224705   5.447   3.222   2.907
 7936SOL     OW24706   2.991   6.193   4.380
 7936SOL    HW124707   3.058   6.254   4.338
 7936SOL    HW224708   2.970   6.118   4.317
 7937SOL     OW24709   2.972   6.854   7.001
 7937SOL    HW124710   3.020   6.780   0.026
 7937SOL    HW224711   2.933   6.818   6.917
 7938SOL     OW24712   3.497   6.570   4.756
 7938SOL    HW124713   3.489   6.602   4.661
 7938SOL    HW224714   3.490   6.648   4.818
 7939SOL     OW24715   0.560   1.374   4.356
 7939SOL    HW124716   0.542   1.419   4.269
 7939SOL    HW224717   0.527   1.431   4.431
 7940SOL     OW24718   4.941   0.871   3.235
 7940SOL    HW124719   5.032   0.913   3.230
 7940SOL    HW224720   4.937   0.811   3.315
 7941SOL     OW24721   4.028   6.608   1.596
 7941SOL    HW124722   3.966   6.605   1.674
 7941SOL    HW224723   4.036   6.702   1.564
 7942SOL     OW24724   1.649   4.670   1.403
 7942SOL    HW124725   1.616   4.657   1.497
 7942SOL    HW224726   1.607   4.601   1.343
 7943SOL     OW24727   1.558   5.908   6.438
 7943SOL    HW124728   1.584   5.870   6.349
 7943SOL    HW224729   1.459   5.897   6.451
 7944SOL     OW24730   1.846   2.880   0.719
 7944SOL    HW124731   1.811   2.904   0.810
 7944SOL    HW224732   1.769   2.855   0.660
 7945SOL     OW24733   5.628   4.493   2.967
 7945SOL    HW124734   5.544   4.508   3.020
 7945SOL    HW224735   5.626   4.549   2.885
 7946SOL     OW24736   3.752   1.488   5.534
 7946SOL    HW124737   3.736   1.559   5.602
 7946SOL    HW224738   3.679   1.491   5.465
 7947SOL     OW24739   1.219   3.575   5.258
 7947SOL    HW124740   1.278   3.523   5.197
 7947SOL    HW224741   1.151   3.624   5.204
 7948SOL     OW24742   0.988   4.531   1.861
 7948SOL    HW124743   1.056   4.476   1.909
 7948SOL    HW224744   0.913   4.473   1.830
 7949SOL     OW24745   3.218   5.568   6.668
 7949SOL    HW124746   3.291   5.553   6.735
 7949SOL    HW224747   3.240   5.647   6.611
 7950SOL     OW24748   5.811   5.237   5.337
 7950SOL    HW124749   5.838   5.328   5.306
 7950SOL    HW224750   5.719   5.216   5.303
 7951SOL     OW24751   2.942   5.359   3.030
 7951SOL    HW124752   2.956   5.262   3.012
 7951SOL    HW224753   2.940   5.375   3.128
 7952SOL     OW24754   5.103   3.260   0.125
 7952SOL    HW124755   5.152   3.345   0.143
 7952SOL    HW224756   5.129   3.191   0.193
 7953SOL     OW24757   2.837   1.066   1.069
 7953SOL    HW124758   2.878   1.017   1.146
 7953SOL    HW224759   2.909   1.097   1.007
 7954SOL     OW24760   3.518   3.046   6.892
 7954SOL    HW124761   3.460   2.977   6.935
 7954SOL    HW224762   3.525   3.126   6.950
 7955SOL     OW24763   1.670   0.811   6.790
 7955SOL    HW124764   1.694   0.777   6.881
 7955SOL    HW224765   1.570   0.815   6.782
 7956SOL     OW24766   6.320   6.049   1.099
 7956SOL    HW124767   6.251   6.108   1.142
 7956SOL    HW224768   6.405   6.100   1.087
 7957SOL     OW24769   4.361   0.573   5.474
 7957SOL    HW124770   4.414   0.506   5.526
 7957SOL    HW224771   4.338   0.651   5.532
 7958SOL     OW24772   5.916   2.201   0.651
 7958SOL    HW124773   5.961   2.252   0.577
 7958SOL    HW224774   5.824   2.174   0.622
 7959SOL     OW24775   5.634   1.498   6.174
 7959SOL    HW124776   5.721   1.514   6.127
 7959SOL    HW224777   5.560   1.496   6.106
 7960SOL     OW24778   0.446   0.620   5.205
 7960SOL    HW124779   0.353   0.659   5.202
 7960SOL    HW224780   0.463   0.582   5.296
 7961SOL     OW24781   6.983   0.431   0.485
 7961SOL    HW124782   6.946   0.516   0.449
 7961SOL    HW224783   0.007   0.381   0.412
 7962SOL     OW24784   5.779   0.072   5.811
 7962SOL    HW124785   5.831   0.003   5.761
 7962SOL    HW224786   5.726   0.127   5.747
 7963SOL     OW24787   0.239   5.121   4.984
 7963SOL    HW124788   0.257   5.076   4.896
 7963SOL    HW224789   0.270   5.062   5.058
 7964SOL     OW24790   6.142   3.635   2.659
 7964SOL    HW124791   6.082   3.633   2.739
 7964SOL    HW224792   6.232   3.602   2.685
 7965SOL     OW24793   3.513   1.768   6.558
 7965SOL    HW124794   3.506   1.779   6.657
 7965SOL    HW224795   3.575   1.837   6.521
 7966SOL     OW24796   4.860   3.938   5.053
 7966SOL    HW124797   4.812   3.989   5.124
 7966SOL    HW224798   4.836   3.841   5.059
 7967SOL     OW24799   1.382   4.633   2.707
 7967SOL    HW124800   1.383   4.713   2.766
 7967SOL    HW224801   1.316   4.647   2.633
 7968SOL     OW24802   6.404   2.375   4.392
 7968SOL    HW124803   6.324   2.408   4.342
 7968SOL    HW224804   6.477   2.443   4.385
 7969SOL     OW24805   4.711   5.445   7.007
 7969SOL    HW124806   4.746   5.428   6.915
 7969SOL    HW224807   4.761   5.389   0.049
 7970SOL     OW24808   5.835   2.765   2.476
 7970SOL    HW124809   5.860   2.754   2.380
 7970SOL    HW224810   5.892   2.837   2.517
 7971SOL     OW24811   2.766   0.879   0.142
 7971SOL    HW124812   2.677   0.875   0.188
 7971SOL    HW224813   2.817   0.958   0.174
 7972SOL     OW24814   3.783   3.783   3.205
 7972SOL    HW124815   3.701   3.761   3.259
 7972SOL    HW224816   3.766   3.864   3.149
 7973SOL     OW24817   6.668   3.925   3.059
 7973SOL    HW124818   6.761   3.893   3.039
 7973SOL    HW224819   6.672   4.010   3.110
 7974SOL     OW24820   6.727   2.128   5.429
 7974SOL    HW124821   6.822   2.147   5.451
 7974SOL    HW224822   6.707   2.032   5.444
 7975SOL     OW24823   5.026   0.590   0.773
 7975SOL    HW124824   5.010   0.556   0.680
 7975SOL    HW224825   4.987   0.527   0.839
 7976SOL     OW24826   0.560   0.245   6.522
 7976SOL    HW124827   0.485   0.179   6.532
 7976SOL    HW224828   0.525   0.330   6.484
 7977SOL     OW24829   5.638   5.867   2.876
 7977SOL    HW124830   5.694   5.786   2.857
 7977SOL    HW224831   5.662   5.939   2.811
 7978SOL     OW24832   0.001   4.574   0.576
 7978SOL    HW124833   0.060   4.523   0.639
 7978SOL    HW224834   6.951   4.514   0.543
 7979SOL     OW24835   1.364   3.012   4.629
 7979SOL    HW124836   1.312   3.097   4.619
 7979SOL    HW224837   1.417   3.016   4.714
 7980SOL     OW24838   4.279   5.146   6.848
 7980SOL    HW124839   4.261   5.245   6.849
 7980SOL    HW224840   4.211   5.100   6.790
 7981SOL     OW24841   1.552   4.531   3.103
 7981SOL    HW124842   1.523   4.455   3.045
 7981SOL    HW224843   1.574   4.498   3.194
 7982SOL     OW24844   0.524   1.917   5.460
 7982SOL    HW124845   0.468   1.870   5.391
 7982SOL    HW224846   0.468   1.938   5.540
 7983SOL     OW24847   4.674   0.983   2.214
 7983SOL    HW124848   4.584   0.949   2.185
 7983SOL    HW224849   4.685   1.078   2.184
 7984SOL     OW24850   1.033   1.891   2.225
 7984SOL    HW124851   1.104   1.943   2.273
 7984SOL    HW224852   0.983   1.953   2.164
 7985SOL     OW24853   2.328   1.966   5.375
 7985SOL    HW124854   2.282   2.055   5.375
 7985SOL    HW224855   2.400   1.966   5.444
 7986SOL     OW24856   2.460   1.557   3.800
 7986SOL    HW124857   2.450   1.609   3.715
 7986SOL    HW224858   2.435   1.615   3.878
 7987SOL     OW24859   1.536   3.395   1.153
 7987SOL    HW124860   1.555   3.447   1.070
 7987SOL    HW224861   1.526   3.458   1.231
 7988SOL     OW24862   0.453   1.659   0.730
 7988SOL    HW124863   0.513   1.579   0.718
 7988SOL    HW224864   0.358   1.631   0.721
 7989SOL     OW24865   1.272   4.584   0.369
 7989SOL    HW124866   1.252   4.606   0.273
 7989SOL    HW224867   1.294   4.667   0.419
 7990SOL     OW24868   3.102   5.094   5.369
 7990SOL    HW124869   3.091   5.060   5.275
 7990SOL    HW224870   3.051   5.036   5.432
 7991SOL     OW24871   6.150   1.945   4.446
 7991SOL    HW124872   6.094   1.995   4.381
 7991SOL    HW224873   6.108   1.949   4.537
 7992SOL     OW24874   2.941   0.649   0.840
 7992SOL    HW124875   2.850   0.682   0.864
 7992SOL    HW224876   3.009   0.717   0.867
 7993SOL     OW24877   6.682   6.008   0.868
 7993SOL    HW124878   6.722   6.086   0.917
 7993SOL    HW224879   6.705   5.924   0.917
 7994SOL     OW24880   5.283   0.453   3.298
 7994SOL    HW124881   5.299   0.530   3.236
 7994SOL    HW224882   5.288   0.485   3.393
 7995SOL     OW24883   6.919   4.579   1.487
 7995SOL    HW124884   6.875   4.629   1.413
 7995SOL    HW224885   6.971   4.642   1.544
 7996SOL     OW24886   3.618   0.609   2.544
 7996SOL    HW124887   3.536   0.642   2.497
 7996SOL    HW224888   3.695   0.610   2.480
 7997SOL     OW24889   0.579   2.691   0.307
 7997SOL    HW124890   0.615   2.602   0.335
 7997SOL    HW224891   0.649   2.761   0.317
 7998SOL     OW24892   2.595   0.808   0.363
 7998SOL    HW124893   2.676   0.777   0.412
 7998SOL    HW224894   2.531   0.732   0.352
 7999SOL     OW24895   0.870   0.866   5.307
 7999SOL    HW124896   0.967   0.882   5.325
 7999SOL    HW224897   0.817   0.892   5.388
 8000SOL     OW24898   5.647   5.519   0.154
 8000SOL    HW124899   5.592   5.436   0.160
 8000SOL    HW224900   5.728   5.501   0.097
 8001SOL     OW24901   4.685   6.745   1.146
 8001SOL    HW124902   4.710   6.743   1.049
 8001SOL    HW224903   4.588   6.767   1.156
 8002SOL     OW24904   1.208   6.696   5.360
 8002SOL    HW124905   1.153   6.778   5.374
 8002SOL    HW224906   1.259   6.705   5.274
 8003SOL     OW24907   2.809   6.525   3.085
 8003SOL    HW124908   2.846   6.461   3.017
 8003SOL    HW224909   2.884   6.580   3.122
 8004SOL     OW24910   1.222   3.255   3.797
 8004SOL    HW124911   1.313   3.231   3.833
 8004SOL    HW224912   1.194   3.185   3.732
 8005SOL     OW24913   2.463   0.740   3.529
 8005SOL    HW124914   2.471   0.761   3.432
 8005SOL    HW224915   2.393   0.669   3.542
 8006SOL     OW24916   3.470   4.632   5.473
 8006SOL    HW124917   3.465   4.714   5.415
 8006SOL    HW224918   3.556   4.585   5.457
 8007SOL     OW24919   6.183   1.077   6.985
 8007SOL    HW124920   6.191   1.124   6.897
 8007SOL    HW224921   6.275   1.051   7.016
 8008SOL     OW24922   5.108   6.826   5.929
 8008SOL    HW124923   5.202   6.807   5.899
 8008SOL    HW224924   5.067   6.742   5.965
 8009SOL     OW24925   5.325   1.045   6.811
 8009SOL    HW124926   5.226   1.049   6.815
 8009SOL    HW224927   5.357   0.954   6.836
 8010SOL     OW24928   2.336   2.375   5.333
 8010SOL    HW124929   2.329   2.333   5.423
 8010SOL    HW224930   2.392   2.458   5.339
 8011SOL     OW24931   3.969   1.863   1.973
 8011SOL    HW124932   4.061   1.879   2.007
 8011SOL    HW224933   3.922   1.798   2.034
 8012SOL     OW24934   1.043   2.884   5.144
 8012SOL    HW124935   1.103   2.945   5.197
 8012SOL    HW224936   1.031   2.921   5.052
 8013SOL     OW24937   2.210   3.056   2.905
 8013SOL    HW124938   2.245   2.966   2.878
 8013SOL    HW224939   2.205   3.060   3.005
 8014SOL     OW24940   1.684   0.941   2.799
 8014SOL    HW124941   1.732   0.914   2.716
 8014SOL    HW224942   1.730   0.903   2.879
 8015SOL     OW24943   1.848   0.002   5.308
 8015SOL    HW124944   1.817   7.002   5.400
 8015SOL    HW224945   1.772   7.017   5.244
 8016SOL     OW24946   4.581   1.616   5.053
 8016SOL    HW124947   4.548   1.523   5.035
 8016SOL    HW224948   4.673   1.626   5.015
 8017SOL     OW24949   6.424   7.005   0.593
 8017SOL    HW124950   6.378   0.001   0.680
 8017SOL    HW224951   6.472   6.918   0.598
 8018SOL     OW24952   4.361   2.088   0.105
 8018SOL    HW124953   4.435   2.155   0.109
 8018SOL    HW224954   4.385   2.010   0.164
 8019SOL     OW24955   3.131   3.269   1.093
 8019SOL    HW124956   3.158   3.204   1.022
 8019SOL    HW224957   3.032   3.278   1.094
 8020SOL     OW24958   0.235   0.327   5.173
 8020SOL    HW124959   0.229   0.409   5.116
 8020SOL    HW224960   0.323   0.282   5.158
 8021SOL     OW24961   1.279   2.314   2.392
 8021SOL    HW124962   1.357   2.376   2.383
 8021SOL    HW224963   1.225   2.340   2.472
 8022SOL     OW24964   4.773   1.403   1.696
 8022SOL    HW124965   4.674   1.398   1.681
 8022SOL    HW224966   4.819   1.407   1.608
 8023SOL     OW24967   4.159   6.265   3.460
 8023SOL    HW124968   4.232   6.276   3.392
 8023SOL    HW224969   4.194   6.211   3.537
 8024SOL     OW24970   2.145   6.602   6.329
 8024SOL    HW124971   2.112   6.665   6.258
 8024SOL    HW224972   2.240   6.624   6.351
 8025SOL     OW24973   1.822   5.112   1.502
 8025SOL    HW124974   1.811   5.051   1.581
 8025SOL    HW224975   1.758   5.086   1.430
 8026SOL     OW24976   0.908   5.715   6.778
 8026SOL    HW124977   0.989   5.656   6.780
 8026SOL    HW224978   0.830   5.666   6.815
 8027SOL     OW24979   3.398   6.982   6.889
 8027SOL    HW124980   3.419   6.917   6.962
 8027SOL    HW224981   3.455   6.962   6.809
 8028SOL     OW24982   2.575   5.662   5.157
 8028SOL    HW124983   2.673   5.655   5.137
 8028SOL    HW224984   2.534   5.571   5.153
 8029SOL     OW24985   6.375   0.310   0.589
 8029SOL    HW124986   6.342   0.397   0.553
 8029SOL    HW224987   6.312   0.277   0.659
 8030SOL     OW24988   0.158   4.113   0.449
 8030SOL    HW124989   0.091   4.120   0.522
 8030SOL    HW224990   0.250   4.128   0.486
 8031SOL     OW24991   6.922   0.950   2.425
 8031SOL    HW124992   6.906   1.024   2.490
 8031SOL    HW224993   6.910   0.984   2.332
 8032SOL     OW24994   5.237   2.906   1.492
 8032SOL    HW124995   5.238   2.845   1.571
 8032SOL    HW224996   5.301   2.872   1.423
 8033SOL     OW24997   4.385   3.665   1.035
 8033SOL    HW124998   4.319   3.661   0.961
 8033SOL    HW224999   4.450   3.590   1.027
 8034SOL     OW25000   5.619   0.604   5.526
 8034SOL    HW125001   5.701   0.592   5.582
 8034SOL    HW225002   5.545   0.548   5.562
 8035SOL     OW25003   5.576   1.689   2.578
 8035SOL    HW125004   5.573   1.789   2.590
 8035SOL    HW225005   5.585   1.646   2.668
 8036SOL     OW25006   6.403   2.797   3.513
 8036SOL    HW125007   6.491   2.767   3.550
 8036SOL    HW225008   6.372   2.878   3.561
 8037SOL     OW25009   0.744   2.560   6.128
 8037SOL    HW125010   0.673   2.505   6.084
 8037SOL    HW225011   0.810   2.591   6.060
 8038SOL     OW25012   6.662   5.881   2.604
 8038SOL    HW125013   6.582   5.936   2.626
 8038SOL    HW225014   6.726   5.883   2.681
 8039SOL     OW25015   1.154   1.888   5.438
 8039SOL    HW125016   1.214   1.948   5.386
 8039SOL    HW225017   1.067   1.933   5.455
 8040SOL     OW25018   2.196   5.509   6.487
 8040SOL    HW125019   2.157   5.592   6.526
 8040SOL    HW225020   2.165   5.498   6.393
 8041SOL     OW25021   3.320   1.543   3.136
 8041SOL    HW125022   3.346   1.462   3.189
 8041SOL    HW225023   3.283   1.612   3.199
 8042SOL     OW25024   4.062   4.193   5.554
 8042SOL    HW125025   4.034   4.236   5.468
 8042SOL    HW225026   3.981   4.155   5.600
 8043SOL     OW25027   5.516   5.024   0.118
 8043SOL    HW125028   5.467   4.961   0.058
 8043SOL    HW225029   5.545   4.976   0.201
 8044SOL     OW25030   3.208   4.119   1.436
 8044SOL    HW125031   3.261   4.040   1.468
 8044SOL    HW225032   3.157   4.158   1.512
 8045SOL     OW25033   0.731   1.236   2.930
 8045SOL    HW125034   0.654   1.173   2.923
 8045SOL    HW225035   0.750   1.277   2.841
 8046SOL     OW25036   0.292   5.186   2.408
 8046SOL    HW125037   0.349   5.109   2.379
 8046SOL    HW225038   0.350   5.257   2.448
 8047SOL     OW25039   4.167   6.339   5.718
 8047SOL    HW125040   4.217   6.392   5.650
 8047SOL    HW225041   4.093   6.395   5.756
 8048SOL     OW25042   3.505   3.453   0.214
 8048SOL    HW125043   3.440   3.517   0.173
 8048SOL    HW225044   3.598   3.481   0.191
 8049SOL     OW25045   1.951   0.465   0.909
 8049SOL    HW125046   1.860   0.498   0.935
 8049SOL    HW225047   1.955   0.453   0.809
 8050SOL     OW25048   1.614   4.432   5.601
 8050SOL    HW125049   1.689   4.380   5.560
 8050SOL    HW225050   1.562   4.477   5.529
 8051SOL     OW25051   3.435   5.827   4.147
 8051SOL    HW125052   3.427   5.787   4.239
 8051SOL    HW225053   3.489   5.766   4.089
 8052SOL     OW25054   2.197   2.740   2.108
 8052SOL    HW125055   2.132   2.664   2.109
 8052SOL    HW225056   2.255   2.735   2.027
 8053SOL     OW25057   2.588   2.700   6.116
 8053SOL    HW125058   2.554   2.739   6.030
 8053SOL    HW225059   2.639   2.770   6.166
 8054SOL     OW25060   5.555   4.068   5.207
 8054SOL    HW125061   5.616   4.146   5.190
 8054SOL    HW225062   5.496   4.089   5.286
 8055SOL     OW25063   0.175   0.537   4.989
 8055SOL    HW125064   0.086   0.531   4.944
 8055SOL    HW225065   0.165   0.587   5.075
 8056SOL     OW25066   2.715   1.089   4.780
 8056SOL    HW125067   2.708   0.991   4.799
 8056SOL    HW225068   2.651   1.139   4.838
 8057SOL     OW25069   2.520   2.522   2.053
 8057SOL    HW125070   2.542   2.425   2.057
 8057SOL    HW225071   2.493   2.554   2.144
 8058SOL     OW25072   3.354   6.729   3.264
 8058SOL    HW125073   3.302   6.813   3.255
 8058SOL    HW225074   3.398   6.707   3.177
 8059SOL     OW25075   2.600   3.182   6.405
 8059SOL    HW125076   2.544   3.102   6.384
 8059SOL    HW225077   2.623   3.182   6.503
 8060SOL     OW25078   6.527   0.088   5.554
 8060SOL    HW125079   6.603   0.074   5.491
 8060SOL    HW225080   6.441   0.066   5.508
 8061SOL     OW25081   0.238   1.335   1.815
 8061SOL    HW125082   0.206   1.242   1.796
 8061SOL    HW225083   0.162   1.388   1.853
 8062SOL     OW25084   4.687   5.937   5.347
 8062SOL    HW125085   4.687   6.036   5.337
 8062SOL    HW225086   4.610   5.899   5.295
 8063SOL     OW25087   3.518   6.364   2.994
 8063SOL    HW125088   3.511   6.289   3.059
 8063SOL    HW225089   3.482   6.335   2.905
 8064SOL     OW25090   5.986   2.005   0.333
 8064SOL    HW125091   6.000   1.919   0.285
 8064SOL    HW225092   5.899   2.002   0.383
 8065SOL     OW25093   3.358   6.180   5.014
 8065SOL    HW125094   3.325   6.117   5.084
 8065SOL    HW225095   3.343   6.274   5.044
 8066SOL     OW25096   0.203   0.100   4.368
 8066SOL    HW125097   0.197   0.029   4.438
 8066SOL    HW225098   0.231   0.058   4.281
 8067SOL     OW25099   4.918   3.294   3.343
 8067SOL    HW125100   5.003   3.274   3.295
 8067SOL    HW225101   4.841   3.282   3.281
 8068SOL     OW25102   6.234   4.061   1.253
 8068SOL    HW125103   6.161   4.130   1.251
 8068SOL    HW225104   6.244   4.026   1.346
 8069SOL     OW25105   2.481   4.554   2.445
 8069SOL    HW125106   2.524   4.583   2.360
 8069SOL    HW225107   2.549   4.550   2.518
 8070SOL     OW25108   5.144   4.744   6.856
 8070SOL    HW125109   5.127   4.811   6.783
 8070SOL    HW225110   5.111   4.654   6.826
 8071SOL     OW25111   3.365   6.395   5.969
 8071SOL    HW125112   3.283   6.433   5.927
 8071SOL    HW225113   3.373   6.298   5.947
 8072SOL     OW25114   1.895   2.630   6.341
 8072SOL    HW125115   1.900   2.653   6.438
 8072SOL    HW225116   1.976   2.665   6.294
 8073SOL     OW25117   3.663   0.289   6.136
 8073SOL    HW125118   3.691   0.289   6.041
 8073SOL    HW225119   3.636   0.196   6.163
 8074SOL     OW25120   1.435   1.311   6.995
 8074SOL    HW125121   1.466   1.223   6.958
 8074SOL    HW225122   1.408   1.371   6.919
 8075SOL     OW25123   0.368   6.387   0.204
 8075SOL    HW125124   0.458   6.407   0.166
 8075SOL    HW225125   0.378   6.327   0.283
 8076SOL     OW25126   6.636   6.646   0.197
 8076SOL    HW125127   6.648   6.563   0.251
 8076SOL    HW225128   6.707   6.650   0.126
 8077SOL     OW25129   3.979   5.371   0.643
 8077SOL    HW125130   4.066   5.371   0.594
 8077SOL    HW225131   3.962   5.462   0.681
 8078SOL     OW25132   0.790   0.800   1.712
 8078SOL    HW125133   0.804   0.791   1.810
 8078SOL    HW225134   0.805   0.895   1.684
 8079SOL     OW25135   1.600   2.072   4.751
 8079SOL    HW125136   1.555   2.072   4.662
 8079SOL    HW225137   1.683   2.129   4.747
 8080SOL     OW25138   1.178   3.509   2.762
 8080SOL    HW125139   1.255   3.494   2.699
 8080SOL    HW225140   1.100   3.455   2.733
 8081SOL     OW25141   6.024   5.530   4.852
 8081SOL    HW125142   6.101   5.480   4.813
 8081SOL    HW225143   6.029   5.528   4.951
 8082SOL     OW25144   3.246   2.140   2.243
 8082SOL    HW125145   3.248   2.117   2.341
 8082SOL    HW225146   3.257   2.238   2.231
 8083SOL     OW25147   5.533   1.914   5.208
 8083SOL    HW125148   5.580   1.895   5.122
 8083SOL    HW225149   5.585   1.980   5.262
 8084SOL     OW25150   2.479   0.522   6.464
 8084SOL    HW125151   2.398   0.573   6.494
 8084SOL    HW225152   2.464   0.488   6.371
 8085SOL     OW25153   0.386   6.126   4.618
 8085SOL    HW125154   0.384   6.196   4.546
 8085SOL    HW225155   0.450   6.153   4.689
 8086SOL     OW25156   0.472   1.579   2.341
 8086SOL    HW125157   0.560   1.627   2.345
 8086SOL    HW225158   0.434   1.587   2.249
 8087SOL     OW25159   1.179   0.590   0.375
 8087SOL    HW125160   1.171   0.650   0.295
 8087SOL    HW225161   1.201   0.646   0.455
 8088SOL     OW25162   5.088   0.247   5.384
 8088SOL    HW125163   5.185   0.250   5.359
 8088SOL    HW225164   5.080   0.221   5.480
 8089SOL     OW25165   5.767   2.106   5.868
 8089SOL    HW125166   5.775   2.157   5.954
 8089SOL    HW225167   5.737   2.013   5.887
 8090SOL     OW25168   4.028   2.020   6.454
 8090SOL    HW125169   4.014   2.078   6.534
 8090SOL    HW225170   3.974   2.055   6.377
 8091SOL     OW25171   1.392   4.613   4.955
 8091SOL    HW125172   1.368   4.630   5.051
 8091SOL    HW225173   1.375   4.695   4.901
 8092SOL     OW25174   5.020   2.184   6.035
 8092SOL    HW125175   5.064   2.258   5.984
 8092SOL    HW225176   5.035   2.097   5.989
 8093SOL     OW25177   3.644   6.657   2.281
 8093SOL    HW125178   3.598   6.568   2.287
 8093SOL    HW225179   3.600   6.712   2.210
 8094SOL     OW25180   1.477   4.033   4.015
 8094SOL    HW125181   1.548   4.076   4.071
 8094SOL    HW225182   1.387   4.049   4.056
 8095SOL     OW25183   1.247   4.370   5.774
 8095SOL    HW125184   1.155   4.403   5.749
 8095SOL    HW225185   1.313   4.400   5.705
 8096SOL     OW25186   0.810   6.445   2.177
 8096SOL    HW125187   0.841   6.538   2.199
 8096SOL    HW225188   0.710   6.443   2.175
 8097SOL     OW25189   3.388   5.698   5.311
 8097SOL    HW125190   3.390   5.774   5.376
 8097SOL    HW225191   3.464   5.707   5.247
 8098SOL     OW25192   0.937   5.122   4.704
 8098SOL    HW125193   0.944   5.204   4.647
 8098SOL    HW225194   0.878   5.055   4.659
 8099SOL     OW25195   2.885   5.904   4.362
 8099SOL    HW125196   2.830   5.899   4.278
 8099SOL    HW225197   2.848   5.974   4.422
 8100SOL     OW25198   6.984   0.624   5.982
 8100SOL    HW125199   0.045   0.574   6.002
 8100SOL    HW225200   6.931   0.635   6.066
 8101SOL     OW25201   2.276   6.129   1.726
 8101SOL    HW125202   2.298   6.179   1.810
 8101SOL    HW225203   2.320   6.172   1.648
 8102SOL     OW25204   0.708   2.938   4.221
 8102SOL    HW125205   0.645   2.873   4.179
 8102SOL    HW225206   0.678   2.959   4.314
 8103SOL     OW25207   3.313   1.469   2.213
 8103SOL    HW125208   3.408   1.450   2.189
 8103SOL    HW225209   3.295   1.566   2.201
 8104SOL     OW25210   2.458   6.360   6.631
 8104SOL    HW125211   2.458   6.388   6.727
 8104SOL    HW225212   2.388   6.290   6.616
 8105SOL     OW25213   6.696   1.694   2.483
 8105SOL    HW125214   6.756   1.694   2.563
 8105SOL    HW225215   6.604   1.721   2.511
 8106SOL     OW25216   2.105   5.688   4.931
 8106SOL    HW125217   2.061   5.722   4.848
 8106SOL    HW225218   2.088   5.590   4.939
 8107SOL     OW25219   1.541   5.366   4.982
 8107SOL    HW125220   1.544   5.366   5.082
 8107SOL    HW225221   1.630   5.335   4.947
 8108SOL     OW25222   0.031   0.924   6.826
 8108SOL    HW125223   0.030   0.829   6.795
 8108SOL    HW225224   0.018   0.927   6.925
 8109SOL     OW25225   6.385   3.355   6.811
 8109SOL    HW125226   6.300   3.357   6.863
 8109SOL    HW225227   6.438   3.273   6.835
 8110SOL     OW25228   4.511   5.462   0.591
 8110SOL    HW125229   4.468   5.510   0.667
 8110SOL    HW225230   4.522   5.365   0.615
 8111SOL     OW25231   5.877   0.890   2.960
 8111SOL    HW125232   5.907   0.975   3.005
 8111SOL    HW225233   5.937   0.815   2.986
 8112SOL     OW25234   0.984   2.509   5.473
 8112SOL    HW125235   0.908   2.551   5.424
 8112SOL    HW225236   1.041   2.458   5.408
 8113SOL     OW25237   5.953   2.900   0.777
 8113SOL    HW125238   6.043   2.889   0.735
 8113SOL    HW225239   5.923   2.811   0.813
 8114SOL     OW25240   1.772   4.199   1.868
 8114SOL    HW125241   1.687   4.220   1.819
 8114SOL    HW225242   1.773   4.101   1.891
 8115SOL     OW25243   2.554   6.946   0.126
 8115SOL    HW125244   2.614   6.867   0.120
 8115SOL    HW225245   2.570   6.993   0.213
 8116SOL     OW25246   3.191   5.049   1.239
 8116SOL    HW125247   3.131   5.111   1.290
 8116SOL    HW225248   3.242   4.992   1.302
 8117SOL     OW25249   2.898   0.054   3.068
 8117SOL    HW125250   2.942   0.143   3.076
 8117SOL    HW225251   2.840   0.039   3.149
 8118SOL     OW25252   6.037   3.367   0.261
 8118SOL    HW125253   5.977   3.404   0.332
 8118SOL    HW225254   6.126   3.344   0.301
 8119SOL     OW25255   6.270   5.845   6.216
 8119SOL    HW125256   6.345   5.827   6.279
 8119SOL    HW225257   6.263   5.771   6.149
 8120SOL     OW25258   1.928   6.241   1.045
 8120SOL    HW125259   2.019   6.261   1.009
 8120SOL    HW225260   1.904   6.146   1.024
 8121SOL     OW25261   1.286   3.839   3.326
 8121SOL    HW125262   1.224   3.797   3.259
 8121SOL    HW225263   1.381   3.828   3.295
 8122SOL     OW25264   0.837   4.238   2.388
 8122SOL    HW125265   0.904   4.252   2.316
 8122SOL    HW225266   0.874   4.175   2.456
 8123SOL     OW25267   0.277   1.977   6.286
 8123SOL    HW125268   0.209   1.955   6.216
 8123SOL    HW225269   0.331   1.896   6.307
 8124SOL     OW25270   5.446   4.993   3.831
 8124SOL    HW125271   5.379   5.002   3.758
 8124SOL    HW225272   5.502   5.076   3.835
 8125SOL     OW25273   0.825   0.174   2.825
 8125SOL    HW125274   0.776   0.238   2.766
 8125SOL    HW225275   0.791   0.184   2.919
 8126SOL     OW25276   3.798   5.290   3.992
 8126SOL    HW125277   3.835   5.382   4.007
 8126SOL    HW225278   3.704   5.297   3.959
 8127SOL     OW25279   2.846   3.004   0.411
 8127SOL    HW125280   2.931   2.998   0.463
 8127SOL    HW225281   2.770   3.025   0.474
 8128SOL     OW25282   3.096   3.057   2.271
 8128SOL    HW125283   3.176   3.036   2.326
 8128SOL    HW225284   3.041   2.974   2.260
 8129SOL     OW25285   1.464   2.854   0.743
 8129SOL    HW125286   1.461   2.911   0.661
 8129SOL    HW225287   1.386   2.877   0.802
 8130SOL     OW25288   1.456   5.602   6.813
 8130SOL    HW125289   1.375   5.640   6.768
 8130SOL    HW225290   1.430   5.555   6.897
 8131SOL     OW25291   2.191   3.005   1.044
 8131SOL    HW125292   2.129   3.074   1.008
 8131SOL    HW225293   2.240   2.962   0.969
 8132SOL     OW25294   6.435   6.966   3.723
 8132SOL    HW125295   6.420   7.013   3.810
 8132SOL    HW225296   6.511   7.009   3.674
 8133SOL     OW25297   3.454   5.035   1.138
 8133SOL    HW125298   3.483   4.942   1.159
 8133SOL    HW225299   3.355   5.043   1.153
 8134SOL     OW25300   6.277   0.604   5.335
 8134SOL    HW125301   6.205   0.577   5.271
 8134SOL    HW225302   6.328   0.523   5.363
 8135SOL     OW25303   2.554   6.965   2.059
 8135SOL    HW125304   2.607   6.889   2.023
 8135SOL    HW225305   2.616   0.010   2.097
 8136SOL     OW25306   4.676   4.749   2.337
 8136SOL    HW125307   4.668   4.726   2.434
 8136SOL    HW225308   4.586   4.775   2.302
 8137SOL     OW25309   3.978   1.664   4.694
 8137SOL    HW125310   3.999   1.688   4.788
 8137SOL    HW225311   4.027   1.724   4.632
 8138SOL     OW25312   5.717   0.731   1.956
 8138SOL    HW125313   5.775   0.716   1.875
 8138SOL    HW225314   5.715   0.829   1.976
 8139SOL     OW25315   1.125   1.249   2.624
 8139SOL    HW125316   1.154   1.324   2.564
 8139SOL    HW225317   1.142   1.162   2.578
 8140SOL     OW25318   4.055   0.833   3.837
 8140SOL    HW125319   4.011   0.748   3.865
 8140SOL    HW225320   3.989   0.908   3.844
 8141SOL     OW25321   4.153   5.510   5.515
 8141SOL    HW125322   4.122   5.426   5.472
 8141SOL    HW225323   4.151   5.585   5.448
 8142SOL     OW25324   5.628   4.980   0.567
 8142SOL    HW125325   5.585   4.889   0.569
 8142SOL    HW225326   5.712   4.978   0.621
 8143SOL     OW25327   5.589   3.991   5.994
 8143SOL    HW125328   5.632   4.074   6.027
 8143SOL    HW225329   5.556   3.937   6.071
 8144SOL     OW25330   5.500   6.799   6.730
 8144SOL    HW125331   5.595   6.803   6.698
 8144SOL    HW225332   5.494   6.733   6.805
 8145SOL     OW25333   6.170   5.508   2.652
 8145SOL    HW125334   6.158   5.597   2.608
 8145SOL    HW225335   6.151   5.516   2.750
 8146SOL     OW25336   3.354   1.096   5.924
 8146SOL    HW125337   3.293   1.038   5.978
 8146SOL    HW225338   3.421   1.139   5.984
 8147SOL     OW25339   4.754   2.244   4.463
 8147SOL    HW125340   4.826   2.178   4.437
 8147SOL    HW225341   4.782   2.336   4.435
 8148SOL     OW25342   5.471   2.600   3.124
 8148SOL    HW125343   5.380   2.622   3.159
 8148SOL    HW225344   5.503   2.674   3.065
 8149SOL     OW25345   4.356   5.125   2.884
 8149SOL    HW125346   4.374   5.093   2.977
 8149SOL    HW225347   4.309   5.053   2.832
 8150SOL     OW25348   0.848   5.294   6.928
 8150SOL    HW125349   0.937   5.267   6.893
 8150SOL    HW225350   0.777   5.265   6.863
 8151SOL     OW25351   1.165   2.067   4.944
 8151SOL    HW125352   1.172   1.970   4.971
 8151SOL    HW225353   1.256   2.101   4.922
 8152SOL     OW25354   2.028   0.804   3.363
 8152SOL    HW125355   2.089   0.750   3.305
 8152SOL    HW225356   1.939   0.759   3.370
 8153SOL     OW25357   2.375   6.908   1.048
 8153SOL    HW125358   2.424   6.900   1.135
 8153SOL    HW225359   2.302   6.839   1.045
 8154SOL     OW25360   1.978   6.289   3.614
 8154SOL    HW125361   1.882   6.273   3.593
 8154SOL    HW225362   2.027   6.312   3.529
 8155SOL     OW25363   3.170   3.001   2.781
 8155SOL    HW125364   3.174   3.077   2.716
 8155SOL    HW225365   3.132   2.921   2.735
 8156SOL     OW25366   5.715   0.671   5.082
 8156SOL    HW125367   5.718   0.587   5.137
 8156SOL    HW225368   5.765   0.743   5.129
 8157SOL     OW25369   5.670   3.965   6.741
 8157SOL    HW125370   5.585   3.924   6.773
 8157SOL    HW225371   5.678   3.955   6.642
 8158SOL     OW25372   1.529   5.646   1.613
 8158SOL    HW125373   1.515   5.578   1.541
 8158SOL    HW225374   1.586   5.607   1.685
 8159SOL     OW25375   1.775   5.111   1.893
 8159SOL    HW125376   1.857   5.152   1.932
 8159SOL    HW225377   1.800   5.033   1.835
 8160SOL     OW25378   4.234   1.962   1.679
 8160SOL    HW125379   4.247   2.046   1.732
 8160SOL    HW225380   4.142   1.927   1.696
 8161SOL     OW25381   5.072   0.861   0.067
 8161SOL    HW125382   5.074   0.921   7.012
 8161SOL    HW225383   5.050   0.914   0.150
 8162SOL     OW25384   5.386   6.901   1.159
 8162SOL    HW125385   5.319   6.851   1.213
 8162SOL    HW225386   5.416   6.843   1.083
 8163SOL     OW25387   2.415   4.479   5.114
 8163SOL    HW125388   2.494   4.540   5.106
 8163SOL    HW225389   2.413   4.437   5.205
 8164SOL     OW25390   4.173   2.505   1.691
 8164SOL    HW125391   4.172   2.516   1.592
 8164SOL    HW225392   4.223   2.580   1.733
 8165SOL     OW25393   2.104   4.162   1.359
 8165SOL    HW125394   2.006   4.154   1.375
 8165SOL    HW225395   2.151   4.182   1.445
 8166SOL     OW25396   2.652   0.639   1.784
 8166SOL    HW125397   2.619   0.545   1.779
 8166SOL    HW225398   2.695   0.663   1.696
 8167SOL     OW25399   5.883   2.561   3.931
 8167SOL    HW125400   5.876   2.498   3.854
 8167SOL    HW225401   5.799   2.556   3.986
 8168SOL     OW25402   3.545   1.103   3.095
 8168SOL    HW125403   3.644   1.112   3.097
 8168SOL    HW225404   3.520   1.013   3.060
 8169SOL     OW25405   4.259   3.584   6.595
 8169SOL    HW125406   4.285   3.496   6.636
 8169SOL    HW225407   4.160   3.586   6.580
 8170SOL     OW25408   0.955   5.900   4.020
 8170SOL    HW125409   1.034   5.954   3.993
 8170SOL    HW225410   0.955   5.812   3.972
 8171SOL     OW25411   0.769   2.056   5.916
 8171SOL    HW125412   0.829   2.130   5.948
 8171SOL    HW225413   0.825   1.984   5.875
 8172SOL     OW25414   0.627   6.408   0.507
 8172SOL    HW125415   0.598   6.398   0.412
 8172SOL    HW225416   0.711   6.463   0.510
 8173SOL     OW25417   4.015   2.892   0.086
 8173SOL    HW125418   4.023   2.828   0.010
 8173SOL    HW225419   3.951   2.856   0.154
 8174SOL     OW25420   5.536   0.631   2.164
 8174SOL    HW125421   5.446   0.624   2.121
 8174SOL    HW225422   5.600   0.670   2.098
 8175SOL     OW25423   0.661   1.968   6.494
 8175SOL    HW125424   0.721   1.988   6.416
 8175SOL    HW225425   0.704   2.002   6.578
 8176SOL     OW25426   2.648   5.754   1.928
 8176SOL    HW125427   2.624   5.818   1.855
 8176SOL    HW225428   2.736   5.779   1.967
 8177SOL     OW25429   0.180   6.568   4.787
 8177SOL    HW125430   0.087   6.594   4.813
 8177SOL    HW225431   0.229   6.535   4.867
 8178SOL     OW25432   1.569   6.253   6.646
 8178SOL    HW125433   1.597   6.158   6.642
 8178SOL    HW225434   1.642   6.308   6.687
 8179SOL     OW25435   3.207   2.810   0.201
 8179SOL    HW125436   3.270   2.751   0.251
 8179SOL    HW225437   3.113   2.778   0.213
 8180SOL     OW25438   6.738   6.585   5.017
 8180SOL    HW125439   6.759   6.615   5.110
 8180SOL    HW225440   6.641   6.560   5.011
 8181SOL     OW25441   2.445   2.085   3.255
 8181SOL    HW125442   2.439   2.176   3.213
 8181SOL    HW225443   2.533   2.044   3.232
 8182SOL     OW25444   4.254   2.158   5.138
 8182SOL    HW125445   4.220   2.240   5.185
 8182SOL    HW225446   4.342   2.131   5.177
 8183SOL     OW25447   1.885   3.814   4.613
 8183SOL    HW125448   1.934   3.899   4.598
 8183SOL    HW225449   1.804   3.812   4.554
 8184SOL     OW25450   6.831   6.899   5.231
 8184SOL    HW125451   6.927   6.927   5.232
 8184SOL    HW225452   6.825   6.800   5.242
 8185SOL     OW25453   3.182   1.253   2.043
 8185SOL    HW125454   3.109   1.211   2.096
 8185SOL    HW225455   3.222   1.328   2.094
 8186SOL     OW25456   3.821   6.208   5.853
 8186SOL    HW125457   3.819   6.108   5.849
 8186SOL    HW225458   3.896   6.237   5.912
 8187SOL     OW25459   1.944   1.522   5.041
 8187SOL    HW125460   1.934   1.576   4.958
 8187SOL    HW225461   2.041   1.506   5.060
 8188SOL     OW25462   6.136   2.482   3.190
 8188SOL    HW125463   6.054   2.453   3.142
 8188SOL    HW225464   6.126   2.577   3.220
 8189SOL     OW25465   6.419   4.183   2.985
 8189SOL    HW125466   6.493   4.188   3.052
 8189SOL    HW225467   6.457   4.160   2.895
 8190SOL     OW25468   5.083   3.587   3.710
 8190SOL    HW125469   5.094   3.505   3.655
 8190SOL    HW225470   5.159   3.594   3.775
 8191SOL     OW25471   0.925   5.075   3.731
 8191SOL    HW125472   0.992   5.134   3.686
 8191SOL    HW225473   0.955   5.058   3.825
 8192SOL     OW25474   2.195   4.981   2.190
 8192SOL    HW125475   2.235   5.070   2.169
 8192SOL    HW225476   2.246   4.909   2.142
 8193SOL     OW25477   3.757   6.739   5.234
 8193SOL    HW125478   3.770   6.812   5.167
 8193SOL    HW225479   3.820   6.664   5.215
 8194SOL     OW25480   6.827   0.673   6.981
 8194SOL    HW125481   6.849   0.580   7.008
 8194SOL    HW225482   6.765   0.672   6.903
 8195SOL     OW25483   6.622   6.435   0.368
 8195SOL    HW125484   6.654   6.341   0.357
 8195SOL    HW225485   6.623   6.459   0.465
 8196SOL     OW25486   2.650   6.737   6.116
 8196SOL    HW125487   2.578   6.768   6.053
 8196SOL    HW225488   2.624   6.758   6.210
 8197SOL     OW25489   0.806   0.395   6.122
 8197SOL    HW125490   0.780   0.349   6.207
 8197SOL    HW225491   0.728   0.394   6.059
 8198SOL     OW25492   3.125   6.919   3.185
 8198SOL    HW125493   3.192   6.991   3.167
 8198SOL    HW225494   3.048   6.929   3.122
 8199SOL     OW25495   6.604   3.564   0.190
 8199SOL    HW125496   6.638   3.470   0.188
 8199SOL    HW225497   6.662   3.622   0.132
 8200SOL     OW25498   5.607   4.380   0.707
 8200SOL    HW125499   5.512   4.407   0.693
 8200SOL    HW225500   5.615   4.281   0.696
 8201SOL     OW25501   5.976   0.108   3.239
 8201SOL    HW125502   5.923   0.158   3.308
 8201SOL    HW225503   6.018   0.174   3.176
 8202SOL     OW25504   1.296   3.925   3.753
 8202SOL    HW125505   1.215   3.910   3.810
 8202SOL    HW225506   1.366   3.973   3.806
 8203SOL     OW25507   5.810   3.594   1.503
 8203SOL    HW125508   5.793   3.521   1.437
 8203SOL    HW225509   5.765   3.572   1.589
 8204SOL     OW25510   3.489   0.123   1.697
 8204SOL    HW125511   3.527   0.179   1.770
 8204SOL    HW225512   3.390   0.124   1.702
 8205SOL     OW25513   5.662   5.576   2.079
 8205SOL    HW125514   5.743   5.582   2.022
 8205SOL    HW225515   5.584   5.615   2.031
 8206SOL     OW25516   4.391   1.955   4.627
 8206SOL    HW125517   4.308   1.899   4.631
 8206SOL    HW225518   4.470   1.897   4.645
 8207SOL     OW25519   2.720   5.893   6.683
 8207SOL    HW125520   2.631   5.877   6.641
 8207SOL    HW225521   2.756   5.981   6.654
 8208SOL     OW25522   1.690   4.273   1.118
 8208SOL    HW125523   1.631   4.235   1.046
 8208SOL    HW225524   1.785   4.251   1.098
 8209SOL     OW25525   0.460   0.172   5.083
 8209SOL    HW125526   0.511   0.245   5.037
 8209SOL    HW225527   0.434   0.102   5.016
 8210SOL     OW25528   2.530   1.532   0.090
 8210SOL    HW125529   2.458   1.485   0.039
 8210SOL    HW225530   2.493   1.615   0.131
 8211SOL     OW25531   3.129   3.167   4.512
 8211SOL    HW125532   3.070   3.101   4.559
 8211SOL    HW225533   3.163   3.234   4.578
 8212SOL     OW25534   3.433   0.008   1.101
 8212SOL    HW125535   3.490   7.020   1.182
 8212SOL    HW225536   3.397   0.101   1.098
 8213SOL     OW25537   4.513   4.099   1.613
 8213SOL    HW125538   4.596   4.071   1.661
 8213SOL    HW225539   4.465   4.169   1.666
 8214SOL     OW25540   4.147   5.654   4.586
 8214SOL    HW125541   4.057   5.612   4.576
 8214SOL    HW225542   4.217   5.583   4.581
 8215SOL     OW25543   4.126   6.725   6.995
 8215SOL    HW125544   4.189   6.685   6.929
 8215SOL    HW225545   4.076   6.800   6.953
 8216SOL     OW25546   5.452   5.207   1.574
 8216SOL    HW125547   5.445   5.251   1.484
 8216SOL    HW225548   5.547   5.178   1.590
 8217SOL     OW25549   2.383   6.326   3.714
 8217SOL    HW125550   2.417   6.232   3.716
 8217SOL    HW225551   2.358   6.355   3.806
 8218SOL     OW25552   2.153   6.999   5.179
 8218SOL    HW125553   2.074   0.033   5.200
 8218SOL    HW225554   2.122   6.915   5.135
 8219SOL     OW25555   3.860   3.932   1.065
 8219SOL    HW125556   3.775   3.898   1.104
 8219SOL    HW225557   3.846   4.024   1.028
 8220SOL     OW25558   3.977   3.117   4.141
 8220SOL    HW125559   4.020   3.117   4.051
 8220SOL    HW225560   3.997   3.203   4.188
 8221SOL     OW25561   5.630   3.710   3.509
 8221SOL    HW125562   5.572   3.711   3.428
 8221SOL    HW225563   5.724   3.688   3.481
 8222SOL     OW25564   5.880   3.485   0.482
 8222SOL    HW125565   5.928   3.423   0.545
 8222SOL    HW225566   5.927   3.573   0.479
 8223SOL     OW25567   0.841   5.882   5.447
 8223SOL    HW125568   0.887   5.839   5.525
 8223SOL    HW225569   0.758   5.928   5.478
 8224SOL     OW25570   5.591   1.613   0.578
 8224SOL    HW125571   5.513   1.557   0.606
 8224SOL    HW225572   5.559   1.688   0.521
 8225SOL     OW25573   5.278   1.036   0.637
 8225SOL    HW125574   5.273   0.948   0.588
 8225SOL    HW225575   5.186   1.069   0.656
 8226SOL     OW25576   4.074   0.479   0.366
 8226SOL    HW125577   4.154   0.428   0.335
 8226SOL    HW225578   4.102   0.544   0.438
 8227SOL     OW25579   4.816   2.388   3.201
 8227SOL    HW125580   4.763   2.472   3.185
 8227SOL    HW225581   4.781   2.316   3.141
 8228SOL     OW25582   2.065   0.414   4.646
 8228SOL    HW125583   1.981   0.362   4.663
 8228SOL    HW225584   2.046   0.512   4.651
 8229SOL     OW25585   4.772   4.138   0.669
 8229SOL    HW125586   4.775   4.126   0.768
 8229SOL    HW225587   4.814   4.225   0.644
 8230SOL     OW25588   5.932   0.557   6.162
 8230SOL    HW125589   5.837   0.534   6.145
 8230SOL    HW225590   5.937   0.641   6.217
 8231SOL     OW25591   2.180   1.680   2.416
 8231SOL    HW125592   2.169   1.779   2.422
 8231SOL    HW225593   2.270   1.654   2.450
 8232SOL     OW25594   3.571   5.694   2.861
 8232SOL    HW125595   3.652   5.636   2.863
 8232SOL    HW225596   3.499   5.654   2.918
 8233SOL     OW25597   0.718   1.080   6.112
 8233SOL    HW125598   0.763   1.008   6.165
 8233SOL    HW225599   0.786   1.137   6.068
 8234SOL     OW25600   1.013   2.111   0.763
 8234SOL    HW125601   1.043   2.061   0.681
 8234SOL    HW225602   1.069   2.083   0.841
 8235SOL     OW25603   0.896   5.954   1.311
 8235SOL    HW125604   0.945   6.037   1.286
 8235SOL    HW225605   0.962   5.880   1.326
 8236SOL     OW25606   0.536   6.485   0.966
 8236SOL    HW125607   0.441   6.511   0.945
 8236SOL    HW225608   0.553   6.392   0.932
 8237SOL     OW25609   4.002   5.146   0.300
 8237SOL    HW125610   4.086   5.186   0.263
 8237SOL    HW225611   3.939   5.125   0.225
 8238SOL     OW25612   1.169   3.950   0.425
 8238SOL    HW125613   1.259   3.944   0.469
 8238SOL    HW225614   1.132   4.042   0.437
 8239SOL     OW25615   1.686   1.262   5.045
 8239SOL    HW125616   1.616   1.301   5.105
 8239SOL    HW225617   1.717   1.332   4.980
 8240SOL     OW25618   3.520   3.510   4.477
 8240SOL    HW125619   3.525   3.515   4.377
 8240SOL    HW225620   3.485   3.596   4.514
 8241SOL     OW25621   1.815   3.591   6.120
 8241SOL    HW125622   1.726   3.562   6.155
 8241SOL    HW225623   1.852   3.519   6.061
 8242SOL     OW25624   0.877   3.245   3.390
 8242SOL    HW125625   0.967   3.276   3.360
 8242SOL    HW225626   0.887   3.175   3.460
 8243SOL     OW25627   0.444   5.504   4.230
 8243SOL    HW125628   0.533   5.503   4.275
 8243SOL    HW225629   0.404   5.596   4.239
 8244SOL     OW25630   0.548   0.642   4.450
 8244SOL    HW125631   0.522   0.717   4.388
 8244SOL    HW225632   0.643   0.616   4.433
 8245SOL     OW25633   5.281   2.022   3.564
 8245SOL    HW125634   5.319   2.109   3.534
 8245SOL    HW225635   5.185   2.034   3.589
 8246SOL     OW25636   2.410   5.230   6.862
 8246SOL    HW125637   2.325   5.270   6.896
 8246SOL    HW225638   2.467   5.301   6.820
 8247SOL     OW25639   2.992   5.087   2.957
 8247SOL    HW125640   3.051   5.006   2.952
 8247SOL    HW225641   2.926   5.084   2.882
 8248SOL     OW25642   0.535   5.220   3.082
 8248SOL    HW125643   0.454   5.254   3.128
 8248SOL    HW225644   0.570   5.290   3.020
 8249SOL     OW25645   3.060   1.394   6.663
 8249SOL    HW125646   2.961   1.380   6.655
 8249SOL    HW225647   3.105   1.368   6.578
 8250SOL     OW25648   1.204   1.290   0.369
 8250SOL    HW125649   1.110   1.324   0.367
 8250SOL    HW225650   1.253   1.330   0.446
 8251SOL     OW25651   0.494   2.524   4.613
 8251SOL    HW125652   0.532   2.434   4.588
 8251SOL    HW225653   0.548   2.596   4.568
 8252SOL     OW25654   1.429   2.082   6.192
 8252SOL    HW125655   1.471   2.021   6.124
 8252SOL    HW225656   1.473   2.069   6.280
 8253SOL     OW25657   5.075   5.964   0.426
 8253SOL    HW125658   5.003   5.907   0.386
 8253SOL    HW225659   5.099   5.929   0.517
 8254SOL     OW25660   5.451   5.105   6.396
 8254SOL    HW125661   5.435   5.187   6.341
 8254SOL    HW225662   5.549   5.085   6.398
 8255SOL     OW25663   1.187   0.094   6.399
 8255SOL    HW125664   1.252   0.152   6.450
 8255SOL    HW225665   1.210   0.096   6.302
 8256SOL     OW25666   1.182   4.860   4.099
 8256SOL    HW125667   1.105   4.859   4.036
 8256SOL    HW225668   1.215   4.954   4.111
 8257SOL     OW25669   5.110   3.676   3.152
 8257SOL    HW125670   5.037   3.723   3.102
 8257SOL    HW225671   5.193   3.676   3.096
 8258SOL     OW25672   6.859   3.752   1.893
 8258SOL    HW125673   6.861   3.654   1.873
 8258SOL    HW225674   6.767   3.787   1.876
 8259SOL     OW25675   5.469   1.619   4.516
 8259SOL    HW125676   5.524   1.624   4.433
 8259SOL    HW225677   5.412   1.536   4.513
 8260SOL     OW25678   4.341   1.392   1.361
 8260SOL    HW125679   4.346   1.385   1.262
 8260SOL    HW225680   4.429   1.364   1.401
 8261SOL     OW25681   6.007   0.806   2.555
 8261SOL    HW125682   5.978   0.875   2.622
 8261SOL    HW225683   6.093   0.764   2.584
 8262SOL     OW25684   5.838   3.837   1.982
 8262SOL    HW125685   5.745   3.857   2.012
 8262SOL    HW225686   5.849   3.738   1.970
 8263SOL     OW25687   6.789   2.537   5.841
 8263SOL    HW125688   6.809   2.443   5.813
 8263SOL    HW225689   6.859   2.569   5.905
 8264SOL     OW25690   2.986   0.315   3.036
 8264SOL    HW125691   2.967   0.372   2.955
 8264SOL    HW225692   3.083   0.323   3.060
 8265SOL     OW25693   5.236   6.947   0.050
 8265SOL    HW125694   5.260   7.014   0.120
 8265SOL    HW225695   5.250   6.855   0.085
 8266SOL     OW25696   2.467   0.866   3.933
 8266SOL    HW125697   2.437   0.961   3.922
 8266SOL    HW225698   2.400   0.817   3.988
 8267SOL     OW25699   1.794   4.605   2.710
 8267SOL    HW125700   1.884   4.615   2.668
 8267SOL    HW225701   1.726   4.592   2.638
 8268SOL     OW25702   3.627   5.478   6.296
 8268SOL    HW125703   3.666   5.452   6.384
 8268SOL    HW225704   3.539   5.432   6.283
 8269SOL     OW25705   5.979   2.704   3.577
 8269SOL    HW125706   6.060   2.704   3.636
 8269SOL    HW225707   5.977   2.789   3.524
 8270SOL     OW25708   3.581   0.018   6.213
 8270SOL    HW125709   3.539   7.016   6.300
 8270SOL    HW225710   3.624   6.962   6.172
 8271SOL     OW25711   3.575   6.075   6.276
 8271SOL    HW125712   3.513   6.152   6.259
 8271SOL    HW225713   3.587   6.023   6.191
 8272SOL     OW25714   0.777   0.423   1.632
 8272SOL    HW125715   0.720   0.489   1.584
 8272SOL    HW225716   0.825   0.469   1.707
 8273SOL     OW25717   3.565   0.747   6.726
 8273SOL    HW125718   3.509   0.711   6.652
 8273SOL    HW225719   3.647   0.691   6.737
 8274SOL     OW25720   5.286   6.709   5.733
 8274SOL    HW125721   5.307   6.675   5.642
 8274SOL    HW225722   5.318   6.804   5.742
 8275SOL     OW25723   5.709   0.425   3.359
 8275SOL    HW125724   5.655   0.439   3.442
 8275SOL    HW225725   5.739   0.513   3.323
 8276SOL     OW25726   0.258   2.229   6.395
 8276SOL    HW125727   0.227   2.148   6.346
 8276SOL    HW225728   0.347   2.257   6.360
 8277SOL     OW25729   1.276   6.701   6.485
 8277SOL    HW125730   1.297   6.630   6.553
 8277SOL    HW225731   1.272   6.660   6.394
 8278SOL     OW25732   3.232   1.269   6.896
 8278SOL    HW125733   3.277   1.346   6.942
 8278SOL    HW225734   3.189   1.301   6.812
 8279SOL     OW25735   4.634   4.671   5.073
 8279SOL    HW125736   4.594   4.634   4.989
 8279SOL    HW225737   4.695   4.747   5.050
 8280SOL     OW25738   5.568   3.432   6.926
 8280SOL    HW125739   5.520   3.496   6.986
 8280SOL    HW225740   5.535   3.444   6.832
 8281SOL     OW25741   3.034   5.300   0.119
 8281SOL    HW125742   3.012   5.274   0.025
 8281SOL    HW225743   2.962   5.359   0.155
 8282SOL     OW25744   3.169   2.829   0.857
 8282SOL    HW125745   3.220   2.794   0.936
 8282SOL    HW225746   3.215   2.801   0.773
 8283SOL     OW25747   0.237   5.602   3.355
 8283SOL    HW125748   0.270   5.645   3.439
 8283SOL    HW225749   0.284   5.642   3.276
 8284SOL     OW25750   2.746   1.974   1.901
 8284SOL    HW125751   2.712   1.906   1.836
 8284SOL    HW225752   2.842   1.995   1.880
 8285SOL     OW25753   2.882   4.174   6.165
 8285SOL    HW125754   2.979   4.199   6.166
 8285SOL    HW225755   2.857   4.135   6.253
 8286SOL     OW25756   5.439   1.739   5.412
 8286SOL    HW125757   5.453   1.660   5.352
 8286SOL    HW225758   5.452   1.823   5.359
 8287SOL     OW25759   2.241   0.451   3.524
 8287SOL    HW125760   2.162   0.510   3.542
 8287SOL    HW225761   2.237   0.371   3.583
 8288SOL     OW25762   2.468   1.016   2.870
 8288SOL    HW125763   2.497   1.013   2.775
 8288SOL    HW225764   2.382   0.966   2.880
 8289SOL     OW25765   6.734   0.928   5.724
 8289SOL    HW125766   6.761   0.847   5.777
 8289SOL    HW225767   6.782   1.008   5.759
 8290SOL     OW25768   4.626   2.746   1.751
 8290SOL    HW125769   4.638   2.832   1.802
 8290SOL    HW225770   4.707   2.729   1.695
 8291SOL     OW25771   4.144   5.014   6.625
 8291SOL    HW125772   4.080   4.963   6.568
 8291SOL    HW225773   4.211   5.061   6.567
 8292SOL     OW25774   0.676   3.545   4.612
 8292SOL    HW125775   0.680   3.556   4.513
 8292SOL    HW225776   0.581   3.541   4.642
 8293SOL     OW25777   2.808   4.926   3.774
 8293SOL    HW125778   2.784   4.980   3.855
 8293SOL    HW225779   2.906   4.937   3.756
 8294SOL     OW25780   4.571   3.576   5.580
 8294SOL    HW125781   4.631   3.601   5.504
 8294SOL    HW225782   4.550   3.479   5.576
 8295SOL     OW25783   4.883   4.462   2.230
 8295SOL    HW125784   4.913   4.554   2.205
 8295SOL    HW225785   4.783   4.459   2.231
 8296SOL     OW25786   3.995   6.232   1.961
 8296SOL    HW125787   3.930   6.156   1.953
 8296SOL    HW225788   4.065   6.223   1.890
 8297SOL     OW25789   5.505   4.239   3.232
 8297SOL    HW125790   5.483   4.254   3.329
 8297SOL    HW225791   5.457   4.307   3.177
 8298SOL     OW25792   6.576   6.785   5.935
 8298SOL    HW125793   6.667   6.745   5.947
 8298SOL    HW225794   6.512   6.744   6.000
 8299SOL     OW25795   0.249   3.529   0.938
 8299SOL    HW125796   0.194   3.588   0.880
 8299SOL    HW225797   0.271   3.445   0.889
 8300SOL     OW25798   5.317   4.783   2.650
 8300SOL    HW125799   5.384   4.729   2.599
 8300SOL    HW225800   5.278   4.727   2.723
 8301SOL     OW25801   4.825   6.653   0.214
 8301SOL    HW125802   4.798   6.702   0.132
 8301SOL    HW225803   4.882   6.711   0.272
 8302SOL     OW25804   3.196   6.911   5.422
 8302SOL    HW125805   3.268   6.928   5.354
 8302SOL    HW225806   3.202   6.978   5.495
 8303SOL     OW25807   0.286   6.000   2.755
 8303SOL    HW125808   0.223   6.069   2.719
 8303SOL    HW225809   0.357   6.045   2.809
 8304SOL     OW25810   5.726   4.282   3.094
 8304SOL    HW125811   5.693   4.352   3.031
 8304SOL    HW225812   5.656   4.263   3.162
 8305SOL     OW25813   4.735   6.521   4.758
 8305SOL    HW125814   4.824   6.500   4.799
 8305SOL    HW225815   4.732   6.618   4.734
 8306SOL     OW25816   6.298   1.065   2.081
 8306SOL    HW125817   6.211   1.037   2.041
 8306SOL    HW225818   6.373   1.017   2.035
 8307SOL     OW25819   1.375   3.572   3.192
 8307SOL    HW125820   1.319   3.550   3.271
 8307SOL    HW225821   1.340   3.523   3.112
 8308SOL     OW25822   1.362   5.321   0.577
 8308SOL    HW125823   1.365   5.333   0.477
 8308SOL    HW225824   1.406   5.399   0.621
 8309SOL     OW25825   6.121   5.002   4.845
 8309SOL    HW125826   6.137   4.904   4.860
 8309SOL    HW225827   6.209   5.049   4.837
 8310SOL     OW25828   1.368   6.409   0.847
 8310SOL    HW125829   1.288   6.459   0.880
 8310SOL    HW225830   1.432   6.473   0.803
 8311SOL     OW25831   5.515   6.841   3.408
 8311SOL    HW125832   5.457   6.760   3.407
 8311SOL    HW225833   5.477   6.910   3.347
 8312SOL     OW25834   5.436   1.803   0.457
 8312SOL    HW125835   5.421   1.882   0.399
 8312SOL    HW225836   5.355   1.785   0.513
 8313SOL     OW25837   5.335   2.349   5.216
 8313SOL    HW125838   5.374   2.325   5.127
 8313SOL    HW225839   5.342   2.448   5.230
 8314SOL     OW25840   4.849   6.398   4.502
 8314SOL    HW125841   4.862   6.367   4.596
 8314SOL    HW225842   4.791   6.479   4.502
 8315SOL     OW25843   3.473   4.160   5.011
 8315SOL    HW125844   3.493   4.062   5.022
 8315SOL    HW225845   3.436   4.195   5.097
 8316SOL     OW25846   2.093   2.175   6.517
 8316SOL    HW125847   2.030   2.253   6.516
 8316SOL    HW225848   2.158   2.186   6.592
 8317SOL     OW25849   1.837   1.655   3.695
 8317SOL    HW125850   1.814   1.560   3.677
 8317SOL    HW225851   1.805   1.681   3.786
 8318SOL     OW25852   4.700   0.371   0.076
 8318SOL    HW125853   4.651   0.367   0.163
 8318SOL    HW225854   4.759   0.452   0.075
 8319SOL     OW25855   1.322   6.514   6.681
 8319SOL    HW125856   1.375   6.582   6.732
 8319SOL    HW225857   1.337   6.424   6.721
 8320SOL     OW25858   2.970   3.126   4.740
 8320SOL    HW125859   2.871   3.109   4.729
 8320SOL    HW225860   3.001   3.085   4.825
 8321SOL     OW25861   0.283   6.670   1.287
 8321SOL    HW125862   0.197   6.654   1.337
 8321SOL    HW225863   0.353   6.607   1.321
 8322SOL     OW25864   0.736   0.005   0.081
 8322SOL    HW125865   0.805   0.016   0.152
 8322SOL    HW225866   0.778   6.991   7.022
 8323SOL     OW25867   5.975   4.190   0.707
 8323SOL    HW125868   6.075   4.185   0.708
 8323SOL    HW225869   5.945   4.237   0.624
 8324SOL     OW25870   4.987   5.447   6.334
 8324SOL    HW125871   4.949   5.476   6.421
 8324SOL    HW225872   5.087   5.449   6.338
 8325SOL     OW25873   1.236   5.598   6.555
 8325SOL    HW125874   1.161   5.624   6.494
 8325SOL    HW225875   1.206   5.522   6.612
 8326SOL     OW25876   1.317   3.313   0.431
 8326SOL    HW125877   1.245   3.278   0.372
 8326SOL    HW225878   1.402   3.320   0.379
 8327SOL     OW25879   0.616   6.741   4.633
 8327SOL    HW125880   0.653   6.781   4.549
 8327SOL    HW225881   0.527   6.782   4.653
 8328SOL     OW25882   1.012   0.387   0.459
 8328SOL    HW125883   1.071   0.461   0.427
 8328SOL    HW225884   0.958   0.419   0.536
 8329SOL     OW25885   1.735   2.765   4.525
 8329SOL    HW125886   1.791   2.695   4.569
 8329SOL    HW225887   1.639   2.742   4.536
 8330SOL     OW25888   4.069   1.314   6.706
 8330SOL    HW125889   4.028   1.250   6.642
 8330SOL    HW225890   4.046   1.288   6.800
 8331SOL     OW25891   1.754   2.513   5.966
 8331SOL    HW125892   1.771   2.609   5.988
 8331SOL    HW225893   1.752   2.501   5.867
 8332SOL     OW25894   6.084   5.158   1.283
 8332SOL    HW125895   6.036   5.126   1.201
 8332SOL    HW225896   6.111   5.254   1.270
 8333SOL     OW25897   2.279   4.826   0.109
 8333SOL    HW125898   2.317   4.755   0.169
 8333SOL    HW225899   2.199   4.791   0.062
 8334SOL     OW25900   3.682   2.221   6.472
 8334SOL    HW125901   3.774   2.250   6.497
 8334SOL    HW225902   3.665   2.244   6.376
 8335SOL     OW25903   5.215   3.867   6.224
 8335SOL    HW125904   5.171   3.822   6.302
 8335SOL    HW225905   5.146   3.891   6.156
 8336SOL     OW25906   0.830   4.206   4.152
 8336SOL    HW125907   0.912   4.241   4.107
 8336SOL    HW225908   0.789   4.135   4.096
 8337SOL     OW25909   0.843   0.994   4.557
 8337SOL    HW125910   0.851   0.895   4.564
 8337SOL    HW225911   0.770   1.026   4.617
 8338SOL     OW25912   4.377   6.027   1.945
 8338SOL    HW125913   4.382   5.986   1.854
 8338SOL    HW225914   4.433   5.974   2.008
 8339SOL     OW25915   5.948   0.026   0.972
 8339SOL    HW125916   5.890   0.094   0.928
 8339SOL    HW225917   5.919   6.958   0.945
 8340SOL     OW25918   6.383   2.099   6.750
 8340SOL    HW125919   6.331   2.105   6.665
 8340SOL    HW225920   6.364   2.012   6.795
 8341SOL     OW25921   3.764   0.649   0.674
 8341SOL    HW125922   3.673   0.684   0.693
 8341SOL    HW225923   3.830   0.694   0.735
 8342SOL     OW25924   4.780   0.747   0.377
 8342SOL    HW125925   4.819   0.807   0.446
 8342SOL    HW225926   4.725   0.802   0.313
 8343SOL     OW25927   5.521   4.198   4.142
 8343SOL    HW125928   5.506   4.217   4.045
 8343SOL    HW225929   5.617   4.177   4.157
 8344SOL     OW25930   1.243   5.189   5.263
 8344SOL    HW125931   1.263   5.112   5.323
 8344SOL    HW225932   1.207   5.155   5.176
 8345SOL     OW25933   4.494   0.938   3.229
 8345SOL    HW125934   4.551   1.008   3.186
 8345SOL    HW225935   4.432   0.982   3.294
 8346SOL     OW25936   6.103   3.752   5.045
 8346SOL    HW125937   6.192   3.779   5.080
 8346SOL    HW225938   6.104   3.655   5.021
 8347SOL     OW25939   2.635   0.666   0.080
 8347SOL    HW125940   2.702   0.737   0.103
 8347SOL    HW225941   2.543   0.701   0.093
 8348SOL     OW25942   3.399   6.222   1.987
 8348SOL    HW125943   3.345   6.138   1.981
 8348SOL    HW225944   3.483   6.212   1.934
 8349SOL     OW25945   0.218   6.513   2.105
 8349SOL    HW125946   0.277   6.580   2.150
 8349SOL    HW225947   0.195   6.440   2.170
 8350SOL     OW25948   2.332   0.483   0.822
 8350SOL    HW125949   2.294   0.567   0.861
 8350SOL    HW225950   2.292   0.468   0.731
 8351SOL     OW25951   6.927   3.324   3.307
 8351SOL    HW125952   6.999   3.259   3.330
 8351SOL    HW225953   6.892   3.367   3.391
 8352SOL     OW25954   2.642   6.142   2.021
 8352SOL    HW125955   2.595   6.179   1.941
 8352SOL    HW225956   2.589   6.066   2.059
 8353SOL     OW25957   1.330   4.897   2.196
 8353SOL    HW125958   1.240   4.937   2.177
 8353SOL    HW225959   1.361   4.926   2.286
 8354SOL     OW25960   3.411   0.529   3.071
 8354SOL    HW125961   3.410   0.599   3.142
 8354SOL    HW225962   3.467   0.559   2.994
 8355SOL     OW25963   2.306   6.085   6.575
 8355SOL    HW125964   2.311   6.108   6.478
 8355SOL    HW225965   2.397   6.063   6.609
 8356SOL     OW25966   2.493   5.520   0.805
 8356SOL    HW125967   2.523   5.610   0.774
 8356SOL    HW225968   2.477   5.461   0.726
 8357SOL     OW25969   4.665   6.228   5.298
 8357SOL    HW125970   4.607   6.268   5.368
 8357SOL    HW225971   4.725   6.298   5.260
 8358SOL     OW25972   1.017   1.272   4.720
 8358SOL    HW125973   0.969   1.236   4.639
 8358SOL    HW225974   1.102   1.316   4.691
 8359SOL     OW25975   3.530   2.041   5.348
 8359SOL    HW125976   3.588   2.069   5.272
 8359SOL    HW225977   3.545   2.100   5.427
 8360SOL     OW25978   4.364   0.082   1.566
 8360SOL    HW125979   4.354   0.043   1.474
 8360SOL    HW225980   4.426   0.025   1.620
 8361SOL     OW25981   4.144   0.663   6.909
 8361SOL    HW125982   4.094   0.732   6.856
 8361SOL    HW225983   4.195   0.604   6.847
 8362SOL     OW25984   6.606   4.290   1.429
 8362SOL    HW125985   6.581   4.195   1.410
 8362SOL    HW225986   6.695   4.292   1.474
 8363SOL     OW25987   2.890   3.367   6.993
 8363SOL    HW125988   2.968   3.430   6.998
 8363SOL    HW225989   2.898   3.299   0.042
 8364SOL     OW25990   0.423   3.550   4.698
 8364SOL    HW125991   0.399   3.459   4.730
 8364SOL    HW225992   0.431   3.612   4.776
 8365SOL     OW25993   1.858   2.742   2.482
 8365SOL    HW125994   1.916   2.677   2.431
 8365SOL    HW225995   1.871   2.834   2.445
 8366SOL     OW25996   4.994   5.060   1.783
 8366SOL    HW125997   4.969   5.061   1.880
 8366SOL    HW225998   5.091   5.083   1.773
 8367SOL     OW25999   3.543   5.499   4.067
 8367SOL    HW126000   3.578   5.562   3.998
 8367SOL    HW226001   3.586   5.519   4.155
 8368SOL     OW26002   6.512   6.117   0.285
 8368SOL    HW126003   6.478   6.089   0.195
 8368SOL    HW226004   6.610   6.133   0.280
 8369SOL     OW26005   2.273   6.876   1.498
 8369SOL    HW126006   2.257   6.778   1.486
 8369SOL    HW226007   2.325   6.891   1.582
 8370SOL     OW26008   2.537   3.654   0.037
 8370SOL    HW126009   2.517   3.565   7.020
 8370SOL    HW226010   2.624   3.688   0.002
 8371SOL     OW26011   1.791   4.067   6.559
 8371SOL    HW126012   1.701   4.024   6.556
 8371SOL    HW226013   1.802   4.126   6.479
 8372SOL     OW26014   2.628   5.661   2.717
 8372SOL    HW126015   2.698   5.626   2.779
 8372SOL    HW226016   2.639   5.620   2.627
 8373SOL     OW26017   0.222   1.627   4.321
 8373SOL    HW126018   0.246   1.621   4.418
 8373SOL    HW226019   0.157   1.554   4.298
 8374SOL     OW26020   1.276   0.388   4.360
 8374SOL    HW126021   1.265   0.295   4.324
 8374SOL    HW226022   1.312   0.448   4.288
 8375SOL     OW26023   3.479   0.562   4.807
 8375SOL    HW126024   3.399   0.569   4.747
 8375SOL    HW226025   3.515   0.653   4.825
 8376SOL     OW26026   2.004   0.587   3.064
 8376SOL    HW126027   1.988   0.489   3.074
 8376SOL    HW226028   2.075   0.617   3.128
 8377SOL     OW26029   4.260   5.256   0.186
 8377SOL    HW126030   4.259   5.184   0.118
 8377SOL    HW226031   4.322   5.329   0.157
 8378SOL     OW26032   5.398   6.082   4.372
 8378SOL    HW126033   5.336   6.054   4.299
 8378SOL    HW226034   5.383   6.178   4.394
 8379SOL     OW26035   5.905   0.998   1.747
 8379SOL    HW126036   5.881   1.093   1.769
 8379SOL    HW226037   5.993   0.997   1.700
 8380SOL     OW26038   6.671   5.617   0.475
 8380SOL    HW126039   6.604   5.669   0.529
 8380SOL    HW226040   6.725   5.680   0.419
 8381SOL     OW26041   0.270   2.114   2.384
 8381SOL    HW126042   0.358   2.070   2.404
 8381SOL    HW226043   0.258   2.119   2.285
 8382SOL     OW26044   1.953   0.660   1.271
 8382SOL    HW126045   1.920   0.754   1.276
 8382SOL    HW226046   1.876   0.597   1.286
 8383SOL     OW26047   2.707   6.480   6.273
 8383SOL    HW126048   2.799   6.510   6.248
 8383SOL    HW226049   2.640   6.540   6.229
 8384SOL     OW26050   0.725   3.170   2.074
 8384SOL    HW126051   0.689   3.079   2.094
 8384SOL    HW226052   0.650   3.231   2.048
 8385SOL     OW26053   3.653   3.502   1.478
 8385SOL    HW126054   3.742   3.461   1.497
 8385SOL    HW226055   3.583   3.457   1.533
 8386SOL     OW26056   2.009   6.100   2.081
 8386SOL    HW126057   2.021   6.022   2.019
 8386SOL    HW226058   1.976   6.179   2.028
 8387SOL     OW26059   1.630   1.423   2.663
 8387SOL    HW126060   1.622   1.364   2.743
 8387SOL    HW226061   1.568   1.501   2.673
 8388SOL     OW26062   3.847   6.355   1.319
 8388SOL    HW126063   3.904   6.437   1.321
 8388SOL    HW226064   3.826   6.332   1.224
 8389SOL     OW26065   0.494   2.564   3.895
 8389SOL    HW126066   0.540   2.529   3.977
 8389SOL    HW226067   0.563   2.586   3.826
 8390SOL     OW26068   3.526   1.209   6.125
 8390SOL    HW126069   3.439   1.252   6.151
 8390SOL    HW226070   3.592   1.222   6.199
 8391SOL     OW26071   5.130   5.802   1.158
 8391SOL    HW126072   5.141   5.703   1.154
 8391SOL    HW226073   5.217   5.844   1.182
 8392SOL     OW26074   5.363   6.031   5.666
 8392SOL    HW126075   5.287   6.078   5.622
 8392SOL    HW226076   5.437   6.096   5.683
 8393SOL     OW26077   6.820   5.622   3.139
 8393SOL    HW126078   6.838   5.715   3.107
 8393SOL    HW226079   6.775   5.570   3.066
 8394SOL     OW26080   0.520   1.959   2.954
 8394SOL    HW126081   0.515   1.937   2.857
 8394SOL    HW226082   0.552   2.053   2.965
 8395SOL     OW26083   6.889   6.024   5.757
 8395SOL    HW126084   6.879   5.941   5.813
 8395SOL    HW226085   6.832   6.016   5.676
 8396SOL     OW26086   4.901   3.311   1.747
 8396SOL    HW126087   4.944   3.399   1.726
 8396SOL    HW226088   4.920   3.246   1.673
 8397SOL     OW26089   2.030   5.661   3.425
 8397SOL    HW126090   2.024   5.761   3.431
 8397SOL    HW226091   2.091   5.636   3.349
 8398SOL     OW26092   4.435   1.926   0.849
 8398SOL    HW126093   4.348   1.913   0.803
 8398SOL    HW226094   4.491   1.844   0.838
 8399SOL     OW26095   5.545   5.859   0.666
 8399SOL    HW126096   5.642   5.883   0.671
 8399SOL    HW226097   5.490   5.934   0.703
 8400SOL     OW26098   6.575   0.840   2.680
 8400SOL    HW126099   6.545   0.825   2.774
 8400SOL    HW226100   6.508   0.800   2.617
 8401SOL     OW26101   3.001   4.708   6.476
 8401SOL    HW126102   3.046   4.663   6.554
 8401SOL    HW226103   3.067   4.768   6.430
 8402SOL     OW26104   4.368   1.831   0.215
 8402SOL    HW126105   4.283   1.825   0.267
 8402SOL    HW226106   4.365   1.766   0.138
 8403SOL     OW26107   2.160   1.529   4.525
 8403SOL    HW126108   2.208   1.534   4.438
 8403SOL    HW226109   2.090   1.457   4.521
 8404SOL     OW26110   4.487   5.181   5.711
 8404SOL    HW126111   4.482   5.115   5.636
 8404SOL    HW226112   4.397   5.190   5.753
 8405SOL     OW26113   0.717   2.546   5.316
 8405SOL    HW126114   0.768   2.606   5.254
 8405SOL    HW226115   0.637   2.509   5.267
 8406SOL     OW26116   5.368   3.073   1.232
 8406SOL    HW126117   5.278   3.114   1.244
 8406SOL    HW226118   5.378   3.040   1.138
 8407SOL     OW26119   4.726   4.167   2.745
 8407SOL    HW126120   4.789   4.089   2.738
 8407SOL    HW226121   4.738   4.228   2.667
 8408SOL     OW26122   4.911   2.462   5.057
 8408SOL    HW126123   4.815   2.446   5.035
 8408SOL    HW226124   4.928   2.435   5.152
 8409SOL     OW26125   1.030   1.819   3.813
 8409SOL    HW126126   0.954   1.757   3.793
 8409SOL    HW226127   1.115   1.781   3.777
 8410SOL     OW26128   3.959   6.840   1.417
 8410SOL    HW126129   3.983   6.874   1.508
 8410SOL    HW226130   3.969   6.914   1.350
 8411SOL     OW26131   1.577   3.637   4.401
 8411SOL    HW126132   1.644   3.585   4.455
 8411SOL    HW226133   1.583   3.609   4.305
 8412SOL     OW26134   5.477   2.360   3.816
 8412SOL    HW126135   5.548   2.352   3.746
 8412SOL    HW226136   5.433   2.271   3.828
 8413SOL     OW26137   3.447   4.664   0.664
 8413SOL    HW126138   3.547   4.661   0.665
 8413SOL    HW226139   3.414   4.724   0.737
 8414SOL     OW26140   4.031   6.782   2.869
 8414SOL    HW126141   3.953   6.747   2.920
 8414SOL    HW226142   3.999   6.833   2.790
 8415SOL     OW26143   6.802   4.177   2.836
 8415SOL    HW126144   6.830   4.151   2.928
 8415SOL    HW226145   6.702   4.174   2.829
 8416SOL     OW26146   5.300   3.829   2.514
 8416SOL    HW126147   5.356   3.786   2.584
 8416SOL    HW226148   5.284   3.925   2.539
 8417SOL     OW26149   3.189   5.978   5.988
 8417SOL    HW126150   3.235   6.031   5.917
 8417SOL    HW226151   3.129   5.910   5.944
 8418SOL     OW26152   6.530   5.323   3.141
 8418SOL    HW126153   6.578   5.253   3.088
 8418SOL    HW226154   6.574   5.333   3.230
 8419SOL     OW26155   4.403   0.412   3.199
 8419SOL    HW126156   4.475   0.479   3.219
 8419SOL    HW226157   4.321   0.436   3.250
 8420SOL     OW26158   3.954   1.110   6.567
 8420SOL    HW126159   3.943   1.016   6.598
 8420SOL    HW226160   3.866   1.146   6.537
 8421SOL     OW26161   2.413   6.713   1.938
 8421SOL    HW126162   2.397   6.810   1.955
 8421SOL    HW226163   2.332   6.660   1.965
 8422SOL     OW26164   4.239   0.125   0.624
 8422SOL    HW126165   4.151   0.154   0.585
 8422SOL    HW226166   4.268   0.192   0.693
 8423SOL     OW26167   3.629   3.862   1.362
 8423SOL    HW126168   3.670   3.781   1.321
 8423SOL    HW226169   3.548   3.889   1.309
 8424SOL     OW26170   3.445   1.198   2.480
 8424SOL    HW126171   3.464   1.175   2.385
 8424SOL    HW226172   3.526   1.239   2.521
 8425SOL     OW26173   6.114   4.616   6.948
 8425SOL    HW126174   6.072   4.533   6.985
 8425SOL    HW226175   6.183   4.650   7.011
 8426SOL     OW26176   4.013   3.715   3.356
 8426SOL    HW126177   3.933   3.744   3.304
 8426SOL    HW226178   4.019   3.769   3.440
 8427SOL     OW26179   2.184   4.050   6.890
 8427SOL    HW126180   2.232   4.130   6.854
 8427SOL    HW226181   2.117   4.018   6.823
 8428SOL     OW26182   6.600   4.147   2.324
 8428SOL    HW126183   6.671   4.215   2.339
 8428SOL    HW226184   6.524   4.164   2.387
 8429SOL     OW26185   2.209   6.287   3.047
 8429SOL    HW126186   2.306   6.315   3.045
 8429SOL    HW226187   2.155   6.356   2.999
 8430SOL     OW26188   4.244   4.678   2.965
 8430SOL    HW126189   4.185   4.750   3.002
 8430SOL    HW226190   4.188   4.613   2.914
 8431SOL     OW26191   3.409   4.645   1.322
 8431SOL    HW126192   3.349   4.600   1.389
 8431SOL    HW226193   3.409   4.744   1.339
 8432SOL     OW26194   3.979   6.928   6.903
 8432SOL    HW126195   3.889   6.897   6.873
 8432SOL    HW226196   4.006   7.009   6.851
 8433SOL     OW26197   1.293   2.328   6.160
 8433SOL    HW126198   1.344   2.242   6.164
 8433SOL    HW226199   1.244   2.334   6.073
 8434SOL     OW26200   5.401   0.223   5.372
 8434SOL    HW126201   5.397   0.266   5.462
 8434SOL    HW226202   5.434   0.289   5.304
 8435SOL     OW26203   4.238   1.638   1.425
 8435SOL    HW126204   4.258   1.549   1.385
 8435SOL    HW226205   4.143   1.638   1.459
 8436SOL     OW26206   4.209   4.335   1.630
 8436SOL    HW126207   4.123   4.289   1.651
 8436SOL    HW226208   4.278   4.308   1.697
 8437SOL     OW26209   0.310   1.158   1.328
 8437SOL    HW126210   0.409   1.147   1.341
 8437SOL    HW226211   0.264   1.155   1.416
 8438SOL     OW26212   1.367   5.960   1.860
 8438SOL    HW126213   1.391   6.022   1.934
 8438SOL    HW226214   1.435   5.965   1.788
 8439SOL     OW26215   6.998   5.387   2.539
 8439SOL    HW126216   0.056   5.446   2.533
 8439SOL    HW226217   0.003   5.291   2.538
 8440SOL     OW26218   0.938   0.851   2.376
 8440SOL    HW126219   0.927   0.762   2.419
 8440SOL    HW226220   0.990   0.841   2.291
 8441SOL     OW26221   4.384   5.555   6.664
 8441SOL    HW126222   4.400   5.488   6.592
 8441SOL    HW226223   4.360   5.643   6.623
 8442SOL     OW26224   2.496   4.670   6.847
 8442SOL    HW126225   2.435   4.750   6.840
 8442SOL    HW226226   2.580   4.696   6.894
 8443SOL     OW26227   1.702   0.287   3.226
 8443SOL    HW126228   1.781   0.335   3.189
 8443SOL    HW226229   1.704   0.191   3.196
 8444SOL     OW26230   3.691   6.152   3.415
 8444SOL    HW126231   3.786   6.120   3.409
 8444SOL    HW226232   3.690   6.245   3.452
 8445SOL     OW26233   4.006   5.062   2.857
 8445SOL    HW126234   3.946   4.982   2.844
 8445SOL    HW226235   4.073   5.065   2.782
 8446SOL     OW26236   5.741   4.471   2.378
 8446SOL    HW126237   5.817   4.489   2.440
 8446SOL    HW226238   5.673   4.544   2.386
 8447SOL     OW26239   4.358   2.393   2.380
 8447SOL    HW126240   4.416   2.468   2.413
 8447SOL    HW226241   4.364   2.387   2.280
 8448SOL     OW26242   0.834   3.558   6.529
 8448SOL    HW126243   0.910   3.509   6.572
 8448SOL    HW226244   0.836   3.654   6.559
 8449SOL     OW26245   1.726   3.018   4.592
 8449SOL    HW126246   1.794   3.058   4.530
 8449SOL    HW226247   1.719   2.920   4.576
 8450SOL     OW26248   2.022   5.312   2.542
 8450SOL    HW126249   2.066   5.260   2.469
 8450SOL    HW226250   2.063   5.288   2.630
 8451SOL     OW26251   3.607   2.298   1.216
 8451SOL    HW126252   3.637   2.317   1.310
 8451SOL    HW226253   3.610   2.383   1.163
 8452SOL     OW26254   6.365   6.075   0.515
 8452SOL    HW126255   6.392   5.985   0.549
 8452SOL    HW226256   6.421   6.100   0.436
 8453SOL     OW26257   6.324   3.922   6.346
 8453SOL    HW126258   6.273   3.836   6.341
 8453SOL    HW226259   6.367   3.930   6.436
 8454SOL     OW26260   1.753   0.069   4.352
 8454SOL    HW126261   1.821   0.136   4.383
 8454SOL    HW226262   1.766   7.007   4.403
 8455SOL     OW26263   5.173   1.266   1.017
 8455SOL    HW126264   5.240   1.305   0.954
 8455SOL    HW226265   5.162   1.169   0.998
 8456SOL     OW26266   5.510   5.707   3.149
 8456SOL    HW126267   5.525   5.659   3.235
 8456SOL    HW226268   5.597   5.716   3.100
 8457SOL     OW26269   0.031   5.642   5.976
 8457SOL    HW126270   7.021   5.593   6.056
 8457SOL    HW226271   0.120   5.682   5.996
 8458SOL     OW26272   1.245   1.723   0.570
 8458SOL    HW126273   1.316   1.687   0.509
 8458SOL    HW226274   1.192   1.648   0.608
 8459SOL     OW26275   3.436   5.629   2.233
 8459SOL    HW126276   3.510   5.605   2.296
 8459SOL    HW226277   3.391   5.712   2.265
 8460SOL     OW26278   4.571   1.409   0.650
 8460SOL    HW126279   4.547   1.318   0.685
 8460SOL    HW226280   4.501   1.439   0.584
 8461SOL     OW26281   6.217   3.928   1.664
 8461SOL    HW126282   6.130   3.927   1.714
 8461SOL    HW226283   6.261   4.017   1.675
 8462SOL     OW26284   3.232   4.933   6.842
 8462SOL    HW126285   3.325   4.896   6.836
 8462SOL    HW226286   3.224   5.014   6.785
 8463SOL     OW26287   6.734   1.680   0.402
 8463SOL    HW126288   6.734   1.735   0.486
 8463SOL    HW226289   6.780   1.731   0.329
 8464SOL     OW26290   0.298   3.609   0.002
 8464SOL    HW126291   0.293   3.542   6.951
 8464SOL    HW226292   0.220   3.671   7.020
 8465SOL     OW26293   4.196   3.230   1.428
 8465SOL    HW126294   4.271   3.275   1.475
 8465SOL    HW226295   4.114   3.234   1.484
 8466SOL     OW26296   6.012   1.062   5.882
 8466SOL    HW126297   6.048   0.970   5.875
 8466SOL    HW226298   5.977   1.077   5.975
 8467SOL     OW26299   3.427   1.021   1.302
 8467SOL    HW126300   3.386   0.936   1.268
 8467SOL    HW226301   3.371   1.099   1.274
 8468SOL     OW26302   6.090   3.288   6.887
 8468SOL    HW126303   6.062   3.383   6.872
 8468SOL    HW226304   6.011   3.236   6.921
 8469SOL     OW26305   4.045   3.006   5.870
 8469SOL    HW126306   4.028   3.090   5.817
 8469SOL    HW226307   3.983   3.003   5.949
 8470SOL     OW26308   1.432   5.163   1.474
 8470SOL    HW126309   1.453   5.122   1.562
 8470SOL    HW226310   1.491   5.124   1.404
 8471SOL     OW26311   3.699   2.120   5.122
 8471SOL    HW126312   3.797   2.129   5.106
 8471SOL    HW226313   3.654   2.093   5.037
 8472SOL     OW26314   5.633   1.589   5.910
 8472SOL    HW126315   5.719   1.579   5.862
 8472SOL    HW226316   5.637   1.671   5.968
 8473SOL     OW26317   4.605   4.665   6.177
 8473SOL    HW126318   4.680   4.626   6.123
 8473SOL    HW226319   4.576   4.750   6.135
 8474SOL     OW26320   3.764   3.722   2.798
 8474SOL    HW126321   3.816   3.808   2.800
 8474SOL    HW226322   3.667   3.742   2.809
 8475SOL     OW26323   6.696   2.779   1.795
 8475SOL    HW126324   6.649   2.848   1.849
 8475SOL    HW226325   6.664   2.688   1.822
 8476SOL     OW26326   6.071   6.907   1.872
 8476SOL    HW126327   6.047   6.870   1.962
 8476SOL    HW226328   5.988   6.919   1.818
 8477SOL     OW26329   6.038   6.432   1.504
 8477SOL    HW126330   5.999   6.436   1.595
 8477SOL    HW226331   5.977   6.383   1.442
 8478SOL     OW26332   6.472   0.127   5.096
 8478SOL    HW126333   6.390   0.091   5.051
 8478SOL    HW226334   6.553   0.093   5.048
 8479SOL     OW26335   0.823   2.755   1.654
 8479SOL    HW126336   0.738   2.775   1.703
 8479SOL    HW226337   0.863   2.841   1.621
 8480SOL     OW26338   4.938   4.385   0.169
 8480SOL    HW126339   4.973   4.345   0.253
 8480SOL    HW226340   4.971   4.332   0.090
 8481SOL     OW26341   3.769   2.025   3.704
 8481SOL    HW126342   3.857   1.976   3.711
 8481SOL    HW226343   3.765   2.074   3.617
 8482SOL     OW26344   4.498   1.259   6.917
 8482SOL    HW126345   4.531   1.350   6.893
 8482SOL    HW226346   4.404   1.265   6.948
 8483SOL     OW26347   3.034   5.489   3.249
 8483SOL    HW126348   3.131   5.513   3.244
 8483SOL    HW226349   3.017   5.435   3.332
 8484SOL     OW26350   5.971   6.178   3.901
 8484SOL    HW126351   6.045   6.207   3.962
 8484SOL    HW226352   6.006   6.166   3.809
 8485SOL     OW26353   2.799   2.445   0.494
 8485SOL    HW126354   2.874   2.455   0.429
 8485SOL    HW226355   2.723   2.502   0.466
 8486SOL     OW26356   1.237   0.955   2.482
 8486SOL    HW126357   1.309   0.970   2.413
 8486SOL    HW226358   1.150   0.939   2.435
 8487SOL     OW26359   6.354   1.810   5.797
 8487SOL    HW126360   6.258   1.783   5.782
 8487SOL    HW226361   6.407   1.730   5.825
 8488SOL     OW26362   5.112   4.624   1.647
 8488SOL    HW126363   5.115   4.709   1.699
 8488SOL    HW226364   5.103   4.547   1.709
 8489SOL     OW26365   4.917   1.090   1.411
 8489SOL    HW126366   4.996   1.118   1.356
 8489SOL    HW226367   4.833   1.116   1.364
 8490SOL     OW26368   2.029   0.627   7.022
 8490SOL    HW126369   2.045   0.708   6.966
 8490SOL    HW226370   1.931   0.620   0.019
 8491SOL     OW26371   3.342   5.771   2.466
 8491SOL    HW126372   3.436   5.789   2.495
 8491SOL    HW226373   3.310   5.687   2.509
 8492SOL     OW26374   5.939   5.875   4.330
 8492SOL    HW126375   5.879   5.866   4.409
 8492SOL    HW226376   5.903   5.945   4.268
 8493SOL     OW26377   3.861   0.417   6.917
 8493SOL    HW126378   3.955   0.402   6.885
 8493SOL    HW226379   3.862   0.484   6.992
 8494SOL     OW26380   5.891   5.057   2.595
 8494SOL    HW126381   5.908   5.025   2.501
 8494SOL    HW226382   5.796   5.084   2.605
 8495SOL     OW26383   6.476   5.747   0.162
 8495SOL    HW126384   6.418   5.763   0.242
 8495SOL    HW226385   6.506   5.652   0.162
 8496SOL     OW26386   5.252   2.221   2.786
 8496SOL    HW126387   5.252   2.305   2.841
 8496SOL    HW226388   5.290   2.240   2.696
 8497SOL     OW26389   6.203   1.099   3.642
 8497SOL    HW126390   6.299   1.070   3.650
 8497SOL    HW226391   6.149   1.054   3.712
 8498SOL     OW26392   4.926   0.477   4.213
 8498SOL    HW126393   4.885   0.536   4.283
 8498SOL    HW226394   4.855   0.445   4.151
 8499SOL     OW26395   6.231   6.657   6.297
 8499SOL    HW126396   6.220   6.561   6.323
 8499SOL    HW226397   6.318   6.691   6.333
 8500SOL     OW26398   1.608   0.707   5.014
 8500SOL    HW126399   1.515   0.707   5.052
 8500SOL    HW226400   1.625   0.795   4.969
 8501SOL     OW26401   0.867   1.780   6.103
 8501SOL    HW126402   0.942   1.731   6.148
 8501SOL    HW226403   0.867   1.875   6.132
 8502SOL     OW26404   0.387   2.812   0.031
 8502SOL    HW126405   0.456   2.885   0.039
 8502SOL    HW226406   0.343   2.819   6.966
 8503SOL     OW26407   5.875   6.625   4.270
 8503SOL    HW126408   5.777   6.608   4.275
 8503SOL    HW226409   5.923   6.561   4.329
 8504SOL     OW26410   1.642   5.016   3.007
 8504SOL    HW126411   1.686   4.926   3.005
 8504SOL    HW226412   1.655   5.058   3.097
 8505SOL     OW26413   5.269   2.703   2.862
 8505SOL    HW126414   5.316   2.791   2.871
 8505SOL    HW226415   5.285   2.665   2.771
 8506SOL     OW26416   2.281   6.956   0.161
 8506SOL    HW126417   2.381   6.945   0.159
 8506SOL    HW226418   2.255   6.998   0.248
 8507SOL     OW26419   4.522   5.842   5.632
 8507SOL    HW126420   4.482   5.750   5.631
 8507SOL    HW226421   4.453   5.909   5.606
 8508SOL     OW26422   3.442   1.807   6.822
 8508SOL    HW126423   3.436   1.750   6.904
 8508SOL    HW226424   3.400   1.896   6.840
 8509SOL     OW26425   5.215   0.628   3.787
 8509SOL    HW126426   5.148   0.573   3.837
 8509SOL    HW226427   5.268   0.684   3.851
 8510SOL     OW26428   6.396   1.827   4.367
 8510SOL    HW126429   6.430   1.804   4.458
 8510SOL    HW226430   6.301   1.858   4.374
 8511SOL     OW26431   6.168   2.763   2.104
 8511SOL    HW126432   6.189   2.704   2.182
 8511SOL    HW226433   6.154   2.707   2.023
 8512SOL     OW26434   1.631   6.729   4.716
 8512SOL    HW126435   1.597   6.663   4.783
 8512SOL    HW226436   1.562   6.744   4.646
 8513SOL     OW26437   5.613   5.852   6.326
 8513SOL    HW126438   5.606   5.765   6.374
 8513SOL    HW226439   5.601   5.927   6.391
 8514SOL     OW26440   2.081   5.826   4.153
 8514SOL    HW126441   2.109   5.921   4.151
 8514SOL    HW226442   2.037   5.806   4.240
 8515SOL     OW26443   4.949   1.979   1.490
 8515SOL    HW126444   4.917   2.011   1.579
 8515SOL    HW226445   4.947   1.879   1.488
 8516SOL     OW26446   6.804   2.217   2.154
 8516SOL    HW126447   6.787   2.275   2.074
 8516SOL    HW226448   6.861   2.266   2.219
 8517SOL     OW26449   2.627   2.256   6.381
 8517SOL    HW126450   2.696   2.302   6.438
 8517SOL    HW226451   2.582   2.322   6.322
 8518SOL     OW26452   3.443   5.753   0.725
 8518SOL    HW126453   3.415   5.721   0.816
 8518SOL    HW226454   3.414   5.848   0.712
 8519SOL     OW26455   0.869   5.733   2.901
 8519SOL    HW126456   0.863   5.809   2.966
 8519SOL    HW226457   0.783   5.683   2.900
 8520SOL     OW26458   3.803   1.006   0.118
 8520SOL    HW126459   3.754   0.921   0.137
 8520SOL    HW226460   3.831   1.008   0.022
 8521SOL     OW26461   1.266   6.173   6.229
 8521SOL    HW126462   1.243   6.191   6.133
 8521SOL    HW226463   1.361   6.143   6.235
 8522SOL     OW26464   1.213   5.891   5.278
 8522SOL    HW126465   1.305   5.926   5.260
 8522SOL    HW226466   1.198   5.807   5.226
 8523SOL     OW26467   1.453   6.928   6.981
 8523SOL    HW126468   1.370   6.941   0.011
 8523SOL    HW226469   1.528   6.981   7.021
 8524SOL     OW26470   1.239   3.021   6.352
 8524SOL    HW126471   1.328   2.985   6.321
 8524SOL    HW226472   1.235   3.119   6.332
 8525SOL     OW26473   5.992   3.301   3.140
 8525SOL    HW126474   6.073   3.246   3.121
 8525SOL    HW226475   5.942   3.262   3.217
 8526SOL     OW26476   2.279   2.942   2.581
 8526SOL    HW126477   2.257   2.992   2.497
 8526SOL    HW226478   2.365   2.893   2.569
 8527SOL     OW26479   4.390   0.602   4.461
 8527SOL    HW126480   4.325   0.609   4.385
 8527SOL    HW226481   4.481   0.628   4.429
 8528SOL     OW26482   4.843   2.528   6.530
 8528SOL    HW126483   4.831   2.541   6.628
 8528SOL    HW226484   4.874   2.613   6.488
 8529SOL     OW26485   0.548   4.483   0.345
 8529SOL    HW126486   0.627   4.425   0.327
 8529SOL    HW226487   0.530   4.541   0.266
 8530SOL     OW26488   1.893   3.493   5.491
 8530SOL    HW126489   1.957   3.568   5.471
 8530SOL    HW226490   1.871   3.445   5.406
 8531SOL     OW26491   4.648   4.698   2.607
 8531SOL    HW126492   4.722   4.728   2.668
 8531SOL    HW226493   4.575   4.656   2.662
 8532SOL     OW26494   2.666   3.823   6.299
 8532SOL    HW126495   2.567   3.825   6.310
 8532SOL    HW226496   2.689   3.836   6.202
 8533SOL     OW26497   3.504   0.602   5.070
 8533SOL    HW126498   3.504   0.560   4.979
 8533SOL    HW226499   3.437   0.556   5.128
 8534SOL     OW26500   1.490   2.826   3.144
 8534SOL    HW126501   1.507   2.921   3.117
 8534SOL    HW226502   1.402   2.820   3.192
 8535SOL     OW26503   0.521   2.297   4.818
 8535SOL    HW126504   0.466   2.327   4.741
 8535SOL    HW226505   0.521   2.197   4.824
 8536SOL     OW26506   0.307   1.553   5.994
 8536SOL    HW126507   0.367   1.484   6.035
 8536SOL    HW226508   0.358   1.639   5.982
 8537SOL     OW26509   5.617   0.370   2.261
 8537SOL    HW126510   5.552   0.301   2.293
 8537SOL    HW226511   5.568   0.455   2.240
 8538SOL     OW26512   5.888   1.207   4.600
 8538SOL    HW126513   5.801   1.209   4.649
 8538SOL    HW226514   5.962   1.232   4.663
 8539SOL     OW26515   6.973   3.468   1.978
 8539SOL    HW126516   0.028   3.416   1.942
 8539SOL    HW226517   6.888   3.431   1.940
 8540SOL     OW26518   4.596   0.037   0.055
 8540SOL    HW126519   4.638   0.064   0.142
 8540SOL    HW226520   4.506   0.081   0.046
 8541SOL     OW26521   3.027   0.626   5.220
 8541SOL    HW126522   3.085   0.682   5.280
 8541SOL    HW226523   3.082   0.590   5.144
 8542SOL     OW26524   1.735   4.463   6.769
 8542SOL    HW126525   1.812   4.400   6.761
 8542SOL    HW226526   1.684   4.444   6.852
 8543SOL     OW26527   2.377   2.064   6.437
 8543SOL    HW126528   2.294   2.069   6.492
 8543SOL    HW226529   2.426   2.151   6.442
 8544SOL     OW26530   5.473   4.051   5.514
 8544SOL    HW126531   5.401   4.097   5.565
 8544SOL    HW226532   5.436   3.971   5.466
 8545SOL     OW26533   3.137   0.693   6.494
 8545SOL    HW126534   3.091   0.613   6.533
 8545SOL    HW226535   3.094   0.718   6.408
 8546SOL     OW26536   5.586   0.230   1.349
 8546SOL    HW126537   5.623   0.221   1.442
 8546SOL    HW226538   5.575   0.327   1.327
 8547SOL     OW26539   5.918   6.344   5.386
 8547SOL    HW126540   5.912   6.269   5.452
 8547SOL    HW226541   6.006   6.390   5.396
 8548SOL     OW26542   0.198   3.019   5.943
 8548SOL    HW126543   0.111   3.031   5.894
 8548SOL    HW226544   0.266   3.081   5.905
 8549SOL     OW26545   1.956   0.320   3.111
 8549SOL    HW126546   2.022   0.279   3.175
 8549SOL    HW226547   1.964   0.275   3.023
 8550SOL     OW26548   6.789   4.285   6.391
 8550SOL    HW126549   6.752   4.241   6.309
 8550SOL    HW226550   6.767   4.382   6.389
 8551SOL     OW26551   1.867   1.298   6.593
 8551SOL    HW126552   1.778   1.340   6.575
 8551SOL    HW226553   1.898   1.249   6.511
 8552SOL     OW26554   2.687   2.116   2.905
 8552SOL    HW126555   2.594   2.103   2.871
 8552SOL    HW226556   2.692   2.086   3.001
 8553SOL     OW26557   5.085   3.304   6.845
 8553SOL    HW126558   5.072   3.220   6.792
 8553SOL    HW226559   5.075   3.283   6.942
 8554SOL     OW26560   1.398   0.635   0.928
 8554SOL    HW126561   1.348   0.550   0.945
 8554SOL    HW226562   1.496   0.616   0.926
 8555SOL     OW26563   4.528   1.358   3.983
 8555SOL    HW126564   4.606   1.420   3.969
 8555SOL    HW226565   4.459   1.374   3.912
 8556SOL     OW26566   2.093   6.203   0.569
 8556SOL    HW126567   2.116   6.298   0.546
 8556SOL    HW226568   2.032   6.165   0.500
 8557SOL     OW26569   0.084   0.515   0.698
 8557SOL    HW126570   0.032   0.501   0.614
 8557SOL    HW226571   0.154   0.444   0.706
 8558SOL     OW26572   2.968   5.662   4.296
 8558SOL    HW126573   2.928   5.747   4.330
 8558SOL    HW226574   2.952   5.655   4.197
 8559SOL     OW26575   1.126   5.372   2.651
 8559SOL    HW126576   1.209   5.327   2.683
 8559SOL    HW226577   1.134   5.471   2.665
 8560SOL     OW26578   3.026   4.452   1.664
 8560SOL    HW126579   3.005   4.355   1.649
 8560SOL    HW226580   2.968   4.487   1.738
 8561SOL     OW26581   4.615   6.914   2.292
 8561SOL    HW126582   4.673   6.945   2.368
 8561SOL    HW226583   4.581   6.994   2.242
 8562SOL     OW26584   4.717   1.914   6.848
 8562SOL    HW126585   4.737   1.879   6.756
 8562SOL    HW226586   4.802   1.940   6.892
 8563SOL     OW26587   2.340   4.763   2.100
 8563SOL    HW126588   2.425   4.710   2.096
 8563SOL    HW226589   2.262   4.701   2.100
 8564SOL     OW26590   4.579   0.326   6.831
 8564SOL    HW126591   4.643   0.387   6.784
 8564SOL    HW226592   4.607   0.316   6.926
 8565SOL     OW26593   2.363   5.160   1.072
 8565SOL    HW126594   2.277   5.152   1.020
 8565SOL    HW226595   2.368   5.087   1.140
 8566SOL     OW26596   3.354   0.998   2.671
 8566SOL    HW126597   3.365   1.081   2.617
 8566SOL    HW226598   3.344   1.022   2.768
 8567SOL     OW26599   2.314   2.588   1.500
 8567SOL    HW126600   2.411   2.593   1.521
 8567SOL    HW226601   2.287   2.669   1.448
 8568SOL     OW26602   6.507   0.520   6.495
 8568SOL    HW126603   6.563   0.597   6.463
 8568SOL    HW226604   6.412   0.549   6.503
 8569SOL     OW26605   4.469   2.348   6.130
 8569SOL    HW126606   4.564   2.318   6.125
 8569SOL    HW226607   4.456   2.429   6.073
 8570SOL     OW26608   1.591   2.525   3.472
 8570SOL    HW126609   1.653   2.453   3.442
 8570SOL    HW226610   1.601   2.605   3.412
 8571SOL     OW26611   1.728   0.567   3.023
 8571SOL    HW126612   1.708   0.665   3.023
 8571SOL    HW226613   1.822   0.552   2.991
 8572SOL     OW26614   2.851   4.164   5.651
 8572SOL    HW126615   2.826   4.116   5.567
 8572SOL    HW226616   2.939   4.209   5.638
 8573SOL     OW26617   3.719   6.145   0.641
 8573SOL    HW126618   3.748   6.187   0.727
 8573SOL    HW226619   3.774   6.062   0.625
 8574SOL     OW26620   5.239   0.582   4.940
 8574SOL    HW126621   5.304   0.559   4.868
 8574SOL    HW226622   5.281   0.647   5.003
 8575SOL     OW26623   3.140   6.390   3.473
 8575SOL    HW126624   3.181   6.307   3.437
 8575SOL    HW226625   3.040   6.381   3.470
 8576SOL     OW26626   0.985   4.809   3.315
 8576SOL    HW126627   1.026   4.850   3.395
 8576SOL    HW226628   1.044   4.823   3.235
 8577SOL     OW26629   1.689   1.765   0.521
 8577SOL    HW126630   1.638   1.847   0.496
 8577SOL    HW226631   1.636   1.711   0.587
 8578SOL     OW26632   0.079   6.716   5.927
 8578SOL    HW126633   0.048   6.806   5.959
 8578SOL    HW226634   0.036   6.697   5.838
 8579SOL     OW26635   3.363   6.345   2.745
 8579SOL    HW126636   3.388   6.258   2.701
 8579SOL    HW226637   3.269   6.339   2.778
 8580SOL     OW26638   2.706   0.982   1.644
 8580SOL    HW126639   2.753   0.903   1.604
 8580SOL    HW226640   2.627   0.950   1.698
 8581SOL     OW26641   3.076   5.032   1.541
 8581SOL    HW126642   3.024   5.109   1.505
 8581SOL    HW226643   3.142   5.065   1.608
 8582SOL     OW26644   4.021   4.435   5.912
 8582SOL    HW126645   4.050   4.460   6.004
 8582SOL    HW226646   3.957   4.359   5.916
 8583SOL     OW26647   4.546   0.564   2.677
 8583SOL    HW126648   4.481   0.598   2.745
 8583SOL    HW226649   4.557   0.633   2.605
 8584SOL     OW26650   6.587   1.454   4.543
 8584SOL    HW126651   6.570   1.528   4.609
 8584SOL    HW226652   6.523   1.462   4.467
 8585SOL     OW26653   5.274   2.214   2.474
 8585SOL    HW126654   5.217   2.294   2.493
 8585SOL    HW226655   5.286   2.204   2.375
 8586SOL     OW26656   6.095   5.492   0.892
 8586SOL    HW126657   6.171   5.517   0.833
 8586SOL    HW226658   6.009   5.526   0.853
 8587SOL     OW26659   1.277   1.515   6.894
 8587SOL    HW126660   1.248   1.535   6.988
 8587SOL    HW226661   1.320   1.597   6.855
 8588SOL     OW26662   2.326   1.511   6.931
 8588SOL    HW126663   2.289   1.602   6.952
 8588SOL    HW226664   2.332   1.500   6.832
 8589SOL     OW26665   6.676   2.881   6.570
 8589SOL    HW126666   6.593   2.842   6.532
 8589SOL    HW226667   6.670   2.981   6.569
 8590SOL     OW26668   1.538   1.072   3.520
 8590SOL    HW126669   1.535   1.093   3.422
 8590SOL    HW226670   1.630   1.091   3.556
 8591SOL     OW26671   6.396   4.262   6.866
 8591SOL    HW126672   6.301   4.249   6.837
 8591SOL    HW226673   6.416   4.200   6.941
 8592SOL     OW26674   1.367   1.616   6.295
 8592SOL    HW126675   1.433   1.675   6.249
 8592SOL    HW226676   1.404   1.524   6.303
 8593SOL     OW26677   3.672   1.309   0.239
 8593SOL    HW126678   3.708   1.290   0.147
 8593SOL    HW226679   3.747   1.304   0.305
 8594SOL     OW26680   6.396   2.868   5.631
 8594SOL    HW126681   6.493   2.871   5.605
 8594SOL    HW226682   6.352   2.953   5.604
 8595SOL     OW26683   6.469   6.303   2.055
 8595SOL    HW126684   6.536   6.250   2.004
 8595SOL    HW226685   6.428   6.246   2.127
 8596SOL     OW26686   1.168   1.247   3.843
 8596SOL    HW126687   1.123   1.335   3.858
 8596SOL    HW226688   1.101   1.173   3.851
 8597SOL     OW26689   5.695   3.304   0.118
 8597SOL    HW126690   5.613   3.301   0.060
 8597SOL    HW226691   5.749   3.385   0.097
 8598SOL     OW26692   6.080   6.773   4.352
 8598SOL    HW126693   6.031   6.709   4.293
 8598SOL    HW226694   6.111   6.852   4.298
 8599SOL     OW26695   0.553   3.286   3.932
 8599SOL    HW126696   0.488   3.232   3.985
 8599SOL    HW226697   0.647   3.260   3.956
 8600SOL     OW26698   4.174   2.246   1.400
 8600SOL    HW126699   4.193   2.341   1.424
 8600SOL    HW226700   4.248   2.188   1.434
 8601SOL     OW26701   1.137   6.655   3.033
 8601SOL    HW126702   1.073   6.731   3.020
 8601SOL    HW226703   1.102   6.574   2.986
 8602SOL     OW26704   2.127   6.759   5.036
 8602SOL    HW126705   2.103   6.665   5.062
 8602SOL    HW226706   2.225   6.765   5.018
 8603SOL     OW26707   6.873   0.486   0.884
 8603SOL    HW126708   6.947   0.466   0.948
 8603SOL    HW226709   6.880   0.426   0.805
 8604SOL     OW26710   0.301   4.038   6.485
 8604SOL    HW126711   0.331   4.106   6.418
 8604SOL    HW226712   0.322   4.070   6.577
 8605SOL     OW26713   6.896   5.518   4.362
 8605SOL    HW126714   6.866   5.432   4.322
 8605SOL    HW226715   6.996   5.519   4.369
 8606SOL     OW26716   1.658   2.418   0.205
 8606SOL    HW126717   1.595   2.343   0.185
 8606SOL    HW226718   1.706   2.445   0.121
 8607SOL     OW26719   2.441   4.290   1.378
 8607SOL    HW126720   2.491   4.323   1.298
 8607SOL    HW226721   2.404   4.368   1.428
 8608SOL     OW26722   2.157   5.241   2.783
 8608SOL    HW126723   2.253   5.212   2.775
 8608SOL    HW226724   2.130   5.240   2.879
 8609SOL     OW26725   4.934   1.494   3.789
 8609SOL    HW126726   4.959   1.458   3.699
 8609SOL    HW226727   4.937   1.420   3.856
 8610SOL     OW26728   0.556   6.386   2.800
 8610SOL    HW126729   0.531   6.466   2.855
 8610SOL    HW226730   0.502   6.385   2.716
 8611SOL     OW26731   2.986   1.086   4.507
 8611SOL    HW126732   2.898   1.050   4.474
 8611SOL    HW226733   2.970   1.141   4.589
 8612SOL     OW26734   3.752   3.904   3.792
 8612SOL    HW126735   3.840   3.951   3.784
 8612SOL    HW226736   3.755   3.819   3.738
 8613SOL     OW26737   3.482   2.578   1.501
 8613SOL    HW126738   3.560   2.520   1.524
 8613SOL    HW226739   3.428   2.596   1.583
 8614SOL     OW26740   1.447   2.440   2.991
 8614SOL    HW126741   1.402   2.379   2.925
 8614SOL    HW226742   1.544   2.449   2.966
 8615SOL     OW26743   4.129   1.199   4.025
 8615SOL    HW126744   4.218   1.201   4.070
 8615SOL    HW226745   4.074   1.277   4.057
 8616SOL     OW26746   4.621   4.430   2.839
 8616SOL    HW126747   4.642   4.341   2.798
 8616SOL    HW226748   4.546   4.473   2.790
 8617SOL     OW26749   3.464   0.263   3.763
 8617SOL    HW126750   3.535   0.193   3.757
 8617SOL    HW226751   3.419   0.257   3.852
 8618SOL     OW26752   5.527   4.731   0.613
 8618SOL    HW126753   5.571   4.684   0.689
 8618SOL    HW226754   5.465   4.668   0.566
 8619SOL     OW26755   5.063   4.478   0.605
 8619SOL    HW126756   5.020   4.563   0.575
 8619SOL    HW226757   5.076   4.480   0.705
 8620SOL     OW26758   2.001   0.014   4.583
 8620SOL    HW126759   1.985   0.109   4.557
 8620SOL    HW226760   2.069   0.011   4.657
 8621SOL     OW26761   5.225   2.581   1.524
 8621SOL    HW126762   5.214   2.615   1.617
 8621SOL    HW226763   5.321   2.562   1.506
 8622SOL     OW26764   6.594   4.724   2.716
 8622SOL    HW126765   6.633   4.738   2.807
 8622SOL    HW226766   6.667   4.724   2.648
 8623SOL     OW26767   0.622   3.593   4.326
 8623SOL    HW126768   0.701   3.547   4.284
 8623SOL    HW226769   0.584   3.660   4.261
 8624SOL     OW26770   2.896   4.109   5.325
 8624SOL    HW126771   2.933   4.017   5.311
 8624SOL    HW226772   2.796   4.104   5.332
 8625SOL     OW26773   3.984   2.346   5.600
 8625SOL    HW126774   3.892   2.372   5.629
 8625SOL    HW226775   3.992   2.247   5.598
 8626SOL     OW26776   4.075   4.188   0.719
 8626SOL    HW126777   4.077   4.172   0.620
 8626SOL    HW226778   4.077   4.100   0.767
 8627SOL     OW26779   1.868   0.475   2.350
 8627SOL    HW126780   1.772   0.448   2.353
 8627SOL    HW226781   1.903   0.467   2.257
 8628SOL     OW26782   0.863   6.347   0.719
 8628SOL    HW126783   0.905   6.428   0.760
 8628SOL    HW226784   0.793   6.310   0.781
 8629SOL     OW26785   6.731   6.861   4.743
 8629SOL    HW126786   6.806   6.908   4.696
 8629SOL    HW226787   6.749   6.763   4.743
 8630SOL     OW26788   5.135   2.935   2.378
 8630SOL    HW126789   5.149   2.837   2.365
 8630SOL    HW226790   5.051   2.963   2.331
 8631SOL     OW26791   2.877   6.869   0.260
 8631SOL    HW126792   2.942   6.871   0.183
 8631SOL    HW226793   2.888   6.784   0.311
 8632SOL     OW26794   5.335   4.737   5.906
 8632SOL    HW126795   5.364   4.832   5.889
 8632SOL    HW226796   5.415   4.682   5.930
 8633SOL     OW26797   5.449   4.023   6.518
 8633SOL    HW126798   5.447   4.082   6.599
 8633SOL    HW226799   5.470   3.929   6.545
 8634SOL     OW26800   4.793   3.686   0.265
 8634SOL    HW126801   4.816   3.707   0.360
 8634SOL    HW226802   4.722   3.748   0.232
 8635SOL     OW26803   5.671   2.257   6.303
 8635SOL    HW126804   5.591   2.196   6.305
 8635SOL    HW226805   5.646   2.341   6.255
 8636SOL     OW26806   5.325   6.278   1.349
 8636SOL    HW126807   5.370   6.360   1.315
 8636SOL    HW226808   5.255   6.249   1.283
 8637SOL     OW26809   1.124   1.953   0.075
 8637SOL    HW126810   1.067   2.027   0.109
 8637SOL    HW226811   1.088   1.865   0.109
 8638SOL     OW26812   4.881   2.522   4.794
 8638SOL    HW126813   4.913   2.519   4.889
 8638SOL    HW226814   4.931   2.454   4.740
 8639SOL     OW26815   3.503   4.029   6.632
 8639SOL    HW126816   3.514   3.952   6.696
 8639SOL    HW226817   3.591   4.048   6.589
 8640SOL     OW26818   2.633   3.734   1.224
 8640SOL    HW126819   2.670   3.692   1.141
 8640SOL    HW226820   2.708   3.774   1.277
 8641SOL     OW26821   4.469   6.341   2.347
 8641SOL    HW126822   4.490   6.280   2.424
 8641SOL    HW226823   4.553   6.364   2.299
 8642SOL     OW26824   0.945   5.636   3.915
 8642SOL    HW126825   0.949   5.704   3.842
 8642SOL    HW226826   0.953   5.545   3.876
 8643SOL     OW26827   4.125   6.155   0.856
 8643SOL    HW126828   4.173   6.176   0.771
 8643SOL    HW226829   4.186   6.175   0.934
 8644SOL     OW26830   6.481   1.700   6.966
 8644SOL    HW126831   6.433   1.690   0.029
 8644SOL    HW226832   6.574   1.733   6.983
 8645SOL     OW26833   6.008   3.671   2.260
 8645SOL    HW126834   5.980   3.576   2.277
 8645SOL    HW226835   6.078   3.673   2.189
 8646SOL     OW26836   0.460   2.063   4.995
 8646SOL    HW126837   0.367   2.080   5.029
 8646SOL    HW226838   0.524   2.067   5.071
 8647SOL     OW26839   2.563   5.180   2.043
 8647SOL    HW126840   2.592   5.137   1.958
 8647SOL    HW226841   2.523   5.270   2.024
 8648SOL     OW26842   5.296   5.404   0.425
 8648SOL    HW126843   5.266   5.495   0.396
 8648SOL    HW226844   5.219   5.356   0.467
 8649SOL     OW26845   4.048   0.283   1.387
 8649SOL    HW126846   4.056   0.257   1.483
 8649SOL    HW226847   4.077   0.378   1.376
 8650SOL     OW26848   1.876   6.785   4.629
 8650SOL    HW126849   1.901   6.881   4.613
 8650SOL    HW226850   1.783   6.780   4.664
 8651SOL     OW26851   3.543   1.790   0.638
 8651SOL    HW126852   3.565   1.883   0.608
 8651SOL    HW226853   3.580   1.775   0.730
 8652SOL     OW26854   1.034   3.423   3.517
 8652SOL    HW126855   0.946   3.460   3.489
 8652SOL    HW226856   1.105   3.493   3.505
 8653SOL     OW26857   0.009   1.568   6.050
 8653SOL    HW126858   0.109   1.562   6.042
 8653SOL    HW226859   6.999   1.638   5.987
 8654SOL     OW26860   0.640   4.616   1.783
 8654SOL    HW126861   0.700   4.628   1.704
 8654SOL    HW226862   0.638   4.519   1.809
 8655SOL     OW26863   0.677   0.342   5.023
 8655SOL    HW126864   0.740   0.272   4.988
 8655SOL    HW226865   0.703   0.431   4.985
 8656SOL     OW26866   4.613   6.962   0.851
 8656SOL    HW126867   4.524   6.922   0.873
 8656SOL    HW226868   4.685   6.895   0.870
 8657SOL     OW26869   5.028   1.613   3.073
 8657SOL    HW126870   4.972   1.537   3.038
 8657SOL    HW226871   5.106   1.627   3.012
 8658SOL     OW26872   6.868   4.794   0.655
 8658SOL    HW126873   6.831   4.801   0.747
 8658SOL    HW226874   6.916   4.707   0.644
 8659SOL     OW26875   4.415   1.021   2.387
 8659SOL    HW126876   4.435   1.080   2.465
 8659SOL    HW226877   4.474   0.941   2.390
 8660SOL     OW26878   6.366   3.773   1.853
 8660SOL    HW126879   6.310   3.830   1.793
 8660SOL    HW226880   6.333   3.679   1.849
 8661SOL     OW26881   6.500   3.645   2.785
 8661SOL    HW126882   6.466   3.723   2.837
 8661SOL    HW226883   6.556   3.587   2.844
 8662SOL     OW26884   2.575   4.631   3.204
 8662SOL    HW126885   2.513   4.556   3.226
 8662SOL    HW226886   2.644   4.639   3.276
 8663SOL     OW26887   3.793   5.509   2.869
 8663SOL    HW126888   3.824   5.552   2.954
 8663SOL    HW226889   3.836   5.555   2.791
 8664SOL     OW26890   3.157   5.863   4.190
 8664SOL    HW126891   3.139   5.786   4.251
 8664SOL    HW226892   3.256   5.877   4.183
 8665SOL     OW26893   5.218   3.246   6.466
 8665SOL    HW126894   5.311   3.282   6.482
 8665SOL    HW226895   5.207   3.224   6.369
 8666SOL     OW26896   4.749   6.366   2.545
 8666SOL    HW126897   4.679   6.434   2.565
 8666SOL    HW226898   4.825   6.377   2.608
 8667SOL     OW26899   5.103   2.290   3.724
 8667SOL    HW126900   5.171   2.340   3.671
 8667SOL    HW226901   5.061   2.219   3.667
 8668SOL     OW26902   4.847   2.738   5.218
 8668SOL    HW126903   4.856   2.674   5.295
 8668SOL    HW226904   4.751   2.747   5.194
 8669SOL     OW26905   5.887   6.368   5.881
 8669SOL    HW126906   5.939   6.426   5.819
 8669SOL    HW226907   5.927   6.276   5.881
 8670SOL     OW26908   6.087   4.169   5.918
 8670SOL    HW126909   6.007   4.229   5.908
 8670SOL    HW226910   6.169   4.219   5.892
 8671SOL     OW26911   6.903   1.709   2.652
 8671SOL    HW126912   6.897   1.799   2.695
 8671SOL    HW226913   6.976   1.709   2.584
 8672SOL     OW26914   0.608   1.081   3.447
 8672SOL    HW126915   0.670   1.084   3.368
 8672SOL    HW226916   0.650   1.028   3.520
 8673SOL     OW26917   0.707   1.193   1.138
 8673SOL    HW126918   0.690   1.122   1.069
 8673SOL    HW226919   0.660   1.168   1.223
 8674SOL     OW26920   6.766   4.700   3.617
 8674SOL    HW126921   6.774   4.695   3.716
 8674SOL    HW226922   6.817   4.780   3.584
 8675SOL     OW26923   3.416   1.917   5.644
 8675SOL    HW126924   3.456   1.922   5.735
 8675SOL    HW226925   3.411   1.822   5.614
 8676SOL     OW26926   5.571   1.209   0.383
 8676SOL    HW126927   5.526   1.121   0.379
 8676SOL    HW226928   5.670   1.196   0.394
 8677SOL     OW26929   1.662   6.540   6.012
 8677SOL    HW126930   1.685   6.474   6.084
 8677SOL    HW226931   1.562   6.552   6.009
 8678SOL     OW26932   1.800   1.304   1.038
 8678SOL    HW126933   1.855   1.253   1.105
 8678SOL    HW226934   1.761   1.384   1.082
 8679SOL     OW26935   1.949   1.339   4.469
 8679SOL    HW126936   1.996   1.251   4.469
 8679SOL    HW226937   1.854   1.326   4.497
 8680SOL     OW26938   6.512   1.669   6.676
 8680SOL    HW126939   6.429   1.663   6.621
 8680SOL    HW226940   6.487   1.681   6.772
 8681SOL     OW26941   5.747   6.094   1.995
 8681SOL    HW126942   5.703   6.035   1.926
 8681SOL    HW226943   5.846   6.084   1.988
 8682SOL     OW26944   1.009   0.890   1.218
 8682SOL    HW126945   0.990   0.984   1.192
 8682SOL    HW226946   0.942   0.829   1.174
 8683SOL     OW26947   1.916   4.346   4.520
 8683SOL    HW126948   1.907   4.338   4.619
 8683SOL    HW226949   1.889   4.438   4.491
 8684SOL     OW26950   1.012   3.915   5.047
 8684SOL    HW126951   0.969   3.933   5.135
 8684SOL    HW226952   1.102   3.960   5.045
 8685SOL     OW26953   4.868   2.598   5.430
 8685SOL    HW126954   4.861   2.512   5.380
 8685SOL    HW226955   4.820   2.590   5.517
 8686SOL     OW26956   0.176   5.329   2.884
 8686SOL    HW126957   0.091   5.368   2.848
 8686SOL    HW226958   0.162   5.232   2.903
 8687SOL     OW26959   5.731   3.153   4.674
 8687SOL    HW126960   5.648   3.145   4.729
 8687SOL    HW226961   5.781   3.236   4.701
 8688SOL     OW26962   0.801   4.173   6.178
 8688SOL    HW126963   0.774   4.257   6.225
 8688SOL    HW226964   0.730   4.103   6.191
 8689SOL     OW26965   4.570   3.834   6.895
 8689SOL    HW126966   4.553   3.879   6.807
 8689SOL    HW226967   4.668   3.825   6.910
 8690SOL     OW26968   1.860   2.453   3.454
 8690SOL    HW126969   1.872   2.372   3.511
 8690SOL    HW226970   1.816   2.428   3.368
 8691SOL     OW26971   3.131   2.620   5.386
 8691SOL    HW126972   3.150   2.559   5.309
 8691SOL    HW226973   3.188   2.594   5.463
 8692SOL     OW26974   4.153   1.677   5.518
 8692SOL    HW126975   4.237   1.727   5.495
 8692SOL    HW226976   4.114   1.715   5.601
 8693SOL     OW26977   6.837   0.063   6.520
 8693SOL    HW126978   6.812   0.023   6.608
 8693SOL    HW226979   6.769   0.131   6.493
 8694SOL     OW26980   6.018   3.520   4.311
 8694SOL    HW126981   6.022   3.620   4.307
 8694SOL    HW226982   6.090   3.482   4.253
 8695SOL     OW26983   3.821   4.207   5.949
 8695SOL    HW126984   3.819   4.109   5.931
 8695SOL    HW226985   3.755   4.229   6.021
 8696SOL     OW26986   3.604   5.727   6.389
 8696SOL    HW126987   3.525   5.731   6.450
 8696SOL    HW226988   3.603   5.640   6.340
 8697SOL     OW26989   1.361   3.313   5.795
 8697SOL    HW126990   1.311   3.238   5.837
 8697SOL    HW226991   1.311   3.398   5.808
 8698SOL     OW26992   5.782   5.870   5.427
 8698SOL    HW126993   5.880   5.888   5.435
 8698SOL    HW226994   5.765   5.809   5.350
 8699SOL     OW26995   1.873   3.185   6.878
 8699SOL    HW126996   1.950   3.207   6.818
 8699SOL    HW226997   1.907   3.141   6.961
 8700SOL     OW26998   1.064   7.020   5.035
 8700SOL    HW126999   1.029   6.967   5.112
 8700SOL    HW227000   1.163   0.010   5.046
 8701SOL     OW27001   0.967   2.725   0.219
 8701SOL    HW127002   1.022   2.720   0.135
 8701SOL    HW227003   1.013   2.674   0.292
 8702SOL     OW27004   5.585   4.505   1.727
 8702SOL    HW127005   5.496   4.466   1.753
 8702SOL    HW227006   5.655   4.433   1.729
 8703SOL     OW27007   2.966   5.247   1.374
 8703SOL    HW127008   2.929   5.229   1.283
 8703SOL    HW227009   2.927   5.332   1.410
 8704SOL     OW27010   0.367   1.082   4.356
 8704SOL    HW127011   0.407   0.992   4.369
 8704SOL    HW227012   0.333   1.091   4.263
 8705SOL     OW27013   4.237   2.765   0.229
 8705SOL    HW127014   4.320   2.740   0.178
 8705SOL    HW227015   4.171   2.806   0.167
 8706SOL     OW27016   4.559   3.441   6.603
 8706SOL    HW127017   4.481   3.390   6.641
 8706SOL    HW227018   4.533   3.537   6.591
 8707SOL     OW27019   1.931   2.055   4.602
 8707SOL    HW127020   1.919   1.969   4.652
 8707SOL    HW227021   2.020   2.056   4.558
 8708SOL     OW27022   6.068   2.320   1.710
 8708SOL    HW127023   6.034   2.291   1.799
 8708SOL    HW227024   6.099   2.239   1.659
 8709SOL     OW27025   6.907   0.289   5.565
 8709SOL    HW127026   6.998   0.298   5.525
 8709SOL    HW227027   6.900   0.202   5.614
 8710SOL     OW27028   2.465   1.242   3.234
 8710SOL    HW127029   2.406   1.228   3.314
 8710SOL    HW227030   2.538   1.306   3.257
 8711SOL     OW27031   1.821   0.479   1.809
 8711SOL    HW127032   1.812   0.461   1.711
 8711SOL    HW227033   1.837   0.577   1.823
 8712SOL     OW27034   1.815   3.010   5.706
 8712SOL    HW127035   1.864   2.955   5.639
 8712SOL    HW227036   1.824   3.107   5.683
 8713SOL     OW27037   0.373   4.988   1.894
 8713SOL    HW127038   0.373   5.070   1.950
 8713SOL    HW227039   0.306   4.923   1.930
 8714SOL     OW27040   0.205   6.102   6.858
 8714SOL    HW127041   0.132   6.140   6.913
 8714SOL    HW227042   0.294   6.128   6.897
 8715SOL     OW27043   2.346   3.228   1.259
 8715SOL    HW127044   2.378   3.136   1.283
 8715SOL    HW227045   2.423   3.292   1.263
 8716SOL     OW27046   6.491   6.646   1.800
 8716SOL    HW127047   6.430   6.719   1.770
 8716SOL    HW227048   6.483   6.568   1.738
 8717SOL     OW27049   2.781   4.617   0.765
 8717SOL    HW127050   2.794   4.660   0.854
 8717SOL    HW227051   2.849   4.652   0.700
 8718SOL     OW27052   2.558   4.587   6.591
 8718SOL    HW127053   2.619   4.654   6.548
 8718SOL    HW227054   2.546   4.611   6.688
 8719SOL     OW27055   3.865   0.153   5.593
 8719SOL    HW127056   3.890   0.119   5.503
 8719SOL    HW227057   3.771   0.187   5.591
 8720SOL     OW27058   6.610   4.868   5.232
 8720SOL    HW127059   6.510   4.865   5.232
 8720SOL    HW227060   6.644   4.859   5.139
 8721SOL     OW27061   0.510   6.873   6.473
 8721SOL    HW127062   0.497   6.782   6.511
 8721SOL    HW227063   0.491   6.942   6.543
 8722SOL     OW27064   3.848   1.392   1.406
 8722SOL    HW127065   3.829   1.471   1.348
 8722SOL    HW227066   3.811   1.409   1.498
 8723SOL     OW27067   4.731   6.943   2.548
 8723SOL    HW127068   4.690   6.879   2.613
 8723SOL    HW227069   4.815   6.981   2.587
 8724SOL     OW27070   4.036   1.125   4.898
 8724SOL    HW127071   4.064   1.191   4.828
 8724SOL    HW227072   4.089   1.040   4.887
 8725SOL     OW27073   0.177   6.413   3.503
 8725SOL    HW127074   0.164   6.374   3.594
 8725SOL    HW227075   0.217   6.344   3.442
 8726SOL     OW27076   0.557   0.785   0.972
 8726SOL    HW127077   0.634   0.810   0.913
 8726SOL    HW227078   0.471   0.811   0.926
 8727SOL     OW27079   4.463   5.138   6.040
 8727SOL    HW127080   4.384   5.117   5.982
 8727SOL    HW227081   4.477   5.237   6.043
 8728SOL     OW27082   6.800   0.434   3.539
 8728SOL    HW127083   6.893   0.425   3.575
 8728SOL    HW227084   6.803   0.434   3.439
 8729SOL     OW27085   3.806   6.417   6.630
 8729SOL    HW127086   3.708   6.430   6.643
 8729SOL    HW227087   3.856   6.477   6.692
 8730SOL     OW27088   4.663   5.151   1.926
 8730SOL    HW127089   4.632   5.065   1.886
 8730SOL    HW227090   4.753   5.137   1.968
 8731SOL     OW27091   0.822   1.391   3.291
 8731SOL    HW127092   0.781   1.433   3.371
 8731SOL    HW227093   0.788   1.435   3.208
 8732SOL     OW27094   5.416   6.448   0.668
 8732SOL    HW127095   5.339   6.395   0.632
 8732SOL    HW227096   5.483   6.461   0.596
 8733SOL     OW27097   6.457   5.240   1.614
 8733SOL    HW127098   6.439   5.146   1.587
 8733SOL    HW227099   6.458   5.247   1.713
 8734SOL     OW27100   0.386   3.681   2.159
 8734SOL    HW127101   0.440   3.597   2.163
 8734SOL    HW227102   0.373   3.716   2.252
 8735SOL     OW27103   1.540   3.740   5.501
 8735SOL    HW127104   1.607   3.702   5.566
 8735SOL    HW227105   1.530   3.678   5.424
 8736SOL     OW27106   0.993   5.996   3.005
 8736SOL    HW127107   1.049   6.079   3.006
 8736SOL    HW227108   1.024   5.935   3.077
 8737SOL     OW27109   1.723   6.450   6.755
 8737SOL    HW127110   1.715   6.539   6.710
 8737SOL    HW227111   1.816   6.439   6.790
 8738SOL     OW27112   1.147   3.065   3.629
 8738SOL    HW127113   1.152   2.975   3.672
 8738SOL    HW227114   1.195   3.063   3.541
 8739SOL     OW27115   5.101   4.492   5.376
 8739SOL    HW127116   5.017   4.540   5.401
 8739SOL    HW227117   5.139   4.446   5.456
 8740SOL     OW27118   3.355   0.947   4.803
 8740SOL    HW127119   3.264   0.968   4.767
 8740SOL    HW227120   3.379   1.014   4.874
 8741SOL     OW27121   0.770   0.285   2.413
 8741SOL    HW127122   0.822   0.284   2.327
 8741SOL    HW227123   0.814   0.348   2.477
 8742SOL     OW27124   2.795   1.873   2.711
 8742SOL    HW127125   2.697   1.854   2.699
 8742SOL    HW227126   2.822   1.946   2.648
 8743SOL     OW27127   0.746   1.928   1.565
 8743SOL    HW127128   0.678   1.896   1.498
 8743SOL    HW227129   0.838   1.919   1.526
 8744SOL     OW27130   3.138   4.559   6.655
 8744SOL    HW127131   3.146   4.459   6.655
 8744SOL    HW227132   3.181   4.595   6.738
 8745SOL     OW27133   5.903   1.566   5.769
 8745SOL    HW127134   5.956   1.621   5.704
 8745SOL    HW227135   5.917   1.469   5.750
 8746SOL     OW27136   4.360   4.950   4.672
 8746SOL    HW127137   4.336   4.947   4.575
 8746SOL    HW227138   4.326   4.868   4.718
 8747SOL     OW27139   0.492   1.030   1.598
 8747SOL    HW127140   0.400   1.067   1.608
 8747SOL    HW227141   0.539   1.033   1.687
 8748SOL     OW27142   0.264   2.078   3.707
 8748SOL    HW127143   0.233   2.064   3.801
 8748SOL    HW227144   0.345   2.021   3.690
 8749SOL     OW27145   2.952   1.263   5.020
 8749SOL    HW127146   3.001   1.347   5.044
 8749SOL    HW227147   2.868   1.257   5.074
 8750SOL     OW27148   4.231   3.075   6.635
 8750SOL    HW127149   4.183   3.028   6.708
 8750SOL    HW227150   4.166   3.131   6.582
 8751SOL     OW27151   1.122   5.791   1.856
 8751SOL    HW127152   1.181   5.872   1.861
 8751SOL    HW227153   1.027   5.819   1.847
 8752SOL     OW27154   5.403   3.864   6.789
 8752SOL    HW127155   5.381   3.826   6.700
 8752SOL    HW227156   5.319   3.875   6.842
 8753SOL     OW27157   2.585   2.809   0.127
 8753SOL    HW127158   2.594   2.901   0.166
 8753SOL    HW227159   2.489   2.782   0.128
 8754SOL     OW27160   2.673   5.544   0.428
 8754SOL    HW127161   2.633   5.633   0.403
 8754SOL    HW227162   2.607   5.493   0.483
 8755SOL     OW27163   6.657   2.356   2.514
 8755SOL    HW127164   6.754   2.331   2.515
 8755SOL    HW227165   6.631   2.384   2.422
 8756SOL     OW27166   1.611   1.799   2.648
 8756SOL    HW127167   1.675   1.738   2.601
 8756SOL    HW227168   1.660   1.880   2.682
 8757SOL     OW27169   5.317   6.702   5.308
 8757SOL    HW127170   5.255   6.625   5.321
 8757SOL    HW227171   5.278   6.766   5.242
 8758SOL     OW27172   3.206   6.316   4.522
 8758SOL    HW127173   3.112   6.294   4.548
 8758SOL    HW227174   3.270   6.271   4.584
 8759SOL     OW27175   5.946   0.969   0.529
 8759SOL    HW127176   6.039   1.008   0.535
 8759SOL    HW227177   5.881   1.043   0.511
 8760SOL     OW27178   2.343   2.460   4.127
 8760SOL    HW127179   2.279   2.535   4.115
 8760SOL    HW227180   2.394   2.473   4.212
 8761SOL     OW27181   4.652   0.485   2.137
 8761SOL    HW127182   4.690   0.396   2.113
 8761SOL    HW227183   4.571   0.472   2.194
 8762SOL     OW27184   1.389   4.857   2.851
 8762SOL    HW127185   1.351   4.898   2.934
 8762SOL    HW227186   1.487   4.876   2.846
 8763SOL     OW27187   0.797   0.913   6.383
 8763SOL    HW127188   0.802   0.827   6.332
 8763SOL    HW227189   0.713   0.916   6.437
 8764SOL     OW27190   3.342   4.898   5.568
 8764SOL    HW127191   3.289   4.830   5.619
 8764SOL    HW227192   3.325   4.989   5.606
 8765SOL     OW27193   5.049   0.704   5.094
 8765SOL    HW127194   5.112   0.654   5.034
 8765SOL    HW227195   4.980   0.642   5.130
 8766SOL     OW27196   5.132   5.507   5.809
 8766SOL    HW127197   5.044   5.555   5.813
 8766SOL    HW227198   5.200   5.566   5.765
 8767SOL     OW27199   3.170   1.065   4.293
 8767SOL    HW127200   3.149   1.157   4.262
 8767SOL    HW227201   3.109   1.040   4.368
 8768SOL     OW27202   6.309   2.286   6.947
 8768SOL    HW127203   6.347   2.220   6.882
 8768SOL    HW227204   6.231   2.333   6.905
 8769SOL     OW27205   6.511   0.805   0.734
 8769SOL    HW127206   6.504   0.782   0.831
 8769SOL    HW227207   6.421   0.832   0.700
 8770SOL     OW27208   4.796   4.012   0.953
 8770SOL    HW127209   4.696   4.017   0.959
 8770SOL    HW227210   4.827   3.932   1.005
 8771SOL     OW27211   0.481   3.691   0.541
 8771SOL    HW127212   0.385   3.661   0.547
 8771SOL    HW227213   0.494   3.745   0.458
 8772SOL     OW27214   5.825   6.888   4.133
 8772SOL    HW127215   5.794   6.818   4.069
 8772SOL    HW227216   5.865   6.843   4.214
 8773SOL     OW27217   0.151   1.471   3.853
 8773SOL    HW127218   0.108   1.559   3.833
 8773SOL    HW227219   0.119   1.402   3.788
 8774SOL     OW27220   1.680   1.338   0.769
 8774SOL    HW127221   1.623   1.265   0.806
 8774SOL    HW227222   1.761   1.350   0.827
 8775SOL     OW27223   5.181   2.057   4.144
 8775SOL    HW127224   5.190   2.010   4.056
 8775SOL    HW227225   5.152   2.151   4.129
 8776SOL     OW27226   4.179   3.197   0.475
 8776SOL    HW127227   4.105   3.217   0.538
 8776SOL    HW227228   4.261   3.248   0.502
 8777SOL     OW27229   0.720   2.283   3.744
 8777SOL    HW127230   0.754   2.190   3.753
 8777SOL    HW227231   0.794   2.342   3.711
 8778SOL     OW27232   3.894   5.224   6.661
 8778SOL    HW127233   3.938   5.164   6.594
 8778SOL    HW227234   3.904   5.185   6.753
 8779SOL     OW27235   4.017   4.827   3.335
 8779SOL    HW127236   4.067   4.913   3.335
 8779SOL    HW227237   4.062   4.763   3.397
 8780SOL     OW27238   5.899   5.069   3.789
 8780SOL    HW127239   5.992   5.105   3.776
 8780SOL    HW227240   5.837   5.115   3.725
 8781SOL     OW27241   3.377   6.672   1.784
 8781SOL    HW127242   3.454   6.703   1.727
 8781SOL    HW227243   3.317   6.750   1.803
 8782SOL     OW27244   5.316   1.556   1.704
 8782SOL    HW127245   5.338   1.543   1.608
 8782SOL    HW227246   5.389   1.518   1.761
 8783SOL     OW27247   5.033   3.241   4.991
 8783SOL    HW127248   4.989   3.269   5.076
 8783SOL    HW227249   5.105   3.306   4.967
 8784SOL     OW27250   5.279   0.402   0.683
 8784SOL    HW127251   5.217   0.358   0.618
 8784SOL    HW227252   5.354   0.339   0.705
 8785SOL     OW27253   0.579   4.876   6.274
 8785SOL    HW127254   0.639   4.892   6.353
 8785SOL    HW227255   0.485   4.863   6.306
 8786SOL     OW27256   4.623   1.814   2.348
 8786SOL    HW127257   4.713   1.848   2.373
 8786SOL    HW227258   4.587   1.867   2.272
 8787SOL     OW27259   3.601   6.525   1.164
 8787SOL    HW127260   3.654   6.517   1.248
 8787SOL    HW227261   3.591   6.622   1.140
 8788SOL     OW27262   0.510   0.531   4.088
 8788SOL    HW127263   0.481   0.512   4.182
 8788SOL    HW227264   0.464   0.467   4.027
 8789SOL     OW27265   6.959   3.296   5.353
 8789SOL    HW127266   6.992   3.358   5.423
 8789SOL    HW227267   6.910   3.220   5.396
 8790SOL     OW27268   5.487   2.948   6.189
 8790SOL    HW127269   5.527   3.027   6.236
 8790SOL    HW227270   5.387   2.953   6.195
 8791SOL     OW27271   3.628   5.396   5.919
 8791SOL    HW127272   3.616   5.482   5.870
 8791SOL    HW227273   3.543   5.344   5.917
 8792SOL     OW27274   5.273   5.121   1.243
 8792SOL    HW127275   5.195   5.153   1.297
 8792SOL    HW227276   5.347   5.093   1.305
 8793SOL     OW27277   0.050   5.261   4.297
 8793SOL    HW127278   0.143   5.250   4.262
 8793SOL    HW227279   7.008   5.231   4.228
 8794SOL     OW27280   0.535   0.805   2.177
 8794SOL    HW127281   0.528   0.876   2.247
 8794SOL    HW227282   0.551   0.846   2.088
 8795SOL     OW27283   1.511   5.529   6.481
 8795SOL    HW127284   1.532   5.595   6.553
 8795SOL    HW227285   1.414   5.536   6.457
 8796SOL     OW27286   6.616   3.752   3.315
 8796SOL    HW127287   6.566   3.806   3.383
 8796SOL    HW227288   6.609   3.796   3.225
 8797SOL     OW27289   4.723   6.960   4.193
 8797SOL    HW127290   4.763   6.889   4.251
 8797SOL    HW227291   4.794   0.000   4.164
 8798SOL     OW27292   3.571   6.116   5.756
 8798SOL    HW127293   3.609   6.081   5.670
 8798SOL    HW227294   3.642   6.163   5.808
 8799SOL     OW27295   1.485   5.518   2.098
 8799SOL    HW127296   1.460   5.594   2.038
 8799SOL    HW227297   1.446   5.533   2.189
 8800SOL     OW27298   6.953   5.454   6.170
 8800SOL    HW127299   6.946   5.463   6.270
 8800SOL    HW227300   6.867   5.418   6.134
 8801SOL     OW27301   6.084   2.980   5.373
 8801SOL    HW127302   6.106   2.897   5.322
 8801SOL    HW227303   6.012   3.031   5.325
 8802SOL     OW27304   1.144   6.466   6.355
 8802SOL    HW127305   1.207   6.396   6.322
 8802SOL    HW227306   1.111   6.441   6.447
 8803SOL     OW27307   6.186   6.936   6.547
 8803SOL    HW127308   6.234   6.957   6.462
 8803SOL    HW227309   6.090   6.964   6.539
 8804SOL     OW27310   1.552   6.243   2.703
 8804SOL    HW127311   1.533   6.335   2.670
 8804SOL    HW227312   1.616   6.248   2.780
 8805SOL     OW27313   5.293   5.075   3.265
 8805SOL    HW127314   5.208   5.033   3.298
 8805SOL    HW227315   5.294   5.172   3.290
 8806SOL     OW27316   2.077   0.715   1.044
 8806SOL    HW127317   2.027   0.669   0.970
 8806SOL    HW227318   2.038   0.689   1.132
 8807SOL     OW27319   4.907   2.385   1.532
 8807SOL    HW127320   4.839   2.415   1.465
 8807SOL    HW227321   4.941   2.464   1.583
 8808SOL     OW27322   2.241   2.638   0.544
 8808SOL    HW127323   2.200   2.690   0.619
 8808SOL    HW227324   2.186   2.556   0.526
 8809SOL     OW27325   0.349   3.763   3.073
 8809SOL    HW127326   0.285   3.701   3.028
 8809SOL    HW227327   0.443   3.730   3.060
 8810SOL     OW27328   0.830   0.654   6.201
 8810SOL    HW127329   0.740   0.677   6.238
 8810SOL    HW227330   0.828   0.561   6.164
 8811SOL     OW27331   3.611   5.454   2.367
 8811SOL    HW127332   3.582   5.391   2.439
 8811SOL    HW227333   3.682   5.514   2.402
 8812SOL     OW27334   5.164   1.507   6.551
 8812SOL    HW127335   5.235   1.567   6.587
 8812SOL    HW227336   5.177   1.493   6.453
 8813SOL     OW27337   2.251   4.542   3.412
 8813SOL    HW127338   2.208   4.545   3.322
 8813SOL    HW227339   2.189   4.580   3.480
 8814SOL     OW27340   5.260   6.590   6.077
 8814SOL    HW127341   5.342   6.642   6.104
 8814SOL    HW227342   5.288   6.509   6.025
 8815SOL     OW27343   5.863   1.574   6.984
 8815SOL    HW127344   5.838   1.500   6.921
 8815SOL    HW227345   5.955   1.559   7.018
 8816SOL     OW27346   0.929   6.550   4.851
 8816SOL    HW127347   0.962   6.498   4.772
 8816SOL    HW227348   0.930   6.647   4.829
 8817SOL     OW27349   1.592   2.863   3.601
 8817SOL    HW127350   1.542   2.812   3.670
 8817SOL    HW227351   1.563   2.833   3.510
 8818SOL     OW27352   1.492   0.166   4.456
 8818SOL    HW127353   1.407   0.176   4.405
 8818SOL    HW227354   1.569   0.165   4.392
 8819SOL     OW27355   5.502   3.900   6.243
 8819SOL    HW127356   5.543   3.930   6.329
 8819SOL    HW227357   5.426   3.838   6.262
 8820SOL     OW27358   3.269   0.263   4.677
 8820SOL    HW127359   3.211   0.321   4.620
 8820SOL    HW227360   3.273   0.300   4.769
 8821SOL     OW27361   0.524   4.330   6.931
 8821SOL    HW127362   0.429   4.349   6.906
 8821SOL    HW227363   0.526   4.272   7.013
 8822SOL     OW27364   6.504   6.856   4.110
 8822SOL    HW127365   6.415   6.817   4.083
 8822SOL    HW227366   6.491   6.950   4.141
 8823SOL     OW27367   4.130   0.928   2.734
 8823SOL    HW127368   4.207   0.907   2.673
 8823SOL    HW227369   4.131   0.864   2.811
 8824SOL     OW27370   2.289   1.124   2.387
 8824SOL    HW127371   2.349   1.182   2.442
 8824SOL    HW227372   2.228   1.073   2.447
 8825SOL     OW27373   0.146   5.914   0.103
 8825SOL    HW127374   0.123   6.009   0.082
 8825SOL    HW227375   0.240   5.909   0.139
 8826SOL     OW27376   1.294   3.516   0.600
 8826SOL    HW127377   1.294   3.442   0.533
 8826SOL    HW227378   1.211   3.510   0.656
 8827SOL     OW27379   4.038   6.443   2.142
 8827SOL    HW127380   4.132   6.473   2.132
 8827SOL    HW227381   4.020   6.367   2.079
 8828SOL     OW27382   3.502   3.300   6.404
 8828SOL    HW127383   3.590   3.264   6.435
 8828SOL    HW227384   3.469   3.368   6.470
 8829SOL     OW27385   0.033   1.498   2.444
 8829SOL    HW127386   0.117   1.506   2.390
 8829SOL    HW227387   0.002   1.403   2.445
 8830SOL     OW27388   2.934   1.142   4.011
 8830SOL    HW127389   2.927   1.042   4.013
 8830SOL    HW227390   2.861   1.179   3.953
 8831SOL     OW27391   0.353   2.377   2.312
 8831SOL    HW127392   0.407   2.360   2.229
 8831SOL    HW227393   0.259   2.346   2.298
 8832SOL     OW27394   5.728   1.017   4.017
 8832SOL    HW127395   5.678   0.952   4.074
 8832SOL    HW227396   5.822   1.025   4.050
 8833SOL     OW27397   3.525   2.768   0.978
 8833SOL    HW127398   3.574   2.681   0.974
 8833SOL    HW227399   3.443   2.757   1.034
 8834SOL     OW27400   5.304   3.562   5.406
 8834SOL    HW127401   5.283   3.515   5.320
 8834SOL    HW227402   5.249   3.524   5.480
 8835SOL     OW27403   6.720   0.682   5.857
 8835SOL    HW127404   6.710   0.587   5.829
 8835SOL    HW227405   6.791   0.690   5.927
 8836SOL     OW27406   4.533   1.607   1.106
 8836SOL    HW127407   4.443   1.577   1.074
 8836SOL    HW227408   4.522   1.664   1.187
 8837SOL     OW27409   5.355   0.078   1.353
 8837SOL    HW127410   5.438   0.132   1.368
 8837SOL    HW227411   5.369   0.016   1.275
 8838SOL     OW27412   0.130   3.849   2.699
 8838SOL    HW127413   0.111   3.763   2.748
 8838SOL    HW227414   0.054   3.912   2.712
 8839SOL     OW27415   4.735   5.697   3.100
 8839SOL    HW127416   4.651   5.679   3.150
 8839SOL    HW227417   4.812   5.658   3.150
 8840SOL     OW27418   6.848   1.192   0.984
 8840SOL    HW127419   6.750   1.205   0.992
 8840SOL    HW227420   6.887   1.262   0.924
 8841SOL     OW27421   2.742   1.576   1.428
 8841SOL    HW127422   2.810   1.506   1.405
 8841SOL    HW227423   2.684   1.543   1.503
 8842SOL     OW27424   3.731   3.132   3.949
 8842SOL    HW127425   3.751   3.220   3.993
 8842SOL    HW227426   3.760   3.057   4.008
 8843SOL     OW27427   2.943   4.905   6.897
 8843SOL    HW127428   2.900   4.994   6.907
 8843SOL    HW227429   3.036   4.909   6.934
 8844SOL     OW27430   4.407   1.839   5.003
 8844SOL    HW127431   4.437   1.933   5.020
 8844SOL    HW227432   4.477   1.775   5.036
 8845SOL     OW27433   0.386   4.720   1.778
 8845SOL    HW127434   0.482   4.697   1.763
 8845SOL    HW227435   0.376   4.769   1.865
 8846SOL     OW27436   5.589   4.761   4.041
 8846SOL    HW127437   5.507   4.816   4.025
 8846SOL    HW227438   5.652   4.810   4.100
 8847SOL     OW27439   2.241   1.981   3.091
 8847SOL    HW127440   2.170   2.046   3.119
 8847SOL    HW227441   2.324   1.997   3.144
 8848SOL     OW27442   3.708   1.761   0.866
 8848SOL    HW127443   3.713   1.730   0.961
 8848SOL    HW227444   3.738   1.856   0.860
 8849SOL     OW27445   2.560   4.935   4.684
 8849SOL    HW127446   2.603   5.024   4.671
 8849SOL    HW227447   2.460   4.946   4.682
 8850SOL     OW27448   3.239   1.240   1.548
 8850SOL    HW127449   3.176   1.308   1.510
 8850SOL    HW227450   3.194   1.151   1.552
 8851SOL     OW27451   0.418   5.007   2.862
 8851SOL    HW127452   0.497   4.948   2.847
 8851SOL    HW227453   0.448   5.096   2.896
 8852SOL     OW27454   5.115   2.753   5.639
 8852SOL    HW127455   5.097   2.664   5.596
 8852SOL    HW227456   5.213   2.772   5.636
 8853SOL     OW27457   4.511   1.172   5.773
 8853SOL    HW127458   4.610   1.157   5.767
 8853SOL    HW227459   4.479   1.151   5.865
 8854SOL     OW27460   1.464   2.100   6.476
 8854SOL    HW127461   1.440   2.197   6.480
 8854SOL    HW227462   1.522   2.077   6.554
 8855SOL     OW27463   6.311   4.972   6.613
 8855SOL    HW127464   6.364   4.887   6.616
 8855SOL    HW227465   6.260   4.977   6.527
 8856SOL     OW27466   5.940   0.999   4.900
 8856SOL    HW127467   5.968   1.073   4.839
 8856SOL    HW227468   5.876   1.034   4.968
 8857SOL     OW27469   6.889   2.225   3.933
 8857SOL    HW127470   6.851   2.231   3.840
 8857SOL    HW227471   6.820   2.187   3.995
 8858SOL     OW27472   0.206   3.397   6.830
 8858SOL    HW127473   0.136   3.328   6.852
 8858SOL    HW227474   0.296   3.355   6.831
 8859SOL     OW27475   1.953   5.669   5.956
 8859SOL    HW127476   1.973   5.644   5.861
 8859SOL    HW227477   1.857   5.650   5.975
 8860SOL     OW27478   1.446   2.146   2.582
 8860SOL    HW127479   1.533   2.111   2.547
 8860SOL    HW227480   1.395   2.189   2.507
 8861SOL     OW27481   3.555   3.652   6.956
 8861SOL    HW127482   3.482   3.592   6.923
 8861SOL    HW227483   3.536   3.746   6.928
 8862SOL     OW27484   5.583   1.961   4.308
 8862SOL    HW127485   5.494   1.916   4.307
 8862SOL    HW227486   5.593   2.017   4.227
 8863SOL     OW27487   2.234   5.527   5.379
 8863SOL    HW127488   2.304   5.597   5.392
 8863SOL    HW227489   2.231   5.467   5.459
 8864SOL     OW27490   1.211   2.283   6.795
 8864SOL    HW127491   1.303   2.317   6.814
 8864SOL    HW227492   1.173   2.331   6.716
 8865SOL     OW27493   3.379   2.492   6.355
 8865SOL    HW127494   3.337   2.547   6.283
 8865SOL    HW227495   3.347   2.397   6.349
 8866SOL     OW27496   3.542   6.297   4.774
 8866SOL    HW127497   3.477   6.293   4.849
 8866SOL    HW227498   3.549   6.391   4.741
 8867SOL     OW27499   0.162   3.220   3.688
 8867SOL    HW127500   0.189   3.123   3.688
 8867SOL    HW227501   0.063   3.227   3.700
 8868SOL     OW27502   4.164   3.904   6.895
 8868SOL    HW127503   4.075   3.869   6.923
 8868SOL    HW227504   4.234   3.835   6.910
 8869SOL     OW27505   5.110   2.771   3.614
 8869SOL    HW127506   5.127   2.808   3.705
 8869SOL    HW227507   5.179   2.702   3.593
 8870SOL     OW27508   3.885   1.070   0.548
 8870SOL    HW127509   3.842   1.003   0.488
 8870SOL    HW227510   3.984   1.060   0.544
 8871SOL     OW27511   2.520   1.869   4.013
 8871SOL    HW127512   2.539   1.887   3.916
 8871SOL    HW227513   2.459   1.940   4.049
 8872SOL     OW27514   1.651   3.898   4.485
 8872SOL    HW127515   1.583   3.967   4.507
 8872SOL    HW227516   1.606   3.818   4.444
 8873SOL     OW27517   0.366   5.429   4.518
 8873SOL    HW127518   0.395   5.426   4.614
 8873SOL    HW227519   0.440   5.468   4.462
 8874SOL     OW27520   3.359   0.663   0.536
 8874SOL    HW127521   3.265   0.630   0.540
 8874SOL    HW227522   3.413   0.604   0.475
 8875SOL     OW27523   2.078   2.492   4.457
 8875SOL    HW127524   2.001   2.482   4.520
 8875SOL    HW227525   2.158   2.447   4.495
 8876SOL     OW27526   0.834   0.615   4.916
 8876SOL    HW127527   0.774   0.574   4.847
 8876SOL    HW227528   0.779   0.653   4.990
 8877SOL     OW27529   2.739   0.049   5.036
 8877SOL    HW127530   2.734   7.004   5.108
 8877SOL    HW227531   2.652   0.098   5.030
 8878SOL     OW27532   6.538   4.221   6.626
 8878SOL    HW127533   6.603   4.284   6.583
 8878SOL    HW227534   6.492   4.268   6.702
 8879SOL     OW27535   4.937   6.589   5.556
 8879SOL    HW127536   4.905   6.681   5.534
 8879SOL    HW227537   4.912   6.526   5.483
 8880SOL     OW27538   6.830   5.278   5.069
 8880SOL    HW127539   6.762   5.352   5.063
 8880SOL    HW227540   6.829   5.225   4.984
 8881SOL     OW27541   6.563   1.215   1.019
 8881SOL    HW127542   6.475   1.197   1.064
 8881SOL    HW227543   6.562   1.306   0.979
 8882SOL     OW27544   5.643   1.706   6.721
 8882SOL    HW127545   5.665   1.699   6.818
 8882SOL    HW227546   5.586   1.628   6.694
 8883SOL     OW27547   6.683   1.089   5.501
 8883SOL    HW127548   6.583   1.091   5.494
 8883SOL    HW227549   6.711   1.022   5.570
 8884SOL     OW27550   6.732   0.311   6.117
 8884SOL    HW127551   6.680   0.226   6.129
 8884SOL    HW227552   6.725   0.342   6.022
 8885SOL     OW27553   5.510   3.677   1.922
 8885SOL    HW127554   5.447   3.704   1.850
 8885SOL    HW227555   5.522   3.753   1.986
 8886SOL     OW27556   3.024   6.868   6.271
 8886SOL    HW127557   3.014   6.850   6.173
 8886SOL    HW227558   2.952   6.821   6.322
 8887SOL     OW27559   2.613   1.536   0.926
 8887SOL    HW127560   2.653   1.460   0.976
 8887SOL    HW227561   2.685   1.586   0.879
 8888SOL     OW27562   3.291   1.742   2.239
 8888SOL    HW127563   3.205   1.735   2.289
 8888SOL    HW227564   3.337   1.828   2.262
 8889SOL     OW27565   3.814   6.645   4.795
 8889SOL    HW127566   3.799   6.599   4.707
 8889SOL    HW227567   3.765   6.732   4.796
 8890SOL     OW27568   1.192   5.113   4.611
 8890SOL    HW127569   1.244   5.166   4.677
 8890SOL    HW227570   1.102   5.091   4.649
 8891SOL     OW27571   4.553   3.132   6.350
 8891SOL    HW127572   4.593   3.049   6.390
 8891SOL    HW227573   4.627   3.192   6.318
 8892SOL     OW27574   1.727   6.606   2.706
 8892SOL    HW127575   1.706   6.652   2.792
 8892SOL    HW227576   1.826   6.605   2.693
 8893SOL     OW27577   0.550   1.512   1.235
 8893SOL    HW127578   0.623   1.468   1.287
 8893SOL    HW227579   0.463   1.500   1.282
 8894SOL     OW27580   4.337   2.604   6.408
 8894SOL    HW127581   4.287   2.633   6.326
 8894SOL    HW227582   4.325   2.671   6.480
 8895SOL     OW27583   0.648   0.059   1.913
 8895SOL    HW127584   0.630   0.105   2.000
 8895SOL    HW227585   0.723   7.018   1.923
 8896SOL     OW27586   1.784   3.545   4.616
 8896SOL    HW127587   1.777   3.506   4.708
 8896SOL    HW227588   1.823   3.637   4.622
 8897SOL     OW27589   1.473   2.632   1.645
 8897SOL    HW127590   1.466   2.692   1.565
 8897SOL    HW227591   1.559   2.580   1.640
 8898SOL     OW27592   5.334   3.592   4.152
 8898SOL    HW127593   5.280   3.512   4.125
 8898SOL    HW227594   5.295   3.674   4.111
 8899SOL     OW27595   1.554   4.533   0.022
 8899SOL    HW127596   1.592   4.450   0.064
 8899SOL    HW227597   1.616   4.609   0.039
 8900SOL     OW27598   5.481   2.096   3.862
 8900SOL    HW127599   5.531   2.074   3.945
 8900SOL    HW227600   5.503   2.030   3.790
 8901SOL     OW27601   1.901   0.123   2.921
 8901SOL    HW127602   1.991   0.107   2.879
 8901SOL    HW227603   1.833   0.138   2.849
 8902SOL     OW27604   1.417   4.968   6.412
 8902SOL    HW127605   1.381   5.061   6.418
 8902SOL    HW227606   1.511   4.967   6.447
 8903SOL     OW27607   2.240   1.469   3.375
 8903SOL    HW127608   2.178   1.403   3.332
 8903SOL    HW227609   2.266   1.539   3.308
 8904SOL     OW27610   1.079   6.364   3.441
 8904SOL    HW127611   1.038   6.439   3.388
 8904SOL    HW227612   1.007   6.299   3.467
 8905SOL     OW27613   2.594   3.793   5.343
 8905SOL    HW127614   2.557   3.867   5.287
 8905SOL    HW227615   2.532   3.715   5.341
 8906SOL     OW27616   6.266   6.173   5.300
 8906SOL    HW127617   6.326   6.248   5.271
 8906SOL    HW227618   6.231   6.193   5.392
 8907SOL     OW27619   3.138   2.833   5.673
 8907SOL    HW127620   3.042   2.829   5.701
 8907SOL    HW227621   3.170   2.928   5.678
 8908SOL     OW27622   0.925   2.987   1.529
 8908SOL    HW127623   1.009   3.028   1.565
 8908SOL    HW227624   0.935   2.969   1.431
 8909SOL     OW27625   2.072   0.843   6.481
 8909SOL    HW127626   2.124   0.783   6.543
 8909SOL    HW227627   1.988   0.796   6.452
 8910SOL     OW27628   3.075   3.830   6.794
 8910SOL    HW127629   2.982   3.864   6.781
 8910SOL    HW227630   3.139   3.890   6.747
 8911SOL     OW27631   3.964   2.108   3.999
 8911SOL    HW127632   4.043   2.168   4.017
 8911SOL    HW227633   3.978   2.061   3.912
 8912SOL     OW27634   4.712   2.979   6.018
 8912SOL    HW127635   4.629   2.971   6.074
 8912SOL    HW227636   4.733   3.076   6.004
 8913SOL     OW27637   5.636   4.190   0.977
 8913SOL    HW127638   5.597   4.264   1.032
 8913SOL    HW227639   5.568   4.118   0.964
 8914SOL     OW27640   3.342   1.839   4.781
 8914SOL    HW127641   3.393   1.843   4.695
 8914SOL    HW227642   3.309   1.930   4.805
 8915SOL     OW27643   1.453   4.450   2.137
 8915SOL    HW127644   1.492   4.541   2.125
 8915SOL    HW227645   1.438   4.408   2.048
 8916SOL     OW27646   6.745   3.150   2.668
 8916SOL    HW127647   6.835   3.172   2.632
 8916SOL    HW227648   6.684   3.125   2.593
 8917SOL     OW27649   6.191   5.680   7.003
 8917SOL    HW127650   6.223   5.588   0.001
 8917SOL    HW227651   6.160   5.683   6.908
 8918SOL     OW27652   5.822   5.297   6.364
 8918SOL    HW127653   5.798   5.209   6.404
 8918SOL    HW227654   5.745   5.360   6.374
 8919SOL     OW27655   3.110   5.139   0.732
 8919SOL    HW127656   3.127   5.067   0.799
 8919SOL    HW227657   3.088   5.224   0.778
 8920SOL     OW27658   6.096   5.931   5.564
 8920SOL    HW127659   6.155   5.936   5.645
 8920SOL    HW227660   6.149   5.896   5.487
 8921SOL     OW27661   1.664   6.975   4.062
 8921SOL    HW127662   1.683   7.008   4.154
 8921SOL    HW227663   1.566   6.984   4.043
 8922SOL     OW27664   0.602   4.216   0.151
 8922SOL    HW127665   0.524   4.159   0.177
 8922SOL    HW227666   0.593   4.306   0.193
 8923SOL     OW27667   2.053   4.231   6.111
 8923SOL    HW127668   1.975   4.238   6.048
 8923SOL    HW227669   2.133   4.273   6.069
 8924SOL     OW27670   2.677   5.240   5.358
 8924SOL    HW127671   2.684   5.152   5.403
 8924SOL    HW227672   2.742   5.243   5.281
 8925SOL     OW27673   6.843   0.181   2.020
 8925SOL    HW127674   6.858   0.278   2.001
 8925SOL    HW227675   6.931   0.134   2.026
 8926SOL     OW27676   5.483   2.262   0.684
 8926SOL    HW127677   5.399   2.210   0.700
 8926SOL    HW227678   5.492   2.333   0.754
 8927SOL     OW27679   2.294   2.340   4.576
 8927SOL    HW127680   2.373   2.303   4.527
 8927SOL    HW227681   2.287   2.298   4.666
 8928SOL     OW27682   1.049   6.458   5.326
 8928SOL    HW127683   0.964   6.441   5.376
 8928SOL    HW227684   1.095   6.538   5.365
 8929SOL     OW27685   5.705   3.976   3.548
 8929SOL    HW127686   5.660   3.895   3.510
 8929SOL    HW227687   5.803   3.957   3.558
 8930SOL     OW27688   1.087   5.033   5.076
 8930SOL    HW127689   1.040   5.057   4.992
 8930SOL    HW227690   1.182   5.009   5.055
 8931SOL     OW27691   4.510   1.160   0.739
 8931SOL    HW127692   4.442   1.100   0.781
 8931SOL    HW227693   4.586   1.174   0.804
 8932SOL     OW27694   6.971   0.418   6.810
 8932SOL    HW127695   6.994   0.372   6.896
 8932SOL    HW227696   6.882   0.384   6.777
 8933SOL     OW27697   1.815   0.546   4.845
 8933SOL    HW127698   1.798   0.607   4.923
 8933SOL    HW227699   1.778   0.587   4.762
 8934SOL     OW27700   3.175   6.008   2.817
 8934SOL    HW127701   3.185   5.911   2.797
 8934SOL    HW227702   3.227   6.062   2.751
 8935SOL     OW27703   4.888   2.454   3.766
 8935SOL    HW127704   4.957   2.382   3.755
 8935SOL    HW227705   4.904   2.527   3.700
 8936SOL     OW27706   1.033   5.251   2.084
 8936SOL    HW127707   1.081   5.255   2.172
 8936SOL    HW227708   0.935   5.268   2.099
 8937SOL     OW27709   5.002   0.135   4.166
 8937SOL    HW127710   4.922   0.130   4.226
 8937SOL    HW227711   5.061   0.210   4.194
 8938SOL     OW27712   6.236   1.147   1.073
 8938SOL    HW127713   6.185   1.148   1.159
 8938SOL    HW227714   6.244   1.240   1.038
 8939SOL     OW27715   0.354   3.131   4.055
 8939SOL    HW127716   0.262   3.144   4.093
 8939SOL    HW227717   0.364   3.036   4.024
 8940SOL     OW27718   6.472   2.840   0.918
 8940SOL    HW127719   6.397   2.805   0.974
 8940SOL    HW227720   6.531   2.765   0.889
 8941SOL     OW27721   4.353   2.806   1.707
 8941SOL    HW127722   4.320   2.884   1.761
 8941SOL    HW227723   4.444   2.779   1.739
 8942SOL     OW27724   5.989   4.797   4.446
 8942SOL    HW127725   5.988   4.697   4.441
 8942SOL    HW227726   6.041   4.826   4.526
 8943SOL     OW27727   4.614   3.916   0.259
 8943SOL    HW127728   4.595   3.931   0.355
 8943SOL    HW227729   4.691   3.974   0.230
 8944SOL     OW27730   5.517   5.959   4.800
 8944SOL    HW127731   5.478   5.916   4.718
 8944SOL    HW227732   5.599   5.908   4.828
 8945SOL     OW27733   5.740   4.280   5.447
 8945SOL    HW127734   5.746   4.180   5.450
 8945SOL    HW227735   5.696   4.314   5.530
 8946SOL     OW27736   5.356   1.575   4.768
 8946SOL    HW127737   5.292   1.511   4.726
 8946SOL    HW227738   5.428   1.598   4.703
 8947SOL     OW27739   1.726   5.350   0.023
 8947SOL    HW127740   1.732   5.310   0.115
 8947SOL    HW227741   1.630   5.358   7.020
 8948SOL     OW27742   6.954   0.569   2.527
 8948SOL    HW127743   6.889   0.521   2.469
 8948SOL    HW227744   6.905   0.630   2.589
 8949SOL     OW27745   3.514   6.525   0.636
 8949SOL    HW127746   3.502   6.623   0.650
 8949SOL    HW227747   3.606   6.498   0.665
 8950SOL     OW27748   4.285   3.886   0.426
 8950SOL    HW127749   4.220   3.885   0.351
 8950SOL    HW227750   4.262   3.959   0.490
 8951SOL     OW27751   2.050   1.763   4.404
 8951SOL    HW127752   2.099   1.688   4.450
 8951SOL    HW227753   2.068   1.849   4.452
 8952SOL     OW27754   1.820   3.760   3.790
 8952SOL    HW127755   1.780   3.670   3.770
 8952SOL    HW227756   1.907   3.747   3.838
 8953SOL     OW27757   1.067   4.899   1.539
 8953SOL    HW127758   1.098   4.883   1.446
 8953SOL    HW227759   0.998   4.972   1.539
 8954SOL     OW27760   1.844   5.065   5.816
 8954SOL    HW127761   1.892   5.145   5.779
 8954SOL    HW227762   1.877   4.982   5.771
 8955SOL     OW27763   5.878   3.015   4.093
 8955SOL    HW127764   5.844   2.940   4.036
 8955SOL    HW227765   5.813   3.091   4.090
 8956SOL     OW27766   0.823   5.302   6.254
 8956SOL    HW127767   0.733   5.329   6.219
 8956SOL    HW227768   0.895   5.351   6.203
 8957SOL     OW27769   0.943   6.115   3.323
 8957SOL    HW127770   0.929   6.175   3.244
 8957SOL    HW227771   1.024   6.058   3.308
 8958SOL     OW27772   1.548   3.589   5.261
 8958SOL    HW127773   1.533   3.635   5.173
 8958SOL    HW227774   1.546   3.490   5.247
 8959SOL     OW27775   6.764   2.750   3.078
 8959SOL    HW127776   6.773   2.677   3.011
 8959SOL    HW227777   6.725   2.713   3.163
 8960SOL     OW27778   5.110   4.518   3.365
 8960SOL    HW127779   5.053   4.574   3.424
 8960SOL    HW227780   5.205   4.525   3.395
 8961SOL     OW27781   2.327   0.494   5.422
 8961SOL    HW127782   2.278   0.556   5.483
 8961SOL    HW227783   2.269   0.472   5.343
 8962SOL     OW27784   0.505   5.707   1.940
 8962SOL    HW127785   0.429   5.760   1.978
 8962SOL    HW227786   0.554   5.763   1.873
 8963SOL     OW27787   4.490   6.475   4.576
 8963SOL    HW127788   4.426   6.401   4.593
 8963SOL    HW227789   4.573   6.460   4.629
 8964SOL     OW27790   0.848   3.365   4.362
 8964SOL    HW127791   0.886   3.383   4.272
 8964SOL    HW227792   0.843   3.267   4.378
 8965SOL     OW27793   4.045   5.701   6.937
 8965SOL    HW127794   4.090   5.612   6.933
 8965SOL    HW227795   3.963   5.699   6.879
 8966SOL     OW27796   5.027   5.157   5.511
 8966SOL    HW127797   4.998   5.098   5.436
 8966SOL    HW227798   4.946   5.191   5.559
 8967SOL     OW27799   2.727   0.504   3.606
 8967SOL    HW127800   2.754   0.410   3.584
 8967SOL    HW227801   2.628   0.509   3.618
 8968SOL     OW27802   4.130   5.113   2.146
 8968SOL    HW127803   4.203   5.151   2.204
 8968SOL    HW227804   4.133   5.013   2.149
 8969SOL     OW27805   0.367   0.780   2.732
 8969SOL    HW127806   0.450   0.815   2.777
 8969SOL    HW227807   0.375   0.681   2.722
 8970SOL     OW27808   1.734   0.631   4.615
 8970SOL    HW127809   1.688   0.549   4.581
 8970SOL    HW227810   1.691   0.712   4.575
 8971SOL     OW27811   4.077   5.443   0.296
 8971SOL    HW127812   4.150   5.510   0.282
 8971SOL    HW227813   4.117   5.353   0.312
 8972SOL     OW27814   6.170   4.704   0.392
 8972SOL    HW127815   6.268   4.713   0.380
 8972SOL    HW227816   6.138   4.620   0.348
 8973SOL     OW27817   1.236   2.981   3.380
 8973SOL    HW127818   1.214   2.910   3.312
 8973SOL    HW227819   1.275   3.061   3.334
 8974SOL     OW27820   2.256   4.186   4.613
 8974SOL    HW127821   2.250   4.124   4.691
 8974SOL    HW227822   2.263   4.132   4.529
 8975SOL     OW27823   6.807   6.223   6.110
 8975SOL    HW127824   6.878   6.249   6.044
 8975SOL    HW227825   6.821   6.128   6.137
 8976SOL     OW27826   6.950   6.440   1.668
 8976SOL    HW127827   6.976   6.493   1.588
 8976SOL    HW227828   6.998   6.475   1.749
 8977SOL     OW27829   6.755   5.317   6.056
 8977SOL    HW127830   6.681   5.362   6.007
 8977SOL    HW227831   6.799   5.249   5.997
 8978SOL     OW27832   5.756   5.640   6.482
 8978SOL    HW127833   5.703   5.565   6.443
 8978SOL    HW227834   5.769   5.625   6.580
 8979SOL     OW27835   1.125   5.022   5.667
 8979SOL    HW127836   1.149   4.946   5.726
 8979SOL    HW227837   1.185   5.022   5.586
 8980SOL     OW27838   3.564   0.565   5.461
 8980SOL    HW127839   3.470   0.532   5.474
 8980SOL    HW227840   3.576   0.651   5.511
 8981SOL     OW27841   4.112   3.370   0.198
 8981SOL    HW127842   4.160   3.305   0.257
 8981SOL    HW227843   4.092   3.327   0.110
 8982SOL     OW27844   0.564   1.551   1.695
 8982SOL    HW127845   0.495   1.601   1.748
 8982SOL    HW227846   0.653   1.559   1.741
 8983SOL     OW27847   0.863   6.924   1.945
 8983SOL    HW127848   0.935   6.971   1.996
 8983SOL    HW227849   0.889   6.828   1.930
 8984SOL     OW27850   6.206   0.665   3.852
 8984SOL    HW127851   6.134   0.630   3.911
 8984SOL    HW227852   6.165   0.713   3.774
 8985SOL     OW27853   4.653   2.567   0.937
 8985SOL    HW127854   4.562   2.598   0.912
 8985SOL    HW227855   4.680   2.608   1.024
 8986SOL     OW27856   0.487   5.571   0.171
 8986SOL    HW127857   0.396   5.530   0.170
 8986SOL    HW227858   0.492   5.642   0.100
 8987SOL     OW27859   2.124   0.688   1.894
 8987SOL    HW127860   2.213   0.649   1.872
 8987SOL    HW227861   2.121   0.711   1.992
 8988SOL     OW27862   1.718   5.554   1.817
 8988SOL    HW127863   1.765   5.621   1.875
 8988SOL    HW227864   1.785   5.508   1.758
 8989SOL     OW27865   5.547   1.410   1.827
 8989SOL    HW127866   5.526   1.313   1.832
 8989SOL    HW227867   5.587   1.440   1.913
 8990SOL     OW27868   3.601   0.626   1.741
 8990SOL    HW127869   3.544   0.582   1.672
 8990SOL    HW227870   3.692   0.643   1.703
 8991SOL     OW27871   2.103   2.391   0.527
 8991SOL    HW127872   2.041   2.360   0.599
 8991SOL    HW227873   2.063   2.373   0.437
 8992SOL     OW27874   0.742   3.892   0.532
 8992SOL    HW127875   0.812   3.835   0.490
 8992SOL    HW227876   0.651   3.853   0.512
 8993SOL     OW27877   6.308   3.823   4.315
 8993SOL    HW127878   6.208   3.825   4.320
 8993SOL    HW227879   6.345   3.903   4.362
 8994SOL     OW27880   1.134   5.264   3.129
 8994SOL    HW127881   1.221   5.290   3.172
 8994SOL    HW227882   1.146   5.177   3.080
 8995SOL     OW27883   2.184   4.000   4.833
 8995SOL    HW127884   2.221   3.996   4.926
 8995SOL    HW227885   2.187   3.909   4.792
 8996SOL     OW27886   0.904   4.176   1.984
 8996SOL    HW127887   0.848   4.219   1.914
 8996SOL    HW227888   1.001   4.185   1.960
 8997SOL     OW27889   4.603   1.651   5.658
 8997SOL    HW127890   4.550   1.567   5.670
 8997SOL    HW227891   4.541   1.730   5.656
 8998SOL     OW27892   1.137   2.785   6.477
 8998SOL    HW127893   1.136   2.876   6.435
 8998SOL    HW227894   1.229   2.746   6.470
 8999SOL     OW27895   6.492   1.137   4.206
 8999SOL    HW127896   6.408   1.083   4.213
 8999SOL    HW227897   6.569   1.083   4.240
 9000SOL     OW27898   2.944   4.307   0.739
 9000SOL    HW127899   2.857   4.299   0.690
 9000SOL    HW227900   3.004   4.370   0.690
 9001SOL     OW27901   1.358   4.681   3.793
 9001SOL    HW127902   1.437   4.640   3.839
 9001SOL    HW227903   1.359   4.780   3.808
 9002SOL     OW27904   4.812   4.439   5.174
 9002SOL    HW127905   4.872   4.386   5.113
 9002SOL    HW227906   4.867   4.508   5.222
 9003SOL     OW27907   5.942   2.744   6.278
 9003SOL    HW127908   5.857   2.759   6.227
 9003SOL    HW227909   6.020   2.755   6.216
 9004SOL     OW27910   4.607   6.278   1.116
 9004SOL    HW127911   4.667   6.346   1.158
 9004SOL    HW227912   4.662   6.199   1.088
 9005SOL     OW27913   4.950   1.738   2.744
 9005SOL    HW127914   5.024   1.727   2.678
 9005SOL    HW227915   4.980   1.707   2.834
 9006SOL     OW27916   1.296   5.956   1.446
 9006SOL    HW127917   1.339   6.030   1.498
 9006SOL    HW227918   1.262   5.886   1.509
 9007SOL     OW27919   2.402   6.499   4.399
 9007SOL    HW127920   2.336   6.566   4.433
 9007SOL    HW227921   2.489   6.510   4.448
 9008SOL     OW27922   6.343   4.608   2.350
 9008SOL    HW127923   6.373   4.571   2.437
 9008SOL    HW227924   6.244   4.623   2.352
 9009SOL     OW27925   3.502   6.767   1.065
 9009SOL    HW127926   3.549   6.750   0.978
 9009SOL    HW227927   3.468   6.861   1.067
 9010SOL     OW27928   1.355   6.281   4.710
 9010SOL    HW127929   1.268   6.235   4.723
 9010SOL    HW227930   1.340   6.380   4.702
 9011SOL     OW27931   4.379   2.021   1.234
 9011SOL    HW127932   4.362   2.018   1.332
 9011SOL    HW227933   4.413   2.111   1.208
 9012SOL     OW27934   0.039   5.864   1.228
 9012SOL    HW127935   0.052   5.963   1.241
 9012SOL    HW227936   0.076   5.816   1.307
 9013SOL     OW27937   5.794   5.592   3.754
 9013SOL    HW127938   5.794   5.631   3.662
 9013SOL    HW227939   5.834   5.656   3.818
 9014SOL     OW27940   2.735   1.221   1.428
 9014SOL    HW127941   2.820   1.218   1.376
 9014SOL    HW227942   2.722   1.133   1.475
 9015SOL     OW27943   0.446   0.934   5.649
 9015SOL    HW127944   0.514   0.961   5.717
 9015SOL    HW227945   0.488   0.938   5.558
 9016SOL     OW27946   6.445   6.170   6.705
 9016SOL    HW127947   6.482   6.235   6.639
 9016SOL    HW227948   6.477   6.193   6.797
 9017SOL     OW27949   6.778   3.041   3.328
 9017SOL    HW127950   6.751   3.125   3.375
 9017SOL    HW227951   6.722   3.029   3.247
 9018SOL     OW27952   3.700   2.351   5.297
 9018SOL    HW127953   3.605   2.379   5.315
 9018SOL    HW227954   3.701   2.275   5.233
 9019SOL     OW27955   2.053   0.111   1.181
 9019SOL    HW127956   2.111   0.113   1.262
 9019SOL    HW227957   2.076   0.188   1.122
 9020SOL     OW27958   0.533   4.942   3.138
 9020SOL    HW127959   0.538   5.033   3.095
 9020SOL    HW227960   0.619   4.924   3.186
 9021SOL     OW27961   6.669   5.667   4.963
 9021SOL    HW127962   6.691   5.613   4.882
 9021SOL    HW227963   6.622   5.751   4.936
 9022SOL     OW27964   3.286   0.518   0.241
 9022SOL    HW127965   3.191   0.548   0.235
 9022SOL    HW227966   3.345   0.586   0.197
 9023SOL     OW27967   3.698   3.215   3.254
 9023SOL    HW127968   3.753   3.205   3.171
 9023SOL    HW227969   3.691   3.311   3.278
 9024SOL     OW27970   2.115   6.711   0.597
 9024SOL    HW127971   2.026   6.754   0.608
 9024SOL    HW227972   2.186   6.781   0.587
 9025SOL     OW27973   6.099   4.865   0.689
 9025SOL    HW127974   6.114   4.766   0.695
 9025SOL    HW227975   6.001   4.884   0.694
 9026SOL     OW27976   3.462   2.882   4.919
 9026SOL    HW127977   3.504   2.792   4.915
 9026SOL    HW227978   3.483   2.933   4.836
 9027SOL     OW27979   2.076   2.797   3.476
 9027SOL    HW127980   2.001   2.777   3.539
 9027SOL    HW227981   2.147   2.849   3.524
 9028SOL     OW27982   2.849   4.798   4.510
 9028SOL    HW127983   2.785   4.772   4.438
 9028SOL    HW227984   2.814   4.768   4.598
 9029SOL     OW27985   5.123   5.915   2.967
 9029SOL    HW127986   5.210   5.872   2.943
 9029SOL    HW227987   5.064   5.917   2.887
 9030SOL     OW27988   2.602   1.465   1.640
 9030SOL    HW127989   2.607   1.398   1.715
 9030SOL    HW227990   2.516   1.451   1.590
 9031SOL     OW27991   2.422   6.539   6.412
 9031SOL    HW127992   2.468   6.617   6.455
 9031SOL    HW227993   2.410   6.467   6.479
 9032SOL     OW27994   1.709   1.651   1.987
 9032SOL    HW127995   1.731   1.749   1.990
 9032SOL    HW227996   1.794   1.598   1.994
 9033SOL     OW27997   1.469   3.947   2.663
 9033SOL    HW127998   1.401   3.970   2.733
 9033SOL    HW227999   1.549   4.006   2.674
 9034SOL     OW28000   2.915   6.786   6.041
 9034SOL    HW128001   2.818   6.805   6.058
 9034SOL    HW228002   2.929   6.688   6.034
 9035SOL     OW28003   6.873   1.409   4.534
 9035SOL    HW128004   6.882   1.336   4.602
 9035SOL    HW228005   6.777   1.416   4.506
 9036SOL     OW28006   1.436   1.724   5.141
 9036SOL    HW128007   1.524   1.677   5.144
 9036SOL    HW228008   1.364   1.659   5.117
 9037SOL     OW28009   2.025   3.715   6.234
 9037SOL    HW128010   1.948   3.672   6.187
 9037SOL    HW228011   1.996   3.747   6.324
 9038SOL     OW28012   5.139   6.477   5.278
 9038SOL    HW128013   5.072   6.408   5.307
 9038SOL    HW228014   5.221   6.430   5.244
 9039SOL     OW28015   2.066   5.362   5.950
 9039SOL    HW128016   2.098   5.455   5.966
 9039SOL    HW228017   1.999   5.362   5.875
 9040SOL     OW28018   2.241   1.503   2.769
 9040SOL    HW128019   2.151   1.517   2.726
 9040SOL    HW228020   2.310   1.492   2.698
 9041SOL     OW28021   2.261   3.132   0.130
 9041SOL    HW128022   2.340   3.191   0.141
 9041SOL    HW228023   2.177   3.185   0.141
 9042SOL     OW28024   3.105   4.998   3.776
 9042SOL    HW128025   3.166   4.964   3.704
 9042SOL    HW228026   3.158   5.043   3.847
 9043SOL     OW28027   0.166   2.408   5.778
 9043SOL    HW128028   0.243   2.344   5.780
 9043SOL    HW228029   0.180   2.479   5.848
 9044SOL     OW28030   6.486   5.783   0.601
 9044SOL    HW128031   6.404   5.741   0.563
 9044SOL    HW228032   6.490   5.767   0.699
 9045SOL     OW28033   3.133   6.570   4.371
 9045SOL    HW128034   3.092   6.638   4.431
 9045SOL    HW228035   3.170   6.495   4.426
 9046SOL     OW28036   3.268   3.933   4.936
 9046SOL    HW128037   3.237   3.969   5.024
 9046SOL    HW228038   3.270   4.007   4.869
 9047SOL     OW28039   1.339   4.951   4.980
 9047SOL    HW128040   1.357   4.909   4.891
 9047SOL    HW228041   1.419   5.004   5.009
 9048SOL     OW28042   0.860   3.114   4.524
 9048SOL    HW128043   0.895   3.148   4.611
 9048SOL    HW228044   0.936   3.080   4.468
 9049SOL     OW28045   5.583   5.466   6.336
 9049SOL    HW128046   5.512   5.503   6.397
 9049SOL    HW228047   5.540   5.418   6.260
 9050SOL     OW28048   0.228   4.739   6.128
 9050SOL    HW128049   0.290   4.725   6.206
 9050SOL    HW228050   0.264   4.692   6.048
 9051SOL     OW28051   5.141   6.510   6.301
 9051SOL    HW128052   5.108   6.572   6.372
 9051SOL    HW228053   5.192   6.561   6.233
 9052SOL     OW28054   1.878   4.891   5.013
 9052SOL    HW128055   1.932   4.884   4.929
 9052SOL    HW228056   1.869   4.987   5.040
 9053SOL     OW28057   3.246   2.024   3.518
 9053SOL    HW128058   3.280   2.034   3.612
 9053SOL    HW228059   3.305   1.960   3.468
 9054SOL     OW28060   2.946   0.541   1.124
 9054SOL    HW128061   2.994   0.601   1.060
 9054SOL    HW228062   2.916   0.459   1.075
 9055SOL     OW28063   1.236   2.380   3.783
 9055SOL    HW128064   1.214   2.361   3.879
 9055SOL    HW228065   1.331   2.410   3.777
 9056SOL     OW28066   5.394   0.887   3.068
 9056SOL    HW128067   5.419   0.796   3.102
 9056SOL    HW228068   5.354   0.941   3.142
 9057SOL     OW28069   5.244   5.361   5.999
 9057SOL    HW128070   5.215   5.412   5.918
 9057SOL    HW228071   5.183   5.283   6.012
 9058SOL     OW28072   1.539   3.206   4.388
 9058SOL    HW128073   1.475   3.266   4.435
 9058SOL    HW228074   1.511   3.111   4.399
 9059SOL     OW28075   0.449   1.194   2.200
 9059SOL    HW128076   0.506   1.255   2.256
 9059SOL    HW228077   0.368   1.244   2.170
 9060SOL     OW28078   0.423   4.295   1.111
 9060SOL    HW128079   0.323   4.293   1.114
 9060SOL    HW228080   0.455   4.384   1.078
 9061SOL     OW28081   5.844   4.721   1.848
 9061SOL    HW128082   5.746   4.715   1.826
 9061SOL    HW228083   5.867   4.653   1.918
 9062SOL     OW28084   0.556   5.651   3.641
 9062SOL    HW128085   0.617   5.579   3.608
 9062SOL    HW228086   0.545   5.642   3.740
 9063SOL     OW28087   3.908   1.425   1.771
 9063SOL    HW128088   3.815   1.403   1.741
 9063SOL    HW228089   3.904   1.489   1.848
 9064SOL     OW28090   0.466   4.802   3.373
 9064SOL    HW128091   0.453   4.864   3.295
 9064SOL    HW228092   0.403   4.827   3.447
 9065SOL     OW28093   2.349   5.150   5.747
 9065SOL    HW128094   2.332   5.082   5.819
 9065SOL    HW228095   2.346   5.242   5.787
 9066SOL     OW28096   4.953   4.778   5.154
 9066SOL    HW128097   5.016   4.830   5.211
 9066SOL    HW228098   4.894   4.722   5.212
 9067SOL     OW28099   6.933   0.038   4.230
 9067SOL    HW128100   7.019   0.011   4.188
 9067SOL    HW228101   6.857   7.016   4.184
 9068SOL     OW28102   4.857   6.778   4.713
 9068SOL    HW128103   4.831   6.860   4.663
 9068SOL    HW228104   4.955   6.782   4.736
 9069SOL     OW28105   5.110   1.767   1.777
 9069SOL    HW128106   5.190   1.719   1.741
 9069SOL    HW228107   5.040   1.701   1.802
 9070SOL     OW28108   1.486   1.926   5.959
 9070SOL    HW128109   1.586   1.928   5.958
 9070SOL    HW228110   1.455   1.875   6.039
 9071SOL     OW28111   5.084   1.964   5.406
 9071SOL    HW128112   5.070   1.872   5.443
 9071SOL    HW228113   5.145   1.960   5.328
 9072SOL     OW28114   4.988   1.134   2.930
 9072SOL    HW128115   5.063   1.120   2.864
 9072SOL    HW228116   4.911   1.075   2.905
 9073SOL     OW28117   4.640   1.401   6.562
 9073SOL    HW128118   4.568   1.411   6.493
 9073SOL    HW228119   4.714   1.466   6.544
 9074SOL     OW28120   2.030   6.751   2.042
 9074SOL    HW128121   2.047   6.691   1.964
 9074SOL    HW228122   1.965   6.823   2.016
 9075SOL     OW28123   6.255   0.082   1.470
 9075SOL    HW128124   6.354   0.097   1.477
 9075SOL    HW228125   6.231   0.067   1.375
 9076SOL     OW28126   6.722   0.656   1.959
 9076SOL    HW128127   6.661   0.577   1.965
 9076SOL    HW228128   6.674   0.731   1.912
 9077SOL     OW28129   6.474   1.583   5.919
 9077SOL    HW128130   6.460   1.568   6.016
 9077SOL    HW228131   6.426   1.513   5.866
 9078SOL     OW28132   5.319   5.922   0.150
 9078SOL    HW128133   5.293   5.827   0.167
 9078SOL    HW228134   5.332   5.968   0.238
 9079SOL     OW28135   0.970   0.667   6.585
 9079SOL    HW128136   0.949   0.762   6.561
 9079SOL    HW228137   1.014   0.665   6.675
 9080SOL     OW28138   6.008   3.338   1.335
 9080SOL    HW128139   6.055   3.415   1.292
 9080SOL    HW228140   5.914   3.364   1.357
 9081SOL     OW28141   3.648   2.112   0.427
 9081SOL    HW128142   3.732   2.154   0.391
 9081SOL    HW228143   3.650   2.114   0.527
 9082SOL     OW28144   3.151   5.650   5.589
 9082SOL    HW128145   3.157   5.749   5.601
 9082SOL    HW228146   3.082   5.613   5.651
 9083SOL     OW28147   4.249   4.997   0.058
 9083SOL    HW128148   4.257   5.041   6.992
 9083SOL    HW228149   4.162   4.949   0.064
 9084SOL     OW28150   0.591   2.777   5.869
 9084SOL    HW128151   0.596   2.820   5.779
 9084SOL    HW228152   0.524   2.703   5.867
 9085SOL     OW28153   2.843   5.195   6.710
 9085SOL    HW128154   2.846   5.122   6.641
 9085SOL    HW228155   2.747   5.217   6.730
 9086SOL     OW28156   6.820   4.423   0.489
 9086SOL    HW128157   6.825   4.372   0.403
 9086SOL    HW228158   6.725   4.422   0.522
 9087SOL     OW28159   6.089   1.145   1.308
 9087SOL    HW128160   6.173   1.152   1.363
 9087SOL    HW228161   6.021   1.091   1.358
 9088SOL     OW28162   6.637   0.063   0.271
 9088SOL    HW128163   6.637   0.043   0.173
 9088SOL    HW228164   6.632   7.001   0.322
 9089SOL     OW28165   4.930   5.897   3.922
 9089SOL    HW128166   4.831   5.891   3.928
 9089SOL    HW228167   4.967   5.810   3.888
 9090SOL     OW28168   5.899   6.606   4.829
 9090SOL    HW128169   5.839   6.553   4.769
 9090SOL    HW228170   5.933   6.686   4.780
 9091SOL     OW28171   2.098   1.977   1.134
 9091SOL    HW128172   2.164   1.974   1.209
 9091SOL    HW228173   2.138   1.938   1.052
 9092SOL     OW28174   1.051   6.232   5.688
 9092SOL    HW128175   1.026   6.327   5.711
 9092SOL    HW228176   1.096   6.231   5.599
 9093SOL     OW28177   1.712   5.233   0.264
 9093SOL    HW128178   1.713   5.133   0.260
 9093SOL    HW228179   1.622   5.263   0.298
 9094SOL     OW28180   0.310   5.889   1.998
 9094SOL    HW128181   0.275   5.958   1.935
 9094SOL    HW228182   0.234   5.840   2.041
 9095SOL     OW28183   3.843   3.255   6.967
 9095SOL    HW128184   3.761   3.225   7.016
 9095SOL    HW228185   3.862   3.191   6.892
 9096SOL     OW28186   5.550   2.805   2.968
 9096SOL    HW128187   5.570   2.785   2.872
 9096SOL    HW228188   5.537   2.903   2.980
 9097SOL     OW28189   1.460   3.519   6.750
 9097SOL    HW128190   1.490   3.572   6.829
 9097SOL    HW228191   1.425   3.431   6.780
 9098SOL     OW28192   3.987   3.975   1.875
 9098SOL    HW128193   3.940   3.920   1.806
 9098SOL    HW228194   4.084   3.982   1.852
 9099SOL     OW28195   2.502   3.458   1.307
 9099SOL    HW128196   2.511   3.443   1.406
 9099SOL    HW228197   2.547   3.544   1.283
 9100SOL     OW28198   0.703   3.250   1.142
 9100SOL    HW128199   0.705   3.265   1.043
 9100SOL    HW228200   0.694   3.152   1.161
 9101SOL     OW28201   1.482   2.938   2.488
 9101SOL    HW128202   1.521   2.898   2.571
 9101SOL    HW228203   1.541   3.012   2.456
 9102SOL     OW28204   4.210   5.466   2.155
 9102SOL    HW128205   4.135   5.519   2.194
 9102SOL    HW228206   4.234   5.391   2.216
 9103SOL     OW28207   6.807   3.893   0.685
 9103SOL    HW128208   6.808   3.981   0.637
 9103SOL    HW228209   6.769   3.823   0.624
 9104SOL     OW28210   4.596   6.356   1.475
 9104SOL    HW128211   4.517   6.409   1.446
 9104SOL    HW228212   4.606   6.277   1.415
 9105SOL     OW28213   1.418   1.324   6.327
 9105SOL    HW128214   1.492   1.340   6.392
 9105SOL    HW228215   1.455   1.323   6.234
 9106SOL     OW28216   5.833   5.135   0.076
 9106SOL    HW128217   5.760   5.175   0.021
 9106SOL    HW228218   5.795   5.066   0.137
 9107SOL     OW28219   3.256   0.053   0.747
 9107SOL    HW128220   3.339   0.045   0.691
 9107SOL    HW228221   3.180   0.010   0.700
 9108SOL     OW28222   4.837   4.916   5.511
 9108SOL    HW128223   4.814   4.996   5.567
 9108SOL    HW228224   4.808   4.933   5.417
 9109SOL     OW28225   2.849   2.295   3.664
 9109SOL    HW128226   2.771   2.356   3.673
 9109SOL    HW228227   2.896   2.312   3.578
 9110SOL     OW28228   1.825   4.730   3.798
 9110SOL    HW128229   1.791   4.691   3.883
 9110SOL    HW228230   1.924   4.747   3.806
 9111SOL     OW28231   3.974   4.408   1.374
 9111SOL    HW128232   4.013   4.468   1.304
 9111SOL    HW228233   3.909   4.344   1.332
 9112SOL     OW28234   0.953   4.438   2.584
 9112SOL    HW128235   0.974   4.400   2.674
 9112SOL    HW228236   0.896   4.374   2.532
 9113SOL     OW28237   5.311   0.131   0.200
 9113SOL    HW128238   5.294   0.221   0.239
 9113SOL    HW228239   5.399   0.130   0.153
 9114SOL     OW28240   2.180   4.457   2.274
 9114SOL    HW128241   2.176   4.404   2.359
 9114SOL    HW228242   2.268   4.443   2.230
 9115SOL     OW28243   1.427   4.758   4.281
 9115SOL    HW128244   1.352   4.745   4.216
 9115SOL    HW228245   1.390   4.775   4.372
 9116SOL     OW28246   6.889   1.551   6.861
 9116SOL    HW128247   6.987   1.532   6.848
 9116SOL    HW228248   6.850   1.585   6.775
 9117SOL     OW28249   6.450   2.834   6.422
 9117SOL    HW128250   6.415   2.882   6.341
 9117SOL    HW228251   6.374   2.814   6.484
 9118SOL     OW28252   6.472   0.246   1.227
 9118SOL    HW128253   6.558   0.258   1.277
 9118SOL    HW228254   6.436   0.154   1.243
 9119SOL     OW28255   6.045   0.582   1.905
 9119SOL    HW128256   5.983   0.648   1.863
 9119SOL    HW228257   6.026   0.491   1.868
 9120SOL     OW28258   5.418   1.605   5.758
 9120SOL    HW128259   5.517   1.597   5.769
 9120SOL    HW228260   5.390   1.701   5.767
 9121SOL     OW28261   0.616   2.636   5.557
 9121SOL    HW128262   0.634   2.729   5.589
 9121SOL    HW228263   0.649   2.626   5.463
 9122SOL     OW28264   1.494   3.274   3.031
 9122SOL    HW128265   1.587   3.307   3.013
 9122SOL    HW228266   1.429   3.338   2.991
 9123SOL     OW28267   2.773   6.207   5.690
 9123SOL    HW128268   2.752   6.206   5.593
 9123SOL    HW228269   2.695   6.245   5.741
 9124SOL     OW28270   6.534   6.073   5.327
 9124SOL    HW128271   6.557   6.157   5.277
 9124SOL    HW228272   6.441   6.045   5.303
 9125SOL     OW28273   4.586   4.379   3.661
 9125SOL    HW128274   4.541   4.351   3.577
 9125SOL    HW228275   4.647   4.306   3.692
 9126SOL     OW28276   6.144   1.005   1.594
 9126SOL    HW128277   6.207   1.082   1.582
 9126SOL    HW228278   6.194   0.919   1.587
 9127SOL     OW28279   5.708   6.948   6.124
 9127SOL    HW128280   5.635   6.956   6.192
 9127SOL    HW228281   5.794   6.925   6.170
 9128SOL     OW28282   3.596   1.267   5.221
 9128SOL    HW128283   3.541   1.330   5.275
 9128SOL    HW228284   3.674   1.316   5.182
 9129SOL     OW28285   1.579   2.649   6.774
 9129SOL    HW128286   1.565   2.717   6.703
 9129SOL    HW228287   1.554   2.688   6.863
 9130SOL     OW28288   6.711   4.741   6.996
 9130SOL    HW128289   6.694   4.645   7.018
 9130SOL    HW228290   6.624   4.791   6.993
 9131SOL     OW28291   0.439   4.182   4.838
 9131SOL    HW128292   0.529   4.216   4.865
 9131SOL    HW228293   0.371   4.212   4.905
 9132SOL     OW28294   6.433   3.820   3.678
 9132SOL    HW128295   6.375   3.743   3.706
 9132SOL    HW228296   6.479   3.858   3.757
 9133SOL     OW28297   2.323   4.804   0.855
 9133SOL    HW128298   2.360   4.734   0.793
 9133SOL    HW228299   2.384   4.814   0.934
 9134SOL     OW28300   3.631   6.478   0.065
 9134SOL    HW128301   3.630   6.379   0.081
 9134SOL    HW228302   3.558   6.521   0.120
 9135SOL     OW28303   0.019   0.192   2.305
 9135SOL    HW128304   0.110   0.220   2.338
 9135SOL    HW228305   6.983   0.272   2.302
 9136SOL     OW28306   5.479   5.164   5.659
 9136SOL    HW128307   5.506   5.256   5.631
 9136SOL    HW228308   5.529   5.097   5.605
 9137SOL     OW28309   5.105   1.251   1.282
 9137SOL    HW128310   5.187   1.214   1.324
 9137SOL    HW228311   5.121   1.266   1.185
 9138SOL     OW28312   6.304   5.228   6.229
 9138SOL    HW128313   6.252   5.243   6.313
 9138SOL    HW228314   6.363   5.307   6.211
 9139SOL     OW28315   3.085   1.479   5.846
 9139SOL    HW128316   3.154   1.527   5.899
 9139SOL    HW228317   3.051   1.539   5.773
 9140SOL     OW28318   6.389   2.479   3.017
 9140SOL    HW128319   6.339   2.533   2.949
 9140SOL    HW228320   6.342   2.392   3.032
 9141SOL     OW28321   5.381   6.974   6.198
 9141SOL    HW128322   5.302   6.949   6.254
 9141SOL    HW228323   5.352   0.012   6.124
 9142SOL     OW28324   0.215   3.224   5.476
 9142SOL    HW128325   0.302   3.250   5.517
 9142SOL    HW228326   0.205   3.125   5.478
 9143SOL     OW28327   4.386   3.493   0.379
 9143SOL    HW128328   4.484   3.497   0.395
 9143SOL    HW228329   4.340   3.557   0.440
 9144SOL     OW28330   2.008   6.035   6.318
 9144SOL    HW128331   2.107   6.028   6.327
 9144SOL    HW228332   1.977   5.971   6.248
 9145SOL     OW28333   0.274   5.027   0.544
 9145SOL    HW128334   0.325   4.949   0.578
 9145SOL    HW228335   0.185   4.996   0.509
 9146SOL     OW28336   5.043   2.603   1.296
 9146SOL    HW128337   4.998   2.692   1.302
 9146SOL    HW228338   5.098   2.588   1.378
 9147SOL     OW28339   5.105   6.623   4.317
 9147SOL    HW128340   5.046   6.544   4.299
 9147SOL    HW228341   5.177   6.627   4.248
 9148SOL     OW28342   6.354   6.203   2.285
 9148SOL    HW128343   6.408   6.120   2.297
 9148SOL    HW228344   6.300   6.220   2.368
 9149SOL     OW28345   4.825   2.747   3.890
 9149SOL    HW128346   4.804   2.836   3.849
 9149SOL    HW228347   4.922   2.743   3.912
 9150SOL     OW28348   4.341   6.282   3.215
 9150SOL    HW128349   4.419   6.340   3.193
 9150SOL    HW228350   4.258   6.323   3.178
 9151SOL     OW28351   1.468   4.088   2.267
 9151SOL    HW128352   1.414   4.163   2.304
 9151SOL    HW228353   1.513   4.039   2.343
 9152SOL     OW28354   2.731   5.817   3.931
 9152SOL    HW128355   2.734   5.742   3.997
 9152SOL    HW228356   2.696   5.783   3.843
 9153SOL     OW28357   1.613   2.669   0.284
 9153SOL    HW128358   1.621   2.669   0.384
 9153SOL    HW228359   1.647   2.582   0.248
 9154SOL     OW28360   2.832   6.129   6.575
 9154SOL    HW128361   2.810   6.122   6.478
 9154SOL    HW228362   2.810   6.222   6.607
 9155SOL     OW28363   2.263   3.617   6.771
 9155SOL    HW128364   2.256   3.568   6.859
 9155SOL    HW228365   2.357   3.651   6.760
 9156SOL     OW28366   2.837   2.569   1.241
 9156SOL    HW128367   2.738   2.583   1.250
 9156SOL    HW228368   2.853   2.480   1.198
 9157SOL     OW28369   5.764   4.623   5.657
 9157SOL    HW128370   5.837   4.558   5.638
 9157SOL    HW228371   5.687   4.606   5.595
 9158SOL     OW28372   6.809   3.374   4.644
 9158SOL    HW128373   6.894   3.426   4.651
 9158SOL    HW228374   6.780   3.345   4.735
 9159SOL     OW28375   0.171   6.219   3.068
 9159SOL    HW128376   0.228   6.298   3.092
 9159SOL    HW228377   0.217   6.135   3.097
 9160SOL     OW28378   0.052   6.827   5.059
 9160SOL    HW128379   0.039   6.922   5.032
 9160SOL    HW228380   0.042   6.819   5.158
 9161SOL     OW28381   4.818   4.011   4.781
 9161SOL    HW128382   4.762   4.074   4.835
 9161SOL    HW228383   4.838   3.930   4.835
 9162SOL     OW28384   5.030   2.082   3.216
 9162SOL    HW128385   5.062   2.099   3.123
 9162SOL    HW228386   4.953   2.018   3.214
 9163SOL     OW28387   2.248   2.931   3.664
 9163SOL    HW128388   2.292   3.015   3.696
 9163SOL    HW228389   2.254   2.861   3.735
 9164SOL     OW28390   2.647   1.257   6.708
 9164SOL    HW128391   2.623   1.201   6.629
 9164SOL    HW228392   2.623   1.208   6.792
 9165SOL     OW28393   6.084   0.793   5.906
 9165SOL    HW128394   5.989   0.774   5.930
 9165SOL    HW228395   6.127   0.710   5.869
 9166SOL     OW28396   4.823   6.090   1.093
 9166SOL    HW128397   4.866   6.044   1.171
 9166SOL    HW228398   4.780   6.021   1.034
 9167SOL     OW28399   2.099   2.727   6.100
 9167SOL    HW128400   2.156   2.665   6.046
 9167SOL    HW228401   2.011   2.739   6.055
 9168SOL     OW28402   1.816   6.613   5.736
 9168SOL    HW128403   1.786   6.643   5.827
 9168SOL    HW228404   1.746   6.637   5.669
 9169SOL     OW28405   7.017   0.834   4.758
 9169SOL    HW128406   6.989   0.754   4.810
 9169SOL    HW228407   0.033   0.902   4.820
 9170SOL     OW28408   0.174   4.916   6.588
 9170SOL    HW128409   0.184   4.822   6.621
 9170SOL    HW228410   0.166   4.978   6.667
 9171SOL     OW28411   3.020   5.814   0.063
 9171SOL    HW128412   3.026   5.744   7.015
 9171SOL    HW228413   3.102   5.809   0.120
 9172SOL     OW28414   3.696   0.416   4.742
 9172SOL    HW128415   3.607   0.453   4.766
 9172SOL    HW228416   3.763   0.441   4.812
 9173SOL     OW28417   5.743   4.711   4.615
 9173SOL    HW128418   5.668   4.712   4.681
 9173SOL    HW228419   5.811   4.779   4.642
 9174SOL     OW28420   6.040   3.678   0.487
 9174SOL    HW128421   6.120   3.618   0.491
 9174SOL    HW228422   6.046   3.746   0.560
 9175SOL     OW28423   2.302   6.512   4.789
 9175SOL    HW128424   2.348   6.560   4.864
 9175SOL    HW228425   2.209   6.547   4.780
 9176SOL     OW28426   2.131   1.325   5.581
 9176SOL    HW128427   2.185   1.341   5.664
 9176SOL    HW228428   2.164   1.385   5.508
 9177SOL     OW28429   1.013   4.776   4.307
 9177SOL    HW128430   0.933   4.761   4.249
 9177SOL    HW228431   1.088   4.814   4.252
 9178SOL     OW28432   2.124   5.163   0.956
 9178SOL    HW128433   2.133   5.206   0.867
 9178SOL    HW228434   2.043   5.105   0.957
 9179SOL     OW28435   2.768   5.074   4.233
 9179SOL    HW128436   2.845   5.112   4.283
 9179SOL    HW228437   2.798   4.997   4.176
 9180SOL     OW28438   6.199   2.359   3.584
 9180SOL    HW128439   6.288   2.376   3.626
 9180SOL    HW228440   6.212   2.322   3.492
 9181SOL     OW28441   4.371   2.331   3.009
 9181SOL    HW128442   4.304   2.261   3.032
 9181SOL    HW228443   4.404   2.375   3.093
 9182SOL     OW28444   2.967   0.068   2.461
 9182SOL    HW128445   3.018   0.134   2.517
 9182SOL    HW228446   3.029   0.024   2.396
 9183SOL     OW28447   5.206   5.842   0.634
 9183SOL    HW128448   5.168   5.759   0.675
 9183SOL    HW228449   5.246   5.899   0.705
 9184SOL     OW28450   5.349   1.073   0.290
 9184SOL    HW128451   5.250   1.060   0.284
 9184SOL    HW228452   5.395   0.993   0.251
 9185SOL     OW28453   4.246   6.927   5.175
 9185SOL    HW128454   4.189   6.924   5.258
 9185SOL    HW228455   4.307   7.005   5.180
 9186SOL     OW28456   5.759   1.411   3.906
 9186SOL    HW128457   5.801   1.439   3.992
 9186SOL    HW228458   5.822   1.353   3.854
 9187SOL     OW28459   2.434   0.560   1.527
 9187SOL    HW128460   2.510   0.529   1.584
 9187SOL    HW228461   2.416   0.492   1.456
 9188SOL     OW28462   2.168   6.748   2.266
 9188SOL    HW128463   2.174   6.651   2.291
 9188SOL    HW228464   2.130   6.757   2.175
 9189SOL     OW28465   5.617   5.781   2.565
 9189SOL    HW128466   5.649   5.729   2.486
 9189SOL    HW228467   5.682   5.772   2.640
 9190SOL     OW28468   1.617   4.945   0.268
 9190SOL    HW128469   1.522   4.974   0.280
 9190SOL    HW228470   1.635   4.928   0.171
 9191SOL     OW28471   6.060   1.025   5.602
 9191SOL    HW128472   6.015   0.941   5.569
 9191SOL    HW228473   6.048   1.033   5.700
 9192SOL     OW28474   0.571   3.997   5.042
 9192SOL    HW128475   0.638   4.004   4.968
 9192SOL    HW228476   0.578   4.076   5.102
 9193SOL     OW28477   4.450   4.139   0.192
 9193SOL    HW128478   4.496   4.054   0.219
 9193SOL    HW228479   4.448   4.145   0.092
 9194SOL     OW28480   3.112   1.142   3.263
 9194SOL    HW128481   3.045   1.199   3.216
 9194SOL    HW228482   3.204   1.170   3.237
 9195SOL     OW28483   1.706   2.248   4.121
 9195SOL    HW128484   1.750   2.211   4.204
 9195SOL    HW228485   1.773   2.248   4.046
 9196SOL     OW28486   4.161   0.885   4.872
 9196SOL    HW128487   4.203   0.877   4.963
 9196SOL    HW228488   4.181   0.802   4.820
 9197SOL     OW28489   1.521   4.396   1.584
 9197SOL    HW128490   1.529   4.297   1.598
 9197SOL    HW228491   1.555   4.420   1.493
 9198SOL     OW28492   6.348   5.460   5.297
 9198SOL    HW128493   6.360   5.464   5.197
 9198SOL    HW228494   6.272   5.518   5.324
 9199SOL     OW28495   0.824   3.836   6.531
 9199SOL    HW128496   0.786   3.839   6.623
 9199SOL    HW228497   0.911   3.884   6.529
 9200SOL     OW28498   2.449   0.167   1.256
 9200SOL    HW128499   2.355   0.135   1.269
 9200SOL    HW228500   2.476   0.154   1.161
 9201SOL     OW28501   0.596   3.305   0.349
 9201SOL    HW128502   0.536   3.337   0.275
 9201SOL    HW228503   0.572   3.211   0.373
 9202SOL     OW28504   2.443   6.858   3.518
 9202SOL    HW128505   2.403   6.799   3.589
 9202SOL    HW228506   2.370   6.893   3.460
 9203SOL     OW28507   0.193   5.332   6.555
 9203SOL    HW128508   0.094   5.344   6.555
 9203SOL    HW228509   0.226   5.336   6.650
 9204SOL     OW28510   4.776   2.719   6.730
 9204SOL    HW128511   4.816   2.803   6.694
 9204SOL    HW228512   4.808   2.704   6.823
 9205SOL     OW28513   6.290   4.071   2.661
 9205SOL    HW128514   6.250   4.007   2.596
 9205SOL    HW228515   6.255   4.052   2.753
 9206SOL     OW28516   3.734   5.362   1.306
 9206SOL    HW128517   3.651   5.348   1.251
 9206SOL    HW228518   3.709   5.364   1.403
 9207SOL     OW28519   4.038   4.711   0.235
 9207SOL    HW128520   4.048   4.793   0.178
 9207SOL    HW228521   4.048   4.736   0.331
 9208SOL     OW28522   6.088   4.548   4.399
 9208SOL    HW128523   6.181   4.581   4.413
 9208SOL    HW228524   6.074   4.464   4.451
 9209SOL     OW28525   3.044   0.658   0.198
 9209SOL    HW128526   3.066   0.723   0.126
 9209SOL    HW228527   2.947   0.632   0.192
 9210SOL     OW28528   6.684   1.082   2.749
 9210SOL    HW128529   6.784   1.085   2.754
 9210SOL    HW228530   6.655   0.986   2.745
 9211SOL     OW28531   6.808   2.624   3.999
 9211SOL    HW128532   6.822   2.575   3.913
 9211SOL    HW228533   6.896   2.658   4.032
 9212SOL     OW28534   4.004   5.496   4.385
 9212SOL    HW128535   3.978   5.418   4.329
 9212SOL    HW228536   3.937   5.570   4.372
 9213SOL     OW28537   5.992   2.680   5.210
 9213SOL    HW128538   5.937   2.697   5.129
 9213SOL    HW228539   6.078   2.731   5.204
 9214SOL     OW28540   6.951   5.501   5.632
 9214SOL    HW128541   7.017   5.446   5.580
 9214SOL    HW228542   6.943   5.591   5.590
 9215SOL     OW28543   1.019   2.529   0.388
 9215SOL    HW128544   1.081   2.514   0.466
 9215SOL    HW228545   0.932   2.483   0.405
 9216SOL     OW28546   3.047   0.143   3.477
 9216SOL    HW128547   3.054   0.049   3.443
 9216SOL    HW228548   2.950   0.166   3.490
 9217SOL     OW28549   0.354   0.682   5.701
 9217SOL    HW128550   0.292   0.636   5.637
 9217SOL    HW228551   0.342   0.781   5.691
 9218SOL     OW28552   3.735   6.263   0.240
 9218SOL    HW128553   3.698   6.200   0.307
 9218SOL    HW228554   3.748   6.353   0.282
 9219SOL     OW28555   0.605   3.011   0.083
 9219SOL    HW128556   0.677   3.019   0.014
 9219SOL    HW228557   0.645   2.979   0.169
 9220SOL     OW28558   2.785   6.540   1.437
 9220SOL    HW128559   2.714   6.515   1.371
 9220SOL    HW228560   2.870   6.492   1.415
 9221SOL     OW28561   3.373   0.360   4.351
 9221SOL    HW128562   3.355   0.371   4.253
 9221SOL    HW228563   3.326   0.433   4.401
 9222SOL     OW28564   2.357   0.447   6.716
 9222SOL    HW128565   2.426   0.488   6.775
 9222SOL    HW228566   2.347   0.350   6.738
 9223SOL     OW28567   1.767   1.892   4.865
 9223SOL    HW128568   1.695   1.950   4.827
 9223SOL    HW228569   1.754   1.884   4.964
 9224SOL     OW28570   3.168   5.225   4.630
 9224SOL    HW128571   3.198   5.309   4.673
 9224SOL    HW228572   3.246   5.182   4.583
 9225SOL     OW28573   3.502   6.746   6.138
 9225SOL    HW128574   3.440   6.809   6.091
 9225SOL    HW228575   3.508   6.660   6.086
 9226SOL     OW28576   5.646   6.245   1.641
 9226SOL    HW128577   5.606   6.199   1.720
 9226SOL    HW228578   5.630   6.343   1.648
 9227SOL     OW28579   0.803   5.012   3.249
 9227SOL    HW128580   0.822   5.026   3.151
 9227SOL    HW228581   0.863   4.940   3.284
 9228SOL     OW28582   1.264   0.723   6.103
 9228SOL    HW128583   1.256   0.654   6.174
 9228SOL    HW228584   1.176   0.770   6.093
 9229SOL     OW28585   1.979   5.830   4.718
 9229SOL    HW128586   1.897   5.813   4.773
 9229SOL    HW228587   2.010   5.924   4.733
 9230SOL     OW28588   5.905   0.363   2.360
 9230SOL    HW128589   5.975   0.312   2.310
 9230SOL    HW228590   5.815   0.341   2.324
 9231SOL     OW28591   2.115   3.360   3.990
 9231SOL    HW128592   2.125   3.443   4.045
 9231SOL    HW228593   2.018   3.336   3.984
 9232SOL     OW28594   3.493   5.344   1.163
 9232SOL    HW128595   3.464   5.249   1.160
 9232SOL    HW228596   3.423   5.399   1.208
 9233SOL     OW28597   5.693   5.158   1.660
 9233SOL    HW128598   5.736   5.187   1.746
 9233SOL    HW228599   5.764   5.140   1.592
 9234SOL     OW28600   3.277   5.748   3.919
 9234SOL    HW128601   3.207   5.794   3.864
 9234SOL    HW228602   3.277   5.787   4.012
 9235SOL     OW28603   1.485   1.890   3.281
 9235SOL    HW128604   1.554   1.871   3.211
 9235SOL    HW228605   1.480   1.814   3.345
 9236SOL     OW28606   3.461   4.318   5.556
 9236SOL    HW128607   3.456   4.388   5.627
 9236SOL    HW228608   3.557   4.300   5.535
 9237SOL     OW28609   1.855   4.625   4.417
 9237SOL    HW128610   1.862   4.653   4.513
 9237SOL    HW228611   1.945   4.630   4.374
 9238SOL     OW28612   3.855   2.148   6.106
 9238SOL    HW128613   3.880   2.123   6.013
 9238SOL    HW228614   3.892   2.238   6.128
 9239SOL     OW28615   0.296   3.789   1.343
 9239SOL    HW128616   0.367   3.817   1.408
 9239SOL    HW228617   0.252   3.706   1.376
 9240SOL     OW28618   5.845   1.183   0.400
 9240SOL    HW128619   5.861   1.275   0.436
 9240SOL    HW228620   5.915   1.160   0.333
 9241SOL     OW28621   6.614   5.491   6.484
 9241SOL    HW128622   6.686   5.558   6.469
 9241SOL    HW228623   6.554   5.522   6.558
 9242SOL     OW28624   0.041   5.202   0.481
 9242SOL    HW128625   0.011   5.296   0.498
 9242SOL    HW228626   0.025   5.178   0.385
 9243SOL     OW28627   6.367   5.524   3.028
 9243SOL    HW128628   6.390   5.458   3.099
 9243SOL    HW228629   6.377   5.616   3.064
 9244SOL     OW28630   4.589   5.602   6.052
 9244SOL    HW128631   4.632   5.675   5.999
 9244SOL    HW228632   4.605   5.619   6.149
 9245SOL     OW28633   1.124   5.279   2.400
 9245SOL    HW128634   1.106   5.181   2.407
 9245SOL    HW228635   1.127   5.319   2.492
 9246SOL     OW28636   5.852   4.832   3.633
 9246SOL    HW128637   5.756   4.810   3.621
 9246SOL    HW228638   5.862   4.906   3.700
 9247SOL     OW28639   0.657   6.621   3.246
 9247SOL    HW128640   0.751   6.597   3.226
 9247SOL    HW228641   0.617   6.552   3.306
 9248SOL     OW28642   2.392   2.417   5.941
 9248SOL    HW128643   2.481   2.455   5.921
 9248SOL    HW228644   2.401   2.345   6.011
 9249SOL     OW28645   5.815   2.118   5.593
 9249SOL    HW128646   5.765   2.085   5.673
 9249SOL    HW228647   5.836   2.215   5.604
 9250SOL     OW28648   5.227   3.978   4.499
 9250SOL    HW128649   5.253   3.955   4.593
 9250SOL    HW228650   5.276   3.918   4.436
 9251SOL     OW28651   3.813   1.865   3.435
 9251SOL    HW128652   3.730   1.868   3.491
 9251SOL    HW228653   3.854   1.774   3.442
 9252SOL     OW28654   6.736   0.514   4.279
 9252SOL    HW128655   6.709   0.552   4.368
 9252SOL    HW228656   6.657   0.514   4.217
 9253SOL     OW28657   4.028   6.281   6.032
 9253SOL    HW128658   4.116   6.321   6.006
 9253SOL    HW228659   3.991   6.331   6.110
 9254SOL     OW28660   5.632   3.844   1.540
 9254SOL    HW128661   5.623   3.847   1.640
 9254SOL    HW228662   5.705   3.780   1.515
 9255SOL     OW28663   5.271   2.867   6.930
 9255SOL    HW128664   5.198   2.904   6.872
 9255SOL    HW228665   5.258   2.901   7.023
 9256SOL     OW28666   4.066   4.876   3.053
 9256SOL    HW128667   4.002   4.856   3.127
 9256SOL    HW228668   4.047   4.967   3.016
 9257SOL     OW28669   0.709   4.225   2.727
 9257SOL    HW128670   0.801   4.199   2.755
 9257SOL    HW228671   0.685   4.179   2.642
 9258SOL     OW28672   3.590   3.187   3.535
 9258SOL    HW128673   3.637   3.104   3.506
 9258SOL    HW228674   3.641   3.268   3.504
 9259SOL     OW28675   0.962   2.367   1.225
 9259SOL    HW128676   1.005   2.278   1.244
 9259SOL    HW228677   0.952   2.417   1.311
 9260SOL     OW28678   5.103   2.323   5.605
 9260SOL    HW128679   5.161   2.267   5.546
 9260SOL    HW228680   5.090   2.413   5.562
 9261SOL     OW28681   4.198   0.492   6.483
 9261SOL    HW128682   4.241   0.579   6.506
 9261SOL    HW228683   4.256   0.441   6.419
 9262SOL     OW28684   6.044   1.958   5.714
 9262SOL    HW128685   5.953   1.982   5.682
 9262SOL    HW228686   6.055   1.986   5.809
 9263SOL     OW28687   6.024   3.621   1.660
 9263SOL    HW128688   5.948   3.612   1.595
 9263SOL    HW228689   6.065   3.531   1.675
 9264SOL     OW28690   6.004   3.815   0.267
 9264SOL    HW128691   6.019   3.750   0.342
 9264SOL    HW228692   6.056   3.785   0.187
 9265SOL     OW28693   3.228   1.468   0.237
 9265SOL    HW128694   3.305   1.446   0.298
 9265SOL    HW228695   3.245   1.555   0.192
 9266SOL     OW28696   2.902   6.082   2.931
 9266SOL    HW128697   2.956   6.011   2.977
 9266SOL    HW228698   2.892   6.059   2.835
 9267SOL     OW28699   0.288   4.052   5.123
 9267SOL    HW128700   0.277   3.962   5.165
 9267SOL    HW228701   0.371   4.052   5.066
 9268SOL     OW28702   0.694   6.909   2.775
 9268SOL    HW128703   0.714   6.824   2.824
 9268SOL    HW228704   0.761   6.922   2.702
 9269SOL     OW28705   2.826   2.114   0.167
 9269SOL    HW128706   2.744   2.116   0.224
 9269SOL    HW228707   2.831   2.198   0.112
 9270SOL     OW28708   5.821   0.019   5.183
 9270SOL    HW128709   5.823   6.958   5.128
 9270SOL    HW228710   5.744   0.016   5.246
 9271SOL     OW28711   1.658   5.977   1.077
 9271SOL    HW128712   1.666   5.953   0.980
 9271SOL    HW228713   1.595   6.054   1.087
 9272SOL     OW28714   3.155   4.252   6.186
 9272SOL    HW128715   3.195   4.328   6.238
 9272SOL    HW228716   3.197   4.166   6.215
 9273SOL     OW28717   4.940   5.885   3.614
 9273SOL    HW128718   4.931   5.854   3.520
 9273SOL    HW228719   4.984   5.814   3.669
 9274SOL     OW28720   5.906   1.881   6.340
 9274SOL    HW128721   5.827   1.919   6.291
 9274SOL    HW228722   5.884   1.876   6.438
 9275SOL     OW28723   0.490   1.121   0.181
 9275SOL    HW128724   0.453   1.120   0.089
 9275SOL    HW228725   0.590   1.126   0.177
 9276SOL     OW28726   2.519   5.080   4.369
 9276SOL    HW128727   2.497   5.177   4.377
 9276SOL    HW228728   2.613   5.070   4.337
 9277SOL     OW28729   3.689   3.448   0.584
 9277SOL    HW128730   3.682   3.516   0.657
 9277SOL    HW228731   3.727   3.491   0.502
 9278SOL     OW28732   1.667   1.297   3.990
 9278SOL    HW128733   1.715   1.356   4.055
 9278SOL    HW228734   1.733   1.250   3.932
 9279SOL     OW28735   4.429   0.433   1.888
 9279SOL    HW128736   4.486   0.498   1.938
 9279SOL    HW228737   4.468   0.341   1.894
 9280SOL     OW28738   1.391   0.045   4.020
 9280SOL    HW128739   1.337   0.023   3.938
 9280SOL    HW228740   1.330   0.048   4.099
 9281SOL     OW28741   3.104   3.596   0.737
 9281SOL    HW128742   3.028   3.560   0.683
 9281SOL    HW228743   3.069   3.655   0.809
 9282SOL     OW28744   5.059   2.431   4.590
 9282SOL    HW128745   5.157   2.414   4.584
 9282SOL    HW228746   5.022   2.446   4.499
 9283SOL     OW28747   6.425   1.251   2.727
 9283SOL    HW128748   6.506   1.192   2.722
 9283SOL    HW228749   6.377   1.248   2.639
 9284SOL     OW28750   4.107   4.422   6.797
 9284SOL    HW128751   4.048   4.418   6.878
 9284SOL    HW228752   4.065   4.370   6.723
 9285SOL     OW28753   5.053   2.810   0.182
 9285SOL    HW128754   4.984   2.873   0.147
 9285SOL    HW228755   5.044   2.802   0.281
 9286SOL     OW28756   5.911   0.331   5.590
 9286SOL    HW128757   5.897   0.235   5.564
 9286SOL    HW228758   6.005   0.357   5.569
 9287SOL     OW28759   3.512   6.113   1.175
 9287SOL    HW128760   3.560   6.184   1.123
 9287SOL    HW228761   3.494   6.035   1.115
 9288SOL     OW28762   3.837   1.269   5.842
 9288SOL    HW128763   3.796   1.181   5.817
 9288SOL    HW228764   3.898   1.299   5.768
 9289SOL     OW28765   4.226   1.805   2.488
 9289SOL    HW128766   4.130   1.784   2.471
 9289SOL    HW228767   4.260   1.866   2.416
 9290SOL     OW28768   4.227   1.489   4.963
 9290SOL    HW128769   4.177   1.447   4.887
 9290SOL    HW228770   4.180   1.470   5.049
 9291SOL     OW28771   1.997   0.619   5.440
 9291SOL    HW128772   2.066   0.687   5.465
 9291SOL    HW228773   1.977   0.625   5.342
 9292SOL     OW28774   6.397   3.171   6.183
 9292SOL    HW128775   6.324   3.237   6.202
 9292SOL    HW228776   6.483   3.207   6.218
 9293SOL     OW28777   6.229   4.098   0.686
 9293SOL    HW128778   6.301   4.058   0.741
 9293SOL    HW228779   6.269   4.138   0.603
 9294SOL     OW28780   3.946   6.690   6.231
 9294SOL    HW128781   3.856   6.699   6.273
 9294SOL    HW228782   3.959   6.597   6.199
 9295SOL     OW28783   5.298   1.719   3.500
 9295SOL    HW128784   5.220   1.723   3.438
 9295SOL    HW228785   5.315   1.809   3.538
 9296SOL     OW28786   0.091   6.707   6.342
 9296SOL    HW128787   0.164   6.642   6.319
 9296SOL    HW228788   0.044   6.675   6.425
 9297SOL     OW28789   0.190   0.559   1.436
 9297SOL    HW128790   0.252   0.627   1.477
 9297SOL    HW228791   0.213   0.468   1.470
 9298SOL     OW28792   2.275   6.065   5.993
 9298SOL    HW128793   2.357   6.027   6.036
 9298SOL    HW228794   2.297   6.152   5.949
 9299SOL     OW28795   1.172   3.313   4.276
 9299SOL    HW128796   1.086   3.333   4.230
 9299SOL    HW228797   1.248   3.338   4.215
 9300SOL     OW28798   6.686   5.268   4.469
 9300SOL    HW128799   6.708   5.350   4.522
 9300SOL    HW228800   6.590   5.271   4.441
 9301SOL     OW28801   4.918   4.484   3.170
 9301SOL    HW128802   4.844   4.421   3.194
 9301SOL    HW228803   4.981   4.492   3.247
 9302SOL     OW28804   2.237   2.780   3.884
 9302SOL    HW128805   2.189   2.694   3.898
 9302SOL    HW228806   2.278   2.810   3.970
 9303SOL     OW28807   3.452   6.309   0.436
 9303SOL    HW128808   3.456   6.344   0.530
 9303SOL    HW228809   3.486   6.215   0.435
 9304SOL     OW28810   4.002   3.907   0.322
 9304SOL    HW128811   3.902   3.918   0.322
 9304SOL    HW228812   4.025   3.817   0.286
 9305SOL     OW28813   4.957   1.715   1.411
 9305SOL    HW128814   5.011   1.729   1.329
 9305SOL    HW228815   4.979   1.626   1.451
 9306SOL     OW28816   0.328   5.023   4.736
 9306SOL    HW128817   0.268   5.063   4.666
 9306SOL    HW228818   0.421   5.056   4.722
 9307SOL     OW28819   1.248   2.859   0.900
 9307SOL    HW128820   1.200   2.889   0.983
 9307SOL    HW228821   1.214   2.769   0.874
 9308SOL     OW28822   0.722   4.415   1.265
 9308SOL    HW128823   0.796   4.482   1.270
 9308SOL    HW228824   0.757   4.324   1.290
 9309SOL     OW28825   3.724   5.361   5.096
 9309SOL    HW128826   3.685   5.292   5.034
 9309SOL    HW228827   3.792   5.415   5.047
 9310SOL     OW28828   4.467   6.130   6.367
 9310SOL    HW128829   4.540   6.156   6.431
 9310SOL    HW228830   4.507   6.081   6.290
 9311SOL     OW28831   5.824   4.282   1.227
 9311SOL    HW128832   5.777   4.358   1.183
 9311SOL    HW228833   5.836   4.207   1.162
 9312SOL     OW28834   1.981   4.466   0.765
 9312SOL    HW128835   1.963   4.449   0.668
 9312SOL    HW228836   1.901   4.507   0.807
 9313SOL     OW28837   6.808   0.820   1.295
 9313SOL    HW128838   6.844   0.729   1.318
 9313SOL    HW228839   6.883   0.885   1.289
 9314SOL     OW28840   4.535   5.021   6.865
 9314SOL    HW128841   4.506   4.926   6.880
 9314SOL    HW228842   4.457   5.082   6.875
 9315SOL     OW28843   6.417   0.385   5.463
 9315SOL    HW128844   6.511   0.375   5.495
 9315SOL    HW228845   6.388   0.300   5.418
 9316SOL     OW28846   4.727   5.471   4.846
 9316SOL    HW128847   4.709   5.449   4.750
 9316SOL    HW228848   4.804   5.416   4.879
 9317SOL     OW28849   5.899   6.074   2.978
 9317SOL    HW128850   5.844   6.112   2.904
 9317SOL    HW228851   5.979   6.027   2.940
 9318SOL     OW28852   6.852   1.402   4.906
 9318SOL    HW128853   6.908   1.459   4.845
 9318SOL    HW228854   6.865   1.305   4.882
 9319SOL     OW28855   0.668   2.874   6.159
 9319SOL    HW128856   0.755   2.841   6.196
 9319SOL    HW228857   0.635   2.811   6.090
 9320SOL     OW28858   4.034   2.095   5.885
 9320SOL    HW128859   4.043   2.039   5.803
 9320SOL    HW228860   4.123   2.101   5.931
 9321SOL     OW28861   6.317   0.079   2.445
 9321SOL    HW128862   6.408   0.076   2.485
 9321SOL    HW228863   6.279   7.010   2.440
 9322SOL     OW28864   6.863   5.964   6.165
 9322SOL    HW128865   6.900   5.924   6.081
 9322SOL    HW228866   6.936   5.974   6.232
 9323SOL     OW28867   1.261   0.242   5.529
 9323SOL    HW128868   1.357   0.270   5.535
 9323SOL    HW228869   1.233   0.200   5.616
 9324SOL     OW28870   1.985   5.252   0.263
 9324SOL    HW128871   1.887   5.262   0.245
 9324SOL    HW228872   2.001   5.169   0.316
 9325SOL     OW28873   5.288   2.004   1.186
 9325SOL    HW128874   5.238   2.089   1.165
 9325SOL    HW228875   5.348   1.982   1.109
 9326SOL     OW28876   2.573   6.778   0.804
 9326SOL    HW128877   2.518   6.847   0.851
 9326SOL    HW228878   2.649   6.751   0.862
 9327SOL     OW28879   5.060   6.614   3.075
 9327SOL    HW128880   5.066   6.563   3.161
 9327SOL    HW228881   5.133   6.683   3.072
 9328SOL     OW28882   3.883   1.491   6.531
 9328SOL    HW128883   3.920   1.579   6.502
 9328SOL    HW228884   3.926   1.463   6.616
 9329SOL     OW28885   0.041   3.194   2.878
 9329SOL    HW128886   6.985   3.188   2.939
 9329SOL    HW228887   0.076   3.102   2.862
 9330SOL     OW28888   0.364   5.614   0.625
 9330SOL    HW128889   0.460   5.590   0.615
 9330SOL    HW228890   0.355   5.701   0.673
 9331SOL     OW28891   0.639   1.228   6.414
 9331SOL    HW128892   0.655   1.188   6.324
 9331SOL    HW228893   0.641   1.156   6.484
 9332SOL     OW28894   3.470   4.104   3.113
 9332SOL    HW128895   3.525   4.103   3.029
 9332SOL    HW228896   3.529   4.094   3.192
 9333SOL     OW28897   5.183   4.053   1.123
 9333SOL    HW128898   5.118   4.099   1.063
 9333SOL    HW228899   5.268   4.036   1.074
 9334SOL     OW28900   3.801   0.206   3.255
 9334SOL    HW128901   3.724   0.268   3.239
 9334SOL    HW228902   3.791   0.125   3.198
 9335SOL     OW28903   1.281   1.551   6.561
 9335SOL    HW128904   1.211   1.481   6.569
 9335SOL    HW228905   1.286   1.583   6.466
 9336SOL     OW28906   3.145   6.367   6.149
 9336SOL    HW128907   3.075   6.355   6.219
 9336SOL    HW228908   3.234   6.338   6.185
 9337SOL     OW28909   5.377   0.169   2.826
 9337SOL    HW128910   5.407   0.150   2.733
 9337SOL    HW228911   5.296   0.114   2.847
 9338SOL     OW28912   4.318   0.555   2.373
 9338SOL    HW128913   4.336   0.518   2.282
 9338SOL    HW228914   4.316   0.480   2.439
 9339SOL     OW28915   5.874   6.961   0.561
 9339SOL    HW128916   5.973   6.954   0.549
 9339SOL    HW228917   5.847   0.034   0.560
 9340SOL     OW28918   5.119   3.649   5.618
 9340SOL    HW128919   5.082   3.737   5.648
 9340SOL    HW228920   5.129   3.588   5.697
 9341SOL     OW28921   1.522   5.882   6.859
 9341SOL    HW128922   1.430   5.857   6.825
 9341SOL    HW228923   1.573   5.927   6.786
 9342SOL     OW28924   2.652   0.352   4.384
 9342SOL    HW128925   2.638   0.255   4.407
 9342SOL    HW228926   2.564   0.395   4.368
 9343SOL     OW28927   6.337   4.665   4.475
 9343SOL    HW128928   6.345   4.742   4.538
 9343SOL    HW228929   6.409   4.671   4.406
 9344SOL     OW28930   4.814   5.729   0.780
 9344SOL    HW128931   4.876   5.746   0.857
 9344SOL    HW228932   4.854   5.659   0.720
 9345SOL     OW28933   6.305   3.075   2.431
 9345SOL    HW128934   6.365   2.996   2.443
 9345SOL    HW228935   6.335   3.128   2.352
 9346SOL     OW28936   5.660   0.865   1.124
 9346SOL    HW128937   5.659   0.821   1.214
 9346SOL    HW228938   5.651   0.964   1.135
 9347SOL     OW28939   1.519   5.313   1.078
 9347SOL    HW128940   1.591   5.365   1.123
 9347SOL    HW228941   1.444   5.297   1.142
 9348SOL     OW28942   4.220   5.502   0.932
 9348SOL    HW128943   4.209   5.454   1.020
 9348SOL    HW228944   4.132   5.538   0.902
 9349SOL     OW28945   0.317   0.049   2.179
 9349SOL    HW128946   0.295   0.146   2.175
 9349SOL    HW228947   0.271   0.007   2.257
 9350SOL     OW28948   0.859   2.701   5.876
 9350SOL    HW128949   0.766   2.736   5.864
 9350SOL    HW228950   0.905   2.696   5.787
 9351SOL     OW28951   3.057   2.202   6.899
 9351SOL    HW128952   3.003   2.119   6.885
 9351SOL    HW228953   2.996   2.277   6.928
 9352SOL     OW28954   2.632   3.944   0.082
 9352SOL    HW128955   2.535   3.956   0.060
 9352SOL    HW228956   2.647   3.850   0.114
 9353SOL     OW28957   0.679   5.273   1.682
 9353SOL    HW128958   0.604   5.214   1.709
 9353SOL    HW228959   0.766   5.224   1.690
 9354SOL     OW28960   6.633   2.699   6.944
 9354SOL    HW128961   6.670   2.608   6.964
 9354SOL    HW228962   6.708   2.761   6.922
 9355SOL     OW28963   1.014   1.727   4.628
 9355SOL    HW128964   1.109   1.698   4.643
 9355SOL    HW228965   1.009   1.826   4.632
 9356SOL     OW28966   4.232   6.498   1.228
 9356SOL    HW128967   4.286   6.514   1.146
 9356SOL    HW228968   4.290   6.506   1.309
 9357SOL     OW28969   0.956   2.259   6.925
 9357SOL    HW128970   0.978   2.211   7.010
 9357SOL    HW228971   1.041   2.275   6.873
 9358SOL     OW28972   0.133   4.318   2.217
 9358SOL    HW128973   0.166   4.230   2.250
 9358SOL    HW228974   0.211   4.380   2.204
 9359SOL     OW28975   1.734   5.957   6.033
 9359SOL    HW128976   1.828   5.951   6.066
 9359SOL    HW228977   1.733   5.989   5.939
 9360SOL     OW28978   1.537   0.054   6.379
 9360SOL    HW128979   1.525   7.008   6.450
 9360SOL    HW228980   1.624   0.101   6.393
 9361SOL     OW28981   1.716   6.231   3.556
 9361SOL    HW128982   1.702   6.319   3.511
 9361SOL    HW228983   1.629   6.196   3.590
 9362SOL     OW28984   2.121   1.293   2.157
 9362SOL    HW128985   2.201   1.353   2.164
 9362SOL    HW228986   2.151   1.198   2.146
 9363SOL     OW28987   3.289   5.227   2.427
 9363SOL    HW128988   3.291   5.278   2.340
 9363SOL    HW228989   3.236   5.143   2.414
 9364SOL     OW28990   2.118   2.497   1.940
 9364SOL    HW128991   2.145   2.402   1.955
 9364SOL    HW228992   2.199   2.552   1.918
 9365SOL     OW28993   3.168   2.162   4.205
 9365SOL    HW128994   3.202   2.201   4.290
 9365SOL    HW228995   3.224   2.083   4.180
 9366SOL     OW28996   3.385   6.046   0.703
 9366SOL    HW128997   3.405   6.143   0.713
 9366SOL    HW228998   3.370   6.025   0.607
 9367SOL     OW28999   4.972   6.898   1.215
 9367SOL    HW129000   4.873   6.890   1.224
 9367SOL    HW229001   5.014   6.809   1.234
 9368SOL     OW29002   3.972   0.579   2.649
 9368SOL    HW129003   3.996   0.624   2.563
 9368SOL    HW229004   4.054   0.535   2.687
 9369SOL     OW29005   1.041   5.150   6.396
 9369SOL    HW129006   0.963   5.206   6.368
 9369SOL    HW229007   1.062   5.083   6.325
 9370SOL     OW29008   4.096   1.614   4.311
 9370SOL    HW129009   4.119   1.536   4.252
 9370SOL    HW229010   4.163   1.620   4.385
 9371SOL     OW29011   3.701   5.832   1.459
 9371SOL    HW129012   3.631   5.900   1.439
 9371SOL    HW229013   3.750   5.859   1.542
 9372SOL     OW29014   4.927   6.802   1.573
 9372SOL    HW129015   4.976   6.846   1.648
 9372SOL    HW229016   4.843   6.852   1.554
 9373SOL     OW29017   6.295   1.880   6.905
 9373SOL    HW129018   6.372   1.817   6.919
 9373SOL    HW229019   6.277   1.930   6.990
 9374SOL     OW29020   0.716   4.561   6.005
 9374SOL    HW129021   0.694   4.568   6.102
 9374SOL    HW229022   0.661   4.628   5.954
 9375SOL     OW29023   6.915   1.737   6.429
 9375SOL    HW129024   6.973   1.747   6.348
 9375SOL    HW229025   6.884   1.827   6.459
 9376SOL     OW29026   2.148   3.637   2.423
 9376SOL    HW129027   2.171   3.716   2.367
 9376SOL    HW229028   2.200   3.557   2.392
 9377SOL     OW29029   2.081   5.661   2.183
 9377SOL    HW129030   2.172   5.630   2.211
 9377SOL    HW229031   2.019   5.583   2.178
 9378SOL     OW29032   3.742   0.580   3.773
 9378SOL    HW129033   3.794   0.636   3.708
 9378SOL    HW229034   3.644   0.591   3.757
 9379SOL     OW29035   3.918   5.923   4.795
 9379SOL    HW129036   3.870   5.839   4.771
 9379SOL    HW229037   3.853   5.999   4.797
 9380SOL     OW29038   4.609   5.609   6.342
 9380SOL    HW129039   4.539   5.540   6.359
 9380SOL    HW229040   4.671   5.614   6.421
 9381SOL     OW29041   5.640   1.892   4.943
 9381SOL    HW129042   5.589   1.941   4.872
 9381SOL    HW229043   5.660   1.800   4.912
 9382SOL     OW29044   3.651   0.296   4.281
 9382SOL    HW129045   3.724   0.354   4.317
 9382SOL    HW229046   3.564   0.322   4.324
 9383SOL     OW29047   4.841   4.141   3.538
 9383SOL    HW129048   4.831   4.042   3.530
 9383SOL    HW229049   4.841   4.167   3.634
 9384SOL     OW29050   1.752   0.008   2.147
 9384SOL    HW129051   1.846   0.042   2.152
 9384SOL    HW229052   1.738   6.984   2.059
 9385SOL     OW29053   4.140   1.157   3.457
 9385SOL    HW129054   4.211   1.104   3.502
 9385SOL    HW229055   4.180   1.237   3.412
 9386SOL     OW29056   4.385   5.962   5.266
 9386SOL    HW129057   4.404   5.910   5.182
 9386SOL    HW229058   4.391   6.060   5.247
 9387SOL     OW29059   3.636   2.205   0.033
 9387SOL    HW129060   3.569   2.279   0.041
 9387SOL    HW229061   3.728   2.241   0.047
 9388SOL     OW29062   1.966   6.750   4.183
 9388SOL    HW129063   1.959   6.652   4.197
 9388SOL    HW229064   1.930   6.774   4.093
 9389SOL     OW29065   3.699   5.280   1.960
 9389SOL    HW129066   3.709   5.192   1.913
 9389SOL    HW229067   3.763   5.346   1.922
 9390SOL     OW29068   4.837   4.649   5.374
 9390SOL    HW129069   4.767   4.577   5.375
 9390SOL    HW229070   4.839   4.694   5.462
 9391SOL     OW29071   0.969   6.302   4.405
 9391SOL    HW129072   0.973   6.396   4.370
 9391SOL    HW229073   1.051   6.253   4.376
 9392SOL     OW29074   5.384   4.089   2.892
 9392SOL    HW129075   5.425   4.029   2.823
 9392SOL    HW229076   5.432   4.078   2.979
 9393SOL     OW29077   2.979   6.536   5.969
 9393SOL    HW129078   3.042   6.478   6.021
 9393SOL    HW229079   2.946   6.487   5.889
 9394SOL     OW29080   5.025   7.000   0.904
 9394SOL    HW129081   5.064   0.067   0.917
 9394SOL    HW229082   5.021   6.951   0.991
 9395SOL     OW29083   2.651   1.988   0.561
 9395SOL    HW129084   2.680   1.897   0.532
 9395SOL    HW229085   2.645   1.991   0.661
 9396SOL     OW29086   1.318   6.250   6.830
 9396SOL    HW129087   1.330   6.225   6.926
 9396SOL    HW229088   1.399   6.224   6.778
 9397SOL     OW29089   3.818   0.262   6.382
 9397SOL    HW129090   3.768   0.260   6.296
 9397SOL    HW229091   3.772   0.203   6.448
 9398SOL     OW29092   6.748   1.575   6.618
 9398SOL    HW129093   6.790   1.615   6.536
 9398SOL    HW229094   6.659   1.617   6.633
 9399SOL     OW29095   2.082   2.535   3.905
 9399SOL    HW129096   2.064   2.531   4.003
 9399SOL    HW229097   2.015   2.595   3.861
 9400SOL     OW29098   5.457   0.810   0.516
 9400SOL    HW129099   5.507   0.812   0.429
 9400SOL    HW229100   5.522   0.800   0.591
 9401SOL     OW29101   0.539   1.525   2.794
 9401SOL    HW129102   0.482   1.581   2.734
 9401SOL    HW229103   0.487   1.444   2.822
 9402SOL     OW29104   1.480   5.514   3.362
 9402SOL    HW129105   1.430   5.520   3.276
 9402SOL    HW229106   1.578   5.519   3.344
 9403SOL     OW29107   6.461   2.146   1.836
 9403SOL    HW129108   6.377   2.189   1.870
 9403SOL    HW229109   6.491   2.076   1.901
 9404SOL     OW29110   2.115   3.170   0.805
 9404SOL    HW129111   2.089   3.160   0.709
 9404SOL    HW229112   2.037   3.206   0.857
 9405SOL     OW29113   0.432   4.746   5.486
 9405SOL    HW129114   0.390   4.656   5.478
 9405SOL    HW229115   0.467   4.759   5.579
 9406SOL     OW29116   0.031   3.207   6.923
 9406SOL    HW129117   0.073   3.137   6.864
 9406SOL    HW229118   0.018   3.170   7.014
 9407SOL     OW29119   1.774   4.658   5.661
 9407SOL    HW129120   1.740   4.565   5.651
 9407SOL    HW229121   1.827   4.683   5.581
 9408SOL     OW29122   6.561   4.809   4.728
 9408SOL    HW129123   6.596   4.800   4.635
 9408SOL    HW229124   6.624   4.764   4.792
 9409SOL     OW29125   6.551   4.979   2.198
 9409SOL    HW129126   6.572   4.883   2.179
 9409SOL    HW229127   6.585   5.036   2.124
 9410SOL     OW29128   4.234   0.738   1.600
 9410SOL    HW129129   4.306   0.670   1.603
 9410SOL    HW229130   4.169   0.721   1.674
 9411SOL     OW29131   3.198   3.016   3.783
 9411SOL    HW129132   3.181   2.974   3.872
 9411SOL    HW229133   3.119   3.072   3.757
 9412SOL     OW29134   6.304   6.859   1.710
 9412SOL    HW129135   6.223   6.886   1.762
 9412SOL    HW229136   6.369   6.935   1.708
 9413SOL     OW29137   3.966   4.836   3.797
 9413SOL    HW129138   3.976   4.917   3.739
 9413SOL    HW229139   4.023   4.762   3.762
 9414SOL     OW29140   2.378   1.820   4.608
 9414SOL    HW129141   2.357   1.734   4.655
 9414SOL    HW229142   2.428   1.880   4.670
 9415SOL     OW29143   4.085   1.306   2.099
 9415SOL    HW129144   4.144   1.334   2.023
 9415SOL    HW229145   4.128   1.231   2.149
 9416SOL     OW29146   6.628   5.182   6.455
 9416SOL    HW129147   6.600   5.276   6.438
 9416SOL    HW229148   6.616   5.128   6.372
 9417SOL     OW29149   3.809   5.927   1.677
 9417SOL    HW129150   3.892   5.897   1.724
 9417SOL    HW229151   3.806   6.027   1.676
 9418SOL     OW29152   3.207   2.142   4.545
 9418SOL    HW129153   3.145   2.066   4.525
 9418SOL    HW229154   3.287   2.136   4.486
 9419SOL     OW29155   2.400   2.789   6.828
 9419SOL    HW129156   2.418   2.888   6.827
 9419SOL    HW229157   2.381   2.761   6.922
 9420SOL     OW29158   5.482   3.584   0.107
 9420SOL    HW129159   5.535   3.668   0.093
 9420SOL    HW229160   5.528   3.525   0.173
 9421SOL     OW29161   3.755   6.447   5.664
 9421SOL    HW129162   3.786   6.412   5.752
 9421SOL    HW229163   3.797   6.536   5.646
 9422SOL     OW29164   2.218   5.741   4.548
 9422SOL    HW129165   2.130   5.696   4.561
 9422SOL    HW229166   2.265   5.750   4.636
 9423SOL     OW29167   4.414   5.181   3.213
 9423SOL    HW129168   4.494   5.240   3.219
 9423SOL    HW229169   4.442   5.087   3.192
 9424SOL     OW29170   5.649   0.628   4.760
 9424SOL    HW129171   5.663   0.580   4.673
 9424SOL    HW229172   5.726   0.610   4.821
 9425SOL     OW29173   7.017   5.047   0.253
 9425SOL    HW129174   6.930   5.091   0.233
 9425SOL    HW229175   7.002   4.970   0.314
 9426SOL     OW29176   6.972   2.705   6.367
 9426SOL    HW129177   0.031   2.650   6.354
 9426SOL    HW229178   6.937   2.691   6.460
 9427SOL     OW29179   3.882   5.649   3.080
 9427SOL    HW129180   3.952   5.630   3.149
 9427SOL    HW229181   3.875   5.748   3.065
 9428SOL     OW29182   6.485   0.162   6.171
 9428SOL    HW129183   6.462   0.257   6.189
 9428SOL    HW229184   6.423   0.125   6.101
 9429SOL     OW29185   2.021   2.028   3.809
 9429SOL    HW129186   2.099   1.966   3.815
 9429SOL    HW229187   1.948   1.984   3.757
 9430SOL     OW29188   0.426   2.248   4.559
 9430SOL    HW129189   0.399   2.245   4.463
 9430SOL    HW229190   0.439   2.155   4.593
 9431SOL     OW29191   0.265   4.345   6.109
 9431SOL    HW129192   0.292   4.417   6.044
 9431SOL    HW229193   0.214   4.386   6.184
 9432SOL     OW29194   6.839   1.483   3.708
 9432SOL    HW129195   6.871   1.397   3.748
 9432SOL    HW229196   6.906   1.517   3.643
 9433SOL     OW29197   3.836   6.367   2.870
 9433SOL    HW129198   3.903   6.407   2.807
 9433SOL    HW229199   3.744   6.394   2.843
 9434SOL     OW29200   5.237   5.202   4.085
 9434SOL    HW129201   5.252   5.291   4.129
 9434SOL    HW229202   5.155   5.159   4.123
 9435SOL     OW29203   0.637   3.096   1.750
 9435SOL    HW129204   0.725   3.144   1.754
 9435SOL    HW229205   0.564   3.163   1.736
 9436SOL     OW29206   1.471   0.469   3.548
 9436SOL    HW129207   1.514   0.391   3.502
 9436SOL    HW229208   1.460   0.544   3.482
 9437SOL     OW29209   6.574   5.814   4.743
 9437SOL    HW129210   6.604   5.804   4.648
 9437SOL    HW229211   6.612   5.898   4.781
 9438SOL     OW29212   3.691   6.033   2.331
 9438SOL    HW129213   3.592   6.038   2.334
 9438SOL    HW229214   3.729   6.070   2.416
 9439SOL     OW29215   1.227   3.100   0.745
 9439SOL    HW129216   1.284   3.086   0.664
 9439SOL    HW229217   1.236   3.021   0.805
 9440SOL     OW29218   2.646   5.237   3.050
 9440SOL    HW129219   2.651   5.310   2.982
 9440SOL    HW229220   2.639   5.149   3.003
 9441SOL     OW29221   6.868   6.557   4.651
 9441SOL    HW129222   6.877   6.579   4.748
 9441SOL    HW229223   6.957   6.564   4.606
 9442SOL     OW29224   4.219   3.654   0.540
 9442SOL    HW129225   4.126   3.682   0.566
 9442SOL    HW229226   4.263   3.728   0.490
 9443SOL     OW29227   2.005   4.401   2.971
 9443SOL    HW129228   1.915   4.401   2.927
 9443SOL    HW229229   2.073   4.366   2.907
 9444SOL     OW29230   1.323   4.206   0.182
 9444SOL    HW129231   1.308   4.124   0.237
 9444SOL    HW229232   1.340   4.180   0.087
 9445SOL     OW29233   0.548   1.594   4.154
 9445SOL    HW129234   0.472   1.573   4.093
 9445SOL    HW229235   0.629   1.615   4.100
 9446SOL     OW29236   6.525   4.967   2.866
 9446SOL    HW129237   6.542   4.900   2.794
 9446SOL    HW229238   6.462   4.929   2.933
 9447SOL     OW29239   5.457   4.698   2.098
 9447SOL    HW129240   5.549   4.658   2.091
 9447SOL    HW229241   5.396   4.650   2.035
 9448SOL     OW29242   5.369   0.441   5.579
 9448SOL    HW129243   5.294   0.494   5.539
 9448SOL    HW229244   5.390   0.477   5.670
 9449SOL     OW29245   6.148   0.128   1.932
 9449SOL    HW129246   6.141   0.038   1.889
 9449SOL    HW229247   6.058   0.155   1.966
 9450SOL     OW29248   1.867   6.079   3.794
 9450SOL    HW129249   1.920   6.156   3.760
 9450SOL    HW229250   1.910   5.994   3.763
 9451SOL     OW29251   3.971   6.224   6.557
 9451SOL    HW129252   3.921   6.308   6.578
 9451SOL    HW229253   4.060   6.226   6.604
 9452SOL     OW29254   6.863   4.182   0.609
 9452SOL    HW129255   6.857   4.267   0.557
 9452SOL    HW229256   6.843   4.201   0.706
 9453SOL     OW29257   4.136   6.426   3.117
 9453SOL    HW129258   4.127   6.525   3.128
 9453SOL    HW229259   4.046   6.384   3.115
 9454SOL     OW29260   4.867   3.735   0.533
 9454SOL    HW129261   4.799   3.730   0.606
 9454SOL    HW229262   4.957   3.714   0.570
 9455SOL     OW29263   2.795   2.268   2.288
 9455SOL    HW129264   2.851   2.279   2.206
 9455SOL    HW229265   2.818   2.182   2.334
 9456SOL     OW29266   6.686   3.087   2.060
 9456SOL    HW129267   6.630   3.007   2.081
 9456SOL    HW229268   6.716   3.084   1.965
 9457SOL     OW29269   0.276   5.559   3.668
 9457SOL    HW129270   0.369   5.595   3.658
 9457SOL    HW229271   0.277   5.482   3.732
 9458SOL     OW29272   6.112   3.580   6.839
 9458SOL    HW129273   6.195   3.636   6.840
 9458SOL    HW229274   6.032   3.639   6.846
 9459SOL     OW29275   4.749   4.906   4.996
 9459SOL    HW129276   4.730   4.891   4.899
 9459SOL    HW229277   4.843   4.877   5.016
 9460SOL     OW29278   1.263   1.988   3.128
 9460SOL    HW129279   1.204   1.907   3.129
 9460SOL    HW229280   1.352   1.965   3.167
 9461SOL     OW29281   1.248   2.626   2.969
 9461SOL    HW129282   1.322   2.561   2.986
 9461SOL    HW229283   1.275   2.690   2.897
 9462SOL     OW29284   1.609   1.442   4.340
 9462SOL    HW129285   1.564   1.390   4.413
 9462SOL    HW229286   1.558   1.527   4.324
 9463SOL     OW29287   5.739   5.604   0.989
 9463SOL    HW129288   5.683   5.591   0.908
 9463SOL    HW229289   5.821   5.657   0.965
 9464SOL     OW29290   1.027   1.026   1.444
 9464SOL    HW129291   1.014   0.964   1.366
 9464SOL    HW229292   0.948   1.019   1.505
 9465SOL     OW29293   6.495   4.303   0.860
 9465SOL    HW129294   6.459   4.284   0.951
 9465SOL    HW229295   6.446   4.381   0.821
 9466SOL     OW29296   3.472   5.228   6.457
 9466SOL    HW129297   3.515   5.142   6.484
 9466SOL    HW229298   3.522   5.305   6.497
 9467SOL     OW29299   2.379   3.155   0.876
 9467SOL    HW129300   2.413   3.158   0.782
 9467SOL    HW229301   2.290   3.199   0.881
 9468SOL     OW29302   6.373   2.192   0.513
 9468SOL    HW129303   6.300   2.210   0.578
 9468SOL    HW229304   6.396   2.094   0.515
 9469SOL     OW29305   1.068   6.637   1.575
 9469SOL    HW129306   1.048   6.546   1.611
 9469SOL    HW229307   1.009   6.654   1.496
 9470SOL     OW29308   3.866   4.202   0.941
 9470SOL    HW129309   3.770   4.221   0.920
 9470SOL    HW229310   3.922   4.217   0.860
 9471SOL     OW29311   5.924   2.985   4.980
 9471SOL    HW129312   5.978   2.912   4.937
 9471SOL    HW229313   5.831   2.953   4.997
 9472SOL     OW29314   1.583   2.871   6.571
 9472SOL    HW129315   1.673   2.878   6.616
 9472SOL    HW229316   1.534   2.958   6.582
 9473SOL     OW29317   3.124   4.839   0.442
 9473SOL    HW129318   3.145   4.918   0.384
 9473SOL    HW229319   3.189   4.765   0.423
 9474SOL     OW29320   5.472   2.787   1.326
 9474SOL    HW129321   5.491   2.755   1.418
 9474SOL    HW229322   5.546   2.759   1.265
 9475SOL     OW29323   4.733   3.963   6.080
 9475SOL    HW129324   4.649   3.914   6.057
 9475SOL    HW229325   4.713   4.035   6.146
 9476SOL     OW29326   3.559   4.073   6.279
 9476SOL    HW129327   3.589   3.984   6.314
 9476SOL    HW229328   3.459   4.074   6.273
 9477SOL     OW29329   2.229   4.340   1.151
 9477SOL    HW129330   2.185   4.307   1.235
 9477SOL    HW229331   2.270   4.262   1.103
 9478SOL     OW29332   5.546   1.973   0.042
 9478SOL    HW129333   5.450   1.991   0.023
 9478SOL    HW229334   5.566   1.876   0.027
 9479SOL     OW29335   3.826   0.895   1.518
 9479SOL    HW129336   3.857   0.807   1.480
 9479SOL    HW229337   3.858   0.969   1.459
 9480SOL     OW29338   6.079   6.884   0.036
 9480SOL    HW129339   6.097   6.940   6.979
 9480SOL    HW229340   6.058   6.791   0.009
 9481SOL     OW29341   4.216   1.385   3.348
 9481SOL    HW129342   4.311   1.363   3.369
 9481SOL    HW229343   4.199   1.482   3.369
 9482SOL     OW29344   6.400   7.019   0.911
 9482SOL    HW129345   6.409   0.024   1.006
 9482SOL    HW229346   6.351   6.931   0.907
 9483SOL     OW29347   7.007   0.950   0.596
 9483SOL    HW129348   6.954   0.894   0.660
 9483SOL    HW229349   6.979   1.046   0.605
 9484SOL     OW29350   3.534   5.963   4.935
 9484SOL    HW129351   3.484   5.876   4.937
 9484SOL    HW229352   3.471   6.038   4.959
 9485SOL     OW29353   0.193   1.307   6.590
 9485SOL    HW129354   0.158   1.277   6.679
 9485SOL    HW229355   0.146   1.390   6.562
 9486SOL     OW29356   4.993   5.743   6.929
 9486SOL    HW129357   4.990   5.745   6.829
 9486SOL    HW229358   4.904   5.767   6.966
 9487SOL     OW29359   3.268   3.530   3.643
 9487SOL    HW129360   3.170   3.513   3.657
 9487SOL    HW229361   3.317   3.443   3.644
 9488SOL     OW29362   0.905   2.060   0.403
 9488SOL    HW129363   0.971   2.024   0.469
 9488SOL    HW229364   0.814   2.057   0.443
 9489SOL     OW29365   4.917   4.301   0.441
 9489SOL    HW129366   4.968   4.377   0.482
 9489SOL    HW229367   4.823   4.330   0.424
 9490SOL     OW29368   5.524   4.036   3.765
 9490SOL    HW129369   5.489   3.947   3.793
 9490SOL    HW229370   5.550   4.034   3.669
 9491SOL     OW29371   5.063   6.388   2.922
 9491SOL    HW129372   5.040   6.315   2.987
 9491SOL    HW229373   5.046   6.477   2.964
 9492SOL     OW29374   4.876   2.805   4.619
 9492SOL    HW129375   4.792   2.839   4.660
 9492SOL    HW229376   4.900   2.717   4.659
 9493SOL     OW29377   4.327   6.875   3.197
 9493SOL    HW129378   4.374   6.840   3.279
 9493SOL    HW229379   4.312   6.973   3.208
 9494SOL     OW29380   5.139   2.304   1.853
 9494SOL    HW129381   5.142   2.205   1.871
 9494SOL    HW229382   5.209   2.327   1.786
 9495SOL     OW29383   1.401   1.005   2.287
 9495SOL    HW129384   1.474   1.073   2.296
 9495SOL    HW229385   1.410   0.958   2.199
 9496SOL     OW29386   4.449   2.275   2.620
 9496SOL    HW129387   4.416   2.326   2.541
 9496SOL    HW229388   4.493   2.191   2.590
 9497SOL     OW29389   5.122   4.897   4.667
 9497SOL    HW129390   5.213   4.940   4.661
 9497SOL    HW229391   5.110   4.857   4.758
 9498SOL     OW29392   6.969   5.600   3.902
 9498SOL    HW129393   0.035   5.639   3.923
 9498SOL    HW229394   6.951   5.609   3.804
 9499SOL     OW29395   6.118   6.209   5.913
 9499SOL    HW129396   6.108   6.151   5.994
 9499SOL    HW229397   6.160   6.157   5.839
 9500SOL     OW29398   4.352   1.012   0.940
 9500SOL    HW129399   4.410   0.955   0.998
 9500SOL    HW229400   4.287   1.062   0.997
 9501SOL     OW29401   1.715   3.115   4.833
 9501SOL    HW129402   1.626   3.155   4.854
 9501SOL    HW229403   1.716   3.085   4.738
 9502SOL     OW29404   5.603   4.659   5.424
 9502SOL    HW129405   5.534   4.593   5.454
 9502SOL    HW229406   5.564   4.751   5.424
 9503SOL     OW29407   0.380   2.265   6.629
 9503SOL    HW129408   0.326   2.272   6.545
 9503SOL    HW229409   0.373   2.350   6.680
 9504SOL     OW29410   6.456   5.290   1.887
 9504SOL    HW129411   6.398   5.261   1.963
 9504SOL    HW229412   6.470   5.388   1.891
 9505SOL     OW29413   4.263   4.889   5.250
 9505SOL    HW129414   4.263   4.869   5.348
 9505SOL    HW229415   4.278   4.987   5.236
 9506SOL     OW29416   3.309   1.650   1.140
 9506SOL    HW129417   3.319   1.747   1.117
 9506SOL    HW229418   3.350   1.594   1.069
 9507SOL     OW29419   5.735   6.822   2.134
 9507SOL    HW129420   5.643   6.809   2.096
 9507SOL    HW229421   5.728   6.834   2.233
 9508SOL     OW29422   5.299   1.406   3.024
 9508SOL    HW129423   5.351   1.330   2.986
 9508SOL    HW229424   5.260   1.460   2.950
 9509SOL     OW29425   6.978   6.837   2.640
 9509SOL    HW129426   6.998   6.934   2.652
 9509SOL    HW229427   6.992   6.788   2.726
 9510SOL     OW29428   0.782   2.372   4.017
 9510SOL    HW129429   0.743   2.333   4.100
 9510SOL    HW229430   0.752   2.319   3.938
 9511SOL     OW29431   1.571   1.595   0.747
 9511SOL    HW129432   1.594   1.646   0.831
 9511SOL    HW229433   1.599   1.500   0.757
 9512SOL     OW29434   6.439   2.379   1.099
 9512SOL    HW129435   6.533   2.410   1.081
 9512SOL    HW229436   6.397   2.440   1.165
 9513SOL     OW29437   3.940   5.145   6.902
 9513SOL    HW129438   3.934   5.052   6.937
 9513SOL    HW229439   3.923   5.210   6.977
 9514SOL     OW29440   3.157   3.373   0.191
 9514SOL    HW129441   3.204   3.296   0.148
 9514SOL    HW229442   3.213   3.455   0.184
 9515SOL     OW29443   2.136   5.333   3.958
 9515SOL    HW129444   2.194   5.296   4.031
 9515SOL    HW229445   2.043   5.345   3.992
 9516SOL     OW29446   6.732   3.680   0.531
 9516SOL    HW129447   6.633   3.688   0.522
 9516SOL    HW229448   6.756   3.587   0.559
 9517SOL     OW29449   1.387   4.565   0.745
 9517SOL    HW129450   1.365   4.646   0.692
 9517SOL    HW229451   1.311   4.500   0.743
 9518SOL     OW29452   1.630   1.091   0.354
 9518SOL    HW129453   1.569   1.020   0.318
 9518SOL    HW229454   1.644   1.162   0.285
 9519SOL     OW29455   1.305   2.718   5.182
 9519SOL    HW129456   1.229   2.777   5.153
 9519SOL    HW229457   1.390   2.771   5.181
 9520SOL     OW29458   2.080   6.835   2.543
 9520SOL    HW129459   2.096   6.819   2.445
 9520SOL    HW229460   1.997   6.890   2.554
 9521SOL     OW29461   5.223   5.675   4.516
 9521SOL    HW129462   5.302   5.616   4.504
 9521SOL    HW229463   5.156   5.630   4.574
 9522SOL     OW29464   3.865   6.198   0.955
 9522SOL    HW129465   3.962   6.212   0.939
 9522SOL    HW229466   3.847   6.101   0.971
 9523SOL     OW29467   3.123   5.899   4.521
 9523SOL    HW129468   3.043   5.888   4.462
 9523SOL    HW229469   3.181   5.973   4.486
 9524SOL     OW29470   4.128   3.212   1.178
 9524SOL    HW129471   4.165   3.216   1.270
 9524SOL    HW229472   4.201   3.192   1.113
 9525SOL     OW29473   2.914   1.042   6.075
 9525SOL    HW129474   2.836   0.979   6.071
 9525SOL    HW229475   2.917   1.086   6.165
 9526SOL     OW29476   5.304   5.164   2.577
 9526SOL    HW129477   5.243   5.109   2.635
 9526SOL    HW229478   5.328   5.112   2.495
 9527SOL     OW29479   0.070   1.889   1.912
 9527SOL    HW129480   6.996   1.880   1.891
 9527SOL    HW229481   0.098   1.984   1.902
 9528SOL     OW29482   6.874   1.064   2.173
 9528SOL    HW129483   6.806   1.132   2.199
 9528SOL    HW229484   6.859   1.036   2.078
 9529SOL     OW29485   0.636   3.072   5.989
 9529SOL    HW129486   0.640   3.001   6.060
 9529SOL    HW229487   0.551   3.064   5.938
 9530SOL     OW29488   1.351   1.920   3.548
 9530SOL    HW129489   1.417   1.958   3.612
 9530SOL    HW229490   1.303   1.994   3.502
 9531SOL     OW29491   3.434   6.904   2.938
 9531SOL    HW129492   3.433   6.956   3.024
 9531SOL    HW229493   3.370   6.945   2.873
 9532SOL     OW29494   2.014   0.008   1.770
 9532SOL    HW129495   1.946   0.067   1.814
 9532SOL    HW229496   1.974   6.993   1.686
 9533SOL     OW29497   1.690   1.066   5.976
 9533SOL    HW129498   1.662   1.111   5.891
 9533SOL    HW229499   1.610   1.024   6.020
 9534SOL     OW29500   5.262   2.238   4.864
 9534SOL    HW129501   5.229   2.314   4.808
 9534SOL    HW229502   5.346   2.265   4.910
 9535SOL     OW29503   2.401   1.069   5.609
 9535SOL    HW129504   2.373   1.016   5.689
 9535SOL    HW229505   2.447   1.153   5.639
 9536SOL     OW29506   1.543   5.899   5.779
 9536SOL    HW129507   1.494   5.819   5.813
 9536SOL    HW229508   1.632   5.872   5.743
 9537SOL     OW29509   2.926   6.992   1.371
 9537SOL    HW129510   2.881   6.906   1.397
 9537SOL    HW229511   2.890   0.043   1.427
 9538SOL     OW29512   6.647   2.576   4.396
 9538SOL    HW129513   6.667   2.671   4.372
 9538SOL    HW229514   6.699   2.515   4.337
 9539SOL     OW29515   0.756   6.029   0.523
 9539SOL    HW129516   0.709   5.948   0.558
 9539SOL    HW229517   0.850   6.004   0.497
 9540SOL     OW29518   4.963   4.361   4.719
 9540SOL    HW129519   4.944   4.352   4.622
 9540SOL    HW229520   4.879   4.350   4.772
 9541SOL     OW29521   2.049   2.553   4.193
 9541SOL    HW129522   2.058   2.530   4.290
 9541SOL    HW229523   1.961   2.600   4.178
 9542SOL     OW29524   5.004   3.595   4.128
 9542SOL    HW129525   4.962   3.685   4.113
 9542SOL    HW229526   4.964   3.554   4.210
 9543SOL     OW29527   5.621   2.134   2.577
 9543SOL    HW129528   5.564   2.062   2.617
 9543SOL    HW229529   5.703   2.094   2.536
 9544SOL     OW29530   4.235   1.631   2.103
 9544SOL    HW129531   4.259   1.574   2.181
 9544SOL    HW229532   4.151   1.598   2.062
 9545SOL     OW29533   6.786   0.830   3.943
 9545SOL    HW129534   6.829   0.743   3.969
 9545SOL    HW229535   6.822   0.860   3.855
 9546SOL     OW29536   2.938   5.444   0.539
 9546SOL    HW129537   2.998   5.523   0.527
 9546SOL    HW229538   2.851   5.460   0.492
 9547SOL     OW29539   0.643   6.490   3.894
 9547SOL    HW129540   0.645   6.399   3.935
 9547SOL    HW229541   0.647   6.481   3.794
 9548SOL     OW29542   4.642   6.025   3.450
 9548SOL    HW129543   4.725   6.068   3.415
 9548SOL    HW229544   4.576   6.012   3.376
 9549SOL     OW29545   2.315   6.020   0.596
 9549SOL    HW129546   2.353   6.016   0.689
 9549SOL    HW229547   2.231   6.075   0.597
 9550SOL     OW29548   0.949   1.408   0.385
 9550SOL    HW129549   0.868   1.358   0.415
 9550SOL    HW229550   0.936   1.506   0.403
 9551SOL     OW29551   1.291   6.540   4.625
 9551SOL    HW129552   1.314   6.636   4.639
 9551SOL    HW229553   1.341   6.505   4.545
 9552SOL     OW29554   1.666   5.541   2.992
 9552SOL    HW129555   1.733   5.477   3.028
 9552SOL    HW229556   1.698   5.578   2.905
 9553SOL     OW29557   5.606   4.364   5.684
 9553SOL    HW129558   5.538   4.378   5.756
 9553SOL    HW229559   5.632   4.267   5.680
 9554SOL     OW29560   1.878   1.426   2.070
 9554SOL    HW129561   1.905   1.486   2.145
 9554SOL    HW229562   1.954   1.365   2.047
 9555SOL     OW29563   6.967   2.360   0.675
 9555SOL    HW129564   6.874   2.353   0.640
 9555SOL    HW229565   7.019   2.278   0.650
 9556SOL     OW29566   1.946   1.717   1.471
 9556SOL    HW129567   1.905   1.765   1.393
 9556SOL    HW229568   2.039   1.752   1.485
 9557SOL     OW29569   5.294   0.990   1.975
 9557SOL    HW129570   5.309   0.953   2.067
 9557SOL    HW229571   5.223   0.937   1.929
 9558SOL     OW29572   6.139   4.907   2.589
 9558SOL    HW129573   6.039   4.905   2.587
 9558SOL    HW229574   6.171   4.997   2.559
 9559SOL     OW29575   6.933   2.902   1.907
 9559SOL    HW129576   6.864   2.898   1.835
 9559SOL    HW229577   6.971   2.994   1.913
 9560SOL     OW29578   3.194   1.687   4.147
 9560SOL    HW129579   3.241   1.652   4.227
 9560SOL    HW229580   3.214   1.630   4.068
 9561SOL     OW29581   3.912   6.716   0.584
 9561SOL    HW129582   3.985   6.717   0.516
 9561SOL    HW229583   3.824   6.705   0.539
 9562SOL     OW29584   5.370   5.344   2.839
 9562SOL    HW129585   5.270   5.345   2.834
 9562SOL    HW229586   5.403   5.250   2.825
 9563SOL     OW29587   6.584   6.225   6.944
 9563SOL    HW129588   6.662   6.267   6.991
 9563SOL    HW229589   6.616   6.145   6.893
 9564SOL     OW29590   2.187   6.939   6.879
 9564SOL    HW129591   2.274   6.915   6.836
 9564SOL    HW229592   2.202   6.958   6.976
 9565SOL     OW29593   3.840   5.834   4.383
 9565SOL    HW129594   3.824   5.931   4.400
 9565SOL    HW229595   3.926   5.823   4.333
 9566SOL     OW29596   2.753   4.780   5.258
 9566SOL    HW129597   2.779   4.739   5.345
 9566SOL    HW229598   2.806   4.738   5.184
 9567SOL     OW29599   6.249   5.611   5.681
 9567SOL    HW129600   6.267   5.708   5.699
 9567SOL    HW229601   6.151   5.598   5.664
 9568SOL     OW29602   4.753   3.561   6.418
 9568SOL    HW129603   4.700   3.583   6.335
 9568SOL    HW229604   4.712   3.483   6.464
 9569SOL     OW29605   6.194   1.083   0.472
 9569SOL    HW129606   6.167   1.151   0.540
 9569SOL    HW229607   6.172   1.116   0.381
 9570SOL     OW29608   0.203   0.775   0.683
 9570SOL    HW129609   0.172   0.680   0.686
 9570SOL    HW229610   0.128   0.834   0.654
 9571SOL     OW29611   2.180   3.794   0.224
 9571SOL    HW129612   2.246   3.849   0.175
 9571SOL    HW229613   2.226   3.715   0.265
 9572SOL     OW29614   1.549   4.435   1.277
 9572SOL    HW129615   1.592   4.376   1.209
 9572SOL    HW229616   1.451   4.441   1.258
 9573SOL     OW29617   0.798   2.026   1.135
 9573SOL    HW129618   0.891   2.031   1.170
 9573SOL    HW229619   0.748   2.110   1.158
 9574SOL     OW29620   2.491   1.680   5.550
 9574SOL    HW129621   2.473   1.778   5.539
 9574SOL    HW229622   2.423   1.640   5.611
 9575SOL     OW29623   5.767   0.458   2.046
 9575SOL    HW129624   5.828   0.537   2.049
 9575SOL    HW229625   5.701   0.464   2.122
 9576SOL     OW29626   3.366   2.094   6.067
 9576SOL    HW129627   3.349   2.040   6.150
 9576SOL    HW229628   3.279   2.128   6.031
 9577SOL     OW29629   0.867   6.340   3.161
 9577SOL    HW129630   0.937   6.403   3.195
 9577SOL    HW229631   0.845   6.362   3.066
 9578SOL     OW29632   6.024   3.420   2.068
 9578SOL    HW129633   6.077   3.396   2.150
 9578SOL    HW229634   5.970   3.342   2.039
 9579SOL     OW29635   0.837   6.636   2.516
 9579SOL    HW129636   0.857   6.721   2.566
 9579SOL    HW229637   0.874   6.643   2.423
 9580SOL     OW29638   4.473   3.893   6.019
 9580SOL    HW129639   4.455   3.806   5.973
 9580SOL    HW229640   4.387   3.931   6.052
 9581SOL     OW29641   1.482   4.212   6.274
 9581SOL    HW129642   1.410   4.226   6.206
 9581SOL    HW229643   1.443   4.217   6.366
 9582SOL     OW29644   4.758   5.169   5.070
 9582SOL    HW129645   4.821   5.220   5.012
 9582SOL    HW229646   4.777   5.071   5.061
 9583SOL     OW29647   2.198   4.230   1.645
 9583SOL    HW129648   2.248   4.314   1.668
 9583SOL    HW229649   2.242   4.152   1.691
 9584SOL     OW29650   5.974   5.683   6.268
 9584SOL    HW129651   5.904   5.667   6.337
 9584SOL    HW229652   6.046   5.741   6.307
 9585SOL     OW29653   5.948   0.487   4.336
 9585SOL    HW129654   5.940   0.573   4.285
 9585SOL    HW229655   5.908   0.412   4.283
 9586SOL     OW29656   5.476   3.666   3.270
 9586SOL    HW129657   5.379   3.663   3.292
 9586SOL    HW229658   5.499   3.590   3.208
 9587SOL     OW29659   4.694   6.487   2.028
 9587SOL    HW129660   4.722   6.420   1.958
 9587SOL    HW229661   4.704   6.446   2.119
 9588SOL     OW29662   0.024   0.797   1.995
 9588SOL    HW129663   6.953   0.769   1.977
 9588SOL    HW229664   0.026   0.892   2.025
 9589SOL     OW29665   2.807   1.544   6.400
 9589SOL    HW129666   2.858   1.482   6.341
 9589SOL    HW229667   2.817   1.515   6.496
 9590SOL     OW29668   6.706   4.664   4.918
 9590SOL    HW129669   6.659   4.604   4.983
 9590SOL    HW229670   6.801   4.675   4.946
 9591SOL     OW29671   1.409   4.768   1.662
 9591SOL    HW129672   1.476   4.705   1.700
 9591SOL    HW229673   1.364   4.818   1.736
 9592SOL     OW29674   4.887   5.089   2.095
 9592SOL    HW129675   4.857   5.043   2.178
 9592SOL    HW229676   4.965   5.148   2.116
 9593SOL     OW29677   0.576   2.799   3.710
 9593SOL    HW129678   0.591   2.886   3.664
 9593SOL    HW229679   0.499   2.806   3.773
 9594SOL     OW29680   6.019   6.785   2.124
 9594SOL    HW129681   6.023   6.863   2.186
 9594SOL    HW229682   5.924   6.754   2.116
 9595SOL     OW29683   0.771   4.543   4.430
 9595SOL    HW129684   0.787   4.461   4.375
 9595SOL    HW229685   0.806   4.528   4.523
 9596SOL     OW29686   5.280   6.693   4.535
 9596SOL    HW129687   5.199   6.713   4.591
 9596SOL    HW229688   5.252   6.663   4.444
 9597SOL     OW29689   2.140   3.960   1.149
 9597SOL    HW129690   2.135   4.029   1.221
 9597SOL    HW229691   2.217   3.899   1.167
 9598SOL     OW29692   0.006   5.368   5.854
 9598SOL    HW129693   7.019   5.414   5.766
 9598SOL    HW229694   6.975   5.415   5.924
 9599SOL     OW29695   5.050   1.711   4.758
 9599SOL    HW129696   5.100   1.649   4.697
 9599SOL    HW229697   5.108   1.789   4.781
 9600SOL     OW29698   1.471   6.674   6.875
 9600SOL    HW129699   1.473   6.774   6.881
 9600SOL    HW229700   1.445   6.636   6.964
 9601SOL     OW29701   0.727   4.957   5.643
 9601SOL    HW129702   0.784   4.970   5.562
 9601SOL    HW229703   0.670   5.038   5.656
 9602SOL     OW29704   1.508   5.499   0.691
 9602SOL    HW129705   1.585   5.549   0.651
 9602SOL    HW229706   1.477   5.545   0.774
 9603SOL     OW29707   1.605   5.220   4.045
 9603SOL    HW129708   1.570   5.191   3.956
 9603SOL    HW229709   1.696   5.260   4.033
 9604SOL     OW29710   6.944   0.903   0.104
 9604SOL    HW129711   6.892   0.822   0.079
 9604SOL    HW229712   6.895   0.954   0.175
 9605SOL     OW29713   2.158   5.752   6.581
 9605SOL    HW129714   2.223   5.811   6.629
 9605SOL    HW229715   2.076   5.741   6.637
 9606SOL     OW29716   6.382   6.357   4.184
 9606SOL    HW129717   6.381   6.439   4.241
 9606SOL    HW229718   6.473   6.315   4.187
 9607SOL     OW29719   1.018   2.738   1.913
 9607SOL    HW129720   1.069   2.657   1.885
 9607SOL    HW229721   0.949   2.760   1.843
 9608SOL     OW29722   6.746   6.346   2.818
 9608SOL    HW129723   6.766   6.353   2.916
 9608SOL    HW229724   6.825   6.308   2.770
 9609SOL     OW29725   1.918   2.761   3.885
 9609SOL    HW129726   1.874   2.745   3.797
 9609SOL    HW229727   1.964   2.849   3.883
 9610SOL     OW29728   2.976   1.768   6.335
 9610SOL    HW129729   2.935   1.683   6.366
 9610SOL    HW229730   3.028   1.809   6.409
 9611SOL     OW29731   6.312   6.563   0.997
 9611SOL    HW129732   6.293   6.465   0.986
 9611SOL    HW229733   6.268   6.595   1.081
 9612SOL     OW29734   5.693   2.822   2.120
 9612SOL    HW129735   5.688   2.844   2.023
 9612SOL    HW229736   5.787   2.830   2.152
 9613SOL     OW29737   5.649   6.460   5.826
 9613SOL    HW129738   5.653   6.471   5.727
 9613SOL    HW229739   5.738   6.429   5.860
 9614SOL     OW29740   3.635   3.340   2.397
 9614SOL    HW129741   3.570   3.320   2.323
 9614SOL    HW229742   3.592   3.321   2.485
 9615SOL     OW29743   0.959   6.561   3.771
 9615SOL    HW129744   0.925   6.651   3.743
 9615SOL    HW229745   1.055   6.553   3.745
 9616SOL     OW29746   3.377   3.632   1.298
 9616SOL    HW129747   3.326   3.634   1.384
 9616SOL    HW229748   3.468   3.594   1.313
 9617SOL     OW29749   1.017   3.765   3.390
 9617SOL    HW129750   0.926   3.788   3.424
 9617SOL    HW229751   1.073   3.848   3.388
 9618SOL     OW29752   4.399   5.777   0.069
 9618SOL    HW129753   4.429   5.750   7.001
 9618SOL    HW229754   4.322   5.840   0.061
 9619SOL     OW29755   1.923   6.852   1.096
 9619SOL    HW129756   1.906   6.798   1.179
 9619SOL    HW229757   1.984   6.928   1.118
 9620SOL     OW29758   3.598   1.114   6.804
 9620SOL    HW129759   3.545   1.121   6.719
 9620SOL    HW229760   3.665   1.040   6.796
 9621SOL     OW29761   1.238   1.904   1.327
 9621SOL    HW129762   1.158   1.930   1.381
 9621SOL    HW229763   1.224   1.813   1.288
 9622SOL     OW29764   6.521   0.200   5.822
 9622SOL    HW129765   6.424   0.209   5.841
 9622SOL    HW229766   6.535   0.184   5.724
 9623SOL     OW29767   4.067   6.554   6.489
 9623SOL    HW129768   4.039   6.499   6.411
 9623SOL    HW229769   3.998   6.623   6.508
 9624SOL     OW29770   4.248   4.949   4.407
 9624SOL    HW129771   4.226   4.867   4.353
 9624SOL    HW229772   4.272   5.024   4.345
 9625SOL     OW29773   4.816   3.741   5.720
 9625SOL    HW129774   4.778   3.662   5.767
 9625SOL    HW229775   4.741   3.803   5.694
 9626SOL     OW29776   2.415   3.656   6.427
 9626SOL    HW129777   2.442   3.653   6.524
 9626SOL    HW229778   2.418   3.564   6.389
 9627SOL     OW29779   0.899   5.300   6.636
 9627SOL    HW129780   0.843   5.379   6.657
 9627SOL    HW229781   0.848   5.236   6.579
 9628SOL     OW29782   6.215   1.621   6.223
 9628SOL    HW129783   6.169   1.622   6.134
 9628SOL    HW229784   6.308   1.588   6.211
 9629SOL     OW29785   6.441   5.661   4.006
 9629SOL    HW129786   6.426   5.758   4.024
 9629SOL    HW229787   6.539   5.640   4.013
 9630SOL     OW29788   5.955   6.407   6.197
 9630SOL    HW129789   5.991   6.393   6.105
 9630SOL    HW229790   5.857   6.425   6.192
 9631SOL     OW29791   4.104   0.847   0.313
 9631SOL    HW129792   4.167   0.918   0.343
 9631SOL    HW229793   4.110   0.769   0.375
 9632SOL     OW29794   3.825   6.020   2.036
 9632SOL    HW129795   3.823   5.923   2.015
 9632SOL    HW229796   3.794   6.034   2.131
 9633SOL     OW29797   3.414   2.873   2.660
 9633SOL    HW129798   3.511   2.889   2.645
 9633SOL    HW229799   3.393   2.882   2.758
 9634SOL     OW29800   5.231   4.708   3.032
 9634SOL    HW129801   5.196   4.615   3.047
 9634SOL    HW229802   5.210   4.736   2.938
 9635SOL     OW29803   0.212   5.241   3.878
 9635SOL    HW129804   0.298   5.211   3.837
 9635SOL    HW229805   0.231   5.286   3.965
 9636SOL     OW29806   4.954   3.174   3.991
 9636SOL    HW129807   4.890   3.246   3.963
 9636SOL    HW229808   4.936   3.149   4.086
 9637SOL     OW29809   2.791   2.945   7.014
 9637SOL    HW129810   2.821   3.035   0.023
 9637SOL    HW229811   2.712   2.916   0.045
 9638SOL     OW29812   6.058   5.017   5.564
 9638SOL    HW129813   6.008   4.979   5.486
 9638SOL    HW229814   6.123   5.085   5.532
 9639SOL     OW29815   3.744   1.626   2.570
 9639SOL    HW129816   3.783   1.535   2.581
 9639SOL    HW229817   3.647   1.618   2.545
 9640SOL     OW29818   4.812   0.237   3.143
 9640SOL    HW129819   4.765   0.215   3.057
 9640SOL    HW229820   4.864   0.322   3.132
 9641SOL     OW29821   5.897   3.640   3.385
 9641SOL    HW129822   5.961   3.585   3.439
 9641SOL    HW229823   5.832   3.580   3.339
 9642SOL     OW29824   1.708   0.130   3.619
 9642SOL    HW129825   1.690   0.158   3.525
 9642SOL    HW229826   1.697   0.030   3.626
 9643SOL     OW29827   4.818   4.833   4.185
 9643SOL    HW129828   4.824   4.882   4.272
 9643SOL    HW229829   4.781   4.741   4.201
 9644SOL     OW29830   1.265   5.800   4.771
 9644SOL    HW129831   1.363   5.792   4.791
 9644SOL    HW229832   1.224   5.867   4.832
 9645SOL     OW29833   0.332   4.787   6.383
 9645SOL    HW129834   0.360   4.700   6.424
 9645SOL    HW229835   0.275   4.837   6.449
 9646SOL     OW29836   3.175   5.937   6.287
 9646SOL    HW129837   3.214   5.930   6.196
 9646SOL    HW229838   3.082   5.899   6.287
 9647SOL     OW29839   6.412   7.014   3.392
 9647SOL    HW129840   6.317   6.994   3.414
 9647SOL    HW229841   6.456   0.034   3.470
 9648SOL     OW29842   3.795   1.976   1.137
 9648SOL    HW129843   3.826   1.929   1.220
 9648SOL    HW229844   3.698   1.997   1.146
 9649SOL     OW29845   1.645   5.689   0.021
 9649SOL    HW129846   1.720   5.652   6.989
 9649SOL    HW229847   1.586   5.745   6.987
 9650SOL     OW29848   6.848   5.217   4.778
 9650SOL    HW129849   6.916   5.289   4.769
 9650SOL    HW229850   6.880   5.135   4.732
 9651SOL     OW29851   4.406   1.560   0.497
 9651SOL    HW129852   4.470   1.637   0.493
 9651SOL    HW229853   4.396   1.520   0.406
 9652SOL     OW29854   6.959   3.744   0.351
 9652SOL    HW129855   6.895   3.728   0.426
 9652SOL    HW229856   6.957   3.666   0.288
 9653SOL     OW29857   4.259   4.260   5.999
 9653SOL    HW129858   4.216   4.305   5.921
 9653SOL    HW229859   4.318   4.325   6.047
 9654SOL     OW29860   3.790   3.667   3.698
 9654SOL    HW129861   3.718   3.598   3.702
 9654SOL    HW229862   3.879   3.622   3.687
 9655SOL     OW29863   4.312   1.048   1.506
 9655SOL    HW129864   4.234   1.106   1.482
 9655SOL    HW229865   4.279   0.961   1.541
 9656SOL     OW29866   5.846   3.987   0.791
 9656SOL    HW129867   5.897   4.068   0.762
 9656SOL    HW229868   5.861   3.971   0.888
 9657SOL     OW29869   5.471   3.987   3.149
 9657SOL    HW129870   5.422   3.929   3.214
 9657SOL    HW229871   5.491   4.076   3.191
 9658SOL     OW29872   4.979   2.136   2.688
 9658SOL    HW129873   5.005   2.158   2.594
 9658SOL    HW229874   5.061   2.133   2.745
 9659SOL     OW29875   2.435   3.294   0.601
 9659SOL    HW129876   2.435   3.293   0.501
 9659SOL    HW229877   2.407   3.384   0.633
 9660SOL     OW29878   0.573   5.799   1.523
 9660SOL    HW129879   0.669   5.774   1.532
 9660SOL    HW229880   0.564   5.872   1.455
 9661SOL     OW29881   5.231   4.904   0.796
 9661SOL    HW129882   5.208   4.972   0.867
 9661SOL    HW229883   5.253   4.817   0.840
 9662SOL     OW29884   5.847   5.097   5.822
 9662SOL    HW129885   5.836   5.016   5.764
 9662SOL    HW229886   5.793   5.085   5.906
 9663SOL     OW29887   0.684   5.211   3.402
 9663SOL    HW129888   0.725   5.150   3.334
 9663SOL    HW229889   0.637   5.286   3.356
 9664SOL     OW29890   4.774   4.137   3.033
 9664SOL    HW129891   4.768   4.157   2.935
 9664SOL    HW229892   4.704   4.191   3.082
 9665SOL     OW29893   5.828   5.615   6.744
 9665SOL    HW129894   5.895   5.543   6.762
 9665SOL    HW229895   5.825   5.677   6.822
 9666SOL     OW29896   5.323   3.392   0.595
 9666SOL    HW129897   5.338   3.369   0.692
 9666SOL    HW229898   5.332   3.491   0.583
 9667SOL     OW29899   6.193   6.400   6.328
 9667SOL    HW129900   6.100   6.398   6.291
 9667SOL    HW229901   6.247   6.326   6.288
 9668SOL     OW29902   0.463   0.051   5.687
 9668SOL    HW129903   0.427   7.009   5.754
 9668SOL    HW229904   0.562   0.042   5.683
 9669SOL     OW29905   4.080   0.240   0.091
 9669SOL    HW129906   4.089   0.232   7.016
 9669SOL    HW229907   4.134   0.317   0.124
 9670SOL     OW29908   6.961   6.881   6.790
 9670SOL    HW129909   6.883   6.876   6.728
 9670SOL    HW229910   6.928   6.905   6.882
 9671SOL     OW29911   1.309   5.855   6.522
 9671SOL    HW129912   1.252   5.925   6.565
 9671SOL    HW229913   1.282   5.765   6.556
 9672SOL     OW29914   0.772   3.137   4.038
 9672SOL    HW129915   0.764   3.060   4.101
 9672SOL    HW229916   0.854   3.126   3.982
 9673SOL     OW29917   2.229   3.939   0.830
 9673SOL    HW129918   2.132   3.963   0.825
 9673SOL    HW229919   2.243   3.874   0.904
 9674SOL     OW29920   2.516   6.042   4.492
 9674SOL    HW129921   2.558   6.070   4.405
 9674SOL    HW229922   2.453   5.966   4.475
 9675SOL     OW29923   4.829   3.535   1.130
 9675SOL    HW129924   4.908   3.492   1.086
 9675SOL    HW229925   4.853   3.628   1.157
 9676SOL     OW29926   0.684   2.750   6.531
 9676SOL    HW129927   0.724   2.673   6.481
 9676SOL    HW229928   0.700   2.737   6.629
 9677SOL     OW29929   6.816   5.056   0.523
 9677SOL    HW129930   6.908   5.094   0.532
 9677SOL    HW229931   6.807   4.976   0.583
 9678SOL     OW29932   3.984   3.165   4.733
 9678SOL    HW129933   4.045   3.220   4.790
 9678SOL    HW229934   4.035   3.127   4.656
 9679SOL     OW29935   2.131   1.569   4.793
 9679SOL    HW129936   2.166   1.535   4.705
 9679SOL    HW229937   2.156   1.505   4.866
 9680SOL     OW29938   4.704   5.552   2.587
 9680SOL    HW129939   4.706   5.602   2.501
 9680SOL    HW229940   4.767   5.475   2.582
 9681SOL     OW29941   1.369   1.947   2.736
 9681SOL    HW129942   1.369   2.028   2.677
 9681SOL    HW229943   1.455   1.896   2.723
 9682SOL     OW29944   5.417   5.414   5.161
 9682SOL    HW129945   5.439   5.498   5.212
 9682SOL    HW229946   5.327   5.382   5.189
 9683SOL     OW29947   3.228   5.838   2.127
 9683SOL    HW129948   3.217   5.746   2.091
 9683SOL    HW229949   3.211   5.905   2.054
 9684SOL     OW29950   0.899   3.499   5.598
 9684SOL    HW129951   0.849   3.562   5.539
 9684SOL    HW229952   0.837   3.464   5.669
 9685SOL     OW29953   3.839   4.772   1.228
 9685SOL    HW129954   3.804   4.825   1.150
 9685SOL    HW229955   3.900   4.701   1.194
 9686SOL     OW29956   0.112   1.794   5.804
 9686SOL    HW129957   0.129   1.718   5.742
 9686SOL    HW229958   0.015   1.796   5.828
 9687SOL     OW29959   5.706   1.044   2.002
 9687SOL    HW129960   5.775   1.091   1.947
 9687SOL    HW229961   5.714   1.074   2.098
 9688SOL     OW29962   0.148   4.219   1.203
 9688SOL    HW129963   0.161   4.189   1.298
 9688SOL    HW229964   0.100   4.307   1.203
 9689SOL     OW29965   1.554   6.226   0.736
 9689SOL    HW129966   1.505   6.286   0.799
 9689SOL    HW229967   1.632   6.275   0.697
 9690SOL     OW29968   6.208   5.209   5.437
 9690SOL    HW129969   6.255   5.297   5.436
 9690SOL    HW229970   6.158   5.197   5.351
 9691SOL     OW29971   3.069   4.057   1.852
 9691SOL    HW129972   3.154   4.085   1.897
 9691SOL    HW229973   3.017   3.998   1.914
 9692SOL     OW29974   5.031   5.164   1.421
 9692SOL    HW129975   5.101   5.209   1.476
 9692SOL    HW229976   4.942   5.205   1.441
 9693SOL     OW29977   5.315   3.916   4.786
 9693SOL    HW129978   5.353   4.006   4.807
 9693SOL    HW229979   5.277   3.876   4.870
 9694SOL     OW29980   3.512   6.999   2.214
 9694SOL    HW129981   3.496   6.948   2.298
 9694SOL    HW229982   3.497   6.939   2.135
 9695SOL     OW29983   0.604   2.489   3.451
 9695SOL    HW129984   0.520   2.519   3.496
 9695SOL    HW229985   0.621   2.393   3.473
 9696SOL     OW29986   6.028   2.424   2.421
 9696SOL    HW129987   5.978   2.469   2.495
 9696SOL    HW229988   6.039   2.327   2.442
 9697SOL     OW29989   1.293   6.079   0.754
 9697SOL    HW129990   1.377   6.128   0.732
 9697SOL    HW229991   1.266   6.022   0.676
 9698SOL     OW29992   5.808   3.148   0.790
 9698SOL    HW129993   5.718   3.123   0.828
 9698SOL    HW229994   5.863   3.065   0.778
 9699SOL     OW29995   1.488   5.432   1.415
 9699SOL    HW129996   1.405   5.456   1.365
 9699SOL    HW229997   1.482   5.337   1.446
 9700SOL     OW29998   5.498   0.406   5.173
 9700SOL    HW129999   5.481   0.364   5.083
 9700SOL    HW230000   5.451   0.493   5.178
 9701SOL     OW30001   4.298   3.270   6.364
 9701SOL    HW130002   4.215   3.278   6.418
 9701SOL    HW230003   4.367   3.220   6.417
 9702SOL     OW30004   3.714   3.028   1.260
 9702SOL    HW130005   3.728   2.997   1.166
 9702SOL    HW230006   3.643   3.098   1.262
 9703SOL     OW30007   6.870   3.970   4.939
 9703SOL    HW130008   6.795   3.979   5.004
 9703SOL    HW230009   6.914   4.058   4.925
 9704SOL     OW30010   2.206   4.168   2.959
 9704SOL    HW130011   2.169   4.091   2.907
 9704SOL    HW230012   2.198   4.149   3.057
 9705SOL     OW30013   6.298   3.252   5.830
 9705SOL    HW130014   6.255   3.216   5.747
 9705SOL    HW230015   6.228   3.266   5.900
 9706SOL     OW30016   1.183   1.474   2.463
 9706SOL    HW130017   1.122   1.527   2.404
 9706SOL    HW230018   1.249   1.535   2.506
 9707SOL     OW30019   0.048   5.140   2.579
 9707SOL    HW130020   0.145   5.145   2.556
 9707SOL    HW230021   0.036   5.094   2.667
 9708SOL     OW30022   2.458   0.444   2.521
 9708SOL    HW130023   2.359   0.431   2.517
 9708SOL    HW230024   2.480   0.538   2.495
 9709SOL     OW30025   5.779   2.044   2.266
 9709SOL    HW130026   5.853   2.087   2.317
 9709SOL    HW230027   5.816   1.998   2.185
 9710SOL     OW30028   6.421   5.915   4.069
 9710SOL    HW130029   6.448   5.952   3.980
 9710SOL    HW230030   6.342   5.966   4.104
 9711SOL     OW30031   4.119   0.294   6.810
 9711SOL    HW130032   4.182   0.369   6.792
 9711SOL    HW230033   4.124   0.227   6.735
 9712SOL     OW30034   5.600   1.675   0.052
 9712SOL    HW130035   5.684   1.624   0.039
 9712SOL    HW230036   5.560   1.652   0.140
 9713SOL     OW30037   0.983   6.590   3.255
 9713SOL    HW130038   0.988   6.662   3.324
 9713SOL    HW230039   1.043   6.612   3.179
 9714SOL     OW30040   2.366   4.596   4.292
 9714SOL    HW130041   2.437   4.625   4.356
 9714SOL    HW230042   2.322   4.513   4.325
 9715SOL     OW30043   6.207   3.759   0.081
 9715SOL    HW130044   6.247   3.689   0.141
 9715SOL    HW230045   6.233   3.741   7.010
 9716SOL     OW30046   2.705   5.259   0.152
 9716SOL    HW130047   2.707   5.186   0.084
 9716SOL    HW230048   2.659   5.226   0.234
 9717SOL     OW30049   4.271   1.079   5.229
 9717SOL    HW130050   4.282   1.074   5.329
 9717SOL    HW230051   4.265   0.986   5.192
 9718SOL     OW30052   3.503   2.443   0.024
 9718SOL    HW130053   3.498   2.513   0.095
 9718SOL    HW230054   3.411   2.426   7.011
 9719SOL     OW30055   4.623   6.301   4.901
 9719SOL    HW130056   4.531   6.329   4.928
 9719SOL    HW230057   4.665   6.373   4.845
 9720SOL     OW30058   1.961   3.911   3.281
 9720SOL    HW130059   1.920   3.877   3.197
 9720SOL    HW230060   1.898   3.900   3.357
 9721SOL     OW30061   0.860   1.654   0.461
 9721SOL    HW130062   0.819   1.597   0.532
 9721SOL    HW230063   0.789   1.708   0.416
 9722SOL     OW30064   4.015   3.039   5.319
 9722SOL    HW130065   3.968   3.008   5.236
 9722SOL    HW230066   4.000   3.137   5.331
 9723SOL     OW30067   6.638   6.071   4.180
 9723SOL    HW130068   6.613   6.127   4.102
 9723SOL    HW230069   6.575   5.994   4.187
 9724SOL     OW30070   1.198   5.364   0.141
 9724SOL    HW130071   1.124   5.297   0.130
 9724SOL    HW230072   1.162   5.448   0.180
 9725SOL     OW30073   3.338   5.420   5.277
 9725SOL    HW130074   3.256   5.374   5.312
 9725SOL    HW230075   3.352   5.506   5.326
 9726SOL     OW30076   5.845   1.422   4.176
 9726SOL    HW130077   5.924   1.396   4.120
 9726SOL    HW230078   5.875   1.479   4.252
 9727SOL     OW30079   0.772   1.110   0.235
 9727SOL    HW130080   0.850   1.132   0.175
 9727SOL    HW230081   0.757   1.184   0.300
 9728SOL     OW30082   4.673   0.869   5.658
 9728SOL    HW130083   4.701   0.965   5.662
 9728SOL    HW230084   4.589   0.857   5.710
 9729SOL     OW30085   0.295   5.299   3.258
 9729SOL    HW130086   0.216   5.359   3.262
 9729SOL    HW230087   0.268   5.206   3.286
 9730SOL     OW30088   6.951   4.320   3.522
 9730SOL    HW130089   6.936   4.221   3.533
 9730SOL    HW230090   7.022   4.350   3.585
 9731SOL     OW30091   5.010   3.336   2.434
 9731SOL    HW130092   4.967   3.426   2.426
 9731SOL    HW230093   5.099   3.337   2.388
 9732SOL     OW30094   1.074   2.990   2.601
 9732SOL    HW130095   1.154   3.046   2.578
 9732SOL    HW230096   1.095   2.894   2.583
 9733SOL     OW30097   6.716   4.893   2.452
 9733SOL    HW130098   6.683   4.818   2.394
 9733SOL    HW230099   6.815   4.904   2.438
 9734SOL     OW30100   6.240   6.214   5.641
 9734SOL    HW130101   6.254   6.312   5.655
 9734SOL    HW230102   6.142   6.194   5.642
 9735SOL     OW30103   1.447   2.596   2.119
 9735SOL    HW130104   1.457   2.644   2.206
 9735SOL    HW230105   1.419   2.660   2.048
 9736SOL     OW30106   4.578   2.177   5.011
 9736SOL    HW130107   4.670   2.138   5.017
 9736SOL    HW230108   4.561   2.235   5.091
 9737SOL     OW30109   5.846   2.537   2.600
 9737SOL    HW130110   5.756   2.497   2.586
 9737SOL    HW230111   5.846   2.631   2.566
 9738SOL     OW30112   1.725   5.698   2.145
 9738SOL    HW130113   1.661   5.621   2.144
 9738SOL    HW230114   1.674   5.784   2.154
 9739SOL     OW30115   5.601   0.080   0.161
 9739SOL    HW130116   5.602   0.098   0.063
 9739SOL    HW230117   5.609   7.005   0.177
 9740SOL     OW30118   6.816   0.988   1.911
 9740SOL    HW130119   6.859   1.077   1.893
 9740SOL    HW230120   6.819   0.932   1.829
 9741SOL     OW30121   2.947   1.251   4.743
 9741SOL    HW130122   2.987   1.261   4.834
 9741SOL    HW230123   2.850   1.226   4.751
 9742SOL     OW30124   3.991   2.362   6.225
 9742SOL    HW130125   4.003   2.453   6.265
 9742SOL    HW230126   4.074   2.309   6.238
 9743SOL     OW30127   5.904   3.476   4.017
 9743SOL    HW130128   5.872   3.421   4.094
 9743SOL    HW230129   6.003   3.464   4.007
 9744SOL     OW30130   1.954   0.509   3.665
 9744SOL    HW130131   1.959   0.604   3.696
 9744SOL    HW230132   1.980   0.448   3.741
 9745SOL     OW30133   6.685   0.868   5.283
 9745SOL    HW130134   6.700   0.917   5.368
 9745SOL    HW230135   6.772   0.834   5.248
 9746SOL     OW30136   4.217   5.425   6.242
 9746SOL    HW130137   4.152   5.350   6.235
 9746SOL    HW230138   4.269   5.432   6.157
 9747SOL     OW30139   2.345   2.803   2.926
 9747SOL    HW130140   2.403   2.728   2.896
 9747SOL    HW230141   2.367   2.828   3.020
 9748SOL     OW30142   1.151   0.773   3.022
 9748SOL    HW130143   1.232   0.831   3.026
 9748SOL    HW230144   1.140   0.738   2.929
 9749SOL     OW30145   6.587   1.608   1.874
 9749SOL    HW130146   6.606   1.521   1.829
 9749SOL    HW230147   6.660   1.630   1.939
 9750SOL     OW30148   0.017   4.553   4.022
 9750SOL    HW130149   0.013   4.607   4.106
 9750SOL    HW230150   0.103   4.570   3.975
 9751SOL     OW30151   2.489   1.233   1.810
 9751SOL    HW130152   2.489   1.177   1.727
 9751SOL    HW230153   2.540   1.187   1.882
 9752SOL     OW30154   3.365   3.442   6.937
 9752SOL    HW130155   3.342   3.349   6.968
 9752SOL    HW230156   3.285   3.483   6.893
 9753SOL     OW30157   6.413   5.989   4.947
 9753SOL    HW130158   6.334   6.033   4.989
 9753SOL    HW230159   6.383   5.921   4.880
 9754SOL     OW30160   3.688   1.360   1.099
 9754SOL    HW130161   3.765   1.308   1.063
 9754SOL    HW230162   3.655   1.318   1.183
 9755SOL     OW30163   3.029   4.288   6.689
 9755SOL    HW130164   3.073   4.214   6.638
 9755SOL    HW230165   2.969   4.248   6.758
 9756SOL     OW30166   6.145   0.429   6.044
 9756SOL    HW130167   6.061   0.474   6.076
 9756SOL    HW230168   6.192   0.488   5.979
 9757SOL     OW30169   5.079   4.040   3.732
 9757SOL    HW130170   5.156   4.024   3.670
 9757SOL    HW230171   5.019   3.960   3.731
 9758SOL     OW30172   1.616   0.562   1.309
 9758SOL    HW130173   1.568   0.501   1.246
 9758SOL    HW230174   1.570   0.650   1.312
 9759SOL     OW30175   0.445   0.876   0.736
 9759SOL    HW130176   0.350   0.869   0.704
 9759SOL    HW230177   0.500   0.807   0.690
 9760SOL     OW30178   4.638   2.170   0.183
 9760SOL    HW130179   4.707   2.233   0.148
 9760SOL    HW230180   4.635   2.175   0.283
 9761SOL     OW30181   1.274   2.438   1.611
 9761SOL    HW130182   1.204   2.507   1.592
 9761SOL    HW230183   1.364   2.480   1.607
 9762SOL     OW30184   2.421   1.381   5.455
 9762SOL    HW130185   2.494   1.438   5.417
 9762SOL    HW230186   2.356   1.357   5.383
 9763SOL     OW30187   6.275   1.380   0.675
 9763SOL    HW130188   6.207   1.309   0.694
 9763SOL    HW230189   6.251   1.463   0.725
 9764SOL     OW30190   5.329   2.216   2.214
 9764SOL    HW130191   5.264   2.144   2.190
 9764SOL    HW230192   5.422   2.186   2.191
 9765SOL     OW30193   6.552   0.960   1.322
 9765SOL    HW130194   6.489   0.944   1.246
 9765SOL    HW230195   6.620   0.887   1.325
 9766SOL     OW30196   2.146   1.155   4.644
 9766SOL    HW130197   2.092   1.095   4.585
 9766SOL    HW230198   2.089   1.189   4.719
 9767SOL     OW30199   2.132   3.115   5.989
 9767SOL    HW130200   2.211   3.091   6.046
 9767SOL    HW230201   2.107   3.036   5.933
 9768SOL     OW30202   6.237   2.138   1.092
 9768SOL    HW130203   6.250   2.138   1.191
 9768SOL    HW230204   6.326   2.143   1.046
 9769SOL     OW30205   2.925   1.858   4.942
 9769SOL    HW130206   2.914   1.877   4.845
 9769SOL    HW230207   2.947   1.942   4.991
 9770SOL     OW30208   2.735   1.990   6.021
 9770SOL    HW130209   2.713   2.056   5.949
 9770SOL    HW230210   2.742   1.898   5.981
 9771SOL     OW30211   3.305   6.173   3.395
 9771SOL    HW130212   3.228   6.137   3.343
 9771SOL    HW230213   3.380   6.197   3.333
 9772SOL     OW30214   1.147   6.901   1.685
 9772SOL    HW130215   1.186   6.850   1.761
 9772SOL    HW230216   1.081   6.843   1.636
 9773SOL     OW30217   4.652   5.352   1.719
 9773SOL    HW130218   4.639   5.304   1.805
 9773SOL    HW230219   4.568   5.348   1.665
 9774SOL     OW30220   0.987   5.317   4.507
 9774SOL    HW130221   0.892   5.311   4.479
 9774SOL    HW230222   1.024   5.407   4.481
 9775SOL     OW30223   2.146   1.155   3.979
 9775SOL    HW130224   2.084   1.078   3.996
 9775SOL    HW230225   2.129   1.228   4.046
 9776SOL     OW30226   1.669   5.992   6.665
 9776SOL    HW130227   1.768   5.977   6.657
 9776SOL    HW230228   1.623   5.956   6.583
 9777SOL     OW30229   4.729   0.584   5.869
 9777SOL    HW130230   4.772   0.641   5.799
 9777SOL    HW230231   4.630   0.593   5.864
 9778SOL     OW30232   0.212   2.850   4.141
 9778SOL    HW130233   0.130   2.882   4.093
 9778SOL    HW230234   0.186   2.819   4.233
 9779SOL     OW30235   1.560   0.955   3.960
 9779SOL    HW130236   1.531   0.863   3.935
 9779SOL    HW230237   1.518   1.021   3.897
 9780SOL     OW30238   1.890   2.346   1.561
 9780SOL    HW130239   1.891   2.353   1.461
 9780SOL    HW230240   1.942   2.423   1.600
 9781SOL     OW30241   1.842   2.680   3.608
 9781SOL    HW130242   1.757   2.733   3.605
 9781SOL    HW230243   1.841   2.610   3.537
 9782SOL     OW30244   0.292   2.491   1.728
 9782SOL    HW130245   0.219   2.484   1.660
 9782SOL    HW230246   0.313   2.587   1.745
 9783SOL     OW30247   3.239   1.603   2.851
 9783SOL    HW130248   3.262   1.560   2.939
 9783SOL    HW230249   3.143   1.633   2.853
 9784SOL     OW30250   1.985   1.453   0.183
 9784SOL    HW130251   1.902   1.485   0.229
 9784SOL    HW230252   2.063   1.463   0.244
 9785SOL     OW30253   0.094   2.501   4.293
 9785SOL    HW130254   0.129   2.580   4.343
 9785SOL    HW230255   0.085   2.423   4.356
 9786SOL     OW30256   2.511   4.449   1.146
 9786SOL    HW130257   2.414   4.436   1.128
 9786SOL    HW230258   2.563   4.431   1.062
 9787SOL     OW30259   3.561   3.300   2.759
 9787SOL    HW130260   3.591   3.210   2.792
 9787SOL    HW230261   3.474   3.324   2.802
 9788SOL     OW30262   6.315   6.463   1.266
 9788SOL    HW130263   6.343   6.424   1.354
 9788SOL    HW230264   6.264   6.395   1.214
 9789SOL     OW30265   3.608   0.441   6.488
 9789SOL    HW130266   3.599   0.464   6.585
 9789SOL    HW230267   3.705   0.429   6.465
 9790SOL     OW30268   0.393   4.567   4.495
 9790SOL    HW130269   0.331   4.637   4.528
 9790SOL    HW230270   0.341   4.496   4.448
 9791SOL     OW30271   1.312   6.319   1.213
 9791SOL    HW130272   1.309   6.371   1.299
 9791SOL    HW230273   1.377   6.361   1.151
 9792SOL     OW30274   3.797   5.917   1.012
 9792SOL    HW130275   3.793   5.831   1.064
 9792SOL    HW230276   3.734   5.912   0.935
 9793SOL     OW30277   4.679   1.554   2.637
 9793SOL    HW130278   4.586   1.552   2.599
 9793SOL    HW230279   4.714   1.648   2.633
 9794SOL     OW30280   5.016   4.629   4.711
 9794SOL    HW130281   5.108   4.648   4.677
 9794SOL    HW230282   5.013   4.537   4.750
 9795SOL     OW30283   1.392   3.690   3.783
 9795SOL    HW130284   1.360   3.779   3.752
 9795SOL    HW230285   1.451   3.649   3.713
 9796SOL     OW30286   3.049   3.277   3.112
 9796SOL    HW130287   3.040   3.260   3.210
 9796SOL    HW230288   3.033   3.374   3.094
 9797SOL     OW30289   3.361   6.835   6.352
 9797SOL    HW130290   3.331   6.754   6.403
 9797SOL    HW230291   3.429   6.809   6.284
 9798SOL     OW30292   1.143   3.238   0.224
 9798SOL    HW130293   1.085   3.188   0.159
 9798SOL    HW230294   1.134   3.336   0.206
 9799SOL     OW30295   2.285   6.967   6.087
 9799SOL    HW130296   2.279   6.867   6.098
 9799SOL    HW230297   2.371   6.990   6.041
 9800SOL     OW30298   6.224   3.447   4.962
 9800SOL    HW130299   6.272   3.460   4.875
 9800SOL    HW230300   6.185   3.355   4.966
 9801SOL     OW30301   6.395   5.855   6.915
 9801SOL    HW130302   6.384   5.797   6.997
 9801SOL    HW230303   6.308   5.863   6.868
 9802SOL     OW30304   4.425   4.719   0.665
 9802SOL    HW130305   4.487   4.684   0.595
 9802SOL    HW230306   4.431   4.660   0.747
 9803SOL     OW30307   0.534   3.873   6.637
 9803SOL    HW130308   0.609   3.917   6.686
 9803SOL    HW230309   0.536   3.901   6.541
 9804SOL     OW30310   6.668   5.357   2.131
 9804SOL    HW130311   6.695   5.271   2.088
 9804SOL    HW230312   6.605   5.406   2.071
 9805SOL     OW30313   0.496   6.691   4.015
 9805SOL    HW130314   0.537   6.614   3.966
 9805SOL    HW230315   0.512   6.681   4.113
 9806SOL     OW30316   3.096   2.318   5.848
 9806SOL    HW130317   3.097   2.219   5.860
 9806SOL    HW230318   3.083   2.362   5.937
 9807SOL     OW30319   2.991   3.838   2.050
 9807SOL    HW130320   2.913   3.857   2.109
 9807SOL    HW230321   3.073   3.825   2.106
 9808SOL     OW30322   4.858   6.612   3.786
 9808SOL    HW130323   4.804   6.651   3.711
 9808SOL    HW230324   4.828   6.651   3.873
 9809SOL     OW30325   7.016   3.119   0.769
 9809SOL    HW130326   0.014   3.215   0.752
 9809SOL    HW230327   0.073   3.073   0.807
 9810SOL     OW30328   1.751   1.595   6.402
 9810SOL    HW130329   1.847   1.578   6.424
 9810SOL    HW230330   1.729   1.557   6.313
 9811SOL     OW30331   6.217   4.067   4.046
 9811SOL    HW130332   6.315   4.049   4.036
 9811SOL    HW230333   6.203   4.165   4.064
 9812SOL     OW30334   2.602   6.148   4.734
 9812SOL    HW130335   2.552   6.100   4.663
 9812SOL    HW230336   2.684   6.190   4.695
 9813SOL     OW30337   4.752   2.092   1.277
 9813SOL    HW130338   4.730   2.189   1.288
 9813SOL    HW230339   4.832   2.070   1.333
 9814SOL     OW30340   5.656   0.821   7.022
 9814SOL    HW130341   5.608   0.898   0.040
 9814SOL    HW230342   5.748   0.849   6.995
 9815SOL     OW30343   4.023   2.239   4.739
 9815SOL    HW130344   4.100   2.200   4.687
 9815SOL    HW230345   3.942   2.239   4.681
 9816SOL     OW30346   1.460   0.050   0.566
 9816SOL    HW130347   1.489   0.013   0.654
 9816SOL    HW230348   1.363   0.074   0.571
 9817SOL     OW30349   0.205   6.855   3.681
 9817SOL    HW130350   0.212   6.795   3.761
 9817SOL    HW230351   0.285   6.914   3.677
 9818SOL     OW30352   6.300   2.786   4.586
 9818SOL    HW130353   6.283   2.788   4.487
 9818SOL    HW230354   6.377   2.727   4.606
 9819SOL     OW30355   3.896   1.585   3.498
 9819SOL    HW130356   3.819   1.609   3.557
 9819SOL    HW230357   3.938   1.500   3.530
 9820SOL     OW30358   4.030   4.102   6.215
 9820SOL    HW130359   3.956   4.161   6.184
 9820SOL    HW230360   4.107   4.158   6.246
 9821SOL     OW30361   5.231   5.873   6.585
 9821SOL    HW130362   5.227   5.928   6.502
 9821SOL    HW230363   5.316   5.893   6.634
 9822SOL     OW30364   0.895   0.062   3.166
 9822SOL    HW130365   0.892   0.160   3.148
 9822SOL    HW230366   0.802   0.024   3.159
 9823SOL     OW30367   3.608   0.872   1.894
 9823SOL    HW130368   3.635   0.778   1.874
 9823SOL    HW230369   3.663   0.935   1.840
 9824SOL     OW30370   1.502   4.267   5.220
 9824SOL    HW130371   1.514   4.311   5.132
 9824SOL    HW230372   1.551   4.180   5.221
 9825SOL     OW30373   3.828   4.878   5.402
 9825SOL    HW130374   3.733   4.889   5.372
 9825SOL    HW230375   3.889   4.881   5.322
 9826SOL     OW30376   4.598   6.757   6.181
 9826SOL    HW130377   4.522   6.703   6.146
 9826SOL    HW230378   4.678   6.698   6.194
 9827SOL     OW30379   1.749   4.020   5.244
 9827SOL    HW130380   1.841   4.059   5.237
 9827SOL    HW230381   1.730   3.999   5.340
 9828SOL     OW30382   4.280   2.363   0.172
 9828SOL    HW130383   4.356   2.380   0.109
 9828SOL    HW230384   4.283   2.267   0.203
 9829SOL     OW30385   2.761   6.410   0.078
 9829SOL    HW130386   2.678   6.354   0.081
 9829SOL    HW230387   2.741   6.497   0.032
 9830SOL     OW30388   5.669   1.517   1.006
 9830SOL    HW130389   5.628   1.428   0.991
 9830SOL    HW230390   5.769   1.510   0.998
 9831SOL     OW30391   1.416   6.399   1.616
 9831SOL    HW130392   1.419   6.472   1.684
 9831SOL    HW230393   1.378   6.435   1.531
 9832SOL     OW30394   4.410   5.346   1.609
 9832SOL    HW130395   4.391   5.253   1.639
 9832SOL    HW230396   4.438   5.346   1.513
 9833SOL     OW30397   3.656   3.960   5.192
 9833SOL    HW130398   3.699   3.929   5.277
 9833SOL    HW230399   3.559   3.977   5.208
 9834SOL     OW30400   2.129   3.996   5.534
 9834SOL    HW130401   2.051   4.055   5.557
 9834SOL    HW230402   2.194   4.046   5.477
 9835SOL     OW30403   5.308   1.930   4.360
 9835SOL    HW130404   5.334   1.991   4.435
 9835SOL    HW230405   5.281   1.985   4.281
 9836SOL     OW30406   5.328   3.776   2.985
 9836SOL    HW130407   5.296   3.869   3.004
 9836SOL    HW230408   5.424   3.768   3.011
 9837SOL     OW30409   2.256   6.988   3.782
 9837SOL    HW130410   2.261   6.898   3.739
 9837SOL    HW230411   2.165   0.004   3.767
 9838SOL     OW30412   0.827   6.324   6.196
 9838SOL    HW130413   0.859   6.403   6.145
 9838SOL    HW230414   0.818   6.245   6.134
 9839SOL     OW30415   6.443   1.818   1.728
 9839SOL    HW130416   6.510   1.826   1.654
 9839SOL    HW230417   6.471   1.746   1.791
 9840SOL     OW30418   0.027   0.374   1.061
 9840SOL    HW130419   0.062   0.284   1.085
 9840SOL    HW230420   0.095   0.444   1.084
 9841SOL     OW30421   1.515   4.077   4.699
 9841SOL    HW130422   1.441   4.093   4.764
 9841SOL    HW230423   1.580   4.013   4.738
 9842SOL     OW30424   3.281   3.301   2.884
 9842SOL    HW130425   3.282   3.234   2.810
 9842SOL    HW230426   3.228   3.266   2.961
 9843SOL     OW30427   6.634   1.702   1.128
 9843SOL    HW130428   6.716   1.689   1.183
 9843SOL    HW230429   6.622   1.800   1.108
 9844SOL     OW30430   4.524   6.795   2.697
 9844SOL    HW130431   4.456   6.779   2.768
 9844SOL    HW230432   4.499   6.744   2.614
 9845SOL     OW30433   2.664   1.721   4.598
 9845SOL    HW130434   2.735   1.788   4.578
 9845SOL    HW230435   2.575   1.756   4.569
 9846SOL     OW30436   2.985   3.772   3.430
 9846SOL    HW130437   2.936   3.744   3.348
 9846SOL    HW230438   2.961   3.711   3.506
 9847SOL     OW30439   2.692   2.917   6.313
 9847SOL    HW130440   2.775   2.960   6.348
 9847SOL    HW230441   2.623   2.913   6.386
 9848SOL     OW30442   4.623   2.896   6.477
 9848SOL    HW130443   4.641   2.801   6.450
 9848SOL    HW230444   4.693   2.926   6.541
 9849SOL     OW30445   6.355   0.402   6.743
 9849SOL    HW130446   6.307   0.488   6.724
 9849SOL    HW230447   6.360   0.348   6.659
 9850SOL     OW30448   4.260   6.465   2.849
 9850SOL    HW130449   4.240   6.452   2.946
 9850SOL    HW230450   4.182   6.436   2.795
 9851SOL     OW30451   4.466   2.111   5.296
 9851SOL    HW130452   4.495   2.017   5.281
 9851SOL    HW230453   4.535   2.159   5.350
 9852SOL     OW30454   4.612   2.145   3.652
 9852SOL    HW130455   4.602   2.093   3.567
 9852SOL    HW230456   4.600   2.242   3.633
 9853SOL     OW30457   5.220   4.051   2.067
 9853SOL    HW130458   5.169   4.125   2.110
 9853SOL    HW230459   5.203   3.966   2.117
 9854SOL     OW30460   5.794   5.655   4.751
 9854SOL    HW130461   5.783   5.740   4.802
 9854SOL    HW230462   5.877   5.608   4.781
 9855SOL     OW30463   0.928   4.272   1.079
 9855SOL    HW130464   0.978   4.325   1.148
 9855SOL    HW230465   0.942   4.175   1.095
 9856SOL     OW30466   4.043   3.950   0.867
 9856SOL    HW130467   3.966   3.927   0.927
 9856SOL    HW230468   4.057   3.877   0.800
 9857SOL     OW30469   5.407   1.831   2.836
 9857SOL    HW130470   5.493   1.812   2.788
 9857SOL    HW230471   5.428   1.861   2.929
 9858SOL     OW30472   4.824   0.648   1.951
 9858SOL    HW130473   4.760   0.612   2.019
 9858SOL    HW230474   4.795   0.740   1.923
 9859SOL     OW30475   5.940   0.398   1.144
 9859SOL    HW130476   5.917   0.309   1.183
 9859SOL    HW230477   5.855   0.447   1.121
 9860SOL     OW30478   0.398   0.775   1.499
 9860SOL    HW130479   0.425   0.871   1.494
 9860SOL    HW230480   0.346   0.759   1.583
 9861SOL     OW30481   3.732   6.113   4.799
 9861SOL    HW130482   3.696   6.196   4.757
 9861SOL    HW230483   3.656   6.058   4.834
 9862SOL     OW30484   2.379   3.551   0.695
 9862SOL    HW130485   2.411   3.646   0.690
 9862SOL    HW230486   2.330   3.537   0.781
 9863SOL     OW30487   3.445   0.085   2.544
 9863SOL    HW130488   3.453   0.173   2.498
 9863SOL    HW230489   3.394   0.096   2.629
 9864SOL     OW30490   4.694   6.072   3.700
 9864SOL    HW130491   4.660   6.065   3.606
 9864SOL    HW230492   4.786   6.033   3.706
 9865SOL     OW30493   0.506   0.275   3.691
 9865SOL    HW130494   0.467   0.367   3.701
 9865SOL    HW230495   0.598   0.282   3.654
 9866SOL     OW30496   4.808   4.012   4.509
 9866SOL    HW130497   4.837   3.923   4.474
 9866SOL    HW230498   4.821   4.015   4.609
 9867SOL     OW30499   3.999   1.589   0.337
 9867SOL    HW130500   4.069   1.545   0.280
 9867SOL    HW230501   3.937   1.520   0.374
 9868SOL     OW30502   0.669   4.556   6.993
 9868SOL    HW130503   0.620   4.478   6.954
 9868SOL    HW230504   0.619   4.589   0.049
 9869SOL     OW30505   1.864   4.035   3.861
 9869SOL    HW130506   1.942   4.041   3.798
 9869SOL    HW230507   1.834   3.940   3.868
 9870SOL     OW30508   4.973   5.946   2.564
 9870SOL    HW130509   4.945   5.879   2.632
 9870SOL    HW230510   5.036   5.904   2.498
 9871SOL     OW30511   1.421   0.595   5.930
 9871SOL    HW130512   1.360   0.640   5.996
 9871SOL    HW230513   1.508   0.644   5.927
 9872SOL     OW30514   2.655   4.984   2.963
 9872SOL    HW130515   2.733   4.923   2.948
 9872SOL    HW230516   2.574   4.929   2.985
 9873SOL     OW30517   2.282   3.031   0.467
 9873SOL    HW130518   2.185   3.044   0.489
 9873SOL    HW230519   2.329   2.991   0.545
 9874SOL     OW30520   0.799   2.050   4.084
 9874SOL    HW130521   0.851   2.107   4.020
 9874SOL    HW230522   0.702   2.051   4.057
 9875SOL     OW30523   0.593   0.962   1.920
 9875SOL    HW130524   0.669   0.904   1.890
 9875SOL    HW230525   0.604   1.054   1.882
 9876SOL     OW30526   6.440   0.722   2.155
 9876SOL    HW130527   6.531   0.724   2.198
 9876SOL    HW230528   6.371   0.700   2.224
 9877SOL     OW30529   2.908   6.637   2.641
 9877SOL    HW130530   2.876   6.729   2.618
 9877SOL    HW230531   2.989   6.643   2.699
 9878SOL     OW30532   2.027   5.657   6.251
 9878SOL    HW130533   1.986   5.648   6.160
 9878SOL    HW230534   1.954   5.667   6.319
 9879SOL     OW30535   5.204   5.234   4.651
 9879SOL    HW130536   5.112   5.195   4.645
 9879SOL    HW230537   5.217   5.277   4.740
 9880SOL     OW30538   1.631   2.952   5.388
 9880SOL    HW130539   1.723   2.990   5.376
 9880SOL    HW230540   1.606   2.955   5.485
 9881SOL     OW30541   1.477   2.405   4.882
 9881SOL    HW130542   1.385   2.433   4.905
 9881SOL    HW230543   1.541   2.479   4.902
 9882SOL     OW30544   0.919   2.095   3.823
 9882SOL    HW130545   1.003   2.142   3.793
 9882SOL    HW230546   0.930   1.996   3.811
 9883SOL     OW30547   1.240   7.020   1.412
 9883SOL    HW130548   1.192   6.996   1.496
 9883SOL    HW230549   1.173   0.007   1.338
 9884SOL     OW30550   4.151   1.544   3.705
 9884SOL    HW130551   4.103   1.456   3.707
 9884SOL    HW230552   4.176   1.566   3.611
 9885SOL     OW30553   6.676   4.382   5.154
 9885SOL    HW130554   6.627   4.468   5.170
 9885SOL    HW230555   6.632   4.308   5.205
 9886SOL     OW30556   0.685   4.944   2.778
 9886SOL    HW130557   0.785   4.949   2.779
 9886SOL    HW230558   0.649   5.021   2.725
 9887SOL     OW30559   4.096   1.142   6.977
 9887SOL    HW130560   3.997   1.154   6.969
 9887SOL    HW230561   4.116   1.047   6.998
 9888SOL     OW30562   0.006   3.975   0.874
 9888SOL    HW130563   6.990   3.942   0.789
 9888SOL    HW230564   0.076   4.043   0.855
 9889SOL     OW30565   6.466   4.782   0.858
 9889SOL    HW130566   6.488   4.829   0.944
 9889SOL    HW230567   6.425   4.847   0.794
 9890SOL     OW30568   1.683   2.186   0.455
 9890SOL    HW130569   1.744   2.120   0.498
 9890SOL    HW230570   1.640   2.145   0.375
 9891SOL     OW30571   5.815   2.458   0.420
 9891SOL    HW130572   5.762   2.443   0.336
 9891SOL    HW230573   5.898   2.402   0.417
 9892SOL     OW30574   6.852   5.545   0.094
 9892SOL    HW130575   6.787   5.522   0.167
 9892SOL    HW230576   6.894   5.462   0.060
 9893SOL     OW30577   1.583   0.353   0.852
 9893SOL    HW130578   1.523   0.311   0.784
 9893SOL    HW230579   1.634   0.428   0.810
 9894SOL     OW30580   2.168   2.322   1.180
 9894SOL    HW130581   2.221   2.267   1.116
 9894SOL    HW230582   2.176   2.285   1.272
 9895SOL     OW30583   5.630   3.427   4.969
 9895SOL    HW130584   5.562   3.493   5.001
 9895SOL    HW230585   5.638   3.353   5.037
 9896SOL     OW30586   6.335   6.761   6.665
 9896SOL    HW130587   6.295   6.845   6.628
 9896SOL    HW230588   6.283   6.683   6.631
 9897SOL     OW30589   5.494   5.532   3.378
 9897SOL    HW130590   5.438   5.602   3.422
 9897SOL    HW230591   5.568   5.506   3.439
 9898SOL     OW30592   2.300   6.157   6.296
 9898SOL    HW130593   2.240   6.237   6.310
 9898SOL    HW230594   2.275   6.111   6.212
 9899SOL     OW30595   6.912   5.604   0.692
 9899SOL    HW130596   6.941   5.698   0.709
 9899SOL    HW230597   6.830   5.583   0.747
 9900SOL     OW30598   1.543   3.628   3.550
 9900SOL    HW130599   1.592   3.710   3.520
 9900SOL    HW230600   1.609   3.556   3.574
 9901SOL     OW30601   2.677   2.190   5.874
 9901SOL    HW130602   2.707   2.280   5.905
 9901SOL    HW230603   2.582   2.196   5.841
 9902SOL     OW30604   2.637   5.095   6.972
 9902SOL    HW130605   2.550   5.144   6.967
 9902SOL    HW230606   2.633   5.014   6.914
 9903SOL     OW30607   4.939   1.497   2.330
 9903SOL    HW130608   4.969   1.591   2.315
 9903SOL    HW230609   5.012   1.434   2.302
 9904SOL     OW30610   1.267   2.914   6.695
 9904SOL    HW130611   1.337   2.985   6.695
 9904SOL    HW230612   1.298   2.836   6.640
 9905SOL     OW30613   3.450   0.906   6.930
 9905SOL    HW130614   3.479   0.843   6.857
 9905SOL    HW230615   3.522   0.975   6.945
 9906SOL     OW30616   3.670   2.866   2.295
 9906SOL    HW130617   3.741   2.796   2.296
 9906SOL    HW230618   3.712   2.956   2.283
 9907SOL     OW30619   6.606   1.089   0.744
 9907SOL    HW130620   6.599   1.103   0.843
 9907SOL    HW230621   6.566   1.001   0.721
 9908SOL     OW30622   5.287   1.863   3.158
 9908SOL    HW130623   5.237   1.931   3.103
 9908SOL    HW230624   5.227   1.828   3.229
 9909SOL     OW30625   3.724   0.064   3.771
 9909SOL    HW130626   3.809   0.021   3.740
 9909SOL    HW230627   3.712   0.049   3.869
 9910SOL     OW30628   0.938   3.678   2.513
 9910SOL    HW130629   0.850   3.680   2.465
 9910SOL    HW230630   0.923   3.686   2.611
 9911SOL     OW30631   3.560   6.790   2.014
 9911SOL    HW130632   3.656   6.766   1.999
 9911SOL    HW230633   3.503   6.738   1.951
 9912SOL     OW30634   3.923   1.955   1.376
 9912SOL    HW130635   3.877   2.002   1.451
 9912SOL    HW230636   4.022   1.956   1.391
 9913SOL     OW30637   6.063   3.849   0.709
 9913SOL    HW130638   5.974   3.893   0.711
 9913SOL    HW230639   6.134   3.919   0.696
 9914SOL     OW30640   6.562   3.506   4.557
 9914SOL    HW130641   6.629   3.436   4.583
 9914SOL    HW230642   6.579   3.535   4.463
 9915SOL     OW30643   4.371   0.583   2.895
 9915SOL    HW130644   4.290   0.630   2.931
 9915SOL    HW230645   4.385   0.499   2.948
 9916SOL     OW30646   2.305   2.829   3.183
 9916SOL    HW130647   2.291   2.786   3.272
 9916SOL    HW230648   2.258   2.917   3.181
 9917SOL     OW30649   5.850   3.543   0.094
 9917SOL    HW130650   5.875   3.627   0.046
 9917SOL    HW230651   5.932   3.501   0.132
 9918SOL     OW30652   3.470   1.479   2.731
 9918SOL    HW130653   3.506   1.491   2.638
 9918SOL    HW230654   3.376   1.514   2.735
 9919SOL     OW30655   5.599   5.413   1.743
 9919SOL    HW130656   5.673   5.467   1.701
 9919SOL    HW230657   5.567   5.344   1.678
 9920SOL     OW30658   4.682   1.729   1.820
 9920SOL    HW130659   4.698   1.748   1.723
 9920SOL    HW230660   4.588   1.698   1.833
 9921SOL     OW30661   4.593   5.874   6.186
 9921SOL    HW130662   4.609   5.801   6.252
 9921SOL    HW230663   4.515   5.850   6.128
 9922SOL     OW30664   1.443   4.370   0.369
 9922SOL    HW130665   1.416   4.313   0.291
 9922SOL    HW230666   1.375   4.442   0.383
 9923SOL     OW30667   4.979   4.536   6.353
 9923SOL    HW130668   5.010   4.625   6.318
 9923SOL    HW230669   4.910   4.551   6.424
 9924SOL     OW30670   0.147   2.296   4.851
 9924SOL    HW130671   0.088   2.368   4.889
 9924SOL    HW230672   0.242   2.323   4.861
 9925SOL     OW30673   0.013   4.228   4.403
 9925SOL    HW130674   6.940   4.233   4.378
 9925SOL    HW230675   0.069   4.256   4.324
 9926SOL     OW30676   2.493   3.827   0.688
 9926SOL    HW130677   2.575   3.795   0.640
 9926SOL    HW230678   2.440   3.886   0.627
 9927SOL     OW30679   6.212   6.592   2.100
 9927SOL    HW130680   6.146   6.667   2.108
 9927SOL    HW230681   6.164   6.504   2.105
 9928SOL     OW30682   4.808   5.566   1.669
 9928SOL    HW130683   4.780   5.649   1.719
 9928SOL    HW230684   4.748   5.490   1.695
 9929SOL     OW30685   1.865   5.364   5.757
 9929SOL    HW130686   1.824   5.436   5.701
 9929SOL    HW230687   1.796   5.328   5.820
 9930SOL     OW30688   6.281   0.649   4.746
 9930SOL    HW130689   6.195   0.601   4.760
 9930SOL    HW230690   6.326   0.613   4.664
 9931SOL     OW30691   1.074   4.577   4.937
 9931SOL    HW130692   1.098   4.527   4.854
 9931SOL    HW230693   1.156   4.620   4.975
 9932SOL     OW30694   1.965   5.543   0.001
 9932SOL    HW130695   1.887   5.481   0.009
 9932SOL    HW230696   2.015   5.544   0.088
 9933SOL     OW30697   1.649   4.725   2.932
 9933SOL    HW130698   1.712   4.673   2.875
 9933SOL    HW230699   1.585   4.663   2.976
 9934SOL     OW30700   6.287   1.934   5.411
 9934SOL    HW130701   6.230   1.863   5.454
 9934SOL    HW230702   6.231   1.986   5.346
 9935SOL     OW30703   2.803   0.505   0.207
 9935SOL    HW130704   2.814   0.510   0.306
 9935SOL    HW230705   2.720   0.553   0.180
 9936SOL     OW30706   6.413   4.853   4.949
 9936SOL    HW130707   6.458   4.865   4.861
 9936SOL    HW230708   6.315   4.837   4.935
 9937SOL     OW30709   6.584   2.408   5.980
 9937SOL    HW130710   6.609   2.365   6.066
 9937SOL    HW230711   6.659   2.465   5.947
 9938SOL     OW30712   6.600   5.694   3.431
 9938SOL    HW130713   6.564   5.731   3.517
 9938SOL    HW230714   6.697   5.676   3.440
 9939SOL     OW30715   3.455   2.393   0.646
 9939SOL    HW130716   3.492   2.386   0.553
 9939SOL    HW230717   3.523   2.359   0.711
 9940SOL     OW30718   0.508   0.875   1.237
 9940SOL    HW130719   0.534   0.840   1.146
 9940SOL    HW230720   0.432   0.821   1.273
 9941SOL     OW30721   3.405   4.003   5.265
 9941SOL    HW130722   3.334   3.955   5.316
 9941SOL    HW230723   3.371   4.093   5.236
 9942SOL     OW30724   2.047   5.585   2.496
 9942SOL    HW130725   2.031   5.488   2.513
 9942SOL    HW230726   1.964   5.627   2.459
 9943SOL     OW30727   6.814   5.991   5.473
 9943SOL    HW130728   6.823   5.891   5.476
 9943SOL    HW230729   6.728   6.015   5.427
 9944SOL     OW30730   1.938   4.278   6.727
 9944SOL    HW130731   2.022   4.305   6.773
 9944SOL    HW230732   1.960   4.246   6.635
 9945SOL     OW30733   6.619   5.415   6.949
 9945SOL    HW130734   6.601   5.316   6.956
 9945SOL    HW230735   6.714   5.433   6.973
 9946SOL     OW30736   5.142   1.410   4.690
 9946SOL    HW130737   5.051   1.426   4.653
 9946SOL    HW230738   5.137   1.346   4.766
 9947SOL     OW30739   0.569   3.752   6.216
 9947SOL    HW130740   0.517   3.696   6.152
 9947SOL    HW230741   0.666   3.733   6.205
 9948SOL     OW30742   4.735   4.591   4.288
 9948SOL    HW130743   4.660   4.581   4.354
 9948SOL    HW230744   4.823   4.584   4.336
 9949SOL     OW30745   5.134   5.291   3.503
 9949SOL    HW130746   5.143   5.375   3.556
 9949SOL    HW230747   5.039   5.279   3.474
 9950SOL     OW30748   5.647   6.269   5.573
 9950SOL    HW130749   5.582   6.247   5.500
 9950SOL    HW230750   5.647   6.195   5.641
 9951SOL     OW30751   6.314   1.655   3.900
 9951SOL    HW130752   6.359   1.702   3.824
 9951SOL    HW230753   6.345   1.694   3.987
 9952SOL     OW30754   6.455   3.795   0.584
 9952SOL    HW130755   6.436   3.855   0.506
 9952SOL    HW230756   6.482   3.850   0.663
 9953SOL     OW30757   6.278   2.663   3.956
 9953SOL    HW130758   6.300   2.755   3.989
 9953SOL    HW230759   6.246   2.668   3.862
 9954SOL     OW30760   5.969   6.585   5.702
 9954SOL    HW130761   5.899   6.581   5.631
 9954SOL    HW230762   5.932   6.630   5.783
 9955SOL     OW30763   6.683   3.907   4.583
 9955SOL    HW130764   6.647   3.848   4.511
 9955SOL    HW230765   6.663   3.867   4.673
 9956SOL     OW30766   2.411   6.918   1.720
 9956SOL    HW130767   2.360   6.941   1.803
 9956SOL    HW230768   2.509   6.917   1.741
 9957SOL     OW30769   5.612   5.421   2.723
 9957SOL    HW130770   5.602   5.517   2.697
 9957SOL    HW230771   5.541   5.396   2.789
 9958SOL     OW30772   3.315   5.501   0.296
 9958SOL    HW130773   3.291   5.562   0.221
 9958SOL    HW230774   3.247   5.510   0.369
 9959SOL     OW30775   4.214   4.005   5.887
 9959SOL    HW130776   4.301   3.979   5.845
 9959SOL    HW230777   4.222   4.096   5.928
 9960SOL     OW30778   6.832   0.375   2.347
 9960SOL    HW130779   6.750   0.358   2.292
 9960SOL    HW230780   6.899   0.425   2.291
 9961SOL     OW30781   1.742   6.050   4.234
 9961SOL    HW130782   1.680   6.112   4.281
 9961SOL    HW230783   1.822   6.034   4.292
 9962SOL     OW30784   6.341   6.729   3.514
 9962SOL    HW130785   6.383   6.811   3.552
 9962SOL    HW230786   6.363   6.650   3.572
 9963SOL     OW30787   2.956   2.758   0.301
 9963SOL    HW130788   3.010   2.724   0.378
 9963SOL    HW230789   2.897   2.833   0.332
 9964SOL     OW30790   4.676   5.913   4.194
 9964SOL    HW130791   4.709   5.976   4.264
 9964SOL    HW230792   4.652   5.964   4.112
 9965SOL     OW30793   4.393   6.762   6.401
 9965SOL    HW130794   4.483   6.779   6.361
 9965SOL    HW230795   4.385   6.666   6.426
 9966SOL     OW30796   1.189   5.291   1.467
 9966SOL    HW130797   1.257   5.229   1.430
 9966SOL    HW230798   1.214   5.316   1.561
 9967SOL     OW30799   0.275   5.555   2.136
 9967SOL    HW130800   0.246   5.465   2.168
 9967SOL    HW230801   0.291   5.614   2.215
 9968SOL     OW30802   3.523   3.876   2.094
 9968SOL    HW130803   3.578   3.949   2.134
 9968SOL    HW230804   3.568   3.844   2.010
 9969SOL     OW30805   1.868   3.953   2.627
 9969SOL    HW130806   1.890   3.863   2.665
 9969SOL    HW230807   1.801   3.998   2.685
 9970SOL     OW30808   5.190   4.303   1.593
 9970SOL    HW130809   5.215   4.241   1.519
 9970SOL    HW230810   5.253   4.380   1.597
 9971SOL     OW30811   1.552   5.008   1.060
 9971SOL    HW130812   1.532   5.098   1.021
 9971SOL    HW230813   1.485   4.942   1.029
 9972SOL     OW30814   6.365   4.156   1.710
 9972SOL    HW130815   6.344   4.167   1.808
 9972SOL    HW230816   6.379   4.247   1.670
 9973SOL     OW30817   5.678   2.208   3.499
 9973SOL    HW130818   5.665   2.109   3.489
 9973SOL    HW230819   5.608   2.256   3.447
 9974SOL     OW30820   1.152   1.721   3.099
 9974SOL    HW130821   1.190   1.662   3.170
 9974SOL    HW230822   1.055   1.738   3.118
 9975SOL     OW30823   6.204   3.223   0.785
 9975SOL    HW130824   6.253   3.309   0.775
 9975SOL    HW230825   6.269   3.147   0.784
 9976SOL     OW30826   1.462   6.232   5.406
 9976SOL    HW130827   1.362   6.243   5.405
 9976SOL    HW230828   1.495   6.226   5.312
 9977SOL     OW30829   5.846   5.267   5.599
 9977SOL    HW130830   5.852   5.217   5.513
 9977SOL    HW230831   5.866   5.205   5.675
 9978SOL     OW30832   0.804   2.474   5.005
 9978SOL    HW130833   0.769   2.538   4.937
 9978SOL    HW230834   0.884   2.514   5.051
 9979SOL     OW30835   5.792   4.733   5.190
 9979SOL    HW130836   5.729   4.801   5.153
 9979SOL    HW230837   5.751   4.689   5.270
 9980SOL     OW30838   2.502   0.118   6.951
 9980SOL    HW130839   2.596   0.153   6.958
 9980SOL    HW230840   2.488   0.044   7.017
 9981SOL     OW30841   2.826   1.584   3.132
 9981SOL    HW130842   2.909   1.553   3.178
 9981SOL    HW230843   2.823   1.684   3.132
 9982SOL     OW30844   6.869   5.711   3.389
 9982SOL    HW130845   6.918   5.796   3.368
 9982SOL    HW230846   6.825   5.677   3.306
 9983SOL     OW30847   6.840   1.475   2.792
 9983SOL    HW130848   6.875   1.556   2.745
 9983SOL    HW230849   6.757   1.443   2.746
 9984SOL     OW30850   2.250   2.293   6.710
 9984SOL    HW130851   2.347   2.319   6.708
 9984SOL    HW230852   2.229   2.250   6.798
 9985SOL     OW30853   2.360   0.559   1.853
 9985SOL    HW130854   2.410   0.543   1.938
 9985SOL    HW230855   2.403   0.506   1.779
 9986SOL     OW30856   5.953   4.331   5.629
 9986SOL    HW130857   5.869   4.319   5.578
 9986SOL    HW230858   6.031   4.311   5.571
 9987SOL     OW30859   5.742   3.228   5.941
 9987SOL    HW130860   5.776   3.292   6.011
 9987SOL    HW230861   5.795   3.144   5.944
 9988SOL     OW30862   6.654   0.173   4.725
 9988SOL    HW130863   6.612   0.153   4.637
 9988SOL    HW230864   6.615   0.115   4.795
 9989SOL     OW30865   6.887   3.384   4.226
 9989SOL    HW130866   6.789   3.401   4.218
 9989SOL    HW230867   6.919   3.419   4.314
 9990SOL     OW30868   1.842   5.324   3.552
 9990SOL    HW130869   1.771   5.373   3.603
 9990SOL    HW230870   1.932   5.355   3.582
 9991SOL     OW30871   2.920   2.184   4.777
 9991SOL    HW130872   2.950   2.164   4.870
 9991SOL    HW230873   2.981   2.252   4.736
 9992SOL     OW30874   5.943   4.812   6.462
 9992SOL    HW130875   5.980   4.720   6.469
 9992SOL    HW230876   5.879   4.828   6.538
 9993SOL     OW30877   2.168   1.509   1.432
 9993SOL    HW130878   2.094   1.539   1.492
 9993SOL    HW230879   2.161   1.557   1.344
 9994SOL     OW30880   6.085   4.763   3.078
 9994SOL    HW130881   6.046   4.691   3.136
 9994SOL    HW230882   6.129   4.722   2.998
 9995SOL     OW30883   4.961   1.777   3.786
 9995SOL    HW130884   5.058   1.788   3.807
 9995SOL    HW230885   4.940   1.680   3.773
 9996SOL     OW30886   2.644   4.369   0.208
 9996SOL    HW130887   2.606   4.421   0.285
 9996SOL    HW230888   2.689   4.432   0.145
 9997SOL     OW30889   2.956   1.726   5.722
 9997SOL    HW130890   2.869   1.676   5.726
 9997SOL    HW230891   2.937   1.824   5.728
 9998SOL     OW30892   6.061   5.501   5.139
 9998SOL    HW130893   5.962   5.493   5.147
 9998SOL    HW230894   6.102   5.411   5.127
 9999SOL     OW30895   6.064   2.405   5.715
 9999SOL    HW130896   6.119   2.471   5.766
 9999SOL    HW230897   5.967   2.424   5.729
10000SOL     OW30898   6.760   2.607   0.384
10000SOL    HW130899   6.848   2.649   0.407
10000SOL    HW230900   6.715   2.576   0.468
10001SOL     OW30901   4.877   1.155   1.829
10001SOL    HW130902   4.864   1.244   1.785
10001SOL    HW230903   4.891   1.085   1.758
10002SOL     OW30904   1.096   6.057   2.192
10002SOL    HW130905   1.106   5.966   2.232
10002SOL    HW230906   1.064   6.121   2.262
10003SOL     OW30907   3.451   1.925   3.365
10003SOL    HW130908   3.449   1.872   3.280
10003SOL    HW230909   3.507   2.007   3.352
10004SOL     OW30910   0.004   2.347   3.458
10004SOL    HW130911   0.046   2.266   3.416
10004SOL    HW230912   0.001   2.335   3.557
10005SOL     OW30913   5.372   0.431   2.918
10005SOL    HW130914   5.284   0.474   2.900
10005SOL    HW230915   5.370   0.336   2.888
10006SOL     OW30916   3.969   0.104   4.180
10006SOL    HW130917   3.953   0.087   4.277
10006SOL    HW230918   4.011   0.194   4.168
10007SOL     OW30919   0.673   3.604   5.456
10007SOL    HW130920   0.602   3.607   5.525
10007SOL    HW230921   0.636   3.630   5.367
10008SOL     OW30922   3.971   0.219   4.702
10008SOL    HW130923   4.000   0.237   4.608
10008SOL    HW230924   3.872   0.206   4.704
10009SOL     OW30925   2.051   4.102   2.223
10009SOL    HW130926   2.082   4.081   2.130
10009SOL    HW230927   1.965   4.154   2.219
10010SOL     OW30928   2.183   0.861   0.262
10010SOL    HW130929   2.111   0.880   0.196
10010SOL    HW230930   2.217   0.947   0.300
10011SOL     OW30931   6.877   0.348   4.669
10011SOL    HW130932   6.916   0.282   4.605
10011SOL    HW230933   6.806   0.304   4.723
10012SOL     OW30934   5.709   1.414   3.434
10012SOL    HW130935   5.635   1.455   3.487
10012SOL    HW230936   5.756   1.345   3.490
10013SOL     OW30937   0.063   0.845   2.719
10013SOL    HW130938   0.161   0.830   2.705
10013SOL    HW230939   0.012   0.776   2.668
10014SOL     OW30940   1.096   3.870   6.408
10014SOL    HW130941   1.124   3.922   6.488
10014SOL    HW230942   1.075   3.933   6.333
10015SOL     OW30943   2.144   5.005   0.393
10015SOL    HW130944   2.215   5.054   0.343
10015SOL    HW230945   2.103   5.066   0.461
10016SOL     OW30946   2.027   1.316   6.990
10016SOL    HW130947   2.002   1.363   0.051
10016SOL    HW230948   1.947   1.269   6.953
10017SOL     OW30949   2.498   2.175   4.521
10017SOL    HW130950   2.510   2.107   4.448
10017SOL    HW230951   2.518   2.133   4.609
10018SOL     OW30952   5.490   0.549   6.114
10018SOL    HW130953   5.491   0.568   6.212
10018SOL    HW230954   5.429   0.471   6.096
10019SOL     OW30955   1.218   0.634   2.789
10019SOL    HW130956   1.215   0.551   2.733
10019SOL    HW230957   1.302   0.685   2.767
10020SOL     OW30958   1.533   3.094   1.374
10020SOL    HW130959   1.496   3.114   1.284
10020SOL    HW230960   1.532   2.995   1.389
10021SOL     OW30961   6.890   3.516   0.799
10021SOL    HW130962   6.841   3.527   0.886
10021SOL    HW230963   6.835   3.463   0.736
10022SOL     OW30964   1.879   1.735   6.761
10022SOL    HW130965   1.935   1.654   6.777
10022SOL    HW230966   1.782   1.710   6.762
10023SOL     OW30967   6.289   3.576   0.561
10023SOL    HW130968   6.302   3.513   0.639
10023SOL    HW230969   6.340   3.660   0.578
10024SOL     OW30970   1.581   5.156   3.805
10024SOL    HW130971   1.650   5.084   3.795
10024SOL    HW230972   1.557   5.191   3.714
10025SOL     OW30973   1.848   0.713   1.553
10025SOL    HW130974   1.855   0.615   1.572
10025SOL    HW230975   1.939   0.755   1.560
10026SOL     OW30976   5.711   0.661   3.150
10026SOL    HW130977   5.799   0.707   3.134
10026SOL    HW230978   5.703   0.584   3.087
10027SOL     OW30979   5.831   3.413   4.767
10027SOL    HW130980   5.869   3.505   4.762
10027SOL    HW230981   5.789   3.399   4.857
10028SOL     OW30982   1.893   1.027   0.697
10028SOL    HW130983   1.796   1.050   0.690
10028SOL    HW230984   1.946   1.084   0.634
10029SOL     OW30985   5.927   2.164   3.375
10029SOL    HW130986   5.873   2.234   3.421
10029SOL    HW230987   6.000   2.133   3.436
10030SOL     OW30988   1.431   0.329   4.010
10030SOL    HW130989   1.390   0.356   3.923
10030SOL    HW230990   1.423   0.231   4.022
10031SOL     OW30991   6.042   5.023   3.144
10031SOL    HW130992   5.973   5.049   3.077
10031SOL    HW230993   6.075   4.930   3.124
10032SOL     OW30994   2.569   1.601   5.212
10032SOL    HW130995   2.477   1.629   5.184
10032SOL    HW230996   2.632   1.677   5.200
10033SOL     OW30997   5.691   2.932   4.533
10033SOL    HW130998   5.701   3.024   4.570
10033SOL    HW230999   5.605   2.925   4.483
10034SOL     OW31000   4.317   0.151   5.691
10034SOL    HW131001   4.229   0.152   5.738
10034SOL    HW231002   4.366   0.067   5.714
10035SOL     OW31003   6.843   4.810   1.311
10035SOL    HW131004   6.813   4.739   1.248
10035SOL    HW231005   6.844   4.898   1.265
10036SOL     OW31006   6.883   1.854   0.202
10036SOL    HW131007   6.922   1.841   0.111
10036SOL    HW231008   6.896   1.948   0.232
10037SOL     OW31009   0.131   0.444   6.442
10037SOL    HW131010   0.146   0.421   6.538
10037SOL    HW231011   0.066   0.520   6.436
10038SOL     OW31012   6.315   0.014   1.192
10038SOL    HW131013   6.224   0.052   1.178
10038SOL    HW231014   6.308   6.939   1.205
10039SOL     OW31015   3.163   0.651   4.264
10039SOL    HW131016   3.172   0.572   4.203
10039SOL    HW231017   3.232   0.646   4.336
10040SOL     OW31018   6.731   3.216   0.847
10040SOL    HW131019   6.765   3.239   0.938
10040SOL    HW231020   6.796   3.156   0.802
10041SOL     OW31021   2.693   6.652   0.302
10041SOL    HW131022   2.685   6.668   0.203
10041SOL    HW231023   2.611   6.686   0.348
10042SOL     OW31024   6.913   1.951   2.834
10042SOL    HW131025   6.829   1.917   2.877
10042SOL    HW231026   6.992   1.915   2.884
10043SOL     OW31027   0.096   1.486   5.697
10043SOL    HW131028   0.012   1.433   5.688
10043SOL    HW231029   0.169   1.428   5.735
10044SOL     OW31030   3.047   2.127   5.531
10044SOL    HW131031   2.990   2.206   5.555
10044SOL    HW231032   3.133   2.159   5.492
10045SOL     OW31033   3.989   1.186   0.243
10045SOL    HW131034   3.915   1.138   0.195
10045SOL    HW231035   4.076   1.139   0.226
10046SOL     OW31036   1.750   5.395   1.249
10046SOL    HW131037   1.834   5.344   1.269
10046SOL    HW231038   1.696   5.406   1.333
10047SOL     OW31039   0.390   3.169   0.106
10047SOL    HW131040   0.303   3.123   0.094
10047SOL    HW231041   0.461   3.102   0.128
10048SOL     OW31042   6.166   6.606   2.496
10048SOL    HW131043   6.235   6.560   2.440
10048SOL    HW231044   6.145   6.550   2.577
10049SOL     OW31045   0.163   1.344   5.443
10049SOL    HW131046   0.150   1.339   5.542
10049SOL    HW231047   0.184   1.439   5.417
10050SOL     OW31048   6.074   3.278   5.975
10050SOL    HW131049   6.008   3.204   5.965
10050SOL    HW231050   6.039   3.360   5.930
10051SOL     OW31051   1.073   3.963   4.444
10051SOL    HW131052   0.999   3.906   4.480
10051SOL    HW231053   1.040   4.057   4.431
10052SOL     OW31054   1.384   0.056   3.099
10052SOL    HW131055   1.337   0.071   3.013
10052SOL    HW231056   1.372   0.136   3.158
10053SOL     OW31057   5.037   5.554   4.708
10053SOL    HW131058   5.090   5.505   4.777
10053SOL    HW231059   4.984   5.627   4.752
10054SOL     OW31060   6.320   4.234   4.606
10054SOL    HW131061   6.379   4.314   4.601
10054SOL    HW231062   6.231   4.256   4.565
10055SOL     OW31063   0.405   1.551   6.413
10055SOL    HW131064   0.384   1.472   6.356
10055SOL    HW231065   0.328   1.570   6.474
10056SOL     OW31066   6.119   2.942   4.011
10056SOL    HW131067   6.035   2.980   4.050
10056SOL    HW231068   6.099   2.853   3.970
10057SOL     OW31069   5.663   4.831   6.066
10057SOL    HW131070   5.757   4.843   6.097
10057SOL    HW231071   5.658   4.750   6.006
10058SOL     OW31072   6.483   4.159   5.692
10058SOL    HW131073   6.505   4.074   5.740
10058SOL    HW231074   6.518   4.156   5.599
10059SOL     OW31075   0.336   0.663   6.779
10059SOL    HW131076   0.268   0.736   6.791
10059SOL    HW231077   0.297   0.590   6.724
10060SOL     OW31078   2.291   2.236   2.490
10060SOL    HW131079   2.211   2.295   2.499
10060SOL    HW231080   2.374   2.289   2.506
10061SOL     OW31081   3.882   0.256   2.709
10061SOL    HW131082   3.862   0.354   2.702
10061SOL    HW231083   3.906   0.221   2.618
10062SOL     OW31084   6.216   0.735   4.357
10062SOL    HW131085   6.201   0.766   4.451
10062SOL    HW231086   6.283   0.662   4.357
10063SOL     OW31087   1.606   3.418   5.002
10063SOL    HW131088   1.581   3.362   5.081
10063SOL    HW231089   1.562   3.382   4.920
10064SOL     OW31090   2.957   6.563   0.421
10064SOL    HW131091   2.985   6.467   0.411
10064SOL    HW231092   2.864   6.574   0.386
10065SOL     OW31093   1.036   1.561   2.014
10065SOL    HW131094   1.057   1.500   2.090
10065SOL    HW231095   1.111   1.627   2.003
10066SOL     OW31096   6.089   3.499   3.567
10066SOL    HW131097   6.030   3.443   3.626
10066SOL    HW231098   6.158   3.544   3.623
10067SOL     OW31099   6.648   2.548   4.905
10067SOL    HW131100   6.635   2.488   4.984
10067SOL    HW231101   6.707   2.503   4.839
10068SOL     OW31102   1.850   3.151   3.060
10068SOL    HW131103   1.797   3.235   3.051
10068SOL    HW231104   1.874   3.117   2.969
10069SOL     OW31105   2.718   5.713   1.262
10069SOL    HW131106   2.788   5.766   1.214
10069SOL    HW231107   2.743   5.704   1.359
10070SOL     OW31108   4.073   5.880   5.512
10070SOL    HW131109   4.112   5.878   5.604
10070SOL    HW231110   4.116   5.810   5.456
10071SOL     OW31111   5.938   0.497   3.843
10071SOL    HW131112   5.927   0.537   3.752
10071SOL    HW231113   6.023   0.445   3.847
10072SOL     OW31114   6.583   2.051   1.586
10072SOL    HW131115   6.542   2.077   1.674
10072SOL    HW231116   6.546   2.110   1.514
10073SOL     OW31117   6.736   4.705   4.542
10073SOL    HW131118   6.749   4.640   4.616
10073SOL    HW231119   6.821   4.713   4.489
10074SOL     OW31120   1.255   4.588   0.080
10074SOL    HW131121   1.354   4.574   0.079
10074SOL    HW231122   1.209   4.500   0.073
10075SOL     OW31123   1.643   3.544   1.994
10075SOL    HW131124   1.715   3.477   2.009
10075SOL    HW231125   1.604   3.531   1.903
10076SOL     OW31126   4.963   5.606   4.054
10076SOL    HW131127   5.049   5.565   4.083
10076SOL    HW231128   4.920   5.651   4.132
10077SOL     OW31129   5.465   3.256   5.982
10077SOL    HW131130   5.484   3.326   6.051
10077SOL    HW231131   5.548   3.236   5.931
10078SOL     OW31132   6.472   6.569   5.013
10078SOL    HW131133   6.434   6.477   5.002
10078SOL    HW231134   6.413   6.635   4.965
10079SOL     OW31135   4.844   2.293   3.444
10079SOL    HW131136   4.849   2.376   3.500
10079SOL    HW231137   4.826   2.318   3.349
10080SOL     OW31138   5.140   0.727   5.890
10080SOL    HW131139   5.106   0.726   5.985
10080SOL    HW231140   5.109   0.810   5.845
10081SOL     OW31141   2.095   3.345   1.228
10081SOL    HW131142   2.187   3.309   1.219
10081SOL    HW231143   2.033   3.296   1.166
10082SOL     OW31144   1.357   4.132   1.137
10082SOL    HW131145   1.420   4.117   1.061
10082SOL    HW231146   1.279   4.069   1.129
10083SOL     OW31147   3.344   4.907   3.687
10083SOL    HW131148   3.333   4.809   3.671
10083SOL    HW231149   3.418   4.942   3.629
10084SOL     OW31150   1.134   0.464   4.596
10084SOL    HW131151   1.198   0.511   4.657
10084SOL    HW231152   1.173   0.460   4.504
10085SOL     OW31153   5.087   6.654   0.063
10085SOL    HW131154   5.007   6.694   0.108
10085SOL    HW231155   5.167   6.666   0.121
10086SOL     OW31156   0.047   6.583   3.032
10086SOL    HW131157   0.073   6.563   3.126
10086SOL    HW231158   0.118   6.552   2.970
10087SOL     OW31159   1.505   6.901   5.534
10087SOL    HW131160   1.444   6.980   5.530
10087SOL    HW231161   1.600   6.931   5.527
10088SOL     OW31162   0.164   2.497   0.578
10088SOL    HW131163   0.240   2.477   0.639
10088SOL    HW231164   0.083   2.446   0.609
10089SOL     OW31165   3.684   1.988   1.851
10089SOL    HW131166   3.757   1.925   1.876
10089SOL    HW231167   3.699   2.076   1.897
10090SOL     OW31168   2.618   5.825   3.073
10090SOL    HW131169   2.686   5.768   3.027
10090SOL    HW231170   2.532   5.775   3.080
10091SOL     OW31171   7.022   3.999   5.469
10091SOL    HW131172   6.988   3.905   5.479
10091SOL    HW231173   0.000   4.043   5.559
10092SOL     OW31174   0.497   1.822   3.794
10092SOL    HW131175   0.588   1.787   3.813
10092SOL    HW231176   0.429   1.752   3.816
10093SOL     OW31177   5.295   4.728   5.615
10093SOL    HW131178   5.201   4.755   5.595
10093SOL    HW231179   5.307   4.719   5.714
10094SOL     OW31180   3.384   1.390   0.644
10094SOL    HW131181   3.296   1.345   0.656
10094SOL    HW231182   3.410   1.390   0.547
10095SOL     OW31183   5.108   2.963   5.318
10095SOL    HW131184   5.144   2.979   5.226
10095SOL    HW231185   5.127   2.870   5.347
10096SOL     OW31186   5.514   2.166   2.894
10096SOL    HW131187   5.510   2.182   2.992
10096SOL    HW231188   5.423   2.179   2.854
10097SOL     OW31189   0.629   1.618   6.582
10097SOL    HW131190   0.679   1.581   6.504
10097SOL    HW231191   0.536   1.583   6.581
10098SOL     OW31192   3.050   5.329   3.503
10098SOL    HW131193   2.953   5.316   3.524
10098SOL    HW231194   3.091   5.243   3.475
10099SOL     OW31195   0.001   4.447   1.153
10099SOL    HW131196   6.956   4.520   1.146
10099SOL    HW231197   6.980   4.358   1.139
10100SOL     OW31198   4.666   5.136   4.156
10100SOL    HW131199   4.685   5.105   4.249
10100SOL    HW231200   4.724   5.087   4.092
10101SOL     OW31201   0.762   2.405   1.848
10101SOL    HW131202   0.682   2.455   1.816
10101SOL    HW231203   0.737   2.350   1.928
10102SOL     OW31204   6.516   5.870   2.931
10102SOL    HW131205   6.524   5.886   3.029
10102SOL    HW231206   6.601   5.829   2.898
10103SOL     OW31207   6.629   6.422   6.301
10103SOL    HW131208   6.647   6.520   6.297
10103SOL    HW231209   6.660   6.379   6.216
10104SOL     OW31210   2.605   0.160   3.884
10104SOL    HW131211   2.608   0.092   3.811
10104SOL    HW231212   2.580   0.116   3.970
10105SOL     OW31213   3.158   0.908   6.039
10105SOL    HW131214   3.067   0.949   6.043
10105SOL    HW231215   3.149   0.808   6.033
10106SOL     OW31216   5.185   5.520   1.397
10106SOL    HW131217   5.117   5.561   1.457
10106SOL    HW231218   5.148   5.513   1.304
10107SOL     OW31219   4.817   4.593   6.573
10107SOL    HW131220   4.721   4.573   6.591
10107SOL    HW231221   4.831   4.691   6.569
10108SOL     OW31222   1.955   2.298   0.312
10108SOL    HW131223   1.859   2.299   0.284
10108SOL    HW231224   2.014   2.312   0.232
10109SOL     OW31225   1.536   2.524   1.218
10109SOL    HW131226   1.440   2.496   1.211
10109SOL    HW231227   1.546   2.586   1.296
10110SOL     OW31228   5.201   6.152   2.622
10110SOL    HW131229   5.105   6.126   2.618
10110SOL    HW231230   5.255   6.088   2.568
10111SOL     OW31231   1.121   2.596   2.338
10111SOL    HW131232   1.219   2.613   2.347
10111SOL    HW231233   1.071   2.656   2.401
10112SOL     OW31234   0.029   1.941   3.206
10112SOL    HW131235   0.079   1.896   3.132
10112SOL    HW231236   0.086   2.014   3.244
10113SOL     OW31237   6.962   0.610   5.657
10113SOL    HW131238   6.987   0.573   5.746
10113SOL    HW231239   6.866   0.589   5.638
10114SOL     OW31240   5.368   1.475   1.398
10114SOL    HW131241   5.318   1.449   1.316
10114SOL    HW231242   5.390   1.573   1.394
10115SOL     OW31243   3.856   2.751   6.245
10115SOL    HW131244   3.783   2.685   6.229
10115SOL    HW231245   3.887   2.745   6.340
10116SOL     OW31246   6.803   0.780   4.594
10116SOL    HW131247   6.717   0.830   4.605
10116SOL    HW231248   6.860   0.792   4.676
10117SOL     OW31249   6.199   4.659   3.614
10117SOL    HW131250   6.296   4.679   3.621
10117SOL    HW231251   6.167   4.677   3.521
10118SOL     OW31252   4.467   6.317   3.968
10118SOL    HW131253   4.418   6.260   4.034
10118SOL    HW231254   4.404   6.348   3.897
10119SOL     OW31255   0.282   5.319   5.325
10119SOL    HW131256   0.209   5.291   5.262
10119SOL    HW231257   0.368   5.278   5.295
10120SOL     OW31258   1.961   3.427   2.823
10120SOL    HW131259   1.979   3.353   2.758
10120SOL    HW231260   2.028   3.425   2.896
10121SOL     OW31261   5.579   4.409   1.085
10121SOL    HW131262   5.502   4.454   1.040
10121SOL    HW231263   5.555   4.390   1.181
10122SOL     OW31264   1.248   0.116   4.300
10122SOL    HW131265   1.162   0.119   4.250
10122SOL    HW231266   1.234   0.071   4.388
10123SOL     OW31267   6.274   5.463   6.724
10123SOL    HW131268   6.308   5.370   6.706
10123SOL    HW231269   6.352   5.526   6.731
10124SOL     OW31270   1.391   5.270   2.791
10124SOL    HW131271   1.388   5.352   2.848
10124SOL    HW231272   1.486   5.247   2.770
10125SOL     OW31273   2.327   1.009   4.795
10125SOL    HW131274   2.247   1.052   4.754
10125SOL    HW231275   2.410   1.059   4.769
10126SOL     OW31276   6.560   6.378   6.545
10126SOL    HW131277   6.622   6.435   6.599
10126SOL    HW231278   6.582   6.386   6.448
10127SOL     OW31279   2.339   6.699   6.071
10127SOL    HW131280   2.373   6.615   6.113
10127SOL    HW231281   2.373   6.706   5.977
10128SOL     OW31282   2.498   1.937   6.898
10128SOL    HW131283   2.535   2.021   6.936
10128SOL    HW231284   2.542   1.858   6.941
10129SOL     OW31285   6.230   2.025   5.003
10129SOL    HW131286   6.279   2.044   4.918
10129SOL    HW231287   6.240   2.102   5.066
10130SOL     OW31288   1.300   0.940   2.766
10130SOL    HW131289   1.305   0.946   2.666
10130SOL    HW231290   1.226   0.998   2.799
10131SOL     OW31291   1.468   6.175   3.689
10131SOL    HW131292   1.408   6.150   3.613
10131SOL    HW231293   1.416   6.228   3.756
10132SOL     OW31294   6.565   0.551   1.378
10132SOL    HW131295   6.596   0.544   1.283
10132SOL    HW231296   6.637   0.518   1.440
10133SOL     OW31297   5.959   6.244   0.155
10133SOL    HW131298   6.002   6.231   0.244
10133SOL    HW231299   6.011   6.195   0.086
10134SOL     OW31300   6.680   6.538   2.263
10134SOL    HW131301   6.657   6.536   2.361
10134SOL    HW231302   6.596   6.526   2.210
10135SOL     OW31303   6.543   6.993   2.293
10135SOL    HW131304   6.482   0.047   2.311
10135SOL    HW231305   6.490   6.915   2.261
10136SOL     OW31306   4.758   1.949   2.696
10136SOL    HW131307   4.809   1.863   2.700
10136SOL    HW231308   4.821   2.026   2.701
10137SOL     OW31309   6.275   5.917   5.780
10137SOL    HW131310   6.335   5.850   5.824
10137SOL    HW231311   6.331   5.987   5.737
10138SOL     OW31312   0.637   2.430   0.676
10138SOL    HW131313   0.723   2.386   0.700
10138SOL    HW231314   0.651   2.529   0.670
10139SOL     OW31315   3.396   3.093   6.657
10139SOL    HW131316   3.433   3.063   6.745
10139SOL    HW231317   3.385   3.014   6.596
10140SOL     OW31318   0.712   6.247   5.597
10140SOL    HW131319   0.797   6.233   5.546
10140SOL    HW231320   0.661   6.161   5.602
10141SOL     OW31321   2.197   2.960   4.471
10141SOL    HW131322   2.250   2.967   4.387
10141SOL    HW231323   2.123   2.894   4.458
10142SOL     OW31324   3.751   6.648   3.772
10142SOL    HW131325   3.760   6.636   3.673
10142SOL    HW231326   3.732   6.560   3.815
10143SOL     OW31327   5.050   2.996   6.764
10143SOL    HW131328   5.081   2.964   6.675
10143SOL    HW231329   4.951   2.984   6.772
10144SOL     OW31330   3.962   6.989   6.535
10144SOL    HW131331   3.941   6.904   6.487
10144SOL    HW231332   3.877   0.013   6.557
10145SOL     OW31333   5.682   6.433   6.134
10145SOL    HW131334   5.649   6.388   6.051
10145SOL    HW231335   5.649   6.528   6.135
10146SOL     OW31336   0.446   3.016   4.418
10146SOL    HW131337   0.378   2.965   4.365
10146SOL    HW231338   0.448   3.111   4.386
10147SOL     OW31339   4.994   5.272   5.823
10147SOL    HW131340   4.931   5.331   5.872
10147SOL    HW231341   5.037   5.323   5.748
10148SOL     OW31342   0.674   4.167   1.107
10148SOL    HW131343   0.747   4.234   1.092
10148SOL    HW231344   0.585   4.212   1.093
10149SOL     OW31345   3.600   4.091   0.526
10149SOL    HW131346   3.668   4.161   0.502
10149SOL    HW231347   3.509   4.124   0.504
10150SOL     OW31348   4.212   4.423   0.767
10150SOL    HW131349   4.276   4.434   0.843
10150SOL    HW231350   4.197   4.325   0.751
10151SOL     OW31351   6.276   0.032   6.047
10151SOL    HW131352   6.256   0.022   5.950
10151SOL    HW231353   6.203   0.085   6.090
10152SOL     OW31354   4.064   6.844   2.070
10152SOL    HW131355   4.053   6.773   2.140
10152SOL    HW231356   4.005   6.922   2.092
10153SOL     OW31357   4.457   4.516   2.434
10153SOL    HW131358   4.386   4.585   2.420
10153SOL    HW231359   4.495   4.488   2.346
10154SOL     OW31360   4.807   5.645   5.277
10154SOL    HW131361   4.757   5.585   5.215
10154SOL    HW231362   4.743   5.705   5.325
10155SOL     OW31363   4.306   1.644   4.527
10155SOL    HW131364   4.385   1.608   4.477
10155SOL    HW231365   4.330   1.656   4.623
10156SOL     OW31366   4.970   1.791   0.421
10156SOL    HW131367   4.921   1.855   0.480
10156SOL    HW231368   5.057   1.767   0.464
10157SOL     OW31369   0.469   3.564   1.481
10157SOL    HW131370   0.493   3.520   1.395
10157SOL    HW231371   0.498   3.660   1.478
10158SOL     OW31372   5.839   4.755   0.099
10158SOL    HW131373   5.837   4.764   7.023
10158SOL    HW231374   5.907   4.818   0.136
10159SOL     OW31375   3.332   2.999   2.447
10159SOL    HW131376   3.368   2.942   2.373
10159SOL    HW231377   3.347   2.954   2.535
10160SOL     OW31378   0.991   4.960   2.704
10160SOL    HW131379   0.964   4.983   2.610
10160SOL    HW231380   0.984   4.861   2.717
10161SOL     OW31381   5.499   3.440   4.698
10161SOL    HW131382   5.542   3.436   4.789
10161SOL    HW231383   5.487   3.535   4.671
10162SOL     OW31384   1.315   3.148   2.573
10162SOL    HW131385   1.327   3.168   2.671
10162SOL    HW231386   1.377   3.074   2.548
10163SOL     OW31387   2.425   6.141   5.352
10163SOL    HW131388   2.350   6.112   5.293
10163SOL    HW231389   2.390   6.195   5.428
10164SOL     OW31390   1.069   1.349   3.464
10164SOL    HW131391   1.129   1.324   3.540
10164SOL    HW231392   0.995   1.283   3.457
10165SOL     OW31393   0.263   3.562   4.403
10165SOL    HW131394   0.285   3.543   4.308
10165SOL    HW231395   0.303   3.490   4.461
10166SOL     OW31396   2.279   0.745   1.364
10166SOL    HW131397   2.195   0.776   1.409
10166SOL    HW231398   2.332   0.689   1.426
10167SOL     OW31399   2.112   1.131   6.721
10167SOL    HW131400   2.044   1.198   6.750
10167SOL    HW231401   2.201   1.157   6.757
10168SOL     OW31402   6.660   0.274   6.450
10168SOL    HW131403   6.597   0.352   6.455
10168SOL    HW231404   6.680   0.253   6.354
10169SOL     OW31405   4.900   3.823   3.730
10169SOL    HW131406   4.858   3.830   3.640
10169SOL    HW231407   4.955   3.740   3.734
10170SOL     OW31408   5.779   5.661   0.400
10170SOL    HW131409   5.789   5.615   0.311
10170SOL    HW231410   5.683   5.663   0.426
10171SOL     OW31411   2.434   3.396   6.071
10171SOL    HW131412   2.512   3.445   6.034
10171SOL    HW231413   2.354   3.455   6.071
10172SOL     OW31414   6.000   0.648   3.031
10172SOL    HW131415   5.965   0.611   2.945
10172SOL    HW231416   6.040   0.573   3.085
10173SOL     OW31417   3.626   4.108   4.759
10173SOL    HW131418   3.589   4.168   4.831
10173SOL    HW231419   3.555   4.093   4.690
10174SOL     OW31420   4.430   5.383   2.532
10174SOL    HW131421   4.483   5.465   2.555
10174SOL    HW231422   4.473   5.303   2.575
10175SOL     OW31423   0.073   0.682   3.701
10175SOL    HW131424   0.072   0.752   3.772
10175SOL    HW231425   0.105   0.596   3.740
10176SOL     OW31426   6.675   1.373   5.441
10176SOL    HW131427   6.689   1.274   5.437
10176SOL    HW231428   6.710   1.415   5.358
10177SOL     OW31429   2.839   0.853   4.034
10177SOL    HW131430   2.860   0.755   4.033
10177SOL    HW231431   2.747   0.868   3.997
10178SOL     OW31432   0.727   1.795   0.704
10178SOL    HW131433   0.677   1.708   0.702
10178SOL    HW231434   0.770   1.807   0.793
10179SOL     OW31435   0.446   4.098   0.541
10179SOL    HW131436   0.502   4.055   0.471
10179SOL    HW231437   0.495   4.097   0.628
10180SOL     OW31438   4.501   6.636   5.683
10180SOL    HW131439   4.437   6.638   5.760
10180SOL    HW231440   4.587   6.679   5.710
10181SOL     OW31441   6.043   3.460   2.467
10181SOL    HW131442   6.066   3.528   2.536
10181SOL    HW231443   6.127   3.425   2.426
10182SOL     OW31444   5.031   1.561   1.021
10182SOL    HW131445   5.099   1.600   1.083
10182SOL    HW231446   5.059   1.469   0.994
10183SOL     OW31447   6.433   1.275   6.515
10183SOL    HW131448   6.426   1.237   6.423
10183SOL    HW231449   6.346   1.264   6.563
10184SOL     OW31450   5.679   1.671   5.566
10184SOL    HW131451   5.736   1.590   5.553
10184SOL    HW231452   5.609   1.674   5.494
10185SOL     OW31453   4.138   5.498   2.552
10185SOL    HW131454   4.231   5.486   2.519
10185SOL    HW231455   4.095   5.409   2.566
10186SOL     OW31456   3.703   3.246   5.842
10186SOL    HW131457   3.671   3.204   5.927
10186SOL    HW231458   3.647   3.215   5.766
10187SOL     OW31459   1.950   3.966   6.734
10187SOL    HW131460   1.895   4.007   6.661
10187SOL    HW231461   2.023   3.911   6.693
10188SOL     OW31462   3.013   0.442   6.246
10188SOL    HW131463   3.017   0.480   6.339
10188SOL    HW231464   3.017   0.342   6.251
10189SOL     OW31465   1.243   2.015   5.875
10189SOL    HW131466   1.212   1.935   5.822
10189SOL    HW231467   1.343   2.012   5.883
10190SOL     OW31468   4.520   5.336   1.181
10190SOL    HW131469   4.548   5.267   1.113
10190SOL    HW231470   4.546   5.305   1.272
10191SOL     OW31471   5.533   6.685   6.124
10191SOL    HW131472   5.538   6.783   6.108
10191SOL    HW231473   5.496   6.668   6.216
10192SOL     OW31474   1.938   1.661   4.081
10192SOL    HW131475   1.999   1.645   4.004
10192SOL    HW231476   1.913   1.573   4.123
10193SOL     OW31477   3.326   3.438   3.372
10193SOL    HW131478   3.291   3.469   3.460
10193SOL    HW231479   3.318   3.338   3.367
10194SOL     OW31480   2.415   0.470   3.314
10194SOL    HW131481   2.356   0.445   3.390
10194SOL    HW231482   2.474   0.393   3.290
10195SOL     OW31483   4.217   6.321   2.505
10195SOL    HW131484   4.156   6.264   2.450
10195SOL    HW231485   4.295   6.266   2.536
10196SOL     OW31486   5.896   2.130   3.913
10196SOL    HW131487   5.899   2.047   3.859
10196SOL    HW231488   5.976   2.187   3.892
10197SOL     OW31489   5.537   0.207   1.631
10197SOL    HW131490   5.438   0.207   1.627
10197SOL    HW231491   5.569   0.284   1.687
10198SOL     OW31492   2.191   6.706   1.009
10198SOL    HW131493   2.104   6.741   0.973
10198SOL    HW231494   2.217   6.623   0.961
10199SOL     OW31495   0.901   1.294   0.737
10199SOL    HW131496   0.953   1.380   0.732
10199SOL    HW231497   0.808   1.314   0.767
10200SOL     OW31498   5.856   4.074   4.967
10200SOL    HW131499   5.764   4.111   4.952
10200SOL    HW231500   5.861   4.035   5.059
10201SOL     OW31501   1.603   5.525   2.505
10201SOL    HW131502   1.610   5.450   2.572
10201SOL    HW231503   1.694   5.560   2.484
10202SOL     OW31504   0.473   3.132   2.652
10202SOL    HW131505   0.465   3.094   2.744
10202SOL    HW231506   0.527   3.070   2.595
10203SOL     OW31507   1.563   3.604   2.681
10203SOL    HW131508   1.506   3.522   2.672
10203SOL    HW231509   1.555   3.659   2.598
10204SOL     OW31510   2.829   4.814   4.833
10204SOL    HW131511   2.833   4.723   4.875
10204SOL    HW231512   2.742   4.857   4.857
10205SOL     OW31513   4.650   1.120   3.101
10205SOL    HW131514   4.694   1.083   3.020
10205SOL    HW231515   4.667   1.218   3.108
10206SOL     OW31516   5.190   6.957   6.374
10206SOL    HW131517   5.115   6.899   6.407
10206SOL    HW231518   5.183   0.024   6.415
10207SOL     OW31519   4.718   0.317   2.640
10207SOL    HW131520   4.790   0.293   2.706
10207SOL    HW231521   4.673   0.401   2.669
10208SOL     OW31522   6.131   4.312   5.421
10208SOL    HW131523   6.189   4.231   5.406
10208SOL    HW231524   6.093   4.342   5.334
10209SOL     OW31525   5.980   6.925   6.280
10209SOL    HW131526   6.017   7.016   6.263
10209SOL    HW231527   6.019   6.861   6.214
10210SOL     OW31528   5.077   5.565   1.634
10210SOL    HW131529   5.067   5.664   1.636
10210SOL    HW231530   4.987   5.521   1.630
10211SOL     OW31531   4.203   5.704   5.295
10211SOL    HW131532   4.155   5.669   5.214
10211SOL    HW231533   4.302   5.702   5.278
10212SOL     OW31534   6.819   0.491   5.123
10212SOL    HW131535   6.734   0.543   5.113
10212SOL    HW231536   6.799   0.398   5.153
10213SOL     OW31537   6.507   0.863   2.928
10213SOL    HW131538   6.411   0.888   2.920
10213SOL    HW231539   6.556   0.935   2.977
10214SOL     OW31540   6.896   0.436   1.940
10214SOL    HW131541   6.961   0.437   1.864
10214SOL    HW231542   6.836   0.516   1.934
10215SOL     OW31543   3.714   3.678   0.155
10215SOL    HW131544   3.640   3.707   0.217
10215SOL    HW231545   3.674   3.647   0.069
10216SOL     OW31546   5.110   0.089   1.500
10216SOL    HW131547   5.052   0.028   1.445
10216SOL    HW231548   5.201   0.094   1.459
10217SOL     OW31549   2.724   1.827   5.340
10217SOL    HW131550   2.656   1.848   5.411
10217SOL    HW231551   2.690   1.856   5.251
10218SOL     OW31552   2.006   2.062   0.450
10218SOL    HW131553   1.957   2.054   0.537
10218SOL    HW231554   1.980   2.147   0.404
10219SOL     OW31555   0.815   3.626   0.077
10219SOL    HW131556   0.813   3.539   0.126
10219SOL    HW231557   0.724   3.667   0.076
10220SOL     OW31558   4.193   1.871   1.062
10220SOL    HW131559   4.229   1.789   1.019
10220SOL    HW231560   4.269   1.930   1.090
10221SOL     OW31561   2.584   0.405   5.175
10221SOL    HW131562   2.527   0.486   5.186
10221SOL    HW231563   2.573   0.346   5.255
10222SOL     OW31564   1.450   5.127   5.999
10222SOL    HW131565   1.536   5.078   6.014
10222SOL    HW231566   1.449   5.211   6.053
10223SOL     OW31567   0.252   4.431   0.316
10223SOL    HW131568   0.240   4.357   0.382
10223SOL    HW231569   0.346   4.465   0.320
10224SOL     OW31570   1.778   6.799   4.376
10224SOL    HW131571   1.837   6.784   4.297
10224SOL    HW231572   1.822   6.760   4.457
10225SOL     OW31573   6.207   6.270   3.987
10225SOL    HW131574   6.223   6.316   3.900
10225SOL    HW231575   6.287   6.282   4.046
10226SOL     OW31576   1.119   1.967   0.562
10226SOL    HW131577   1.148   1.872   0.557
10226SOL    HW231578   1.192   2.026   0.528
10227SOL     OW31579   5.704   5.048   6.399
10227SOL    HW131580   5.708   4.981   6.473
10227SOL    HW231581   5.711   5.001   6.311
10228SOL     OW31582   1.404   5.312   3.550
10228SOL    HW131583   1.364   5.224   3.524
10228SOL    HW231584   1.399   5.376   3.473
10229SOL     OW31585   1.321   0.043   2.394
10229SOL    HW131586   1.241   0.102   2.401
10229SOL    HW231587   1.298   6.974   2.423
10230SOL     OW31588   6.663   0.519   3.785
10230SOL    HW131589   6.701   0.486   3.699
10230SOL    HW231590   6.734   0.518   3.856
10231SOL     OW31591   4.950   0.718   4.650
10231SOL    HW131592   4.992   0.797   4.695
10231SOL    HW231593   5.012   0.682   4.581
10232SOL     OW31594   3.277   2.124   4.834
10232SOL    HW131595   3.240   2.152   4.745
10232SOL    HW231596   3.248   2.188   4.904
10233SOL     OW31597   4.520   1.580   6.109
10233SOL    HW131598   4.616   1.600   6.130
10233SOL    HW231599   4.464   1.661   6.124
10234SOL     OW31600   5.119   5.911   2.064
10234SOL    HW131601   5.035   5.947   2.104
10234SOL    HW231602   5.107   5.900   1.965
10235SOL     OW31603   6.074   0.911   6.672
10235SOL    HW131604   6.075   1.011   6.664
10235SOL    HW231605   5.987   0.882   6.710
10236SOL     OW31606   2.164   5.284   2.092
10236SOL    HW131607   2.088   5.308   2.032
10236SOL    HW231608   2.250   5.295   2.043
10237SOL     OW31609   6.449   2.871   2.562
10237SOL    HW131610   6.359   2.903   2.591
10237SOL    HW231611   6.510   2.864   2.641
10238SOL     OW31612   5.265   4.465   4.590
10238SOL    HW131613   5.267   4.389   4.525
10238SOL    HW231614   5.313   4.544   4.551
10239SOL     OW31615   0.421   4.365   3.895
10239SOL    HW131616   0.450   4.305   3.970
10239SOL    HW231617   0.457   4.457   3.910
10240SOL     OW31618   0.121   4.362   3.769
10240SOL    HW131619   0.118   4.265   3.795
10240SOL    HW231620   0.179   4.412   3.834
10241SOL     OW31621   2.236   1.045   2.129
10241SOL    HW131622   2.257   1.079   2.220
10241SOL    HW231623   2.314   0.995   2.093
10242SOL     OW31624   6.981   6.975   6.032
10242SOL    HW131625   6.954   6.950   6.125
10242SOL    HW231626   6.903   7.016   5.984
10243SOL     OW31627   1.536   5.354   1.818
10243SOL    HW131628   1.593   5.436   1.823
10243SOL    HW231629   1.522   5.318   1.911
10244SOL     OW31630   2.424   6.465   6.884
10244SOL    HW131631   2.463   6.420   6.964
10244SOL    HW231632   2.387   6.554   6.910
10245SOL     OW31633   2.562   2.232   6.991
10245SOL    HW131634   2.545   2.302   6.921
10245SOL    HW231635   2.477   2.215   0.018
10246SOL     OW31636   3.683   3.880   4.461
10246SOL    HW131637   3.663   3.835   4.548
10246SOL    HW231638   3.650   3.824   4.385
10247SOL     OW31639   0.974   4.864   5.263
10247SOL    HW131640   0.957   4.773   5.226
10247SOL    HW231641   0.998   4.926   5.188
10248SOL     OW31642   4.124   0.190   1.649
10248SOL    HW131643   4.219   0.164   1.633
10248SOL    HW231644   4.121   0.264   1.717
10249SOL     OW31645   4.496   0.989   6.865
10249SOL    HW131646   4.476   0.972   6.962
10249SOL    HW231647   4.513   1.086   6.851
10250SOL     OW31648   6.479   0.608   0.086
10250SOL    HW131649   6.390   0.563   0.101
10250SOL    HW231650   6.474   0.665   0.004
10251SOL     OW31651   2.712   4.109   0.276
10251SOL    HW131652   2.701   4.204   0.246
10251SOL    HW231653   2.694   4.047   0.198
10252SOL     OW31654   6.648   5.129   2.003
10252SOL    HW131655   6.736   5.143   1.958
10252SOL    HW231656   6.576   5.175   1.950
10253SOL     OW31657   3.665   5.407   6.571
10253SOL    HW131658   3.627   5.452   6.653
10253SOL    HW231659   3.732   5.339   6.599
10254SOL     OW31660   2.491   2.079   5.016
10254SOL    HW131661   2.419   2.022   5.056
10254SOL    HW231662   2.468   2.175   5.029
10255SOL     OW31663   3.438   6.120   2.637
10255SOL    HW131664   3.505   6.045   2.635
10255SOL    HW231665   3.410   6.142   2.544
10256SOL     OW31666   5.805   6.442   6.496
10256SOL    HW131667   5.843   6.530   6.466
10256SOL    HW231668   5.840   6.419   6.587
10257SOL     OW31669   1.214   5.914   5.767
10257SOL    HW131670   1.165   5.897   5.682
10257SOL    HW231671   1.284   5.984   5.752
10258SOL     OW31672   4.151   0.803   2.978
10258SOL    HW131673   4.211   0.882   2.985
10258SOL    HW231674   4.074   0.815   3.041
10259SOL     OW31675   0.093   4.158   3.000
10259SOL    HW131676   0.056   4.069   2.974
10259SOL    HW231677   0.044   4.193   3.080
10260SOL     OW31678   0.966   0.181   1.522
10260SOL    HW131679   0.997   0.276   1.518
10260SOL    HW231680   0.883   0.175   1.577
10261SOL     OW31681   1.513   5.933   2.379
10261SOL    HW131682   1.529   5.872   2.456
10261SOL    HW231683   1.467   6.016   2.411
10262SOL     OW31684   1.367   5.240   4.768
10262SOL    HW131685   1.425   5.301   4.822
10262SOL    HW231686   1.423   5.167   4.730
10263SOL     OW31687   6.420   2.287   6.289
10263SOL    HW131688   6.419   2.296   6.389
10263SOL    HW231689   6.424   2.377   6.247
10264SOL     OW31690   0.374   0.446   5.847
10264SOL    HW131691   0.388   0.539   5.813
10264SOL    HW231692   0.340   0.389   5.772
10265SOL     OW31693   4.236   1.893   2.046
10265SOL    HW131694   4.233   1.801   2.084
10265SOL    HW231695   4.256   1.958   2.119
10266SOL     OW31696   2.857   4.531   6.723
10266SOL    HW131697   2.836   4.629   6.728
10266SOL    HW231698   2.937   4.516   6.665
10267SOL     OW31699   6.643   2.109   6.309
10267SOL    HW131700   6.554   2.154   6.315
10267SOL    HW231701   6.668   2.095   6.213
10268SOL     OW31702   5.857   5.249   1.848
10268SOL    HW131703   5.913   5.323   1.811
10268SOL    HW231704   5.898   5.216   1.933
10269SOL     OW31705   2.627   3.108   6.105
10269SOL    HW131706   2.659   3.056   6.184
10269SOL    HW231707   2.551   3.167   6.133
10270SOL     OW31708   2.023   5.723   0.648
10270SOL    HW131709   2.073   5.641   0.675
10270SOL    HW231710   2.058   5.801   0.699
10271SOL     OW31711   4.432   4.571   0.929
10271SOL    HW131712   4.483   4.486   0.943
10271SOL    HW231713   4.425   4.621   1.016
10272SOL     OW31714   0.625   0.711   5.860
10272SOL    HW131715   0.648   0.619   5.892
10272SOL    HW231716   0.529   0.715   5.834
10273SOL     OW31717   4.268   5.883   4.471
10273SOL    HW131718   4.252   5.806   4.532
10273SOL    HW231719   4.362   5.880   4.438
10274SOL     OW31720   1.460   5.560   6.104
10274SOL    HW131721   1.439   5.478   6.157
10274SOL    HW231722   1.382   5.584   6.047
10275SOL     OW31723   0.950   6.259   2.320
10275SOL    HW131724   0.894   6.315   2.259
10275SOL    HW231725   0.892   6.219   2.391
10276SOL     OW31726   6.419   5.496   6.293
10276SOL    HW131727   6.495   5.498   6.358
10276SOL    HW231728   6.334   5.520   6.340
10277SOL     OW31729   2.344   5.865   4.349
10277SOL    HW131730   2.303   5.828   4.265
10277SOL    HW231731   2.292   5.832   4.428
10278SOL     OW31732   6.092   0.644   5.555
10278SOL    HW131733   6.000   0.683   5.550
10278SOL    HW231734   6.127   0.628   5.462
10279SOL     OW31735   3.295   6.783   4.191
10279SOL    HW131736   3.312   6.692   4.228
10279SOL    HW231737   3.222   6.777   4.122
10280SOL     OW31738   2.206   3.448   6.563
10280SOL    HW131739   2.227   3.477   6.470
10280SOL    HW231740   2.223   3.523   6.626
10281SOL     OW31741   4.361   0.692   3.580
10281SOL    HW131742   4.320   0.605   3.607
10281SOL    HW231743   4.363   0.698   3.480
10282SOL     OW31744   0.868   1.621   4.087
10282SOL    HW131745   0.828   1.547   4.142
10282SOL    HW231746   0.894   1.697   4.146
10283SOL     OW31747   1.076   3.970   6.669
10283SOL    HW131748   1.052   3.933   6.759
10283SOL    HW231749   1.114   4.062   6.680
10284SOL     OW31750   5.469   2.878   5.208
10284SOL    HW131751   5.447   2.920   5.296
10284SOL    HW231752   5.428   2.931   5.134
10285SOL     OW31753   6.091   0.168   1.168
10285SOL    HW131754   6.151   0.238   1.130
10285SOL    HW231755   6.041   0.123   1.094
10286SOL     OW31756   3.825   0.730   3.537
10286SOL    HW131757   3.903   0.791   3.523
10286SOL    HW231758   3.782   0.710   3.449
10287SOL     OW31759   2.652   6.168   1.678
10287SOL    HW131760   2.629   6.211   1.591
10287SOL    HW231761   2.711   6.229   1.731
10288SOL     OW31762   5.890   6.625   3.899
10288SOL    HW131763   5.969   6.607   3.958
10288SOL    HW231764   5.914   6.696   3.832
10289SOL     OW31765   3.295   0.755   1.621
10289SOL    HW131766   3.374   0.786   1.569
10289SOL    HW231767   3.322   0.737   1.716
10290SOL     OW31768   3.730   4.038   2.343
10290SOL    HW131769   3.799   4.032   2.414
10290SOL    HW231770   3.772   4.018   2.254
10291SOL     OW31771   3.309   0.475   5.541
10291SOL    HW131772   3.279   0.380   5.548
10291SOL    HW231773   3.278   0.526   5.622
10292SOL     OW31774   0.800   1.148   4.836
10292SOL    HW131775   0.890   1.187   4.814
10292SOL    HW231776   0.808   1.091   4.918
10293SOL     OW31777   1.782   6.006   3.354
10293SOL    HW131778   1.762   6.077   3.420
10293SOL    HW231779   1.876   5.974   3.368
10294SOL     OW31780   5.883   1.626   3.067
10294SOL    HW131781   5.900   1.706   3.009
10294SOL    HW231782   5.813   1.649   3.135
10295SOL     OW31783   0.578   5.381   6.213
10295SOL    HW131784   0.539   5.296   6.178
10295SOL    HW231785   0.533   5.459   6.170
10296SOL     OW31786   6.461   2.390   0.353
10296SOL    HW131787   6.494   2.356   0.265
10296SOL    HW231788   6.423   2.314   0.406
10297SOL     OW31789   1.837   5.325   4.999
10297SOL    HW131790   1.823   5.271   5.083
10297SOL    HW231791   1.920   5.381   5.009
10298SOL     OW31792   4.940   3.437   3.897
10298SOL    HW131793   4.966   3.503   3.828
10298SOL    HW231794   4.990   3.455   3.982
10299SOL     OW31795   5.230   4.455   3.113
10299SOL    HW131796   5.205   4.476   3.207
10299SOL    HW231797   5.193   4.365   3.088
10300SOL     OW31798   1.157   4.620   2.518
10300SOL    HW131799   1.114   4.532   2.536
10300SOL    HW231800   1.202   4.618   2.428
10301SOL     OW31801   5.488   1.677   1.163
10301SOL    HW131802   5.481   1.741   1.087
10301SOL    HW231803   5.569   1.619   1.151
10302SOL     OW31804   1.729   5.597   3.304
10302SOL    HW131805   1.750   5.611   3.207
10302SOL    HW231806   1.810   5.617   3.359
10303SOL     OW31807   3.336   3.053   1.344
10303SOL    HW131808   3.399   2.976   1.357
10303SOL    HW231809   3.384   3.127   1.297
10304SOL     OW31810   6.665   6.596   2.852
10304SOL    HW131811   6.706   6.519   2.803
10304SOL    HW231812   6.737   6.660   2.880
10305SOL     OW31813   1.888   5.728   1.265
10305SOL    HW131814   1.815   5.746   1.330
10305SOL    HW231815   1.941   5.812   1.250
10306SOL     OW31816   4.544   6.062   0.059
10306SOL    HW131817   4.447   6.040   0.061
10306SOL    HW231818   4.562   6.126   7.007
10307SOL     OW31819   2.284   1.354   5.796
10307SOL    HW131820   2.381   1.343   5.775
10307SOL    HW231821   2.271   1.357   5.895
10308SOL     OW31822   3.581   5.818   3.552
10308SOL    HW131823   3.562   5.912   3.577
10308SOL    HW231824   3.509   5.758   3.587
10309SOL     OW31825   0.193   6.545   3.271
10309SOL    HW131826   0.282   6.510   3.243
10309SOL    HW231827   0.161   6.494   3.352
10310SOL     OW31828   3.633   4.055   3.326
10310SOL    HW131829   3.557   4.016   3.378
10310SOL    HW231830   3.719   4.035   3.372
10311SOL     OW31831   0.231   5.438   0.429
10311SOL    HW131832   0.134   5.462   0.420
10311SOL    HW231833   0.272   5.494   0.502
10312SOL     OW31834   2.043   4.578   1.071
10312SOL    HW131835   1.971   4.595   1.138
10312SOL    HW231836   2.080   4.486   1.084
10313SOL     OW31837   5.291   6.775   3.124
10313SOL    HW131838   5.373   6.793   3.070
10313SOL    HW231839   5.257   6.861   3.163
10314SOL     OW31840   6.688   5.996   0.577
10314SOL    HW131841   6.688   6.005   0.676
10314SOL    HW231842   6.633   5.916   0.550
10315SOL     OW31843   6.183   5.325   4.705
10315SOL    HW131844   6.165   5.269   4.624
10315SOL    HW231845   6.266   5.292   4.751
10316SOL     OW31846   0.015   4.821   2.983
10316SOL    HW131847   0.107   4.820   3.021
10316SOL    HW231848   6.984   4.892   3.029
10317SOL     OW31849   3.587   4.717   0.324
10317SOL    HW131850   3.632   4.658   0.391
10317SOL    HW231851   3.575   4.666   0.238
10318SOL     OW31852   6.012   5.443   2.242
10318SOL    HW131853   5.938   5.403   2.295
10318SOL    HW231854   6.002   5.542   2.238
10319SOL     OW31855   6.109   6.568   3.028
10319SOL    HW131856   6.023   6.610   3.055
10319SOL    HW231857   6.166   6.554   3.109
10320SOL     OW31858   5.718   6.648   1.288
10320SOL    HW131859   5.810   6.675   1.316
10320SOL    HW231860   5.720   6.615   1.193
10321SOL     OW31861   4.532   5.585   4.083
10321SOL    HW131862   4.485   5.658   4.133
10321SOL    HW231863   4.531   5.605   3.985
10322SOL     OW31864   5.942   2.837   0.009
10322SOL    HW131865   5.848   2.835   0.044
10322SOL    HW231866   5.942   2.813   6.935
10323SOL     OW31867   5.396   2.932   4.931
10323SOL    HW131868   5.405   2.962   4.836
10323SOL    HW231869   5.309   2.964   4.968
10324SOL     OW31870   2.947   3.232   3.805
10324SOL    HW131871   2.952   3.268   3.898
10324SOL    HW231872   2.867   3.171   3.797
10325SOL     OW31873   0.038   3.848   3.200
10325SOL    HW131874   0.130   3.809   3.203
10325SOL    HW231875   7.013   3.823   3.284
10326SOL     OW31876   5.818   1.894   0.569
10326SOL    HW131877   5.777   1.983   0.592
10326SOL    HW231878   5.775   1.858   0.487
10327SOL     OW31879   6.689   1.026   3.309
10327SOL    HW131880   6.647   1.057   3.223
10327SOL    HW231881   6.686   1.100   3.376
10328SOL     OW31882   6.338   2.723   1.557
10328SOL    HW131883   6.312   2.646   1.616
10328SOL    HW231884   6.256   2.762   1.516
10329SOL     OW31885   3.790   6.840   2.433
10329SOL    HW131886   3.743   6.774   2.375
10329SOL    HW231887   3.877   6.864   2.391
10330SOL     OW31888   4.042   5.186   1.287
10330SOL    HW131889   4.011   5.101   1.331
10330SOL    HW231890   4.056   5.256   1.357
10331SOL     OW31891   6.166   0.823   3.262
10331SOL    HW131892   6.170   0.774   3.175
10331SOL    HW231893   6.255   0.863   3.282
10332SOL     OW31894   0.413   2.684   6.593
10332SOL    HW131895   0.401   2.612   6.662
10332SOL    HW231896   0.508   2.715   6.592
10333SOL     OW31897   4.567   4.495   4.584
10333SOL    HW131898   4.514   4.548   4.518
10333SOL    HW231899   4.608   4.416   4.539
10334SOL     OW31900   1.741   4.582   5.276
10334SOL    HW131901   1.828   4.629   5.261
10334SOL    HW231902   1.757   4.484   5.288
10335SOL     OW31903   2.112   5.093   1.685
10335SOL    HW131904   2.083   5.071   1.592
10335SOL    HW231905   2.184   5.030   1.713
10336SOL     OW31906   4.040   6.937   2.359
10336SOL    HW131907   4.092   6.876   2.418
10336SOL    HW231908   4.090   0.000   2.349
10337SOL     OW31909   0.745   5.262   5.409
10337SOL    HW131910   0.803   5.342   5.393
10337SOL    HW231911   0.801   5.179   5.403
10338SOL     OW31912   3.225   5.987   3.113
10338SOL    HW131913   3.202   6.004   3.017
10338SOL    HW231914   3.316   5.947   3.119
10339SOL     OW31915   3.095   5.790   0.857
10339SOL    HW131916   3.023   5.724   0.874
10339SOL    HW231917   3.107   5.848   0.937
10340SOL     OW31918   2.171   0.348   0.259
10340SOL    HW131919   2.241   0.419   0.268
10340SOL    HW231920   2.146   0.339   0.163
10341SOL     OW31921   1.992   1.464   2.641
10341SOL    HW131922   1.934   1.413   2.705
10341SOL    HW231923   2.014   1.405   2.563
10342SOL     OW31924   2.585   6.115   5.026
10342SOL    HW131925   2.594   6.167   4.942
10342SOL    HW231926   2.581   6.017   5.005
10343SOL     OW31927   2.006   3.306   5.112
10343SOL    HW131928   2.048   3.395   5.095
10343SOL    HW231929   2.043   3.239   5.048
10344SOL     OW31930   3.978   4.894   5.186
10344SOL    HW131931   3.971   4.880   5.087
10344SOL    HW231932   4.074   4.900   5.212
10345SOL     OW31933   1.811   1.246   6.852
10345SOL    HW131934   1.844   1.258   6.758
10345SOL    HW231935   1.736   1.180   6.853
10346SOL     OW31936   5.000   5.765   6.664
10346SOL    HW131937   5.098   5.787   6.658
10346SOL    HW231938   4.947   5.849   6.658
10347SOL     OW31939   5.419   1.912   1.989
10347SOL    HW131940   5.380   1.841   2.047
10347SOL    HW231941   5.375   1.911   1.899
10348SOL     OW31942   0.420   5.439   5.535
10348SOL    HW131943   0.363   5.420   5.615
10348SOL    HW231944   0.367   5.423   5.452
10349SOL     OW31945   6.900   2.119   0.549
10349SOL    HW131946   6.838   2.184   0.591
10349SOL    HW231947   6.871   2.101   0.455
10350SOL     OW31948   2.130   4.558   4.912
10350SOL    HW131949   2.162   4.481   4.966
10350SOL    HW231950   2.173   4.555   4.821
10351SOL     OW31951   4.679   4.289   4.856
10351SOL    HW131952   4.634   4.359   4.912
10351SOL    HW231953   4.611   4.229   4.815
10352SOL     OW31954   5.387   1.612   0.266
10352SOL    HW131955   5.314   1.654   0.212
10352SOL    HW231956   5.414   1.674   0.339
10353SOL     OW31957   6.610   2.728   3.666
10353SOL    HW131958   6.613   2.765   3.759
10353SOL    HW231959   6.696   2.680   3.647
10354SOL     OW31960   0.325   3.273   0.849
10354SOL    HW131961   0.293   3.185   0.813
10354SOL    HW231962   0.419   3.289   0.819
10355SOL     OW31963   0.766   1.582   1.076
10355SOL    HW131964   0.685   1.568   1.133
10355SOL    HW231965   0.848   1.556   1.127
10356SOL     OW31966   6.605   3.708   6.397
10356SOL    HW131967   6.629   3.611   6.402
10356SOL    HW231968   6.551   3.725   6.315
10357SOL     OW31969   1.267   2.814   5.686
10357SOL    HW131970   1.328   2.863   5.748
10357SOL    HW231971   1.315   2.797   5.599
10358SOL     OW31972   0.562   2.298   2.719
10358SOL    HW131973   0.624   2.220   2.715
10358SOL    HW231974   0.573   2.345   2.806
10359SOL     OW31975   6.156   1.837   2.647
10359SOL    HW131976   6.134   1.933   2.661
10359SOL    HW231977   6.077   1.790   2.608
10360SOL     OW31978   5.784   4.322   1.710
10360SOL    HW131979   5.883   4.338   1.713
10360SOL    HW231980   5.756   4.298   1.617
10361SOL     OW31981   0.575   2.005   2.079
10361SOL    HW131982   0.553   1.984   2.174
10361SOL    HW231983   0.512   1.958   2.018
10362SOL     OW31984   0.904   5.131   1.615
10362SOL    HW131985   0.897   5.204   1.548
10362SOL    HW231986   0.971   5.155   1.685
10363SOL     OW31987   5.310   4.274   6.728
10363SOL    HW131988   5.371   4.259   6.806
10363SOL    HW231989   5.274   4.367   6.730
10364SOL     OW31990   5.705   4.550   2.103
10364SOL    HW131991   5.676   4.497   2.183
10364SOL    HW231992   5.767   4.495   2.048
10365SOL     OW31993   5.503   5.703   0.451
10365SOL    HW131994   5.411   5.707   0.411
10365SOL    HW231995   5.507   5.765   0.530
10366SOL     OW31996   2.677   5.892   3.633
10366SOL    HW131997   2.761   5.941   3.610
10366SOL    HW231998   2.632   5.863   3.548
10367SOL     OW31999   5.816   0.970   1.452
10367SOL    HW132000   5.801   0.894   1.388
10367SOL    HW232001   5.734   0.982   1.508
10368SOL     OW32002   2.411   5.899   2.391
10368SOL    HW132003   2.314   5.919   2.375
10368SOL    HW232004   2.455   5.979   2.433
10369SOL     OW32005   2.680   0.260   6.543
10369SOL    HW132006   2.737   0.273   6.623
10369SOL    HW232007   2.634   0.346   6.520
10370SOL     OW32008   0.919   0.511   5.745
10370SOL    HW132009   0.893   0.580   5.811
10370SOL    HW232010   0.841   0.489   5.687
10371SOL     OW32011   3.933   5.667   2.696
10371SOL    HW132012   4.010   5.620   2.654
10371SOL    HW232013   3.966   5.734   2.762
10372SOL     OW32014   3.062   6.685   1.604
10372SOL    HW132015   3.120   6.738   1.542
10372SOL    HW232016   3.089   6.589   1.601
10373SOL     OW32017   0.817   1.381   5.520
10373SOL    HW132018   0.781   1.402   5.429
10373SOL    HW232019   0.905   1.426   5.532
10374SOL     OW32020   4.332   5.705   3.833
10374SOL    HW132021   4.325   5.754   3.920
10374SOL    HW232022   4.308   5.609   3.847
10375SOL     OW32023   2.348   3.875   0.027
10375SOL    HW132024   2.306   3.926   6.976
10375SOL    HW232025   2.365   3.781   7.021
10376SOL     OW32026   1.771   4.747   3.231
10376SOL    HW132027   1.756   4.734   3.329
10376SOL    HW232028   1.704   4.696   3.179
10377SOL     OW32029   1.829   0.303   2.666
10377SOL    HW132030   1.808   0.390   2.711
10377SOL    HW232031   1.917   0.310   2.619
10378SOL     OW32032   0.081   4.836   3.719
10378SOL    HW132033   0.176   4.843   3.689
10378SOL    HW232034   0.065   4.747   3.761
10379SOL     OW32035   1.927   6.319   4.631
10379SOL    HW132036   2.003   6.344   4.691
10379SOL    HW232037   1.841   6.345   4.675
10380SOL     OW32038   2.276   2.559   4.838
10380SOL    HW132039   2.281   2.459   4.834
10380SOL    HW232040   2.256   2.588   4.932
10381SOL     OW32041   4.533   4.683   2.080
10381SOL    HW132042   4.473   4.626   2.023
10381SOL    HW232043   4.586   4.744   2.022
10382SOL     OW32044   3.939   5.237   2.277
10382SOL    HW132045   3.862   5.251   2.215
10382SOL    HW232046   4.010   5.183   2.232
10383SOL     OW32047   1.928   4.326   0.515
10383SOL    HW132048   1.850   4.347   0.456
10383SOL    HW232049   1.945   4.228   0.514
10384SOL     OW32050   6.304   6.422   1.591
10384SOL    HW132051   6.313   6.415   1.690
10384SOL    HW232052   6.209   6.404   1.564
10385SOL     OW32053   4.476   4.762   6.958
10385SOL    HW132054   4.564   4.743   6.916
10385SOL    HW232055   4.442   4.679   7.003
10386SOL     OW32056   0.129   1.453   0.239
10386SOL    HW132057   0.188   1.467   0.319
10386SOL    HW232058   0.185   1.442   0.158
10387SOL     OW32059   5.024   2.793   2.068
10387SOL    HW132060   4.970   2.828   2.144
10387SOL    HW232061   4.987   2.828   1.981
10388SOL     OW32062   2.982   0.961   5.692
10388SOL    HW132063   2.884   0.943   5.704
10388SOL    HW232064   3.008   1.041   5.745
10389SOL     OW32065   0.950   3.547   0.641
10389SOL    HW132066   0.855   3.561   0.667
10389SOL    HW232067   0.979   3.455   0.669
10390SOL     OW32068   2.533   2.378   1.389
10390SOL    HW132069   2.566   2.445   1.456
10390SOL    HW232070   2.481   2.424   1.317
10391SOL     OW32071   5.057   0.035   4.517
10391SOL    HW132072   4.998   6.985   4.483
10391SOL    HW232073   5.152   0.003   4.519
10392SOL     OW32074   6.902   5.148   4.113
10392SOL    HW132075   6.955   5.116   4.035
10392SOL    HW232076   6.822   5.088   4.125
10393SOL     OW32077   1.716   4.315   3.676
10393SOL    HW132078   1.767   4.396   3.650
10393SOL    HW232079   1.708   4.311   3.776
10394SOL     OW32080   2.625   5.860   4.240
10394SOL    HW132081   2.604   5.869   4.143
10394SOL    HW232082   2.540   5.852   4.292
10395SOL     OW32083   0.473   6.856   0.480
10395SOL    HW132084   0.426   6.876   0.566
10395SOL    HW232085   0.414   6.880   0.403
10396SOL     OW32086   2.682   1.666   4.875
10396SOL    HW132087   2.766   1.702   4.915
10396SOL    HW232088   2.691   1.663   4.775
10397SOL     OW32089   3.025   2.063   2.079
10397SOL    HW132090   3.119   2.069   2.115
10397SOL    HW232091   2.986   2.155   2.073
10398SOL     OW32092   0.004   2.644   1.732
10398SOL    HW132093   7.009   2.730   1.684
10398SOL    HW232094   0.014   2.570   1.666
10399SOL     OW32095   6.694   3.141   1.791
10399SOL    HW132096   6.713   3.214   1.725
10399SOL    HW232097   6.659   3.060   1.743
10400SOL     OW32098   3.672   6.745   0.471
10400SOL    HW132099   3.701   6.838   0.446
10400SOL    HW232100   3.574   6.735   0.454
10401SOL     OW32101   6.250   0.997   4.272
10401SOL    HW132102   6.238   0.904   4.305
10401SOL    HW232103   6.198   1.060   4.329
10402SOL     OW32104   6.775   2.941   4.724
10402SOL    HW132105   6.677   2.926   4.712
10402SOL    HW232106   6.807   3.009   4.658
10403SOL     OW32107   2.808   0.398   3.210
10403SOL    HW132108   2.827   0.492   3.239
10403SOL    HW232109   2.870   0.371   3.137
10404SOL     OW32110   0.190   6.473   6.031
10404SOL    HW132111   0.241   6.436   5.954
10404SOL    HW232112   0.126   6.543   5.999
10405SOL     OW32113   0.261   1.326   5.810
10405SOL    HW132114   0.263   1.367   5.901
10405SOL    HW232115   0.329   1.370   5.751
10406SOL     OW32116   3.370   4.889   1.419
10406SOL    HW132117   3.366   4.862   1.516
10406SOL    HW232118   3.360   4.988   1.412
10407SOL     OW32119   3.525   6.607   6.580
10407SOL    HW132120   3.526   6.542   6.656
10407SOL    HW232121   3.433   6.609   6.540
10408SOL     OW32122   4.674   0.853   0.101
10408SOL    HW132123   4.643   0.777   0.044
10408SOL    HW232124   4.602   0.923   0.105
10409SOL     OW32125   6.144   4.592   0.644
10409SOL    HW132126   6.165   4.641   0.560
10409SOL    HW232127   6.056   4.544   0.633
10410SOL     OW32128   5.902   1.232   0.022
10410SOL    HW132129   5.967   1.250   6.972
10410SOL    HW232130   5.813   1.271   7.021
10411SOL     OW32131   2.388   5.371   3.151
10411SOL    HW132132   2.460   5.303   3.138
10411SOL    HW232133   2.356   5.368   3.246
10412SOL     OW32134   6.050   1.217   0.704
10412SOL    HW132135   5.982   1.277   0.663
10412SOL    HW232136   6.013   1.177   0.788
10413SOL     OW32137   6.950   1.961   1.299
10413SOL    HW132138   6.941   2.043   1.355
10413SOL    HW232139   0.022   1.949   1.272
10414SOL     OW32140   5.394   3.198   5.096
10414SOL    HW132141   5.329   3.143   5.149
10414SOL    HW232142   5.346   3.268   5.045
10415SOL     OW32143   0.707   5.526   6.430
10415SOL    HW132144   0.655   5.606   6.399
10415SOL    HW232145   0.689   5.449   6.369
10416SOL     OW32146   5.861   2.728   4.491
10416SOL    HW132147   5.779   2.783   4.511
10416SOL    HW232148   5.932   2.751   4.557
10417SOL     OW32149   3.392   5.088   4.467
10417SOL    HW132150   3.366   5.021   4.397
10417SOL    HW232151   3.444   5.043   4.540
10418SOL     OW32152   0.167   4.152   5.651
10418SOL    HW132153   0.160   4.118   5.557
10418SOL    HW232154   0.140   4.248   5.654
10419SOL     OW32155   0.777   0.630   0.497
10419SOL    HW132156   0.742   0.609   0.406
10419SOL    HW232157   0.805   0.726   0.501
10420SOL     OW32158   0.042   3.353   2.667
10420SOL    HW132159   0.031   3.325   2.762
10420SOL    HW232160   0.019   3.277   2.607
10421SOL     OW32161   1.521   0.779   3.527
10421SOL    HW132162   1.543   0.750   3.434
10421SOL    HW232163   1.562   0.869   3.544
10422SOL     OW32164   6.684   2.849   5.554
10422SOL    HW132165   6.738   2.772   5.587
10422SOL    HW232166   6.707   2.868   5.458
10423SOL     OW32167   4.988   4.588   4.429
10423SOL    HW132168   5.067   4.539   4.393
10423SOL    HW232169   5.004   4.610   4.526
10424SOL     OW32170   5.389   1.875   6.746
10424SOL    HW132171   5.327   1.937   6.795
10424SOL    HW232172   5.461   1.928   6.702
10425SOL     OW32173   1.292   6.808   2.417
10425SOL    HW132174   1.248   6.720   2.435
10425SOL    HW232175   1.318   6.813   2.321
10426SOL     OW32176   6.361   4.202   0.475
10426SOL    HW132177   6.276   4.207   0.423
10426SOL    HW232178   6.428   4.148   0.424
10427SOL     OW32179   4.529   2.124   0.680
10427SOL    HW132180   4.537   2.045   0.742
10427SOL    HW232181   4.483   2.199   0.728
10428SOL     OW32182   4.070   0.444   4.803
10428SOL    HW132183   4.032   0.370   4.748
10428SOL    HW232184   3.996   0.490   4.852
10429SOL     OW32185   6.905   5.727   1.519
10429SOL    HW132186   6.994   5.769   1.502
10429SOL    HW232187   6.918   5.635   1.555
10430SOL     OW32188   4.032   0.049   3.091
10430SOL    HW132189   3.971   0.029   3.014
10430SOL    HW232190   4.125   0.063   3.056
10431SOL     OW32191   3.079   0.336   5.362
10431SOL    HW132192   3.071   0.429   5.327
10431SOL    HW232193   2.989   0.292   5.363
10432SOL     OW32194   6.349   0.885   4.038
10432SOL    HW132195   6.271   0.848   3.988
10432SOL    HW232196   6.316   0.941   4.115
10433SOL     OW32197   2.178   6.502   2.017
10433SOL    HW132198   2.142   6.522   1.926
10433SOL    HW232199   2.102   6.479   2.078
10434SOL     OW32200   3.422   0.087   3.415
10434SOL    HW132201   3.477   0.169   3.429
10434SOL    HW232202   3.441   0.021   3.487
10435SOL     OW32203   6.428   6.680   5.272
10435SOL    HW132204   6.454   6.626   5.192
10435SOL    HW232205   6.347   6.735   5.251
10436SOL     OW32206   0.561   5.128   4.324
10436SOL    HW132207   0.576   5.148   4.227
10436SOL    HW232208   0.477   5.075   4.334
10437SOL     OW32209   6.110   5.188   5.806
10437SOL    HW132210   6.039   5.143   5.860
10437SOL    HW232211   6.091   5.175   5.708
10438SOL     OW32212   5.544   6.524   0.426
10438SOL    HW132213   5.585   6.597   0.481
10438SOL    HW232214   5.595   6.513   0.341
10439SOL     OW32215   3.566   0.324   5.632
10439SOL    HW132216   3.564   0.254   5.561
10439SOL    HW232217   3.607   0.408   5.595
10440SOL     OW32218   0.765   6.857   1.015
10440SOL    HW132219   0.720   6.945   1.000
10440SOL    HW232220   0.794   6.850   1.110
10441SOL     OW32221   5.382   1.615   6.727
10441SOL    HW132222   5.387   1.715   6.730
10441SOL    HW232223   5.374   1.580   6.820
10442SOL     OW32224   3.441   5.142   5.663
10442SOL    HW132225   3.486   5.176   5.581
10442SOL    HW232226   3.509   5.125   5.734
10443SOL     OW32227   6.122   3.826   4.745
10443SOL    HW132228   6.055   3.778   4.801
10443SOL    HW232229   6.076   3.880   4.676
10444SOL     OW32230   3.693   5.416   4.696
10444SOL    HW132231   3.638   5.350   4.746
10444SOL    HW232232   3.649   5.506   4.700
10445SOL     OW32233   6.632   5.376   4.851
10445SOL    HW132234   6.699   5.306   4.829
10445SOL    HW232235   6.623   5.439   4.773
10446SOL     OW32236   0.516   4.336   6.618
10446SOL    HW132237   0.583   4.285   6.562
10446SOL    HW232238   0.464   4.271   6.674
10447SOL     OW32239   6.745   2.021   1.136
10447SOL    HW132240   6.676   2.076   1.183
10447SOL    HW232241   6.823   2.006   1.197
10448SOL     OW32242   3.942   3.682   1.122
10448SOL    HW132243   3.917   3.760   1.065
10448SOL    HW232244   3.860   3.630   1.146
10449SOL     OW32245   2.621   5.196   4.612
10449SOL    HW132246   2.558   5.242   4.549
10449SOL    HW232247   2.715   5.207   4.579
10450SOL     OW32248   6.958   2.340   0.180
10450SOL    HW132249   0.018   2.368   0.228
10450SOL    HW232250   6.888   2.410   0.193
10451SOL     OW32251   2.620   4.578   2.916
10451SOL    HW132252   2.596   4.585   3.013
10451SOL    HW232253   2.568   4.503   2.874
10452SOL     OW32254   0.602   3.565   3.932
10452SOL    HW132255   0.571   3.471   3.921
10452SOL    HW232256   0.698   3.573   3.903
10453SOL     OW32257   5.929   5.639   1.339
10453SOL    HW132258   5.930   5.552   1.289
10453SOL    HW232259   5.849   5.643   1.398
10454SOL     OW32260   5.371   3.013   2.461
10454SOL    HW132261   5.444   3.013   2.392
10454SOL    HW232262   5.283   2.996   2.417
10455SOL     OW32263   0.468   5.270   3.809
10455SOL    HW132264   0.507   5.224   3.729
10455SOL    HW232265   0.523   5.352   3.830
10456SOL     OW32266   3.508   6.027   1.446
10456SOL    HW132267   3.510   6.067   1.354
10456SOL    HW232268   3.459   6.088   1.508
10457SOL     OW32269   3.853   4.029   3.468
10457SOL    HW132270   3.912   4.108   3.484
10457SOL    HW232271   3.906   3.945   3.481
10458SOL     OW32272   1.148   6.932   0.754
10458SOL    HW132273   1.209   6.899   0.826
10458SOL    HW232274   1.203   6.960   0.675
10459SOL     OW32275   5.539   5.331   2.154
10459SOL    HW132276   5.547   5.263   2.082
10459SOL    HW232277   5.590   5.414   2.128
10460SOL     OW32278   2.831   5.334   1.926
10460SOL    HW132279   2.814   5.337   2.025
10460SOL    HW232280   2.929   5.336   1.909
10461SOL     OW32281   2.398   6.860   6.746
10461SOL    HW132282   2.495   6.885   6.750
10461SOL    HW232283   2.388   6.775   6.694
10462SOL     OW32284   5.792   1.074   0.911
10462SOL    HW132285   5.888   1.051   0.926
10462SOL    HW232286   5.755   1.017   0.838
10463SOL     OW32287   2.900   4.283   0.039
10463SOL    HW132288   2.916   4.374   0.001
10463SOL    HW232289   2.858   4.291   0.129
10464SOL     OW32290   4.722   6.948   0.558
10464SOL    HW132291   4.800   7.001   0.591
10464SOL    HW232292   4.637   6.997   0.581
10465SOL     OW32293   0.319   5.427   5.774
10465SOL    HW132294   0.272   5.360   5.831
10465SOL    HW232295   0.379   5.483   5.831
10466SOL     OW32296   5.000   5.673   5.066
10466SOL    HW132297   4.931   5.669   4.994
10466SOL    HW232298   4.956   5.657   5.155
10467SOL     OW32299   2.239   1.671   5.399
10467SOL    HW132300   2.247   1.630   5.490
10467SOL    HW232301   2.284   1.760   5.398
10468SOL     OW32302   3.212   6.865   4.553
10468SOL    HW132303   3.264   6.813   4.486
10468SOL    HW232304   3.263   6.948   4.577
10469SOL     OW32305   1.738   3.988   0.699
10469SOL    HW132306   1.826   4.036   0.703
10469SOL    HW232307   1.673   4.041   0.646
10470SOL     OW32308   2.442   1.886   3.730
10470SOL    HW132309   2.351   1.858   3.761
10470SOL    HW232310   2.433   1.945   3.650
10471SOL     OW32311   2.889   3.812   1.410
10471SOL    HW132312   2.837   3.892   1.440
10471SOL    HW232313   2.960   3.791   1.477
10472SOL     OW32314   3.568   0.276   1.939
10472SOL    HW132315   3.663   0.285   1.907
10472SOL    HW232316   3.568   0.269   2.039
10473SOL     OW32317   5.561   5.971   6.948
10473SOL    HW132318   5.565   6.064   6.982
10473SOL    HW232319   5.493   5.919   7.000
10474SOL     OW32320   4.331   0.602   4.183
10474SOL    HW132321   4.266   0.673   4.156
10474SOL    HW232322   4.357   0.548   4.103
10475SOL     OW32323   4.073   0.034   1.284
10475SOL    HW132324   4.063   0.129   1.314
10475SOL    HW232325   4.087   0.031   1.185
10476SOL     OW32326   6.587   5.055   6.204
10476SOL    HW132327   6.504   5.107   6.186
10476SOL    HW232328   6.570   4.958   6.187
10477SOL     OW32329   6.147   4.086   5.047
10477SOL    HW132330   6.085   4.030   4.993
10477SOL    HW232331   6.199   4.027   5.109
10478SOL     OW32332   0.010   6.159   0.708
10478SOL    HW132333   0.024   6.257   0.697
10478SOL    HW232334   0.066   6.126   0.785
10479SOL     OW32335   2.030   3.729   2.669
10479SOL    HW132336   2.085   3.695   2.592
10479SOL    HW232337   1.991   3.651   2.718
10480SOL     OW32338   5.622   6.559   2.632
10480SOL    HW132339   5.695   6.592   2.573
10480SOL    HW232340   5.534   6.571   2.587
10481SOL     OW32341   2.051   0.483   4.998
10481SOL    HW132342   1.963   0.481   4.951
10481SOL    HW232343   2.125   0.481   4.931
10482SOL     OW32344   1.074   6.166   4.773
10482SOL    HW132345   1.055   6.250   4.722
10482SOL    HW232346   0.995   6.104   4.766
10483SOL     OW32347   6.873   5.795   6.674
10483SOL    HW132348   6.858   5.715   6.731
10483SOL    HW232349   6.964   5.832   6.691
10484SOL     OW32350   0.689   1.390   1.987
10484SOL    HW132351   0.749   1.315   1.960
10484SOL    HW232352   0.727   1.476   1.953
10485SOL     OW32353   3.259   3.657   3.239
10485SOL    HW132354   3.327   3.723   3.270
10485SOL    HW232355   3.285   3.565   3.268
10486SOL     OW32356   6.313   6.360   4.929
10486SOL    HW132357   6.245   6.426   4.895
10486SOL    HW232358   6.318   6.283   4.866
10487SOL     OW32359   4.568   1.911   2.013
10487SOL    HW132360   4.477   1.878   1.989
10487SOL    HW232361   4.635   1.873   1.949
10488SOL     OW32362   6.915   2.298   5.748
10488SOL    HW132363   6.912   2.204   5.782
10488SOL    HW232364   7.009   2.331   5.749
10489SOL     OW32365   5.733   4.411   3.923
10489SOL    HW132366   5.676   4.475   3.870
10489SOL    HW232367   5.742   4.326   3.872
10490SOL     OW32368   5.583   6.341   6.360
10490SOL    HW132369   5.587   6.377   6.266
10490SOL    HW232370   5.660   6.377   6.412
10491SOL     OW32371   0.923   2.832   6.230
10491SOL    HW132372   0.984   2.775   6.174
10491SOL    HW232373   0.950   2.825   6.326
10492SOL     OW32374   4.125   0.663   0.553
10492SOL    HW132375   4.172   0.747   0.581
10492SOL    HW232376   4.034   0.662   0.592
10493SOL     OW32377   3.709   5.719   0.713
10493SOL    HW132378   3.732   5.798   0.656
10493SOL    HW232379   3.610   5.705   0.711
10494SOL     OW32380   0.819   4.139   5.736
10494SOL    HW132381   0.809   4.221   5.792
10494SOL    HW232382   0.733   4.119   5.690
10495SOL     OW32383   1.024   6.362   6.584
10495SOL    HW132384   0.934   6.320   6.576
10495SOL    HW232385   1.036   6.397   6.677
10496SOL     OW32386   6.906   3.721   5.448
10496SOL    HW132387   6.877   3.648   5.510
10496SOL    HW232388   6.979   3.687   5.389
10497SOL     OW32389   2.278   6.614   1.524
10497SOL    HW132390   2.277   6.540   1.458
10497SOL    HW232391   2.357   6.604   1.585
10498SOL     OW32392   4.238   5.857   0.498
10498SOL    HW132393   4.273   5.822   0.585
10498SOL    HW232394   4.214   5.781   0.438
10499SOL     OW32395   5.948   4.931   2.346
10499SOL    HW132396   5.870   4.931   2.284
10499SOL    HW232397   6.027   4.973   2.300
10500SOL     OW32398   6.362   4.291   6.097
10500SOL    HW132399   6.358   4.348   6.179
10500SOL    HW232400   6.322   4.341   6.020
10501SOL     OW32401   3.029   5.152   2.636
10501SOL    HW132402   3.014   5.053   2.637
10501SOL    HW232403   3.099   5.175   2.703
10502SOL     OW32404   2.922   3.725   2.355
10502SOL    HW132405   2.983   3.751   2.429
10502SOL    HW232406   2.828   3.749   2.380
10503SOL     OW32407   6.137   2.796   6.481
10503SOL    HW132408   6.059   2.770   6.424
10503SOL    HW232409   6.151   2.895   6.476
10504SOL     OW32410   1.388   2.737   6.450
10504SOL    HW132411   1.459   2.801   6.479
10504SOL    HW232412   1.430   2.666   6.393
10505SOL     OW32413   6.177   6.265   1.185
10505SOL    HW132414   6.102   6.314   1.141
10505SOL    HW232415   6.148   6.233   1.275
10506SOL     OW32416   1.144   2.621   0.815
10506SOL    HW132417   1.055   2.587   0.843
10506SOL    HW232418   1.174   2.573   0.732
10507SOL     OW32419   1.490   4.540   6.062
10507SOL    HW132420   1.440   4.622   6.087
10507SOL    HW232421   1.442   4.459   6.096
10508SOL     OW32422   1.138   5.555   4.791
10508SOL    HW132423   1.076   5.516   4.724
10508SOL    HW232424   1.148   5.653   4.775
10509SOL     OW32425   5.161   3.013   3.477
10509SOL    HW132426   5.164   2.925   3.524
10509SOL    HW232427   5.211   3.007   3.391
10510SOL     OW32428   5.176   5.745   4.260
10510SOL    HW132429   5.189   5.740   4.359
10510SOL    HW232430   5.079   5.750   4.239
10511SOL     OW32431   3.690   2.092   2.283
10511SOL    HW132432   3.682   1.998   2.249
10511SOL    HW232433   3.692   2.156   2.206
10512SOL     OW32434   4.450   0.929   4.692
10512SOL    HW132435   4.481   0.848   4.742
10512SOL    HW232436   4.361   0.911   4.651
10513SOL     OW32437   5.555   3.151   1.658
10513SOL    HW132438   5.642   3.198   1.669
10513SOL    HW232439   5.513   3.138   1.748
10514SOL     OW32440   0.880   3.343   1.590
10514SOL    HW132441   0.868   3.257   1.641
10514SOL    HW232442   0.870   3.420   1.653
10515SOL     OW32443   1.762   2.870   4.944
10515SOL    HW132444   1.747   2.949   4.886
10515SOL    HW232445   1.837   2.889   5.008
10516SOL     OW32446   3.550   2.042   1.221
10516SOL    HW132447   3.564   2.139   1.204
10516SOL    HW232448   3.509   2.029   1.311
10517SOL     OW32449   0.903   2.916   3.494
10517SOL    HW132450   0.881   2.818   3.487
10517SOL    HW232451   1.002   2.927   3.494
10518SOL     OW32452   0.863   5.510   2.582
10518SOL    HW132453   0.894   5.605   2.571
10518SOL    HW232454   0.941   5.453   2.611
10519SOL     OW32455   2.796   6.310   1.284
10519SOL    HW132456   2.882   6.353   1.311
10519SOL    HW232457   2.800   6.284   1.187
10520SOL     OW32458   0.434   1.757   5.244
10520SOL    HW132459   0.511   1.701   5.215
10520SOL    HW232460   0.368   1.766   5.169
10521SOL     OW32461   6.069   3.221   1.013
10521SOL    HW132462   6.088   3.314   1.046
10521SOL    HW232463   6.091   3.215   0.916
10522SOL     OW32464   5.065   2.607   3.916
10522SOL    HW132465   5.141   2.566   3.867
10522SOL    HW232466   4.980   2.564   3.888
10523SOL     OW32467   6.778   4.884   3.348
10523SOL    HW132468   6.758   4.933   3.433
10523SOL    HW232469   6.878   4.876   3.338
10524SOL     OW32470   6.269   6.733   4.617
10524SOL    HW132471   6.184   6.747   4.567
10524SOL    HW232472   6.343   6.712   4.552
10525SOL     OW32473   4.579   1.513   4.739
10525SOL    HW132474   4.527   1.510   4.654
10525SOL    HW232475   4.531   1.461   4.810
10526SOL     OW32476   1.421   5.046   0.444
10526SOL    HW132477   1.498   5.059   0.506
10526SOL    HW232478   1.391   5.134   0.409
10527SOL     OW32479   0.506   0.308   4.636
10527SOL    HW132480   0.509   0.313   4.536
10527SOL    HW232481   0.416   0.340   4.668
10528SOL     OW32482   0.945   3.695   5.814
10528SOL    HW132483   0.941   3.660   5.721
10528SOL    HW232484   0.878   3.767   5.826
10529SOL     OW32485   1.019   6.071   6.964
10529SOL    HW132486   1.040   6.163   6.996
10529SOL    HW232487   1.050   6.061   6.870
10530SOL     OW32488   0.273   6.642   0.580
10530SOL    HW132489   0.288   6.633   0.482
10530SOL    HW232490   0.264   6.739   0.604
10531SOL     OW32491   2.663   2.731   5.349
10531SOL    HW132492   2.745   2.677   5.368
10531SOL    HW232493   2.689   2.825   5.326
10532SOL     OW32494   5.463   5.920   6.681
10532SOL    HW132495   5.478   5.964   6.770
10532SOL    HW232496   5.536   5.946   6.618
10533SOL     OW32497   2.796   5.194   3.321
10533SOL    HW132498   2.732   5.221   3.393
10533SOL    HW232499   2.765   5.230   3.233
10534SOL     OW32500   1.140   6.072   2.583
10534SOL    HW132501   1.168   6.144   2.520
10534SOL    HW232502   1.043   6.051   2.570
10535SOL     OW32503   2.961   2.113   2.909
10535SOL    HW132504   2.862   2.108   2.898
10535SOL    HW232505   3.003   2.142   2.823
10536SOL     OW32506   5.449   1.609   4.067
10536SOL    HW132507   5.371   1.672   4.067
10536SOL    HW232508   5.477   1.591   3.973
10537SOL     OW32509   4.378   0.114   3.257
10537SOL    HW132510   4.455   0.178   3.252
10537SOL    HW232511   4.317   0.141   3.332
10538SOL     OW32512   6.403   3.264   2.775
10538SOL    HW132513   6.485   3.255   2.719
10538SOL    HW232514   6.371   3.173   2.802
10539SOL     OW32515   6.781   0.394   3.010
10539SOL    HW132516   6.737   0.306   2.995
10539SOL    HW232517   6.848   0.410   2.938
10540SOL     OW32518   2.638   3.547   5.949
10540SOL    HW132519   2.703   3.475   5.925
10540SOL    HW232520   2.686   3.635   5.957
10541SOL     OW32521   3.277   3.159   5.270
10541SOL    HW132522   3.239   3.074   5.306
10541SOL    HW232523   3.347   3.138   5.202
10542SOL     OW32524   5.063   6.899   4.129
10542SOL    HW132525   5.071   6.999   4.140
10542SOL    HW232526   5.108   6.854   4.206
10543SOL     OW32527   0.630   3.339   5.120
10543SOL    HW132528   0.537   3.356   5.087
10543SOL    HW232529   0.681   3.286   5.052
10544SOL     OW32530   1.811   0.646   3.407
10544SOL    HW132531   1.794   0.604   3.496
10544SOL    HW232532   1.728   0.644   3.352
10545SOL     OW32533   1.951   2.189   2.709
10545SOL    HW132534   1.989   2.279   2.731
10545SOL    HW232535   2.020   2.119   2.725
10546SOL     OW32536   3.285   0.035   0.356
10546SOL    HW132537   3.227   7.008   0.292
10546SOL    HW232538   3.255   0.131   0.360
10547SOL     OW32539   3.850   0.086   5.277
10547SOL    HW132540   3.859   0.185   5.266
10547SOL    HW232541   3.820   0.045   5.191
10548SOL     OW32542   0.865   4.891   4.502
10548SOL    HW132543   0.904   4.825   4.438
10548SOL    HW232544   0.808   4.842   4.569
10549SOL     OW32545   0.217   1.178   1.058
10549SOL    HW132546   0.267   1.162   1.143
10549SOL    HW232547   0.263   1.130   0.983
10550SOL     OW32548   3.956   6.064   3.437
10550SOL    HW132549   3.998   5.976   3.459
10550SOL    HW232550   4.005   6.137   3.483
10551SOL     OW32551   3.114   2.024   5.960
10551SOL    HW132552   3.061   2.017   5.876
10551SOL    HW232553   3.113   1.937   6.008
10552SOL     OW32554   3.332   0.648   4.463
10552SOL    HW132555   3.287   0.644   4.551
10552SOL    HW232556   3.417   0.701   4.471
10553SOL     OW32557   0.359   5.205   0.371
10553SOL    HW132558   0.324   5.130   0.426
10553SOL    HW232559   0.303   5.287   0.386
10554SOL     OW32560   6.125   5.236   2.877
10554SOL    HW132561   6.159   5.184   2.798
10554SOL    HW232562   6.182   5.216   2.957
10555SOL     OW32563   3.624   2.895   0.326
10555SOL    HW132564   3.547   2.957   0.341
10555SOL    HW232565   3.693   2.910   0.397
10556SOL     OW32566   2.003   1.771   3.262
10556SOL    HW132567   2.044   1.739   3.176
10556SOL    HW232568   2.023   1.868   3.274
10557SOL     OW32569   2.123   3.968   4.032
10557SOL    HW132570   2.051   4.020   3.986
10557SOL    HW232571   2.206   4.023   4.036
10558SOL     OW32572   2.365   5.432   5.861
10558SOL    HW132573   2.313   5.500   5.913
10558SOL    HW232574   2.463   5.448   5.874
10559SOL     OW32575   4.387   6.665   5.926
10559SOL    HW132576   4.313   6.625   5.980
10559SOL    HW232577   4.380   6.765   5.926
10560SOL     OW32578   5.405   6.133   2.116
10560SOL    HW132579   5.339   6.171   2.180
10560SOL    HW232580   5.476   6.200   2.097
10561SOL     OW32581   5.990   4.514   0.237
10561SOL    HW132582   5.922   4.585   0.218
10561SOL    HW232583   5.996   4.452   0.159
10562SOL     OW32584   3.769   6.301   2.251
10562SOL    HW132585   3.833   6.345   2.314
10562SOL    HW232586   3.748   6.209   2.284
10563SOL     OW32587   0.165   0.131   1.132
10563SOL    HW132588   0.245   0.101   1.184
10563SOL    HW232589   0.085   0.077   1.159
10564SOL     OW32590   5.985   5.614   4.183
10564SOL    HW132591   5.981   5.551   4.261
10564SOL    HW232592   5.993   5.708   4.217
10565SOL     OW32593   0.583   6.865   5.235
10565SOL    HW132594   0.562   6.948   5.286
10565SOL    HW232595   0.553   6.876   5.140
10566SOL     OW32596   2.702   3.324   0.370
10566SOL    HW132597   2.720   3.296   0.464
10566SOL    HW232598   2.716   3.246   0.309
10567SOL     OW32599   0.943   2.126   6.373
10567SOL    HW132600   0.961   2.223   6.359
10567SOL    HW232601   0.989   2.072   6.303
10568SOL     OW32602   5.526   2.228   5.808
10568SOL    HW132603   5.506   2.225   5.711
10568SOL    HW232604   5.622   2.205   5.824
10569SOL     OW32605   5.471   6.505   1.296
10569SOL    HW132606   5.479   6.460   1.207
10569SOL    HW232607   5.563   6.523   1.333
10570SOL     OW32608   0.834   4.682   3.757
10570SOL    HW132609   0.794   4.601   3.800
10570SOL    HW232610   0.813   4.682   3.659
10571SOL     OW32611   0.070   3.963   5.990
10571SOL    HW132612   0.025   4.019   6.059
10571SOL    HW232613   0.160   3.935   6.022
10572SOL     OW32614   5.824   4.448   0.848
10572SOL    HW132615   5.848   4.358   0.885
10572SOL    HW232616   5.742   4.440   0.792
10573SOL     OW32617   5.421   1.241   3.705
10573SOL    HW132618   5.494   1.174   3.690
10573SOL    HW232619   5.410   1.296   3.622
10574SOL     OW32620   0.087   1.732   3.837
10574SOL    HW132621   0.092   1.736   3.936
10574SOL    HW232622   0.015   1.793   3.804
10575SOL     OW32623   6.255   0.768   1.535
10575SOL    HW132624   6.200   0.689   1.561
10575SOL    HW232625   6.283   0.761   1.440
10576SOL     OW32626   2.461   4.376   4.084
10576SOL    HW132627   2.438   4.470   4.108
10576SOL    HW232628   2.555   4.356   4.112
10577SOL     OW32629   4.005   6.325   0.548
10577SOL    HW132630   4.003   6.406   0.489
10577SOL    HW232631   3.919   6.274   0.537
10578SOL     OW32632   6.542   3.160   4.369
10578SOL    HW132633   6.462   3.215   4.396
10578SOL    HW232634   6.567   3.182   4.275
10579SOL     OW32635   1.736   3.603   0.347
10579SOL    HW132636   1.741   3.677   0.279
10579SOL    HW232637   1.751   3.640   0.438
10580SOL     OW32638   6.619   6.845   6.630
10580SOL    HW132639   6.538   6.790   6.653
10580SOL    HW232640   6.619   6.929   6.683
10581SOL     OW32641   5.561   6.910   3.028
10581SOL    HW132642   5.511   6.986   3.070
10581SOL    HW232643   5.651   6.942   2.999
10582SOL     OW32644   5.542   4.434   6.544
10582SOL    HW132645   5.452   4.458   6.580
10582SOL    HW232646   5.574   4.507   6.483
10583SOL     OW32647   2.950   1.450   5.552
10583SOL    HW132648   3.038   1.404   5.543
10583SOL    HW232649   2.952   1.535   5.499
10584SOL     OW32650   0.252   0.015   5.358
10584SOL    HW132651   0.218   0.077   5.429
10584SOL    HW232652   0.352   0.021   5.353
10585SOL     OW32653   0.682   0.341   5.282
10585SOL    HW132654   0.674   0.326   5.183
10585SOL    HW232655   0.618   0.413   5.310
10586SOL     OW32656   4.302   4.494   5.443
10586SOL    HW132657   4.234   4.511   5.514
10586SOL    HW232658   4.256   4.481   5.355
10587SOL     OW32659   1.662   5.794   5.410
10587SOL    HW132660   1.570   5.775   5.444
10587SOL    HW232661   1.677   5.744   5.324
10588SOL     OW32662   1.145   4.574   4.616
10588SOL    HW132663   1.232   4.526   4.622
10588SOL    HW232664   1.157   4.658   4.562
10589SOL     OW32665   5.568   6.030   3.761
10589SOL    HW132666   5.486   5.986   3.799
10589SOL    HW232667   5.650   5.991   3.805
10590SOL     OW32668   0.942   5.425   3.006
10590SOL    HW132669   0.997   5.362   3.061
10590SOL    HW232670   0.981   5.432   2.915
10591SOL     OW32671   1.148   2.103   1.640
10591SOL    HW132672   1.083   2.165   1.685
10591SOL    HW232673   1.199   2.153   1.570
10592SOL     OW32674   6.050   2.431   5.148
10592SOL    HW132675   6.093   2.463   5.063
10592SOL    HW232676   6.012   2.509   5.197
10593SOL     OW32677   3.417   6.063   2.251
10593SOL    HW132678   3.342   5.997   2.253
10593SOL    HW232679   3.429   6.098   2.158
10594SOL     OW32680   3.148   0.453   3.855
10594SOL    HW132681   3.144   0.523   3.784
10594SOL    HW232682   3.111   0.367   3.820
10595SOL     OW32683   6.268   6.796   0.879
10595SOL    HW132684   6.184   6.782   0.826
10595SOL    HW232685   6.288   6.714   0.933
10596SOL     OW32686   5.392   2.335   7.007
10596SOL    HW132687   5.474   2.333   0.040
10596SOL    HW232688   5.361   2.430   6.996
10597SOL     OW32689   2.232   0.719   6.053
10597SOL    HW132690   2.297   0.642   6.054
10597SOL    HW232691   2.139   0.685   6.067
10598SOL     OW32692   2.433   1.921   6.186
10598SOL    HW132693   2.520   1.874   6.202
10598SOL    HW232694   2.406   1.969   6.269
10599SOL     OW32695   6.642   3.252   6.318
10599SOL    HW132696   6.716   3.308   6.355
10599SOL    HW232697   6.681   3.183   6.257
10600SOL     OW32698   3.113   1.882   1.247
10600SOL    HW132699   3.029   1.919   1.206
10600SOL    HW232700   3.190   1.900   1.187
10601SOL     OW32701   0.590   5.987   5.883
10601SOL    HW132702   0.624   5.931   5.959
10601SOL    HW232703   0.647   6.069   5.874
10602SOL     OW32704   0.330   0.503   1.203
10602SOL    HW132705   0.289   0.531   1.116
10602SOL    HW232706   0.290   0.556   1.277
10603SOL     OW32707   4.951   6.911   2.071
10603SOL    HW132708   4.866   6.923   2.020
10603SOL    HW232709   4.950   6.971   2.151
10604SOL     OW32710   5.860   6.982   4.698
10604SOL    HW132711   5.840   0.026   4.626
10604SOL    HW232712   5.912   0.003   4.770
10605SOL     OW32713   2.325   1.989   1.316
10605SOL    HW132714   2.421   1.961   1.323
10605SOL    HW232715   2.317   2.085   1.345
10606SOL     OW32716   6.176   0.691   0.785
10606SOL    HW132717   6.106   0.623   0.760
10606SOL    HW232718   6.258   0.644   0.816
10607SOL     OW32719   3.778   3.981   6.496
10607SOL    HW132720   3.822   3.920   6.562
10607SOL    HW232721   3.782   3.941   6.405
10608SOL     OW32722   5.737   3.444   3.263
10608SOL    HW132723   5.667   3.397   3.316
10608SOL    HW232724   5.699   3.471   3.175
10609SOL     OW32725   4.218   1.662   6.770
10609SOL    HW132726   4.249   1.579   6.724
10609SOL    HW232727   4.246   1.742   6.717
10610SOL     OW32728   0.849   0.532   4.364
10610SOL    HW132729   0.892   0.522   4.275
10610SOL    HW232730   0.812   0.443   4.393
10611SOL     OW32731   3.451   5.714   4.929
10611SOL    HW132732   3.370   5.699   4.872
10611SOL    HW232733   3.453   5.647   5.003
10612SOL     OW32734   5.977   1.783   3.348
10612SOL    HW132735   5.931   1.871   3.337
10612SOL    HW232736   5.909   1.709   3.340
10613SOL     OW32737   5.709   0.527   4.504
10613SOL    HW132738   5.776   0.540   4.430
10613SOL    HW232739   5.687   0.430   4.511
10614SOL     OW32740   4.352   0.718   6.557
10614SOL    HW132741   4.352   0.811   6.521
10614SOL    HW232742   4.432   0.704   6.616
10615SOL     OW32743   1.554   1.802   6.194
10615SOL    HW132744   1.638   1.784   6.141
10615SOL    HW232745   1.578   1.845   6.280
10616SOL     OW32746   2.880   6.679   6.402
10616SOL    HW132747   2.980   6.669   6.395
10616SOL    HW232748   2.854   6.683   6.498
10617SOL     OW32749   2.956   3.512   1.463
10617SOL    HW132750   2.932   3.551   1.374
10617SOL    HW232751   2.950   3.413   1.459
10618SOL     OW32752   0.523   5.265   5.219
10618SOL    HW132753   0.539   5.362   5.201
10618SOL    HW232754   0.591   5.233   5.285
10619SOL     OW32755   1.356   2.413   3.277
10619SOL    HW132756   1.439   2.426   3.331
10619SOL    HW232757   1.377   2.420   3.180
10620SOL     OW32758   2.411   0.822   0.120
10620SOL    HW132759   2.338   0.834   0.188
10620SOL    HW232760   2.373   0.834   0.029
10621SOL     OW32761   0.774   3.565   3.435
10621SOL    HW132762   0.760   3.480   3.385
10621SOL    HW232763   0.727   3.640   3.388
10622SOL     OW32764   4.547   2.898   0.300
10622SOL    HW132765   4.562   2.956   0.220
10622SOL    HW232766   4.465   2.842   0.286
10623SOL     OW32767   5.347   6.283   6.457
10623SOL    HW132768   5.312   6.364   6.505
10623SOL    HW232769   5.427   6.309   6.403
10624SOL     OW32770   0.453   2.430   5.465
10624SOL    HW132771   0.492   2.519   5.489
10624SOL    HW232772   0.497   2.395   5.382
10625SOL     OW32773   6.454   4.774   6.683
10625SOL    HW132774   6.472   4.692   6.737
10625SOL    HW232775   6.524   4.784   6.612
10626SOL     OW32776   5.436   3.416   1.349
10626SOL    HW132777   5.428   3.372   1.438
10626SOL    HW232778   5.464   3.349   1.280
10627SOL     OW32779   5.504   6.200   5.992
10627SOL    HW132780   5.549   6.174   5.906
10627SOL    HW232781   5.546   6.151   6.068
10628SOL     OW32782   4.437   6.951   1.101
10628SOL    HW132783   4.437   6.886   1.025
10628SOL    HW232784   4.500   0.002   1.082
10629SOL     OW32785   2.805   5.438   4.343
10629SOL    HW132786   2.852   5.526   4.336
10629SOL    HW232787   2.870   5.367   4.371
10630SOL     OW32788   4.139   0.392   2.808
10630SOL    HW132789   4.085   0.311   2.831
10630SOL    HW232790   4.211   0.405   2.875
10631SOL     OW32791   4.569   6.150   6.828
10631SOL    HW132792   4.520   6.225   6.872
10631SOL    HW232793   4.516   6.117   6.749
10632SOL     OW32794   4.223   5.790   3.322
10632SOL    HW132795   4.278   5.764   3.402
10632SOL    HW232796   4.157   5.718   3.302
10633SOL     OW32797   1.678   2.921   1.556
10633SOL    HW132798   1.750   2.985   1.532
10633SOL    HW232799   1.666   2.919   1.656
10634SOL     OW32800   6.894   4.358   6.751
10634SOL    HW132801   6.940   4.401   6.828
10634SOL    HW232802   6.833   4.424   6.708
10635SOL     OW32803   2.522   3.978   6.655
10635SOL    HW132804   2.429   4.011   6.671
10635SOL    HW232805   2.575   4.049   6.609
10636SOL     OW32806   6.662   2.539   6.425
10636SOL    HW132807   6.681   2.454   6.474
10636SOL    HW232808   6.700   2.616   6.475
10637SOL     OW32809   2.950   0.450   6.955
10637SOL    HW132810   3.024   0.515   6.940
10637SOL    HW232811   2.904   0.470   0.018
10638SOL     OW32812   6.969   5.148   1.655
10638SOL    HW132813   6.945   5.164   1.750
10638SOL    HW232814   6.952   5.052   1.632
10639SOL     OW32815   1.965   4.247   1.044
10639SOL    HW132816   2.035   4.217   1.109
10639SOL    HW232817   1.999   4.236   0.951
10640SOL     OW32818   3.995   6.985   3.385
10640SOL    HW132819   4.065   6.916   3.400
10640SOL    HW232820   4.002   7.020   3.291
10641SOL     OW32821   1.212   0.173   3.588
10641SOL    HW132822   1.163   0.222   3.516
10641SOL    HW232823   1.266   0.099   3.548
10642SOL     OW32824   5.521   2.328   6.763
10642SOL    HW132825   5.573   2.413   6.765
10642SOL    HW232826   5.461   2.323   6.843
10643SOL     OW32827   1.683   5.009   6.038
10643SOL    HW132828   1.750   5.031   5.968
10643SOL    HW232829   1.688   5.077   6.111
10644SOL     OW32830   0.546   2.465   3.003
10644SOL    HW132831   0.516   2.377   3.039
10644SOL    HW232832   0.480   2.536   3.028
10645SOL     OW32833   2.540   2.439   3.663
10645SOL    HW132834   2.550   2.493   3.747
10645SOL    HW232835   2.474   2.366   3.678
10646SOL     OW32836   5.166   1.276   4.285
10646SOL    HW132837   5.239   1.300   4.221
10646SOL    HW232838   5.083   1.327   4.260
10647SOL     OW32839   3.954   5.314   4.598
10647SOL    HW132840   3.986   5.366   4.519
10647SOL    HW232841   3.880   5.364   4.643
10648SOL     OW32842   5.661   5.692   5.221
10648SOL    HW132843   5.576   5.676   5.271
10648SOL    HW232844   5.654   5.777   5.169
10649SOL     OW32845   6.990   3.902   2.948
10649SOL    HW132846   6.975   3.815   2.901
10649SOL    HW232847   0.001   3.885   3.040
10650SOL     OW32848   6.980   1.021   4.215
10650SOL    HW132849   6.959   0.927   4.242
10650SOL    HW232850   0.009   1.066   4.287
10651SOL     OW32851   3.800   5.938   5.806
10651SOL    HW132852   3.710   5.935   5.763
10651SOL    HW232853   3.837   5.846   5.812
10652SOL     OW32854   1.862   6.890   6.965
10652SOL    HW132855   1.846   6.988   6.950
10652SOL    HW232856   1.953   6.866   6.933
10653SOL     OW32857   3.794   6.120   4.456
10653SOL    HW132858   3.729   6.161   4.392
10653SOL    HW232859   3.865   6.186   4.479
10654SOL     OW32860   5.973   1.970   4.673
10654SOL    HW132861   5.971   1.956   4.772
10654SOL    HW232862   5.882   1.993   4.640
10655SOL     OW32863   0.914   4.656   1.314
10655SOL    HW132864   1.002   4.703   1.323
10655SOL    HW232865   0.844   4.722   1.287
10656SOL     OW32866   6.647   1.333   1.710
10656SOL    HW132867   6.587   1.254   1.713
10656SOL    HW232868   6.636   1.379   1.621
10657SOL     OW32869   5.847   0.849   3.673
10657SOL    HW132870   5.885   0.880   3.586
10657SOL    HW232871   5.780   0.776   3.655
10658SOL     OW32872   6.584   3.443   5.178
10658SOL    HW132873   6.532   3.500   5.241
10658SOL    HW232874   6.677   3.480   5.168
10659SOL     OW32875   1.102   5.418   1.087
10659SOL    HW132876   1.165   5.473   1.142
10659SOL    HW232877   1.008   5.443   1.109
10660SOL     OW32878   6.816   3.477   5.567
10660SOL    HW132879   6.740   3.417   5.542
10660SOL    HW232880   6.870   3.434   5.639
10661SOL     OW32881   1.858   3.566   6.917
10661SOL    HW132882   1.903   3.643   6.960
10661SOL    HW232883   1.799   3.598   6.843
10662SOL     OW32884   2.653   1.418   3.283
10662SOL    HW132885   2.591   1.455   3.352
10662SOL    HW232886   2.716   1.490   3.254
10663SOL     OW32887   1.835   1.445   4.197
10663SOL    HW132888   1.752   1.414   4.244
10663SOL    HW232889   1.909   1.381   4.214
10664SOL     OW32890   1.356   5.235   4.397
10664SOL    HW132891   1.298   5.185   4.461
10664SOL    HW232892   1.302   5.306   4.351
10665SOL     OW32893   2.225   2.498   6.384
10665SOL    HW132894   2.183   2.494   6.475
10665SOL    HW232895   2.168   2.445   6.320
10666SOL     OW32896   3.700   3.712   2.251
10666SOL    HW132897   3.616   3.755   2.219
10666SOL    HW232898   3.779   3.763   2.217
10667SOL     OW32899   5.793   2.164   2.822
10667SOL    HW132900   5.803   2.186   2.919
10667SOL    HW232901   5.706   2.199   2.788
10668SOL     OW32902   3.255   2.236   5.390
10668SOL    HW132903   3.270   2.160   5.327
10668SOL    HW232904   3.216   2.314   5.340
10669SOL     OW32905   5.320   0.882   1.051
10669SOL    HW132906   5.406   0.835   1.030
10669SOL    HW232907   5.325   0.919   1.144
10670SOL     OW32908   4.859   3.793   4.332
10670SOL    HW132909   4.914   3.852   4.271
10670SOL    HW232910   4.763   3.816   4.322
10671SOL     OW32911   1.163   1.779   4.107
10671SOL    HW132912   1.092   1.791   4.038
10671SOL    HW232913   1.190   1.683   4.112
10672SOL     OW32914   5.786   3.548   1.985
10672SOL    HW132915   5.699   3.504   2.003
10672SOL    HW232916   5.858   3.503   2.038
10673SOL     OW32917   1.818   1.385   1.366
10673SOL    HW132918   1.891   1.333   1.322
10673SOL    HW232919   1.848   1.415   1.457
10674SOL     OW32920   3.768   3.291   4.638
10674SOL    HW132921   3.807   3.353   4.570
10674SOL    HW232922   3.842   3.250   4.692
10675SOL     OW32923   3.566   0.070   5.844
10675SOL    HW132924   3.517   0.065   5.931
10675SOL    HW232925   3.579   0.165   5.818
10676SOL     OW32926   1.384   6.130   5.672
10676SOL    HW132927   1.455   6.059   5.666
10676SOL    HW232928   1.391   6.191   5.593
10677SOL     OW32929   0.694   2.044   0.575
10677SOL    HW132930   0.731   2.108   0.642
10677SOL    HW232931   0.680   1.955   0.619
10678SOL     OW32932   4.116   5.406   3.547
10678SOL    HW132933   4.213   5.388   3.534
10678SOL    HW232934   4.067   5.321   3.562
10679SOL     OW32935   4.673   4.188   0.001
10679SOL    HW132936   4.684   4.276   6.978
10679SOL    HW232937   4.750   4.173   0.063
10680SOL     OW32938   3.614   1.714   4.212
10680SOL    HW132939   3.611   1.687   4.116
10680SOL    HW232940   3.522   1.709   4.251
10681SOL     OW32941   6.508   3.159   6.540
10681SOL    HW132942   6.560   3.175   6.457
10681SOL    HW232943   6.411   3.145   6.518
10682SOL     OW32944   6.112   3.161   5.629
10682SOL    HW132945   6.021   3.140   5.664
10682SOL    HW232946   6.130   3.104   5.548
10683SOL     OW32947   3.623   0.743   3.182
10683SOL    HW132948   3.694   0.678   3.205
10683SOL    HW232949   3.538   0.718   3.228
10684SOL     OW32950   5.126   4.519   0.879
10684SOL    HW132951   5.206   4.579   0.880
10684SOL    HW232952   5.075   4.530   0.963
10685SOL     OW32953   0.470   5.367   1.530
10685SOL    HW132954   0.440   5.278   1.564
10685SOL    HW232955   0.568   5.378   1.550
10686SOL     OW32956   2.045   4.079   0.521
10686SOL    HW132957   2.022   4.014   0.449
10686SOL    HW232958   2.132   4.124   0.499
10687SOL     OW32959   6.739   4.750   2.949
10687SOL    HW132960   6.703   4.716   3.035
10687SOL    HW232961   6.834   4.779   2.962
10688SOL     OW32962   5.720   1.747   2.326
10688SOL    HW132963   5.689   1.842   2.318
10688SOL    HW232964   5.640   1.687   2.336
10689SOL     OW32965   0.029   0.031   2.018
10689SOL    HW132966   7.001   6.969   2.024
10689SOL    HW232967   0.088   0.040   2.099
10690SOL     OW32968   6.606   5.951   3.299
10690SOL    HW132969   6.514   5.983   3.274
10690SOL    HW232970   6.603   5.906   3.388
10691SOL     OW32971   3.454   1.805   2.506
10691SOL    HW132972   3.498   1.893   2.526
10691SOL    HW232973   3.362   1.805   2.544
10692SOL     OW32974   2.754   0.931   5.148
10692SOL    HW132975   2.763   0.850   5.205
10692SOL    HW232976   2.802   1.008   5.191
10693SOL     OW32977   1.082   5.675   1.417
10693SOL    HW132978   1.136   5.692   1.335
10693SOL    HW232979   1.142   5.667   1.496
10694SOL     OW32980   4.941   5.982   5.769
10694SOL    HW132981   4.906   5.932   5.849
10694SOL    HW232982   4.865   6.014   5.714
10695SOL     OW32983   0.790   3.515   1.391
10695SOL    HW132984   0.719   3.480   1.330
10695SOL    HW232985   0.824   3.440   1.448
10696SOL     OW32986   6.676   4.308   4.891
10696SOL    HW132987   6.603   4.242   4.874
10696SOL    HW232988   6.664   4.349   4.981
10697SOL     OW32989   0.869   5.957   5.021
10697SOL    HW132990   0.897   5.889   5.089
10697SOL    HW232991   0.920   5.942   4.936
10698SOL     OW32992   5.033   4.517   6.721
10698SOL    HW132993   4.943   4.538   6.682
10698SOL    HW232994   5.029   4.429   6.768
10699SOL     OW32995   3.602   4.245   0.955
10699SOL    HW132996   3.515   4.274   0.995
10699SOL    HW232997   3.599   4.148   0.933
10700SOL     OW32998   5.762   6.452   0.260
10700SOL    HW132999   5.777   6.359   0.293
10700SOL    HW233000   5.850   6.496   0.241
10701SOL     OW33001   2.554   0.027   6.454
10701SOL    HW133002   2.587   0.114   6.491
10701SOL    HW233003   2.463   0.040   6.415
10702SOL     OW33004   4.976   3.011   2.776
10702SOL    HW133005   4.915   2.961   2.715
10702SOL    HW233006   4.976   3.108   2.752
10703SOL     OW33007   2.127   2.230   5.778
10703SOL    HW133008   2.125   2.315   5.830
10703SOL    HW233009   2.145   2.153   5.839
10704SOL     OW33010   6.863   5.612   2.469
10704SOL    HW133011   6.779   5.631   2.519
10704SOL    HW233012   6.888   5.516   2.481
10705SOL     OW33013   5.691   4.870   1.021
10705SOL    HW133014   5.618   4.921   0.975
10705SOL    HW233015   5.759   4.934   1.056
10706SOL     OW33016   4.310   0.112   2.018
10706SOL    HW133017   4.403   0.138   1.992
10706SOL    HW233018   4.281   0.032   1.966
10707SOL     OW33019   6.433   7.006   4.691
10707SOL    HW133020   6.427   0.072   4.646
10707SOL    HW233021   6.371   6.942   4.646
10708SOL     OW33022   4.939   1.822   2.422
10708SOL    HW133023   4.937   1.785   2.329
10708SOL    HW233024   5.028   1.803   2.463
10709SOL     OW33025   5.544   5.610   4.006
10709SOL    HW133026   5.516   5.627   3.911
10709SOL    HW233027   5.618   5.673   4.030
10710SOL     OW33028   5.461   0.703   3.232
10710SOL    HW133029   5.555   0.686   3.205
10710SOL    HW233030   5.459   0.770   3.307
10711SOL     OW33031   2.759   6.716   3.728
10711SOL    HW133032   2.670   6.682   3.759
10711SOL    HW233033   2.773   6.690   3.632
10712SOL     OW33034   4.342   0.356   2.599
10712SOL    HW133035   4.264   0.366   2.662
10712SOL    HW233036   4.416   0.416   2.629
10713SOL     OW33037   1.394   3.042   0.475
10713SOL    HW133038   1.383   2.992   0.389
10713SOL    HW233039   1.339   3.126   0.471
10714SOL     OW33040   4.341   3.227   5.363
10714SOL    HW133041   4.360   3.129   5.363
10714SOL    HW233042   4.245   3.243   5.341
10715SOL     OW33043   5.025   0.079   2.253
10715SOL    HW133044   5.093   0.078   2.179
10715SOL    HW233045   5.070   0.098   2.340
10716SOL     OW33046   6.575   2.655   3.273
10716SOL    HW133047   6.497   2.707   3.307
10716SOL    HW233048   6.556   2.557   3.279
10717SOL     OW33049   2.017   3.060   0.560
10717SOL    HW133050   1.983   2.975   0.602
10717SOL    HW233051   1.943   3.104   0.510
10718SOL     OW33052   1.298   4.295   6.477
10718SOL    HW133053   1.296   4.394   6.493
10718SOL    HW233054   1.207   4.257   6.495
10719SOL     OW33055   6.132   5.872   3.596
10719SOL    HW133056   6.206   5.823   3.551
10719SOL    HW233057   6.044   5.828   3.576
10720SOL     OW33058   5.965   5.431   4.381
10720SOL    HW133059   5.946   5.426   4.480
10720SOL    HW233060   5.950   5.340   4.341
10721SOL     OW33061   4.970   3.862   5.419
10721SOL    HW133062   4.905   3.937   5.432
10721SOL    HW233063   5.027   3.880   5.339
10722SOL     OW33064   6.050   3.958   6.916
10722SOL    HW133065   6.130   3.900   6.913
10722SOL    HW233066   6.075   4.051   6.889
10723SOL     OW33067   6.789   1.994   6.469
10723SOL    HW133068   6.883   2.028   6.477
10723SOL    HW233069   6.742   2.045   6.397
10724SOL     OW33070   0.427   6.596   6.579
10724SOL    HW133071   0.502   6.575   6.642
10724SOL    HW233072   0.340   6.577   6.623
10725SOL     OW33073   1.961   5.618   5.379
10725SOL    HW133074   1.936   5.675   5.301
10725SOL    HW233075   2.052   5.579   5.364
10726SOL     OW33076   4.098   0.325   4.139
10726SOL    HW133077   4.081   0.409   4.192
10726SOL    HW233078   4.122   0.350   4.045
10727SOL     OW33079   0.750   4.782   6.523
10727SOL    HW133080   0.684   4.723   6.569
10727SOL    HW233081   0.786   4.848   6.589
10728SOL     OW33082   1.015   5.177   0.161
10728SOL    HW133083   0.934   5.233   0.180
10728SOL    HW233084   0.987   5.084   0.139
10729SOL     OW33085   6.359   1.549   2.074
10729SOL    HW133086   6.356   1.492   2.156
10729SOL    HW233087   6.414   1.503   2.004
10730SOL     OW33088   3.406   6.765   0.632
10730SOL    HW133089   3.436   6.859   0.612
10730SOL    HW233090   3.315   6.750   0.593
10731SOL     OW33091   3.695   0.745   1.074
10731SOL    HW133092   3.677   0.842   1.060
10731SOL    HW233093   3.665   0.718   1.165
10732SOL     OW33094   0.590   4.229   5.542
10732SOL    HW133095   0.660   4.295   5.515
10732SOL    HW233096   0.516   4.228   5.475
10733SOL     OW33097   6.208   1.211   6.651
10733SOL    HW133098   6.185   1.273   6.726
10733SOL    HW233099   6.266   1.137   6.685
10734SOL     OW33100   1.203   2.032   0.942
10734SOL    HW133101   1.300   2.048   0.955
10734SOL    HW233102   1.185   1.934   0.937
10735SOL     OW33103   0.353   2.661   2.269
10735SOL    HW133104   0.388   2.567   2.275
10735SOL    HW233105   0.309   2.686   2.355
10736SOL     OW33106   1.975   0.079   3.486
10736SOL    HW133107   1.927   0.162   3.457
10736SOL    HW233108   2.069   0.102   3.514
10737SOL     OW33109   0.831   1.819   0.963
10737SOL    HW133110   0.809   1.728   0.998
10737SOL    HW233111   0.817   1.887   1.035
10738SOL     OW33112   3.622   5.919   2.669
10738SOL    HW133113   3.588   5.846   2.729
10738SOL    HW233114   3.719   5.906   2.652
10739SOL     OW33115   1.713   2.068   1.399
10739SOL    HW133116   1.633   2.119   1.368
10739SOL    HW233117   1.758   2.118   1.473
10740SOL     OW33118   6.354   4.740   5.732
10740SOL    HW133119   6.299   4.656   5.742
10740SOL    HW233120   6.451   4.716   5.729
10741SOL     OW33121   4.518   1.092   1.670
10741SOL    HW133122   4.444   1.077   1.604
10741SOL    HW233123   4.581   1.015   1.667
10742SOL     OW33124   6.596   6.637   1.108
10742SOL    HW133125   6.544   6.556   1.080
10742SOL    HW233126   6.637   6.679   1.027
10743SOL     OW33127   1.730   1.578   5.170
10743SOL    HW133128   1.685   1.495   5.204
10743SOL    HW233129   1.816   1.552   5.124
10744SOL     OW33130   3.647   1.603   0.454
10744SOL    HW133131   3.594   1.519   0.435
10744SOL    HW233132   3.592   1.665   0.509
10745SOL     OW33133   0.314   5.117   5.719
10745SOL    HW133134   0.289   5.020   5.714
10745SOL    HW233135   0.303   5.149   5.813
10746SOL     OW33136   1.045   3.773   7.005
10746SOL    HW133137   0.980   3.716   0.031
10746SOL    HW233138   1.072   3.727   6.920
10747SOL     OW33139   3.172   0.573   4.986
10747SOL    HW133140   3.096   0.599   4.926
10747SOL    HW233141   3.257   0.613   4.952
10748SOL     OW33142   5.290   0.630   2.022
10748SOL    HW133143   5.256   0.542   1.990
10748SOL    HW233144   5.213   0.693   2.036
10749SOL     OW33145   0.605   6.213   4.766
10749SOL    HW133146   0.606   6.157   4.849
10749SOL    HW233147   0.678   6.182   4.704
10750SOL     OW33148   3.573   6.840   4.906
10750SOL    HW133149   3.558   6.816   5.002
10750SOL    HW233150   3.654   6.898   4.899
10751SOL     OW33151   2.092   4.251   4.144
10751SOL    HW133152   2.020   4.182   4.154
10751SOL    HW233153   2.050   4.342   4.142
10752SOL     OW33154   6.004   4.939   5.222
10752SOL    HW133155   5.969   4.849   5.198
10752SOL    HW233156   5.969   5.007   5.157
10753SOL     OW33157   0.255   4.429   4.278
10753SOL    HW133158   0.219   4.369   4.206
10753SOL    HW233159   0.308   4.503   4.236
10754SOL     OW33160   1.353   6.983   3.469
10754SOL    HW133161   1.401   6.917   3.528
10754SOL    HW233162   1.336   6.940   3.380
10755SOL     OW33163   6.761   0.426   1.513
10755SOL    HW133164   6.825   0.434   1.437
10755SOL    HW233165   6.798   0.475   1.592
10756SOL     OW33166   6.367   5.384   5.593
10756SOL    HW133167   6.331   5.466   5.637
10756SOL    HW233168   6.382   5.313   5.661
10757SOL     OW33169   2.832   2.354   0.004
10757SOL    HW133170   2.833   2.454   0.011
10757SOL    HW233171   2.738   2.322   7.023
10758SOL     OW33172   0.747   6.243   4.005
10758SOL    HW133173   0.812   6.245   3.929
10758SOL    HW233174   0.796   6.224   4.090
10759SOL     OW33175   1.632   3.350   0.434
10759SOL    HW133176   1.711   3.296   0.463
10759SOL    HW233177   1.662   3.442   0.408
10760SOL     OW33178   5.533   1.345   3.226
10760SOL    HW133179   5.606   1.378   3.285
10760SOL    HW233180   5.567   1.334   3.132
10761SOL     OW33181   0.727   5.549   5.538
10761SOL    HW133182   0.750   5.553   5.441
10761SOL    HW233183   0.676   5.465   5.556
10762SOL     OW33184   3.113   0.885   4.633
10762SOL    HW133185   3.029   0.830   4.634
10762SOL    HW233186   3.104   0.959   4.566
10763SOL     OW33187   4.279   0.021   2.938
10763SOL    HW133188   4.288   6.945   2.948
10763SOL    HW233189   4.284   0.045   2.841
10764SOL     OW33190   4.896   2.114   5.299
10764SOL    HW133191   4.959   2.055   5.348
10764SOL    HW233192   4.853   2.062   5.225
10765SOL     OW33193   4.974   2.740   0.998
10765SOL    HW133194   4.892   2.797   0.986
10765SOL    HW233195   5.002   2.743   1.093
10766SOL     OW33196   3.949   4.791   0.603
10766SOL    HW133197   3.956   4.891   0.594
10766SOL    HW233198   4.008   4.748   0.534
10767SOL     OW33199   2.489   0.700   1.169
10767SOL    HW133200   2.406   0.753   1.189
10767SOL    HW233201   2.474   0.605   1.197
10768SOL     OW33202   5.595   5.085   2.002
10768SOL    HW133203   5.641   5.006   2.044
10768SOL    HW233204   5.649   5.117   1.925
10769SOL     OW33205   1.718   3.635   5.685
10769SOL    HW133206   1.791   3.590   5.632
10769SOL    HW233207   1.736   3.733   5.689
10770SOL     OW33208   5.114   6.539   3.734
10770SOL    HW133209   5.187   6.564   3.797
10770SOL    HW233210   5.027   6.577   3.766
10771SOL     OW33211   3.843   0.301   3.756
10771SOL    HW133212   3.790   0.219   3.779
10771SOL    HW233213   3.791   0.382   3.781
10772SOL     OW33214   5.836   6.293   4.477
10772SOL    HW133215   5.809   6.294   4.381
10772SOL    HW233216   5.802   6.376   4.521
10773SOL     OW33217   5.915   4.857   6.184
10773SOL    HW133218   5.982   4.922   6.147
10773SOL    HW233219   5.923   4.854   6.284
10774SOL     OW33220   1.974   1.297   4.825
10774SOL    HW133221   1.992   1.390   4.857
10774SOL    HW233222   1.880   1.292   4.790
10775SOL     OW33223   0.562   4.244   2.389
10775SOL    HW133224   0.547   4.156   2.345
10775SOL    HW233225   0.659   4.265   2.392
10776SOL     OW33226   0.527   0.732   6.579
10776SOL    HW133227   0.459   0.707   6.647
10776SOL    HW233228   0.580   0.651   6.552
10777SOL     OW33229   3.705   5.419   0.992
10777SOL    HW133230   3.687   5.440   0.896
10777SOL    HW233231   3.618   5.399   1.038
10778SOL     OW33232   5.024   0.235   3.932
10778SOL    HW133233   4.996   0.196   4.020
10778SOL    HW233234   5.036   0.334   3.942
10779SOL     OW33235   5.786   3.099   3.054
10779SOL    HW133236   5.823   3.188   3.080
10779SOL    HW233237   5.860   3.040   3.021
10780SOL     OW33238   0.943   0.467   4.130
10780SOL    HW133239   0.988   0.383   4.160
10780SOL    HW233240   1.002   0.516   4.067
10781SOL     OW33241   3.834   1.118   3.116
10781SOL    HW133242   3.885   1.139   3.032
10781SOL    HW233243   3.870   1.173   3.191
10782SOL     OW33244   0.125   0.429   3.800
10782SOL    HW133245   0.093   0.382   3.718
10782SOL    HW233246   0.073   0.396   3.879
10783SOL     OW33247   0.178   2.963   2.856
10783SOL    HW133248   0.163   2.885   2.915
10783SOL    HW233249   0.275   2.988   2.858
10784SOL     OW33250   3.375   0.880   4.229
10784SOL    HW133251   3.319   0.949   4.275
10784SOL    HW233252   3.315   0.808   4.192
10785SOL     OW33253   0.989   3.802   0.865
10785SOL    HW133254   1.075   3.852   0.863
10785SOL    HW233255   0.966   3.772   0.773
10786SOL     OW33256   5.839   5.312   2.408
10786SOL    HW133257   5.740   5.308   2.401
10786SOL    HW233258   5.865   5.365   2.489
10787SOL     OW33259   0.831   0.254   5.481
10787SOL    HW133260   0.816   0.157   5.498
10787SOL    HW233261   0.782   0.281   5.398
10788SOL     OW33262   0.854   3.591   0.982
10788SOL    HW133263   0.760   3.619   1.002
10788SOL    HW233264   0.906   3.669   0.946
10789SOL     OW33265   6.099   3.107   6.671
10789SOL    HW133266   6.156   3.036   6.712
10789SOL    HW233267   6.102   3.189   6.729
10790SOL     OW33268   0.760   6.426   1.531
10790SOL    HW133269   0.723   6.515   1.554
10790SOL    HW233270   0.830   6.400   1.598
10791SOL     OW33271   6.843   5.898   2.311
10791SOL    HW133272   6.815   5.860   2.399
10791SOL    HW233273   6.776   5.966   2.282
10792SOL     OW33274   3.284   2.900   5.354
10792SOL    HW133275   3.354   2.862   5.293
10792SOL    HW233276   3.217   2.829   5.377
10793SOL     OW33277   6.094   3.926   5.745
10793SOL    HW133278   6.111   4.021   5.770
10793SOL    HW233279   6.045   3.880   5.819
10794SOL     OW33280   3.771   3.383   4.026
10794SOL    HW133281   3.829   3.422   4.098
10794SOL    HW233282   3.686   3.436   4.020
10795SOL     OW33283   0.689   5.409   2.913
10795SOL    HW133284   0.782   5.416   2.950
10795SOL    HW233285   0.661   5.498   2.876
10796SOL     OW33286   6.575   6.701   5.492
10796SOL    HW133287   6.519   6.733   5.569
10796SOL    HW233288   6.519   6.702   5.408
10797SOL     OW33289   3.780   3.287   0.885
10797SOL    HW133290   3.683   3.262   0.882
10797SOL    HW233291   3.813   3.283   0.979
10798SOL     OW33292   2.341   1.784   0.622
10798SOL    HW133293   2.397   1.702   0.636
10798SOL    HW233294   2.380   1.838   0.548
10799SOL     OW33295   4.577   0.755   2.450
10799SOL    HW133296   4.676   0.774   2.455
10799SOL    HW233297   4.555   0.719   2.360
10800SOL     OW33298   0.752   6.295   6.448
10800SOL    HW133299   0.707   6.206   6.457
10800SOL    HW233300   0.782   6.307   6.353
10801SOL     OW33301   1.225   6.650   1.102
10801SOL    HW133302   1.137   6.637   1.058
10801SOL    HW233303   1.219   6.622   1.198
10802SOL     OW33304   0.216   6.540   2.702
10802SOL    HW133305   0.171   6.457   2.735
10802SOL    HW233306   0.172   6.571   2.618
10803SOL     OW33307   1.796   5.672   6.401
10803SOL    HW133308   1.750   5.621   6.474
10803SOL    HW233309   1.729   5.705   6.335
10804SOL     OW33310   6.825   2.777   3.371
10804SOL    HW133311   6.814   2.876   3.357
10804SOL    HW233312   6.739   2.731   3.347
10805SOL     OW33313   5.692   1.025   5.605
10805SOL    HW133314   5.686   1.122   5.578
10805SOL    HW233315   5.614   1.001   5.662
10806SOL     OW33316   3.626   5.013   6.554
10806SOL    HW133317   3.668   4.943   6.612
10806SOL    HW233318   3.690   5.038   6.481
10807SOL     OW33319   1.327   5.109   4.082
10807SOL    HW133320   1.250   5.157   4.125
10807SOL    HW233321   1.412   5.155   4.106
10808SOL     OW33322   0.436   2.772   6.309
10808SOL    HW133323   0.528   2.810   6.300
10808SOL    HW233324   0.420   2.747   6.405
10809SOL     OW33325   1.554   4.252   4.203
10809SOL    HW133326   1.479   4.313   4.226
10809SOL    HW233327   1.626   4.259   4.273
10810SOL     OW33328   6.656   0.174   3.389
10810SOL    HW133329   6.565   0.162   3.351
10810SOL    HW233330   6.682   0.271   3.383
10811SOL     OW33331   4.733   5.036   4.404
10811SOL    HW133332   4.824   4.995   4.413
10811SOL    HW233333   4.666   4.976   4.447
10812SOL     OW33334   6.625   3.460   6.732
10812SOL    HW133335   6.673   3.378   6.764
10812SOL    HW233336   6.526   3.445   6.738
10813SOL     OW33337   0.178   3.326   6.217
10813SOL    HW133338   0.149   3.232   6.198
10813SOL    HW233339   0.243   3.326   6.293
10814SOL     OW33340   2.567   0.386   0.864
10814SOL    HW133341   2.475   0.420   0.846
10814SOL    HW233342   2.562   0.293   0.900
10815SOL     OW33343   5.473   1.650   3.113
10815SOL    HW133344   5.420   1.565   3.112
10815SOL    HW233345   5.412   1.726   3.133
10816SOL     OW33346   3.652   3.048   2.853
10816SOL    HW133347   3.584   3.000   2.909
10816SOL    HW233348   3.721   2.983   2.822
10817SOL     OW33349   3.075   0.639   3.344
10817SOL    HW133350   3.075   0.540   3.357
10817SOL    HW233351   3.159   0.666   3.295
10818SOL     OW33352   4.782   5.133   5.684
10818SOL    HW133353   4.684   5.147   5.699
10818SOL    HW233354   4.834   5.181   5.754
10819SOL     OW33355   6.273   5.600   6.069
10819SOL    HW133356   6.328   5.543   6.130
10819SOL    HW233357   6.208   5.544   6.019
10820SOL     OW33358   0.291   5.667   5.131
10820SOL    HW133359   0.384   5.702   5.127
10820SOL    HW233360   0.292   5.568   5.116
10821SOL     OW33361   4.484   6.061   2.951
10821SOL    HW133362   4.482   6.032   2.856
10821SOL    HW233363   4.404   6.026   2.999
10822SOL     OW33364   5.469   1.943   0.990
10822SOL    HW133365   5.569   1.936   0.994
10822SOL    HW233366   5.440   1.947   0.894
10823SOL     OW33367   0.323   0.086   3.629
10823SOL    HW133368   0.410   0.130   3.651
10823SOL    HW233369   0.287   0.125   3.544
10824SOL     OW33370   1.016   1.364   3.018
10824SOL    HW133371   0.938   1.376   3.078
10824SOL    HW233372   0.986   1.365   2.922
10825SOL     OW33373   1.228   2.525   0.553
10825SOL    HW133374   1.261   2.593   0.487
10825SOL    HW233375   1.304   2.467   0.581
10826SOL     OW33376   0.748   2.115   2.695
10826SOL    HW133377   0.838   2.089   2.659
10826SOL    HW233378   0.737   2.078   2.787
10827SOL     OW33379   6.514   3.339   4.915
10827SOL    HW133380   6.432   3.364   4.865
10827SOL    HW233381   6.521   3.394   4.998
10828SOL     OW33382   6.515   3.815   0.004
10828SOL    HW133383   6.474   3.744   0.060
10828SOL    HW233384   6.596   3.778   6.981
10829SOL     OW33385   4.698   3.405   0.162
10829SOL    HW133386   4.765   3.338   0.193
10829SOL    HW233387   4.742   3.493   0.147
10830SOL     OW33388   4.640   1.581   3.775
10830SOL    HW133389   4.703   1.528   3.832
10830SOL    HW233390   4.594   1.650   3.832
10831SOL     OW33391   4.058   0.658   2.066
10831SOL    HW133392   3.974   0.608   2.047
10831SOL    HW233393   4.041   0.727   2.137
10832SOL     OW33394   6.776   3.235   6.825
10832SOL    HW133395   6.726   3.179   6.891
10832SOL    HW233396   6.844   3.178   6.779
10833SOL     OW33397   0.114   2.617   1.298
10833SOL    HW133398   0.108   2.533   1.244
10833SOL    HW233399   0.203   2.659   1.284
10834SOL     OW33400   6.371   0.908   1.125
10834SOL    HW133401   6.304   0.840   1.155
10834SOL    HW233402   6.322   0.986   1.084
10835SOL     OW33403   5.007   3.478   0.767
10835SOL    HW133404   5.015   3.561   0.822
10835SOL    HW233405   5.072   3.410   0.800
10836SOL     OW33406   1.241   0.480   2.564
10836SOL    HW133407   1.298   0.399   2.578
10836SOL    HW233408   1.175   0.461   2.491
10837SOL     OW33409   6.170   4.588   2.070
10837SOL    HW133410   6.222   4.672   2.055
10837SOL    HW233411   6.087   4.590   2.014
10838SOL     OW33412   5.349   6.716   3.726
10838SOL    HW133413   5.344   6.795   3.665
10838SOL    HW233414   5.387   6.638   3.677
10839SOL     OW33415   4.638   3.499   0.484
10839SOL    HW133416   4.712   3.560   0.455
10839SOL    HW233417   4.651   3.474   0.580
10840SOL     OW33418   3.352   0.706   1.894
10840SOL    HW133419   3.434   0.762   1.880
10840SOL    HW233420   3.338   0.692   1.992
10841SOL     OW33421   6.386   5.250   4.883
10841SOL    HW133422   6.475   5.265   4.840
10841SOL    HW233423   6.395   5.180   4.954
10842SOL     OW33424   4.244   3.051   1.748
10842SOL    HW133425   4.173   2.985   1.723
10842SOL    HW233426   4.202   3.124   1.803
10843SOL     OW33427   1.997   1.579   0.998
10843SOL    HW133428   1.946   1.581   1.085
10843SOL    HW233429   1.935   1.602   0.923
10844SOL     OW33430   0.448   5.965   4.369
10844SOL    HW133431   0.414   6.018   4.291
10844SOL    HW233432   0.409   6.003   4.453
10845SOL     OW33433   4.585   5.735   4.827
10845SOL    HW133434   4.526   5.717   4.749
10845SOL    HW233435   4.638   5.653   4.849
10846SOL     OW33436   5.805   6.334   6.782
10846SOL    HW133437   5.779   6.237   6.788
10846SOL    HW233438   5.905   6.341   6.777
10847SOL     OW33439   2.194   1.721   0.164
10847SOL    HW133440   2.138   1.738   0.245
10847SOL    HW233441   2.291   1.733   0.187
10848SOL     OW33442   0.732   3.780   1.365
10848SOL    HW133443   0.718   3.684   1.390
10848SOL    HW233444   0.649   3.816   1.322
10849SOL     OW33445   3.033   4.831   4.227
10849SOL    HW133446   2.954   4.812   4.169
10849SOL    HW233447   3.002   4.873   4.312
10850SOL     OW33448   4.198   6.329   0.125
10850SOL    HW133449   4.163   6.267   0.055
10850SOL    HW233450   4.291   6.301   0.151
10851SOL     OW33451   2.787   4.066   1.486
10851SOL    HW133452   2.779   4.144   1.424
10851SOL    HW233453   2.697   4.023   1.496
10852SOL     OW33454   2.186   1.485   0.463
10852SOL    HW133455   2.241   1.491   0.379
10852SOL    HW233456   2.221   1.411   0.520
10853SOL     OW33457   2.360   2.985   6.111
10853SOL    HW133458   2.401   2.907   6.065
10853SOL    HW233459   2.381   2.982   6.208
10854SOL     OW33460   4.402   5.452   4.920
10854SOL    HW133461   4.310   5.414   4.915
10854SOL    HW233462   4.456   5.401   4.987
10855SOL     OW33463   3.738   0.861   0.421
10855SOL    HW133464   3.641   0.852   0.444
10855SOL    HW233465   3.756   0.817   0.333
10856SOL     OW33466   6.843   0.577   6.227
10856SOL    HW133467   6.752   0.613   6.245
10856SOL    HW233468   6.837   0.481   6.201
10857SOL     OW33469   0.128   1.784   2.540
10857SOL    HW133470   0.156   1.850   2.609
10857SOL    HW233471   0.140   1.824   2.449
10858SOL     OW33472   2.112   6.093   1.454
10858SOL    HW133473   2.084   6.104   1.549
10858SOL    HW233474   2.165   6.009   1.445
10859SOL     OW33475   7.007   4.853   4.545
10859SOL    HW133476   6.973   4.946   4.555
10859SOL    HW233477   0.046   4.848   4.467
10860SOL     OW33478   6.883   3.797   3.425
10860SOL    HW133479   6.786   3.779   3.408
10860SOL    HW233480   6.924   3.718   3.470
10861SOL     OW33481   2.978   3.246   3.385
10861SOL    HW133482   2.984   3.291   3.474
10861SOL    HW233483   3.061   3.191   3.371
10862SOL     OW33484   1.885   0.903   5.946
10862SOL    HW133485   1.971   0.954   5.952
10862SOL    HW233486   1.810   0.962   5.976
10863SOL     OW33487   2.086   6.873   4.391
10863SOL    HW133488   2.039   6.881   4.303
10863SOL    HW233489   2.047   6.938   4.456
10864SOL     OW33490   2.930   6.593   1.917
10864SOL    HW133491   2.995   6.548   1.855
10864SOL    HW233492   2.922   6.541   2.001
10865SOL     OW33493   6.636   1.202   6.916
10865SOL    HW133494   6.707   1.227   6.982
10865SOL    HW233495   6.665   1.230   6.824
10866SOL     OW33496   5.138   4.903   6.600
10866SOL    HW133497   5.159   4.848   6.518
10866SOL    HW233498   5.218   4.959   6.623
10867SOL     OW33499   3.000   4.714   0.656
10867SOL    HW133500   3.070   4.693   0.725
10867SOL    HW233501   3.043   4.764   0.580
10868SOL     OW33502   4.855   1.843   3.532
10868SOL    HW133503   4.906   1.815   3.614
10868SOL    HW233504   4.761   1.812   3.539
10869NA      NA33505   6.200   2.150   5.647
10870NA      NA33506   4.338   4.729   5.095
10871NA      NA33507   1.716   3.422   1.606
10872NA      NA33508   4.902   3.652   5.459
10873NA      NA33509   4.155   2.218   4.927
10874NA      NA33510   3.714   4.661   1.676
10875NA      NA33511   6.552   5.425   5.453
10876NA      NA33512   3.523   3.300   4.626
10877NA      NA33513   4.971   6.557   6.841
10878NA      NA33514   3.417   6.653   5.536
10879NA      NA33515   6.530   5.054   2.427
10880NA      NA33516   2.523   0.748   3.747
10881NA      NA33517   3.895   5.305   1.130
10882NA      NA33518   3.620   3.579   2.430
   7.02355   7.02355   7.02355
